       N       E                     dE             d eps       ncg     rms          rms(c)
DAV:   1     0.963857573662E+03    0.96386E+03   -0.37522E+04  4344   0.201E+03
DAV:   2     0.403147566508E+03   -0.56071E+03   -0.53737E+03  5040   0.514E+02
DAV:   3     0.369540397624E+03   -0.33607E+02   -0.33298E+02  4836   0.135E+02
DAV:   4     0.369126321448E+03   -0.41408E+00   -0.41374E+00  5124   0.163E+01
DAV:   5     0.369119352452E+03   -0.69690E-02   -0.69688E-02  4956   0.196E+00    0.588E+01
DAV:   6    -0.688129750656E+02   -0.43793E+03   -0.28359E+02  5208   0.213E+02    0.629E+01
DAV:   7    -0.714447324162E+02   -0.26318E+01   -0.50469E+01  4512   0.454E+01    0.172E+01
DAV:   8    -0.686364299222E+02    0.28083E+01   -0.71467E+00  5316   0.218E+01    0.648E+00
DAV:   9    -0.681684724750E+02    0.46796E+00   -0.48501E+00  5064   0.188E+01    0.812E+00
DAV:  10    -0.680979555529E+02    0.70517E-01   -0.43357E-01  4680   0.577E+00    0.582E+00
DAV:  11    -0.680743074986E+02    0.23648E-01   -0.10492E+00  5148   0.741E+00    0.193E+00
DAV:  12    -0.680372999307E+02    0.37008E-01   -0.99867E-02  5484   0.318E+00    0.129E+00
DAV:  13    -0.680293726488E+02    0.79273E-02   -0.73482E-02  5028   0.160E+00    0.109E+00
DAV:  14    -0.680243858408E+02    0.49868E-02   -0.50727E-02  4332   0.254E+00    0.413E-01
DAV:  15    -0.680251778521E+02   -0.79201E-03   -0.39775E-03  4548   0.424E-01    0.390E-01
DAV:  16    -0.680245839441E+02    0.59391E-03   -0.25726E-03  4488   0.375E-01    0.145E-01
DAV:  17    -0.680244524564E+02    0.13149E-03   -0.26065E-03  4872   0.366E-01    0.100E-01
DAV:  18    -0.680242783782E+02    0.17408E-03   -0.10448E-04  4440   0.775E-02    0.348E-02
DAV:  19    -0.680242856578E+02   -0.72797E-05   -0.84671E-05  5172   0.560E-02    0.550E-03
DAV:  20    -0.680242954615E+02   -0.98036E-05   -0.58163E-06  4620   0.163E-02    0.567E-03
DAV:  21    -0.680242997851E+02   -0.43237E-05   -0.70398E-07  2352   0.659E-03    0.293E-03
DAV:  22    -0.680243009597E+02   -0.11746E-05   -0.58993E-07  2160   0.477E-03    0.161E-03
DAV:  23    -0.680243012388E+02   -0.27912E-06   -0.20670E-07  2160   0.357E-03
   1 F= -.68024301E+02 E0= -.68024301E+02  d E =-.444345E-14  mag=     0.0000
