 vasp.5.4.4.18Apr17-6-g9f103f2a35 (build Apr 27 2017 11:13:10) complex          
  
 executed on           IFC91_ompi date 2020.05.13  12:47:50
 running on   12 total cores
 distrk:  each k-point on   12 cores,    1 groups
 distr:  one band on NCORES_PER_BAND=   1 cores,   12 groups


--------------------------------------------------------------------------------------------------------


 INCAR:
 POTCAR:    PAW_PBE Mn_pv 02Aug2007               
 POTCAR:    PAW_PBE F 08Apr2002                   

 ----------------------------------------------------------------------------- 
|                                                                             |
|           W    W    AA    RRRRR   N    N  II  N    N   GGGG   !!!           |
|           W    W   A  A   R    R  NN   N  II  NN   N  G    G  !!!           |
|           W    W  A    A  R    R  N N  N  II  N N  N  G       !!!           |
|           W WW W  AAAAAA  RRRRR   N  N N  II  N  N N  G  GGG   !            |
|           WW  WW  A    A  R   R   N   NN  II  N   NN  G    G                |
|           W    W  A    A  R    R  N    N  II  N    N   GGGG   !!!           |
|                                                                             |
|      For optimal performance we recommend to set                            |
|        NCORE= 4 - approx SQRT( number of cores)                             |
|      NCORE specifies how many cores store one orbital (NPAR=cpu/NCORE).     |
|      This setting can  greatly improve the performance of VASP for DFT.     |
|      The default,   NCORE=1            might be grossly inefficient         |
|      on modern multi-core architectures or massively parallel machines.     |
|      Do your own testing !!!!                                               |
|      Unfortunately you need to use the default for GW and RPA calculations. |
|      (for HF NCORE is supported but not extensively tested yet)             |
|                                                                             |
 ----------------------------------------------------------------------------- 

 POTCAR:    PAW_PBE Mn_pv 02Aug2007               
   VRHFIN =Mn: 3p4s3d                                                           
   LEXCH  = PE                                                                  
   EATOM  =  2025.2664 eV,  148.8529 Ry                                         
                                                                                
   TITEL  = PAW_PBE Mn_pv 02Aug2007                                             
   LULTRA =        F    use ultrasoft PP ?                                      
   IUNSCR =        1    unscreen: 0-lin 1-nonlin 2-no                           
   RPACOR =    2.080    partial core radius                                     
   POMASS =   54.938; ZVAL   =   13.000    mass and valenz                      
   RCORE  =    2.300    outmost cutoff radius                                   
   RWIGS  =    2.500; RWIGS  =    1.323    wigner-seitz radius (au A)           
   ENMAX  =  269.864; ENMIN  =  202.398 eV                                      
   ICORE  =        3    local potential                                         
   LCOR   =        T    correct aug charges                                     
   LPAW   =        T    paw PP                                                  
   EAUG   =  569.085                                                            
   DEXC   =    0.000                                                            
   RMAX   =    2.343    core radius for proj-oper                               
   RAUG   =    1.300    factor for augmentation sphere                          
   RDEP   =    2.338    radius for radial grids                                 
   RDEPT  =    1.798    core radius for aug-charge                              
                                                                                
   Atomic configuration                                                         
    8 entries                                                                   
     n  l   j            E        occ.                                          
     1  0  0.50     -6424.8287   2.0000                                         
     2  0  0.50      -739.1154   2.0000                                         
     2  1  1.50      -625.3949   6.0000                                         
     3  0  0.50       -81.6100   2.0000                                         
     3  1  1.50       -50.4667   6.0000                                         
     3  2  2.50        -3.3745   6.0000                                         
     4  0  0.50        -4.1331   1.0000                                         
     4  3  2.50        -1.3606   0.0000                                         
   Description                                                                  
     l       E           TYP  RCUT    TYP  RCUT                                 
     1    -50.4666628     23  2.000                                             
     1     -1.3605826     23  2.000                                             
     2     -3.3744729     23  2.300                                             
     2     -4.7350555     23  2.300                                             
     0     -4.1331431     23  2.300                                             
     0      7.6656591     23  2.300                                             
     3      9.5240782     23  2.300                                             
  local pseudopotential read in
  partial core-charges read in
  partial kinetic energy density read in
  atomic valenz-charges read in
  non local Contribution for L=           1  read in
    real space projection operators read in
  non local Contribution for L=           1  read in
    real space projection operators read in
  non local Contribution for L=           2  read in
    real space projection operators read in
  non local Contribution for L=           2  read in
    real space projection operators read in
  non local Contribution for L=           0  read in
    real space projection operators read in
  non local Contribution for L=           0  read in
    real space projection operators read in
    PAW grid and wavefunctions read in
 
   number of l-projection  operators is LMAX  =           6
   number of lm-projection operators is LMMAX =          18
 
 POTCAR:    PAW_PBE F 08Apr2002                   
   VRHFIN =F: s2p5                                                              
   LEXCH  = PE                                                                  
   EATOM  =   659.6475 eV,   48.4827 Ry                                         
                                                                                
   TITEL  = PAW_PBE F 08Apr2002                                                 
   LULTRA =        F    use ultrasoft PP ?                                      
   IUNSCR =        1    unscreen: 0-lin 1-nonlin 2-no                           
   RPACOR =    1.200    partial core radius                                     
   POMASS =   18.998; ZVAL   =    7.000    mass and valenz                      
   RCORE  =    1.520    outmost cutoff radius                                   
   RWIGS  =    1.500; RWIGS  =    0.794    wigner-seitz radius (au A)           
   ENMAX  =  400.000; ENMIN  =  300.000 eV                                      
   ICORE  =        2    local potential                                         
   LCOR   =        T    correct aug charges                                     
   LPAW   =        T    paw PP                                                  
   EAUG   =  613.614                                                            
   RMAX   =    1.555    core radius for proj-oper                               
   RAUG   =    1.300    factor for augmentation sphere                          
   RDEP   =    1.539    radius for radial grids                                 
   RDEPT  =    1.299    core radius for aug-charge                              
                                                                                
   Atomic configuration                                                         
    4 entries                                                                   
     n  l   j            E        occ.                                          
     1  0  0.50      -663.3661   2.0000                                         
     2  0  0.50       -29.8995   2.0000                                         
     2  1  0.50       -11.1114   5.0000                                         
     3  2  1.50       -10.8847   0.0000                                         
   Description                                                                  
     l       E           TYP  RCUT    TYP  RCUT                                 
     0    -29.8995018     23  1.200                                             
     0     -9.5240782     23  1.200                                             
     1    -11.1113914     23  1.520                                             
     1      1.3605826     23  1.520                                             
     2    -10.8846608      7  1.500                                             
  local pseudopotential read in
  partial core-charges read in
  partial kinetic energy density read in
  atomic valenz-charges read in
  non local Contribution for L=           0  read in
    real space projection operators read in
  non local Contribution for L=           0  read in
    real space projection operators read in
  non local Contribution for L=           1  read in
    real space projection operators read in
  non local Contribution for L=           1  read in
    real space projection operators read in
    PAW grid and wavefunctions read in
 
   number of l-projection  operators is LMAX  =           4
   number of lm-projection operators is LMMAX =           8
 
  PAW_PBE Mn_pv 02Aug2007               :
 energy of atom  1       EATOM=-2025.2664
 kinetic energy error for atom=    0.0047 (will be added to EATOM!!)
  PAW_PBE F 08Apr2002                   :
 energy of atom  2       EATOM= -659.6475
 kinetic energy error for atom=    0.0256 (will be added to EATOM!!)
 
 
 POSCAR: Mn  F                                   
  positions in cartesian coordinates
  No initial velocities read in

 METAGGA = SCAN     LMAXTAU =  6    LMIXTAU =  F

 exchange correlation table for  LEXCH =        8
   RHO(1)=    0.500       N(1)  =     2000
   RHO(2)=  100.500       N(2)  =     4000
 


--------------------------------------------------------------------------------------------------------


 ion  position               nearest neighbor table
   1  0.500  0.500  0.500-   3 2.09   4 2.09   5 2.12   6 2.12   5 2.12   6 2.12
   2  0.000  0.000  0.000-   5 2.09   6 2.09   3 2.12   4 2.12   3 2.12   4 2.12
   3  0.196  0.804  0.500-   1 2.09   2 2.12   2 2.12
   4  0.804  0.196  0.500-   1 2.09   2 2.12   2 2.12
   5  0.304  0.304  0.000-   2 2.09   1 2.12   1 2.12
   6  0.696  0.696  0.000-   2 2.09   1 2.12   1 2.12
 
  LATTYP: Found a simple tetragonal cell.
 ALAT       =     4.8525685001
 C/A-ratio  =     0.6775817662
  
  Lattice vectors:
  
 A1 = (   4.8525685001,   0.0000000000,   0.0000000000)
 A2 = (   0.0000000000,   4.8525685001,   0.0000000000)
 A3 = (   0.0000000000,   0.0000000000,   3.2880119349)


Analysis of symmetry for initial positions (statically):
=====================================================================
 Subroutine PRICEL returns:
 Original cell was already a primitive cell.
 

 Routine SETGRP: Setting up the symmetry group for a 
 simple tetragonal supercell.


 Subroutine GETGRP returns: Found 16 space group operations
 (whereof  8 operations were pure point group operations)
 out of a pool of 16 trial point group operations.


The static configuration has the point symmetry D_2h.
 The point group associated with its full space group is D_4h.


Analysis of symmetry for dynamics (positions and initial velocities):
=====================================================================
 Subroutine PRICEL returns:
 Original cell was already a primitive cell.
 

 Routine SETGRP: Setting up the symmetry group for a 
 simple tetragonal supercell.


 Subroutine GETGRP returns: Found 16 space group operations
 (whereof  8 operations were pure point group operations)
 out of a pool of 16 trial point group operations.


The dynamic configuration has the point symmetry D_2h.
 The point group associated with its full space group is D_4h.


Analysis of structural, dynamic, and magnetic symmetry:
=====================================================================
 Subroutine PRICEL returns:
 Original cell was already a primitive cell.
 

 Routine SETGRP: Setting up the symmetry group for a 
 simple tetragonal supercell.


 Subroutine GETGRP returns: Found 16 space group operations
 (whereof  8 operations were pure point group operations)
 out of a pool of 16 trial point group operations.


The magnetic configuration has the point symmetry D_2h.
 The point group associated with its full space group is D_4h.


 Subroutine INISYM returns: Found 16 space group operations
 (whereof  8 operations are pure point group operations),
 and found     1 'primitive' translations

 
 
 KPOINTS: KPOINTS created by Atomic Simulation Env

Automatic generation of k-mesh.
Space group operators:
 irot       det(A)        alpha          n_x          n_y          n_z        tau_x        tau_y        tau_z
    1     1.000000     0.000000     1.000000     0.000000     0.000000     0.000000     0.000000     0.000000
    2    -1.000000     0.000000     1.000000     0.000000     0.000000     0.000000     0.000000     0.000000
    3     1.000000   180.000000     0.000000     0.000000     1.000000     0.000000     0.000000     0.000000
    4    -1.000000   180.000000     0.000000     0.000000     1.000000     0.000000     0.000000     0.000000
    5     1.000000   180.000000     0.707107     0.707107     0.000000     0.000000     0.000000     0.000000
    6    -1.000000   180.000000     0.707107     0.707107     0.000000     0.000000     0.000000     0.000000
    7     1.000000   180.000000     0.707107    -0.707107     0.000000     0.000000     0.000000     0.000000
    8    -1.000000   180.000000     0.707107    -0.707107     0.000000     0.000000     0.000000     0.000000
    9     1.000000    90.000000     0.000000     0.000000    -1.000000     0.500000     0.500000     0.500000
   10    -1.000000    90.000000     0.000000     0.000000    -1.000000     0.500000     0.500000     0.500000
   11     1.000000    90.000000     0.000000     0.000000     1.000000     0.500000     0.500000     0.500000
   12    -1.000000    90.000000     0.000000     0.000000     1.000000     0.500000     0.500000     0.500000
   13     1.000000   180.000000     0.000000     1.000000     0.000000     0.500000     0.500000     0.500000
   14    -1.000000   180.000000     0.000000     1.000000     0.000000     0.500000     0.500000     0.500000
   15     1.000000   180.000000     1.000000     0.000000     0.000000     0.500000     0.500000     0.500000
   16    -1.000000   180.000000     1.000000     0.000000     0.000000     0.500000     0.500000     0.500000
 
 Subroutine IBZKPT returns following result:
 ===========================================
 
 Found     30 irreducible k-points:
 
 Following reciprocal coordinates:
            Coordinates               Weight
  0.083333  0.083333  0.000000      4.000000
  0.250000  0.083333  0.000000      8.000000
  0.416667  0.083333  0.000000      8.000000
  0.250000  0.250000  0.000000      4.000000
  0.416667  0.250000  0.000000      8.000000
  0.416667  0.416667  0.000000      4.000000
  0.083333  0.083333  0.111111      8.000000
  0.250000  0.083333  0.111111     16.000000
  0.416667  0.083333  0.111111     16.000000
  0.250000  0.250000  0.111111      8.000000
  0.416667  0.250000  0.111111     16.000000
  0.416667  0.416667  0.111111      8.000000
  0.083333  0.083333  0.222222      8.000000
  0.250000  0.083333  0.222222     16.000000
  0.416667  0.083333  0.222222     16.000000
  0.250000  0.250000  0.222222      8.000000
  0.416667  0.250000  0.222222     16.000000
  0.416667  0.416667  0.222222      8.000000
  0.083333  0.083333  0.333333      8.000000
  0.250000  0.083333  0.333333     16.000000
  0.416667  0.083333  0.333333     16.000000
  0.250000  0.250000  0.333333      8.000000
  0.416667  0.250000  0.333333     16.000000
  0.416667  0.416667  0.333333      8.000000
  0.083333  0.083333  0.444444      8.000000
  0.250000  0.083333  0.444444     16.000000
  0.416667  0.083333  0.444444     16.000000
  0.250000  0.250000  0.444444      8.000000
  0.416667  0.250000  0.444444     16.000000
  0.416667  0.416667  0.444444      8.000000
 
 Following cartesian coordinates:
            Coordinates               Weight
  0.017173  0.017173  0.000000      4.000000
  0.051519  0.017173  0.000000      8.000000
  0.085865  0.017173  0.000000      8.000000
  0.051519  0.051519  0.000000      4.000000
  0.085865  0.051519  0.000000      8.000000
  0.085865  0.085865  0.000000      4.000000
  0.017173  0.017173  0.033793      8.000000
  0.051519  0.017173  0.033793     16.000000
  0.085865  0.017173  0.033793     16.000000
  0.051519  0.051519  0.033793      8.000000
  0.085865  0.051519  0.033793     16.000000
  0.085865  0.085865  0.033793      8.000000
  0.017173  0.017173  0.067586      8.000000
  0.051519  0.017173  0.067586     16.000000
  0.085865  0.017173  0.067586     16.000000
  0.051519  0.051519  0.067586      8.000000
  0.085865  0.051519  0.067586     16.000000
  0.085865  0.085865  0.067586      8.000000
  0.017173  0.017173  0.101378      8.000000
  0.051519  0.017173  0.101378     16.000000
  0.085865  0.017173  0.101378     16.000000
  0.051519  0.051519  0.101378      8.000000
  0.085865  0.051519  0.101378     16.000000
  0.085865  0.085865  0.101378      8.000000
  0.017173  0.017173  0.135171      8.000000
  0.051519  0.017173  0.135171     16.000000
  0.085865  0.017173  0.135171     16.000000
  0.051519  0.051519  0.135171      8.000000
  0.085865  0.051519  0.135171     16.000000
  0.085865  0.085865  0.135171      8.000000
 


--------------------------------------------------------------------------------------------------------




 Dimension of arrays:
   k-points           NKPTS =     30   k-points in BZ     NKDIM =     30   number of bands    NBANDS=     36
   number of dos      NEDOS =    301   number of ions     NIONS =      6
   non local maximal  LDIM  =      6   non local SUM 2l+1 LMDIM =     18
   total plane-waves  NPLWV =  18000
   max r-space proj   IRMAX =      1   max aug-charges    IRDMAX=  56627
   dimension x,y,z NGX =    30 NGY =   30 NGZ =   20
   dimension x,y,z NGXF=    60 NGYF=   60 NGZF=   40
   support grid    NGXF=   120 NGYF=  120 NGZF=   80
   ions per type =               2   4
   NGX,Y,Z   is equivalent  to a cutoff of  10.28, 10.28, 10.11 a.u.
   NGXF,Y,Z  is equivalent  to a cutoff of  20.56, 20.56, 20.22 a.u.

 SYSTEM =  unknown system                          
 POSCAR =  Mn  F                                   

 Startparameter for this run:
   NWRITE =      2    write-flag & timer
   PREC   = normal    normal or accurate (medium, high low for compatibility)
   ISTART =      0    job   : 0-new  1-cont  2-samecut
   ICHARG =      2    charge: 1-file 2-atom 10-const
   ISPIN  =      2    spin polarized calculation?
   LNONCOLLINEAR =      F non collinear calculations
   LSORBIT =      F    spin-orbit coupling
   INIWAV =      1    electr: 0-lowe 1-rand  2-diag
   LASPH  =      T    aspherical Exc in radial PAW
   METAGGA=      F    non-selfconsistent MetaGGA calc.

 Electronic Relaxation 1
   ENCUT  =  600.0 eV  44.10 Ry    6.64 a.u.   9.69  9.69  6.57*2*pi/ulx,y,z
   ENINI  =  600.0     initial cutoff
   ENAUG  =  613.6 eV  augmentation charge cutoff
   NELM   =     60;   NELMIN=  2; NELMDL= -5     # of ELM steps 
   EDIFF  = 0.1E-05   stopping-criterion for ELM
   LREAL  =      F    real-space projection
   NLSPLINE    = F    spline interpolate recip. space projectors
   LCOMPAT=      F    compatible to vasp.4.4
   GGA_COMPAT  = T    GGA compatible to vasp.4.4-vasp.4.6
   LMAXPAW     = -100 max onsite density
   LMAXMIX     =    4 max onsite mixed and CHGCAR
   VOSKOWN=      0    Vosko Wilk Nusair interpolation
   ROPT   =    0.00000   0.00000
 Ionic relaxation
   EDIFFG = 0.1E-04   stopping-criterion for IOM
   NSW    =      0    number of steps for IOM
   NBLOCK =      1;   KBLOCK =      1    inner block; outer block 
   IBRION =     -1    ionic relax: 0-MD 1-quasi-New 2-CG
   NFREE  =      0    steps in history (QN), initial steepest desc. (CG)
   ISIF   =      2    stress and relaxation
   IWAVPR =     10    prediction:  0-non 1-charg 2-wave 3-comb
   ISYM   =      2    0-nonsym 1-usesym 2-fastsym
   LCORR  =      T    Harris-Foulkes like correction to forces

   POTIM  = 0.5000    time-step for ionic-motion
   TEIN   =    0.0    initial temperature
   TEBEG  =    0.0;   TEEND  =   0.0 temperature during run
   SMASS  =  -3.00    Nose mass-parameter (am)
   estimated Nose-frequenzy (Omega)   =  0.10E-29 period in steps =****** mass=  -0.538E-27a.u.
   SCALEE = 1.0000    scale energy and forces
   NPACO  =    256;   APACO  = 16.0  distance and # of slots for P.C.
   PSTRESS=    0.0 pullay stress

  Mass of Ions in am
   POMASS =  54.94 19.00
  Ionic Valenz
   ZVAL   =  13.00  7.00
  Atomic Wigner-Seitz radii
   RWIGS  =  -1.00 -1.00
  virtual crystal weights 
   VCA    =   1.00  1.00
   NELECT =      54.0000    total number of electrons
   NUPDOWN=      -1.0000    fix difference up-down

 DOS related values:
   EMIN   =  10.00;   EMAX   =-10.00  energy-range for DOS
   EFERMI =   0.00
   ISMEAR =     0;   SIGMA  =   0.01  broadening in eV -4-tet -1-fermi 0-gaus

 Electronic relaxation 2 (details)
   IALGO  =     38    algorithm
   LDIAG  =      T    sub-space diagonalisation (order eigenvalues)
   LSUBROT=      F    optimize rotation matrix (better conditioning)
   TURBO    =      0    0=normal 1=particle mesh
   IRESTART =      0    0=no restart 2=restart with 2 vectors
   NREBOOT  =      0    no. of reboots
   NMIN     =      0    reboot dimension
   EREF     =   0.00    reference energy to select bands
   IMIX   =      4    mixing-type and parameters
     AMIX     =   0.40;   BMIX     =  1.00
     AMIX_MAG =   1.60;   BMIX_MAG =  1.00
     AMIN     =   0.10
     WC   =   100.;   INIMIX=   1;  MIXPRE=   1;  MAXMIX= -45

 Intra band minimization:
   WEIMIN = 0.0000     energy-eigenvalue tresh-hold
   EBREAK =  0.69E-08  absolut break condition
   DEPER  =   0.30     relativ break condition  

   TIME   =   0.40     timestep for ELM

  volume/ion in A,a.u.               =      12.90        87.08
  Fermi-wavevector in a.u.,A,eV,Ry     =   1.451824  2.743549 28.678246  2.107792
  Thomas-Fermi vector in A             =   2.569276
 
 Write flags
   LWAVE        =      T    write WAVECAR
   LDOWNSAMPLE  =      F    k-point downsampling of WAVECAR
   LCHARG       =      T    write CHGCAR
   LVTOT        =      F    write LOCPOT, total local potential
   LVHAR        =      F    write LOCPOT, Hartree potential only
   LELF         =      F    write electronic localiz. function (ELF)
   LORBIT       =     11    0 simple, 1 ext, 2 COOP (PROOUT), +10 PAW based schemes


 Dipole corrections
   LMONO  =      F    monopole corrections only (constant potential shift)
   LDIPOL =      F    correct potential (dipole corrections)
   IDIPOL =      0    1-x, 2-y, 3-z, 4-all directions 
   EPSILON=  1.0000000 bulk dielectric constant

 LDA+U is selected, type is set to LDAUTYPE =  2
   angular momentum for each species LDAUL =     2   -1
   U (eV)           for each species LDAUU =   0.0  0.0
   J (eV)           for each species LDAUJ =   0.0  0.0
 Exchange correlation treatment:
   GGA     =    --    GGA type
   LEXCH   =     8    internal setting for exchange type
   VOSKOWN=      0    Vosko Wilk Nusair interpolation
   LHFCALC =     F    Hartree Fock is set to
   LHFONE  =     F    Hartree Fock one center treatment
   AEXX    =    0.0000 exact exchange contribution

 Linear response parameters
   LEPSILON=     F    determine dielectric tensor
   LRPA    =     F    only Hartree local field effects (RPA)
   LNABLA  =     F    use nabla operator in PAW spheres
   LVEL    =     F    velocity operator in full k-point grid
   LINTERFAST=   F  fast interpolation
   KINTER  =     0    interpolate to denser k-point grid
   CSHIFT  =0.1000    complex shift for real part using Kramers Kronig
   OMEGAMAX=  -1.0    maximum frequency
   DEG_THRESHOLD= 0.2000000E-02 threshold for treating states as degnerate
   RTIME   =   -0.100 relaxation time in fs
  (WPLASMAI=    0.000 imaginary part of plasma frequency in eV, 0.658/RTIME)
   DFIELD  = 0.0000000 0.0000000 0.0000000 field for delta impulse in time
 
 Orbital magnetization related:
   ORBITALMAG=     F  switch on orbital magnetization
   LCHIMAG   =     F  perturbation theory with respect to B field
   DQ        =  0.001000  dq finite difference perturbation B field
   LLRAUG    =     F  two centre corrections for induced B field



--------------------------------------------------------------------------------------------------------


 Static calculation
 charge density and potential will be updated during run
 spin polarized calculation
 Variant of blocked Davidson
 Davidson routine will perform the subspace rotation
 perform sub-space diagonalisation
    after iterative eigenvector-optimisation
 modified Broyden-mixing scheme, WC =      100.0
 initial mixing is a Kerker type mixing with AMIX =  0.4000 and BMIX =      1.0000
 Hartree-type preconditioning will be used
 using additional bands            9
 reciprocal scheme for non local part
 use partial core corrections
 calculate Harris-corrections to forces 
   (improved forces if not selfconsistent)
 use gradient corrections 
 use of overlap-Matrix (Vanderbilt PP)
 Gauss-broadening in eV      SIGMA  =   0.01


--------------------------------------------------------------------------------------------------------


  energy-cutoff  :      600.00
  volume of cell :       77.42
      direct lattice vectors                 reciprocal lattice vectors
     4.852568500  0.000000000  0.000000000     0.206076431  0.000000000  0.000000000
     0.000000000  4.852568500  0.000000000     0.000000000  0.206076431  0.000000000
     0.000000000  0.000000000  3.288011935     0.000000000  0.000000000  0.304135149

  length of vectors
     4.852568500  4.852568500  3.288011935     0.206076431  0.206076431  0.304135149


 
 k-points in units of 2pi/SCALE and weight: KPOINTS created by Atomic Simulation Env
   0.01717304  0.01717304  0.00000000       0.012
   0.05151911  0.01717304  0.00000000       0.025
   0.08586518  0.01717304  0.00000000       0.025
   0.05151911  0.05151911  0.00000000       0.012
   0.08586518  0.05151911  0.00000000       0.025
   0.08586518  0.08586518  0.00000000       0.012
   0.01717304  0.01717304  0.03379279       0.025
   0.05151911  0.01717304  0.03379279       0.049
   0.08586518  0.01717304  0.03379279       0.049
   0.05151911  0.05151911  0.03379279       0.025
   0.08586518  0.05151911  0.03379279       0.049
   0.08586518  0.08586518  0.03379279       0.025
   0.01717304  0.01717304  0.06758559       0.025
   0.05151911  0.01717304  0.06758559       0.049
   0.08586518  0.01717304  0.06758559       0.049
   0.05151911  0.05151911  0.06758559       0.025
   0.08586518  0.05151911  0.06758559       0.049
   0.08586518  0.08586518  0.06758559       0.025
   0.01717304  0.01717304  0.10137838       0.025
   0.05151911  0.01717304  0.10137838       0.049
   0.08586518  0.01717304  0.10137838       0.049
   0.05151911  0.05151911  0.10137838       0.025
   0.08586518  0.05151911  0.10137838       0.049
   0.08586518  0.08586518  0.10137838       0.025
   0.01717304  0.01717304  0.13517118       0.025
   0.05151911  0.01717304  0.13517118       0.049
   0.08586518  0.01717304  0.13517118       0.049
   0.05151911  0.05151911  0.13517118       0.025
   0.08586518  0.05151911  0.13517118       0.049
   0.08586518  0.08586518  0.13517118       0.025
 
 k-points in reciprocal lattice and weights: KPOINTS created by Atomic Simulation Env
   0.08333333  0.08333333  0.00000000       0.012
   0.25000000  0.08333333  0.00000000       0.025
   0.41666667  0.08333333  0.00000000       0.025
   0.25000000  0.25000000  0.00000000       0.012
   0.41666667  0.25000000  0.00000000       0.025
   0.41666667  0.41666667  0.00000000       0.012
   0.08333333  0.08333333  0.11111111       0.025
   0.25000000  0.08333333  0.11111111       0.049
   0.41666667  0.08333333  0.11111111       0.049
   0.25000000  0.25000000  0.11111111       0.025
   0.41666667  0.25000000  0.11111111       0.049
   0.41666667  0.41666667  0.11111111       0.025
   0.08333333  0.08333333  0.22222222       0.025
   0.25000000  0.08333333  0.22222222       0.049
   0.41666667  0.08333333  0.22222222       0.049
   0.25000000  0.25000000  0.22222222       0.025
   0.41666667  0.25000000  0.22222222       0.049
   0.41666667  0.41666667  0.22222222       0.025
   0.08333333  0.08333333  0.33333333       0.025
   0.25000000  0.08333333  0.33333333       0.049
   0.41666667  0.08333333  0.33333333       0.049
   0.25000000  0.25000000  0.33333333       0.025
   0.41666667  0.25000000  0.33333333       0.049
   0.41666667  0.41666667  0.33333333       0.025
   0.08333333  0.08333333  0.44444444       0.025
   0.25000000  0.08333333  0.44444444       0.049
   0.41666667  0.08333333  0.44444444       0.049
   0.25000000  0.25000000  0.44444444       0.025
   0.41666667  0.25000000  0.44444444       0.049
   0.41666667  0.41666667  0.44444444       0.025
 
 position of ions in fractional coordinates (direct lattice) 
   0.50000000  0.50000000  0.50000000
   0.00000000  0.00000000  0.00000000
   0.19609954  0.80390046  0.50000000
   0.80390046  0.19609954  0.50000000
   0.30390046  0.30390046  0.00000000
   0.69609954  0.69609954  0.00000000
 
 position of ions in cartesian coordinates  (Angst):
   2.42628425  2.42628425  1.64400597
   0.00000000  0.00000000  0.00000000
   0.95158645  3.90098205  1.64400597
   3.90098205  0.95158645  1.64400597
   1.47469780  1.47469780  0.00000000
   3.37787070  3.37787070  0.00000000
 


--------------------------------------------------------------------------------------------------------


 k-point  1 :   0.0833 0.0833 0.0000  plane waves:    2597
 k-point  2 :   0.2500 0.0833 0.0000  plane waves:    2589
 k-point  3 :   0.4167 0.0833 0.0000  plane waves:    2595
 k-point  4 :   0.2500 0.2500 0.0000  plane waves:    2580
 k-point  5 :   0.4167 0.2500 0.0000  plane waves:    2598
 k-point  6 :   0.4167 0.4167 0.0000  plane waves:    2582
 k-point  7 :   0.0833 0.0833 0.1111  plane waves:    2603
 k-point  8 :   0.2500 0.0833 0.1111  plane waves:    2587
 k-point  9 :   0.4167 0.0833 0.1111  plane waves:    2593
 k-point 10 :   0.2500 0.2500 0.1111  plane waves:    2593
 k-point 11 :   0.4167 0.2500 0.1111  plane waves:    2587
 k-point 12 :   0.4167 0.4167 0.1111  plane waves:    2585
 k-point 13 :   0.0833 0.0833 0.2222  plane waves:    2590
 k-point 14 :   0.2500 0.0833 0.2222  plane waves:    2589
 k-point 15 :   0.4167 0.0833 0.2222  plane waves:    2578
 k-point 16 :   0.2500 0.2500 0.2222  plane waves:    2584
 k-point 17 :   0.4167 0.2500 0.2222  plane waves:    2592
 k-point 18 :   0.4167 0.4167 0.2222  plane waves:    2595
 k-point 19 :   0.0833 0.0833 0.3333  plane waves:    2578
 k-point 20 :   0.2500 0.0833 0.3333  plane waves:    2582
 k-point 21 :   0.4167 0.0833 0.3333  plane waves:    2580
 k-point 22 :   0.2500 0.2500 0.3333  plane waves:    2574
 k-point 23 :   0.4167 0.2500 0.3333  plane waves:    2581
 k-point 24 :   0.4167 0.4167 0.3333  plane waves:    2581
 k-point 25 :   0.0833 0.0833 0.4444  plane waves:    2580
 k-point 26 :   0.2500 0.0833 0.4444  plane waves:    2577
 k-point 27 :   0.4167 0.0833 0.4444  plane waves:    2579
 k-point 28 :   0.2500 0.2500 0.4444  plane waves:    2579
 k-point 29 :   0.4167 0.2500 0.4444  plane waves:    2570
 k-point 30 :   0.4167 0.4167 0.4444  plane waves:    2570

 maximum and minimum number of plane-waves per node :      2603     2570

 maximum number of plane-waves:      2603
 maximum index in each direction: 
   IXMAX=    9   IYMAX=    9   IZMAX=    6
   IXMIN=  -10   IYMIN=  -10   IZMIN=   -7


 serial   3D FFT for wavefunctions
 parallel 3D FFT for charge:
    minimum data exchange during FFTs selected (reduces bandwidth)


 total amount of memory used by VASP MPI-rank0    66335. kBytes
=======================================================================

   base      :      30000. kBytes
   nonl-proj :      22748. kBytes
   fftplans  :       1875. kBytes
   grid      :       3820. kBytes
   one-center:        186. kBytes
   wavefun   :       7706. kBytes
 
     INWAV:  cpu time    0.0000: real time    0.0000
 Broyden mixing: mesh for mixing (old mesh)
   NGX = 19   NGY = 19   NGZ = 13
  (NGX  = 60   NGY  = 60   NGZ  = 40)
  gives a total of   4693 points

 initial charge density was supplied:
 charge density of overlapping atoms calculated
 number of electron      54.0000000 magnetization       0.0000000
 keeping initial charge density in first step


--------------------------------------------------------------------------------------------------------


 Maximum index for augmentation-charges         4323 (set IRDMAX)


--------------------------------------------------------------------------------------------------------


 First call to EWALD:  gamma=   0.416
 Maximum number of real-space cells 2x 2x 3
 Maximum number of reciprocal cells 3x 3x 2

    FEWALD:  cpu time    0.0010: real time    0.0010


--------------------------------------- Iteration      1(   1)  ---------------------------------------


    POTLOK:  cpu time    0.0353: real time    0.0353
    SETDIJ:  cpu time    0.7773: real time    0.7773
atom =   1  type =  1  l = 2
 
 onsite density matrix
 
spin component  1
 
  0.2835  0.0000  0.0000  0.0000  0.0000
  0.0000  0.2835  0.0000  0.0000  0.0000
  0.0000  0.0000  0.2835  0.0000  0.0000
  0.0000  0.0000  0.0000  0.2835  0.0000
  0.0000  0.0000  0.0000  0.0000  0.2835
 
spin component  2
 
  0.7694  0.0000  0.0000  0.0000  0.0000
  0.0000  0.7694  0.0000  0.0000  0.0000
  0.0000  0.0000  0.7694  0.0000  0.0000
  0.0000  0.0000  0.0000  0.7694  0.0000
  0.0000  0.0000  0.0000  0.0000  0.7694
 
 occupancies and eigenvectors
 
  o =  0.2835  v =  1.0000  0.0000  0.0000  0.0000  0.0000  0.0000  0.0000  0.0000  0.0000  0.0000      0.0000  0.0000  0.0000  0.0000  0.0000  0.0000  0.0000  0.0000  0.0000  0.0000
  o =  0.2835  v =  0.0000  1.0000  0.0000  0.0000  0.0000  0.0000  0.0000  0.0000  0.0000  0.0000      0.0000  0.0000  0.0000  0.0000  0.0000  0.0000  0.0000  0.0000  0.0000  0.0000
  o =  0.2835  v =  0.0000  0.0000  1.0000  0.0000  0.0000  0.0000  0.0000  0.0000  0.0000  0.0000      0.0000  0.0000  0.0000  0.0000  0.0000  0.0000  0.0000  0.0000  0.0000  0.0000
  o =  0.2835  v =  0.0000  0.0000  0.0000  1.0000  0.0000  0.0000  0.0000  0.0000  0.0000  0.0000      0.0000  0.0000  0.0000  0.0000  0.0000  0.0000  0.0000  0.0000  0.0000  0.0000
  o =  0.2835  v =  0.0000  0.0000  0.0000  0.0000  1.0000  0.0000  0.0000  0.0000  0.0000  0.0000      0.0000  0.0000  0.0000  0.0000  0.0000  0.0000  0.0000  0.0000  0.0000  0.0000
  o =  0.7694  v =  0.0000  0.0000  0.0000  0.0000  0.0000  1.0000  0.0000  0.0000  0.0000  0.0000      0.0000  0.0000  0.0000  0.0000  0.0000  0.0000  0.0000  0.0000  0.0000  0.0000
  o =  0.7694  v =  0.0000  0.0000  0.0000  0.0000  0.0000  0.0000  1.0000  0.0000  0.0000  0.0000      0.0000  0.0000  0.0000  0.0000  0.0000  0.0000  0.0000  0.0000  0.0000  0.0000
  o =  0.7694  v =  0.0000  0.0000  0.0000  0.0000  0.0000  0.0000  0.0000  1.0000  0.0000  0.0000      0.0000  0.0000  0.0000  0.0000  0.0000  0.0000  0.0000  0.0000  0.0000  0.0000
  o =  0.7694  v =  0.0000  0.0000  0.0000  0.0000  0.0000  0.0000  0.0000  0.0000  1.0000  0.0000      0.0000  0.0000  0.0000  0.0000  0.0000  0.0000  0.0000  0.0000  0.0000  0.0000
  o =  0.7694  v =  0.0000  0.0000  0.0000  0.0000  0.0000  0.0000  0.0000  0.0000  0.0000  1.0000      0.0000  0.0000  0.0000  0.0000  0.0000  0.0000  0.0000  0.0000  0.0000  0.0000
atom =   2  type =  1  l = 2
 
 onsite density matrix
 
spin component  1
 
  0.7694  0.0000  0.0000  0.0000  0.0000
  0.0000  0.7694  0.0000  0.0000  0.0000
  0.0000  0.0000  0.7694  0.0000  0.0000
  0.0000  0.0000  0.0000  0.7694  0.0000
  0.0000  0.0000  0.0000  0.0000  0.7694
 
spin component  2
 
  0.2835  0.0000  0.0000  0.0000  0.0000
  0.0000  0.2835  0.0000  0.0000  0.0000
  0.0000  0.0000  0.2835  0.0000  0.0000
  0.0000  0.0000  0.0000  0.2835  0.0000
  0.0000  0.0000  0.0000  0.0000  0.2835
 
 occupancies and eigenvectors
 
  o =  0.2835  v =  0.0000  0.0000  0.0000  0.0000  0.0000  1.0000  0.0000  0.0000  0.0000  0.0000      0.0000  0.0000  0.0000  0.0000  0.0000  0.0000  0.0000  0.0000  0.0000  0.0000
  o =  0.2835  v =  0.0000  0.0000  0.0000  0.0000  0.0000  0.0000  1.0000  0.0000  0.0000  0.0000      0.0000  0.0000  0.0000  0.0000  0.0000  0.0000  0.0000  0.0000  0.0000  0.0000
  o =  0.2835  v =  0.0000  0.0000  0.0000  0.0000  0.0000  0.0000  0.0000  1.0000  0.0000  0.0000      0.0000  0.0000  0.0000  0.0000  0.0000  0.0000  0.0000  0.0000  0.0000  0.0000
  o =  0.2835  v =  0.0000  0.0000  0.0000  0.0000  0.0000  0.0000  0.0000  0.0000  1.0000  0.0000      0.0000  0.0000  0.0000  0.0000  0.0000  0.0000  0.0000  0.0000  0.0000  0.0000
  o =  0.2835  v =  0.0000  0.0000  0.0000  0.0000  0.0000  0.0000  0.0000  0.0000  0.0000  1.0000      0.0000  0.0000  0.0000  0.0000  0.0000  0.0000  0.0000  0.0000  0.0000  0.0000
  o =  0.7694  v =  1.0000  0.0000  0.0000  0.0000  0.0000  0.0000  0.0000  0.0000  0.0000  0.0000      0.0000  0.0000  0.0000  0.0000  0.0000  0.0000  0.0000  0.0000  0.0000  0.0000
  o =  0.7694  v =  0.0000  1.0000  0.0000  0.0000  0.0000  0.0000  0.0000  0.0000  0.0000  0.0000      0.0000  0.0000  0.0000  0.0000  0.0000  0.0000  0.0000  0.0000  0.0000  0.0000
  o =  0.7694  v =  0.0000  0.0000  1.0000  0.0000  0.0000  0.0000  0.0000  0.0000  0.0000  0.0000      0.0000  0.0000  0.0000  0.0000  0.0000  0.0000  0.0000  0.0000  0.0000  0.0000
  o =  0.7694  v =  0.0000  0.0000  0.0000  1.0000  0.0000  0.0000  0.0000  0.0000  0.0000  0.0000      0.0000  0.0000  0.0000  0.0000  0.0000  0.0000  0.0000  0.0000  0.0000  0.0000
  o =  0.7694  v =  0.0000  0.0000  0.0000  0.0000  1.0000  0.0000  0.0000  0.0000  0.0000  0.0000      0.0000  0.0000  0.0000  0.0000  0.0000  0.0000  0.0000  0.0000  0.0000  0.0000
     EDDAV:  cpu time    2.2879: real time    2.3068
       DOS:  cpu time    0.0009: real time    0.0009
    --------------------------------------------
      LOOP:  cpu time    3.1014: real time    3.1202

 eigenvalue-minimisations  :  4344
 total energy-change (2. order) : 0.9638576E+03  (-0.3752197E+04)
 number of electron      54.0000000 magnetization       0.0000000
 augmentation part       54.0000000 magnetization       0.0000000

 Free energy of the ion-electron system (eV)
  ---------------------------------------------------
  alpha Z        PSCENC =       199.38838823
  Ewald energy   TEWEN  =     -4203.06823030
  -Hartree energ DENC   =     -2130.62061717
  -exchange      EXHF   =         0.00000000
  -V(xc)+E(xc)   XCENC  =        -3.96110837
  PAW double counting   =      5566.43601843    -5528.13058630
  entropy T*S    EENTRO =        -0.00022182
  eigenvalues    EBANDS =       374.80317737
  atomic energy  EATOM  =      6689.01075358
  Solvation  Ediel_sol  =         0.00000000
  ---------------------------------------------------
  free energy    TOTEN  =       963.85757366 eV

  energy without entropy =      963.85779548  energy(sigma->0) =      963.85768457


--------------------------------------------------------------------------------------------------------




--------------------------------------- Iteration      1(   2)  ---------------------------------------


     EDDAV:  cpu time    2.5216: real time    2.5217
       DOS:  cpu time    0.0007: real time    0.0007
    --------------------------------------------
      LOOP:  cpu time    2.5224: real time    2.5224

 eigenvalue-minimisations  :  5040
 total energy-change (2. order) :-0.5607100E+03  (-0.5373720E+03)
 number of electron      54.0000000 magnetization       0.0000000
 augmentation part       54.0000000 magnetization       0.0000000

 Free energy of the ion-electron system (eV)
  ---------------------------------------------------
  alpha Z        PSCENC =       199.38838823
  Ewald energy   TEWEN  =     -4203.06823030
  -Hartree energ DENC   =     -2130.62061717
  -exchange      EXHF   =         0.00000000
  -V(xc)+E(xc)   XCENC  =        -3.96110837
  PAW double counting   =      5566.43601843    -5528.13058630
  entropy T*S    EENTRO =        -0.00011102
  eigenvalues    EBANDS =      -185.90694058
  atomic energy  EATOM  =      6689.01075358
  Solvation  Ediel_sol  =         0.00000000
  ---------------------------------------------------
  free energy    TOTEN  =       403.14756651 eV

  energy without entropy =      403.14767753  energy(sigma->0) =      403.14762202


--------------------------------------------------------------------------------------------------------




--------------------------------------- Iteration      1(   3)  ---------------------------------------


     EDDAV:  cpu time    2.4642: real time    2.4642
       DOS:  cpu time    0.0003: real time    0.0003
    --------------------------------------------
      LOOP:  cpu time    2.4644: real time    2.4645

 eigenvalue-minimisations  :  4836
 total energy-change (2. order) :-0.3360717E+02  (-0.3329771E+02)
 number of electron      54.0000000 magnetization       0.0000000
 augmentation part       54.0000000 magnetization       0.0000000

 Free energy of the ion-electron system (eV)
  ---------------------------------------------------
  alpha Z        PSCENC =       199.38838823
  Ewald energy   TEWEN  =     -4203.06823030
  -Hartree energ DENC   =     -2130.62061717
  -exchange      EXHF   =         0.00000000
  -V(xc)+E(xc)   XCENC  =        -3.96110837
  PAW double counting   =      5566.43601843    -5528.13058630
  entropy T*S    EENTRO =        -0.00000000
  eigenvalues    EBANDS =      -219.51422049
  atomic energy  EATOM  =      6689.01075358
  Solvation  Ediel_sol  =         0.00000000
  ---------------------------------------------------
  free energy    TOTEN  =       369.54039762 eV

  energy without entropy =      369.54039762  energy(sigma->0) =      369.54039762


--------------------------------------------------------------------------------------------------------




--------------------------------------- Iteration      1(   4)  ---------------------------------------


     EDDAV:  cpu time    2.5392: real time    2.5392
       DOS:  cpu time    0.0003: real time    0.0003
    --------------------------------------------
      LOOP:  cpu time    2.5395: real time    2.5395

 eigenvalue-minimisations  :  5124
 total energy-change (2. order) :-0.4140762E+00  (-0.4137366E+00)
 number of electron      54.0000000 magnetization       0.0000000
 augmentation part       54.0000000 magnetization       0.0000000

 Free energy of the ion-electron system (eV)
  ---------------------------------------------------
  alpha Z        PSCENC =       199.38838823
  Ewald energy   TEWEN  =     -4203.06823030
  -Hartree energ DENC   =     -2130.62061717
  -exchange      EXHF   =         0.00000000
  -V(xc)+E(xc)   XCENC  =        -3.96110837
  PAW double counting   =      5566.43601843    -5528.13058630
  entropy T*S    EENTRO =        -0.00000000
  eigenvalues    EBANDS =      -219.92829666
  atomic energy  EATOM  =      6689.01075358
  Solvation  Ediel_sol  =         0.00000000
  ---------------------------------------------------
  free energy    TOTEN  =       369.12632145 eV

  energy without entropy =      369.12632145  energy(sigma->0) =      369.12632145


--------------------------------------------------------------------------------------------------------




--------------------------------------- Iteration      1(   5)  ---------------------------------------


     EDDAV:  cpu time    2.4848: real time    2.4848
       DOS:  cpu time    0.0003: real time    0.0003
    CHARGE:  cpu time    0.3772: real time    0.3772
    MIXING:  cpu time    0.0005: real time    0.0005
    --------------------------------------------
      LOOP:  cpu time    2.8628: real time    2.8628

 eigenvalue-minimisations  :  4956
 total energy-change (2. order) :-0.6968996E-02  (-0.6968758E-02)
 number of electron      54.0000009 magnetization      -0.0000000
 augmentation part       22.6529627 magnetization      -0.0000000

 Broyden mixing:
  rms(total) = 0.58796E+01    rms(broyden)= 0.58792E+01
  rms(prec ) = 0.61146E+01
  weight for this iteration     100.00

 Free energy of the ion-electron system (eV)
  ---------------------------------------------------
  alpha Z        PSCENC =       199.38838823
  Ewald energy   TEWEN  =     -4203.06823030
  -Hartree energ DENC   =     -2130.62061717
  -exchange      EXHF   =         0.00000000
  -V(xc)+E(xc)   XCENC  =        -3.96110837
  PAW double counting   =      5566.43601843    -5528.13058630
  entropy T*S    EENTRO =        -0.00000000
  eigenvalues    EBANDS =      -219.93526566
  atomic energy  EATOM  =      6689.01075358
  Solvation  Ediel_sol  =         0.00000000
  ---------------------------------------------------
  free energy    TOTEN  =       369.11935245 eV

  energy without entropy =      369.11935245  energy(sigma->0) =      369.11935245


--------------------------------------------------------------------------------------------------------




--------------------------------------- Iteration      1(   6)  ---------------------------------------


    POTLOK:  cpu time    0.0329: real time    0.0329
    SETDIJ:  cpu time    1.3743: real time    1.3743
atom =   1  type =  1  l = 2
 
 onsite density matrix
 
spin component  1
 
  0.0359  0.0000  0.0669  0.0000  0.0000
  0.0000  0.0074  0.0000  0.0614  0.0000
  0.0669  0.0000 -0.0036  0.0000  0.0000
  0.0000  0.0614  0.0000  0.0074  0.0000
  0.0000  0.0000  0.0000  0.0000 -0.0736
 
spin component  2
 
  1.0563  0.0000 -0.0323  0.0000 -0.0000
  0.0000  1.0711  0.0000 -0.0297  0.0000
 -0.0323  0.0000  1.0750  0.0000 -0.0000
  0.0000 -0.0297  0.0000  1.0711  0.0000
 -0.0000  0.0000 -0.0000  0.0000  1.1111
 
 occupancies and eigenvectors
 
  o = -0.0736  v =  0.0000 -0.0000 -0.0000  0.0000  1.0000  0.0000  0.0000  0.0000  0.0000  0.0000      0.0000  0.0000  0.0000  0.0000  0.0000  0.0000  0.0000  0.0000  0.0000  0.0000
  o = -0.0540  v =  0.0000  0.7071  0.0000 -0.7071  0.0000  0.0000  0.0000  0.0000  0.0000  0.0000      0.0000  0.0000  0.0000  0.0000  0.0000  0.0000  0.0000  0.0000  0.0000  0.0000
  o = -0.0536  v = -0.5986 -0.0000  0.8010  0.0000  0.0000  0.0000  0.0000  0.0000  0.0000  0.0000      0.0000  0.0000  0.0000  0.0000  0.0000  0.0000  0.0000  0.0000  0.0000  0.0000
  o =  0.0687  v =  0.0000 -0.7071  0.0000 -0.7071 -0.0000  0.0000  0.0000  0.0000  0.0000  0.0000      0.0000  0.0000  0.0000  0.0000  0.0000  0.0000  0.0000  0.0000  0.0000  0.0000
  o =  0.0859  v =  0.8010 -0.0000  0.5986  0.0000  0.0000  0.0000  0.0000  0.0000  0.0000  0.0000      0.0000  0.0000  0.0000  0.0000  0.0000  0.0000  0.0000  0.0000  0.0000  0.0000
  o =  1.0320  v =  0.0000  0.0000  0.0000  0.0000  0.0000  0.7997  0.0000  0.6004  0.0000  0.0000      0.0000  0.0000  0.0000  0.0000  0.0000  0.0000  0.0000  0.0000  0.0000  0.0000
  o =  1.0415  v =  0.0000  0.0000  0.0000  0.0000  0.0000  0.0000 -0.7071  0.0000 -0.7071  0.0000      0.0000  0.0000  0.0000  0.0000  0.0000  0.0000  0.0000  0.0000  0.0000  0.0000
  o =  1.0993  v =  0.0000  0.0000  0.0000  0.0000  0.0000  0.6004 -0.0000 -0.7997  0.0000 -0.0000      0.0000  0.0000  0.0000  0.0000  0.0000  0.0000  0.0000  0.0000  0.0000  0.0000
  o =  1.1008  v =  0.0000  0.0000  0.0000  0.0000  0.0000  0.0000  0.7071  0.0000 -0.7071 -0.0000      0.0000  0.0000  0.0000  0.0000  0.0000  0.0000  0.0000  0.0000  0.0000  0.0000
  o =  1.1111  v =  0.0000  0.0000  0.0000  0.0000  0.0000  0.0000  0.0000 -0.0000  0.0000  1.0000      0.0000  0.0000  0.0000  0.0000  0.0000  0.0000  0.0000  0.0000  0.0000  0.0000
atom =   2  type =  1  l = 2
 
 onsite density matrix
 
spin component  1
 
  1.0563  0.0000  0.0323  0.0000 -0.0000
  0.0000  1.0711  0.0000  0.0297  0.0000
  0.0323  0.0000  1.0750  0.0000  0.0000
  0.0000  0.0297  0.0000  1.0711  0.0000
 -0.0000  0.0000  0.0000  0.0000  1.1111
 
spin component  2
 
  0.0359  0.0000 -0.0669  0.0000  0.0000
  0.0000  0.0074  0.0000 -0.0614  0.0000
 -0.0669  0.0000 -0.0036  0.0000 -0.0000
  0.0000 -0.0614  0.0000  0.0074  0.0000
  0.0000  0.0000 -0.0000  0.0000 -0.0736
 
 occupancies and eigenvectors
 
  o = -0.0736  v =  0.0000  0.0000  0.0000  0.0000  0.0000  0.0000 -0.0000  0.0000  0.0000  1.0000      0.0000  0.0000  0.0000  0.0000  0.0000  0.0000  0.0000  0.0000  0.0000  0.0000
  o = -0.0540  v =  0.0000  0.0000  0.0000  0.0000  0.0000  0.0000 -0.7071  0.0000 -0.7071 -0.0000      0.0000  0.0000  0.0000  0.0000  0.0000  0.0000  0.0000  0.0000  0.0000  0.0000
  o = -0.0536  v =  0.0000  0.0000  0.0000  0.0000  0.0000 -0.5986 -0.0000 -0.8010  0.0000  0.0000      0.0000  0.0000  0.0000  0.0000  0.0000  0.0000  0.0000  0.0000  0.0000  0.0000
  o =  0.0687  v =  0.0000  0.0000  0.0000  0.0000  0.0000  0.0000  0.7071  0.0000 -0.7071  0.0000      0.0000  0.0000  0.0000  0.0000  0.0000  0.0000  0.0000  0.0000  0.0000  0.0000
  o =  0.0859  v =  0.0000  0.0000  0.0000  0.0000  0.0000  0.8010 -0.0000 -0.5986  0.0000  0.0000      0.0000  0.0000  0.0000  0.0000  0.0000  0.0000  0.0000  0.0000  0.0000  0.0000
  o =  1.0320  v =  0.7997  0.0000 -0.6004  0.0000  0.0000  0.0000  0.0000  0.0000  0.0000  0.0000      0.0000  0.0000  0.0000  0.0000  0.0000  0.0000  0.0000  0.0000  0.0000  0.0000
  o =  1.0415  v =  0.0000  0.7071  0.0000 -0.7071 -0.0000  0.0000  0.0000  0.0000  0.0000  0.0000      0.0000  0.0000  0.0000  0.0000  0.0000  0.0000  0.0000  0.0000  0.0000  0.0000
  o =  1.0993  v =  0.6004 -0.0000  0.7997  0.0000 -0.0000  0.0000  0.0000  0.0000  0.0000  0.0000      0.0000  0.0000  0.0000  0.0000  0.0000  0.0000  0.0000  0.0000  0.0000  0.0000
  o =  1.1008  v =  0.0000 -0.7071  0.0000 -0.7071  0.0000  0.0000  0.0000  0.0000  0.0000  0.0000      0.0000  0.0000  0.0000  0.0000  0.0000  0.0000  0.0000  0.0000  0.0000  0.0000
  o =  1.1111  v =  0.0000  0.0000  0.0000  0.0000  1.0000  0.0000  0.0000  0.0000  0.0000  0.0000      0.0000  0.0000  0.0000  0.0000  0.0000  0.0000  0.0000  0.0000  0.0000  0.0000
     EDDAV:  cpu time    2.5628: real time    2.5629
       DOS:  cpu time    0.0007: real time    0.0007
    CHARGE:  cpu time    0.3799: real time    0.3799
    MIXING:  cpu time    0.0005: real time    0.0005
    --------------------------------------------
      LOOP:  cpu time    4.3512: real time    4.3513

 eigenvalue-minimisations  :  5208
 total energy-change (2. order) :-0.4379323E+03  (-0.2835861E+02)
 number of electron      54.0000008 magnetization      -0.0000000
 augmentation part       19.6217433 magnetization      -0.0000000

 Broyden mixing:
  rms(total) = 0.62875E+01    rms(broyden)= 0.62874E+01
  rms(prec ) = 0.67997E+01
  weight for this iteration     100.00

 eigenvalues of (default mixing * dielectric matrix)
  average eigenvalue GAMMA=   0.4165
  0.4165

 Free energy of the ion-electron system (eV)
  ---------------------------------------------------
  alpha Z        PSCENC =       199.38838823
  Ewald energy   TEWEN  =     -4203.06823030
  -Hartree energ DENC   =     -2199.43043410
  -exchange      EXHF   =         0.00000000
  -V(xc)+E(xc)   XCENC  =       144.31864251
  PAW double counting   =      6428.46510713    -6394.96480836
  entropy T*S    EENTRO =        -0.00017528
  eigenvalues    EBANDS =      -732.53221849
  atomic energy  EATOM  =      6689.01075358
  Solvation  Ediel_sol  =         0.00000000
  ---------------------------------------------------
  free energy    TOTEN  =       -68.81297507 eV

  energy without entropy =      -68.81279979  energy(sigma->0) =      -68.81288743


--------------------------------------------------------------------------------------------------------




--------------------------------------- Iteration      1(   7)  ---------------------------------------


    POTLOK:  cpu time    0.0323: real time    0.0323
    SETDIJ:  cpu time    1.3557: real time    1.3557
atom =   1  type =  1  l = 2
 
 onsite density matrix
 
spin component  1
 
  0.0931  0.0000  0.0430  0.0000  0.0000
  0.0000  0.0545  0.0000  0.0244  0.0000
  0.0430  0.0000  0.0631  0.0000  0.0000
  0.0000  0.0244  0.0000  0.0545  0.0000
  0.0000  0.0000  0.0000  0.0000  0.0178
 
spin component  2
 
  0.9608  0.0000 -0.0169  0.0000 -0.0000
  0.0000  1.0030  0.0000  0.0088  0.0000
 -0.0169  0.0000  0.9800  0.0000 -0.0000
  0.0000  0.0088  0.0000  1.0030  0.0000
 -0.0000  0.0000 -0.0000  0.0000  0.9996
 
 occupancies and eigenvectors
 
  o =  0.0178  v = -0.0000  0.0000  0.0000 -0.0000 -1.0000  0.0000  0.0000  0.0000  0.0000  0.0000      0.0000  0.0000  0.0000  0.0000  0.0000  0.0000  0.0000  0.0000  0.0000  0.0000
  o =  0.0301  v = -0.0000  0.7071  0.0000 -0.7071  0.0000  0.0000  0.0000  0.0000  0.0000  0.0000      0.0000  0.0000  0.0000  0.0000  0.0000  0.0000  0.0000  0.0000  0.0000  0.0000
  o =  0.0325  v = -0.5795 -0.0000  0.8150  0.0000  0.0000  0.0000  0.0000  0.0000  0.0000  0.0000      0.0000  0.0000  0.0000  0.0000  0.0000  0.0000  0.0000  0.0000  0.0000  0.0000
  o =  0.0789  v =  0.0000  0.7071 -0.0000  0.7071  0.0000  0.0000  0.0000  0.0000  0.0000  0.0000      0.0000  0.0000  0.0000  0.0000  0.0000  0.0000  0.0000  0.0000  0.0000  0.0000
  o =  0.1237  v = -0.8150  0.0000 -0.5795  0.0000 -0.0000  0.0000  0.0000  0.0000  0.0000  0.0000      0.0000  0.0000  0.0000  0.0000  0.0000  0.0000  0.0000  0.0000  0.0000  0.0000
  o =  0.9510  v =  0.0000  0.0000  0.0000  0.0000  0.0000 -0.8642  0.0000 -0.5031  0.0000 -0.0000      0.0000  0.0000  0.0000  0.0000  0.0000  0.0000  0.0000  0.0000  0.0000  0.0000
  o =  0.9898  v =  0.0000  0.0000  0.0000  0.0000  0.0000 -0.5031  0.0000  0.8642  0.0000  0.0000      0.0000  0.0000  0.0000  0.0000  0.0000  0.0000  0.0000  0.0000  0.0000  0.0000
  o =  0.9942  v =  0.0000  0.0000  0.0000  0.0000  0.0000  0.0000 -0.7071  0.0000  0.7071 -0.0000      0.0000  0.0000  0.0000  0.0000  0.0000  0.0000  0.0000  0.0000  0.0000  0.0000
  o =  0.9996  v =  0.0000  0.0000  0.0000  0.0000  0.0000  0.0000 -0.0000 -0.0000  0.0000  1.0000      0.0000  0.0000  0.0000  0.0000  0.0000  0.0000  0.0000  0.0000  0.0000  0.0000
  o =  1.0118  v =  0.0000  0.0000  0.0000  0.0000  0.0000  0.0000  0.7071  0.0000  0.7071 -0.0000      0.0000  0.0000  0.0000  0.0000  0.0000  0.0000  0.0000  0.0000  0.0000  0.0000
atom =   2  type =  1  l = 2
 
 onsite density matrix
 
spin component  1
 
  0.9608  0.0000  0.0169  0.0000 -0.0000
  0.0000  1.0030  0.0000 -0.0088  0.0000
  0.0169  0.0000  0.9800  0.0000  0.0000
  0.0000 -0.0088  0.0000  1.0030  0.0000
 -0.0000  0.0000  0.0000  0.0000  0.9996
 
spin component  2
 
  0.0931  0.0000 -0.0430  0.0000  0.0000
  0.0000  0.0545  0.0000 -0.0244  0.0000
 -0.0430  0.0000  0.0631  0.0000 -0.0000
  0.0000 -0.0244  0.0000  0.0545  0.0000
  0.0000  0.0000 -0.0000  0.0000  0.0178
 
 occupancies and eigenvectors
 
  o =  0.0178  v =  0.0000  0.0000  0.0000  0.0000  0.0000  0.0000 -0.0000  0.0000  0.0000  1.0000      0.0000  0.0000  0.0000  0.0000  0.0000  0.0000  0.0000  0.0000  0.0000  0.0000
  o =  0.0301  v =  0.0000  0.0000  0.0000  0.0000  0.0000  0.0000 -0.7071  0.0000 -0.7071 -0.0000      0.0000  0.0000  0.0000  0.0000  0.0000  0.0000  0.0000  0.0000  0.0000  0.0000
  o =  0.0325  v =  0.0000  0.0000  0.0000  0.0000  0.0000 -0.5795 -0.0000 -0.8150  0.0000  0.0000      0.0000  0.0000  0.0000  0.0000  0.0000  0.0000  0.0000  0.0000  0.0000  0.0000
  o =  0.0789  v =  0.0000  0.0000  0.0000  0.0000  0.0000 -0.0000  0.7071 -0.0000 -0.7071  0.0000      0.0000  0.0000  0.0000  0.0000  0.0000  0.0000  0.0000  0.0000  0.0000  0.0000
  o =  0.1237  v =  0.0000  0.0000  0.0000  0.0000  0.0000 -0.8150 -0.0000  0.5795  0.0000 -0.0000      0.0000  0.0000  0.0000  0.0000  0.0000  0.0000  0.0000  0.0000  0.0000  0.0000
  o =  0.9510  v =  0.8642  0.0000 -0.5031  0.0000  0.0000  0.0000  0.0000  0.0000  0.0000  0.0000      0.0000  0.0000  0.0000  0.0000  0.0000  0.0000  0.0000  0.0000  0.0000  0.0000
  o =  0.9898  v = -0.5031  0.0000 -0.8642  0.0000  0.0000  0.0000  0.0000  0.0000  0.0000  0.0000      0.0000  0.0000  0.0000  0.0000  0.0000  0.0000  0.0000  0.0000  0.0000  0.0000
  o =  0.9942  v =  0.0000 -0.7071 -0.0000 -0.7071 -0.0000  0.0000  0.0000  0.0000  0.0000  0.0000      0.0000  0.0000  0.0000  0.0000  0.0000  0.0000  0.0000  0.0000  0.0000  0.0000
  o =  0.9996  v =  0.0000 -0.0000  0.0000 -0.0000  1.0000  0.0000  0.0000  0.0000  0.0000  0.0000      0.0000  0.0000  0.0000  0.0000  0.0000  0.0000  0.0000  0.0000  0.0000  0.0000
  o =  1.0118  v =  0.0000  0.7071 -0.0000 -0.7071 -0.0000  0.0000  0.0000  0.0000  0.0000  0.0000      0.0000  0.0000  0.0000  0.0000  0.0000  0.0000  0.0000  0.0000  0.0000  0.0000
     EDDAV:  cpu time    2.3434: real time    2.3434
       DOS:  cpu time    0.0003: real time    0.0003
    CHARGE:  cpu time    0.3783: real time    0.3783
    MIXING:  cpu time    0.0006: real time    0.0006
    --------------------------------------------
      LOOP:  cpu time    4.1106: real time    4.1107

 eigenvalue-minimisations  :  4512
 total energy-change (2. order) :-0.2631757E+01  (-0.5046909E+01)
 number of electron      54.0000008 magnetization      -0.0000000
 augmentation part       19.6968510 magnetization      -0.0000000

 Broyden mixing:
  rms(total) = 0.17212E+01    rms(broyden)= 0.17209E+01
  rms(prec ) = 0.25091E+01
  weight for this iteration     100.00

 eigenvalues of (default mixing * dielectric matrix)
  average eigenvalue GAMMA=   0.6901
  0.6901  0.6901

 Free energy of the ion-electron system (eV)
  ---------------------------------------------------
  alpha Z        PSCENC =       199.38838823
  Ewald energy   TEWEN  =     -4203.06823030
  -Hartree energ DENC   =     -2178.31460340
  -exchange      EXHF   =         0.00000000
  -V(xc)+E(xc)   XCENC  =       167.76324367
  PAW double counting   =      6482.59303762    -6449.61556956
  entropy T*S    EENTRO =        -0.00000000
  eigenvalues    EBANDS =      -779.20175227
  atomic energy  EATOM  =      6689.01075358
  Solvation  Ediel_sol  =         0.00000000
  ---------------------------------------------------
  free energy    TOTEN  =       -71.44473242 eV

  energy without entropy =      -71.44473242  energy(sigma->0) =      -71.44473242


--------------------------------------------------------------------------------------------------------




--------------------------------------- Iteration      1(   8)  ---------------------------------------


    POTLOK:  cpu time    0.0330: real time    0.0330
    SETDIJ:  cpu time    1.3543: real time    1.3543
atom =   1  type =  1  l = 2
 
 onsite density matrix
 
spin component  1
 
  0.0375  0.0000  0.0072  0.0000  0.0000
  0.0000  0.0507  0.0000  0.0220  0.0000
  0.0072  0.0000  0.0371  0.0000  0.0000
  0.0000  0.0220  0.0000  0.0507  0.0000
  0.0000  0.0000  0.0000  0.0000  0.0245
 
spin component  2
 
  0.9989  0.0000  0.0287  0.0000  0.0000
  0.0000  0.9808  0.0000  0.0120  0.0000
  0.0287  0.0000  0.9833  0.0000 -0.0000
  0.0000  0.0120  0.0000  0.9808  0.0000
  0.0000  0.0000 -0.0000  0.0000  0.9673
 
 occupancies and eigenvectors
 
  o =  0.0245  v =  0.0000 -0.0000 -0.0000  0.0000  1.0000  0.0000  0.0000  0.0000  0.0000  0.0000      0.0000  0.0000  0.0000  0.0000  0.0000  0.0000  0.0000  0.0000  0.0000  0.0000
  o =  0.0287  v =  0.0000 -0.7071  0.0000  0.7071 -0.0000  0.0000  0.0000  0.0000  0.0000  0.0000      0.0000  0.0000  0.0000  0.0000  0.0000  0.0000  0.0000  0.0000  0.0000  0.0000
  o =  0.0301  v = -0.6971 -0.0000  0.7170  0.0000  0.0000  0.0000  0.0000  0.0000  0.0000  0.0000      0.0000  0.0000  0.0000  0.0000  0.0000  0.0000  0.0000  0.0000  0.0000  0.0000
  o =  0.0445  v = -0.7170  0.0000 -0.6971  0.0000 -0.0000  0.0000  0.0000  0.0000  0.0000  0.0000      0.0000  0.0000  0.0000  0.0000  0.0000  0.0000  0.0000  0.0000  0.0000  0.0000
  o =  0.0727  v =  0.0000 -0.7071  0.0000 -0.7071 -0.0000  0.0000  0.0000  0.0000  0.0000  0.0000      0.0000  0.0000  0.0000  0.0000  0.0000  0.0000  0.0000  0.0000  0.0000  0.0000
  o =  0.9614  v =  0.0000  0.0000  0.0000  0.0000  0.0000 -0.6073  0.0000  0.7945  0.0000  0.0000      0.0000  0.0000  0.0000  0.0000  0.0000  0.0000  0.0000  0.0000  0.0000  0.0000
  o =  0.9673  v =  0.0000  0.0000  0.0000  0.0000  0.0000  0.0000  0.0000  0.0000  0.0000 -1.0000      0.0000  0.0000  0.0000  0.0000  0.0000  0.0000  0.0000  0.0000  0.0000  0.0000
  o =  0.9689  v =  0.0000  0.0000  0.0000  0.0000  0.0000  0.0000 -0.7071  0.0000  0.7071 -0.0000      0.0000  0.0000  0.0000  0.0000  0.0000  0.0000  0.0000  0.0000  0.0000  0.0000
  o =  0.9928  v =  0.0000  0.0000  0.0000  0.0000  0.0000  0.0000 -0.7071  0.0000 -0.7071 -0.0000      0.0000  0.0000  0.0000  0.0000  0.0000  0.0000  0.0000  0.0000  0.0000  0.0000
  o =  1.0208  v =  0.0000  0.0000  0.0000  0.0000  0.0000 -0.7945  0.0000 -0.6073  0.0000 -0.0000      0.0000  0.0000  0.0000  0.0000  0.0000  0.0000  0.0000  0.0000  0.0000  0.0000
atom =   2  type =  1  l = 2
 
 onsite density matrix
 
spin component  1
 
  0.9989  0.0000 -0.0287  0.0000  0.0000
  0.0000  0.9808  0.0000 -0.0120  0.0000
 -0.0287  0.0000  0.9833  0.0000  0.0000
  0.0000 -0.0120  0.0000  0.9808  0.0000
  0.0000  0.0000  0.0000  0.0000  0.9673
 
spin component  2
 
  0.0375  0.0000 -0.0072  0.0000  0.0000
  0.0000  0.0507  0.0000 -0.0220  0.0000
 -0.0072  0.0000  0.0371  0.0000 -0.0000
  0.0000 -0.0220  0.0000  0.0507  0.0000
  0.0000  0.0000 -0.0000  0.0000  0.0245
 
 occupancies and eigenvectors
 
  o =  0.0245  v =  0.0000  0.0000  0.0000  0.0000  0.0000  0.0000 -0.0000  0.0000  0.0000  1.0000      0.0000  0.0000  0.0000  0.0000  0.0000  0.0000  0.0000  0.0000  0.0000  0.0000
  o =  0.0287  v =  0.0000  0.0000  0.0000  0.0000  0.0000  0.0000 -0.7071  0.0000 -0.7071 -0.0000      0.0000  0.0000  0.0000  0.0000  0.0000  0.0000  0.0000  0.0000  0.0000  0.0000
  o =  0.0301  v =  0.0000  0.0000  0.0000  0.0000  0.0000 -0.6971 -0.0000 -0.7170  0.0000  0.0000      0.0000  0.0000  0.0000  0.0000  0.0000  0.0000  0.0000  0.0000  0.0000  0.0000
  o =  0.0445  v =  0.0000  0.0000  0.0000  0.0000  0.0000 -0.7170  0.0000  0.6971  0.0000 -0.0000      0.0000  0.0000  0.0000  0.0000  0.0000  0.0000  0.0000  0.0000  0.0000  0.0000
  o =  0.0727  v =  0.0000  0.0000  0.0000  0.0000  0.0000  0.0000  0.7071  0.0000 -0.7071  0.0000      0.0000  0.0000  0.0000  0.0000  0.0000  0.0000  0.0000  0.0000  0.0000  0.0000
  o =  0.9614  v = -0.6073  0.0000 -0.7945  0.0000  0.0000  0.0000  0.0000  0.0000  0.0000  0.0000      0.0000  0.0000  0.0000  0.0000  0.0000  0.0000  0.0000  0.0000  0.0000  0.0000
  o =  0.9673  v =  0.0000  0.0000 -0.0000  0.0000 -1.0000  0.0000  0.0000  0.0000  0.0000  0.0000      0.0000  0.0000  0.0000  0.0000  0.0000  0.0000  0.0000  0.0000  0.0000  0.0000
  o =  0.9689  v =  0.0000  0.7071  0.0000  0.7071  0.0000  0.0000  0.0000  0.0000  0.0000  0.0000      0.0000  0.0000  0.0000  0.0000  0.0000  0.0000  0.0000  0.0000  0.0000  0.0000
  o =  0.9928  v =  0.0000  0.7071  0.0000 -0.7071  0.0000  0.0000  0.0000  0.0000  0.0000  0.0000      0.0000  0.0000  0.0000  0.0000  0.0000  0.0000  0.0000  0.0000  0.0000  0.0000
  o =  1.0208  v = -0.7945  0.0000  0.6073  0.0000 -0.0000  0.0000  0.0000  0.0000  0.0000  0.0000      0.0000  0.0000  0.0000  0.0000  0.0000  0.0000  0.0000  0.0000  0.0000  0.0000
     EDDAV:  cpu time    2.6625: real time    2.6626
       DOS:  cpu time    0.0004: real time    0.0004
    CHARGE:  cpu time    0.3792: real time    0.3792
    MIXING:  cpu time    0.0006: real time    0.0006
    --------------------------------------------
      LOOP:  cpu time    4.4300: real time    4.4300

 eigenvalue-minimisations  :  5316
 total energy-change (2. order) : 0.2808302E+01  (-0.7146668E+00)
 number of electron      54.0000007 magnetization       0.0000000
 augmentation part       19.8658874 magnetization       0.0000000

 Broyden mixing:
  rms(total) = 0.64778E+00    rms(broyden)= 0.64760E+00
  rms(prec ) = 0.97388E+00
  weight for this iteration     100.00

 eigenvalues of (default mixing * dielectric matrix)
  average eigenvalue GAMMA=   0.7949
  1.0630  0.6609  0.6609

 Free energy of the ion-electron system (eV)
  ---------------------------------------------------
  alpha Z        PSCENC =       199.38838823
  Ewald energy   TEWEN  =     -4203.06823030
  -Hartree energ DENC   =     -2171.00593894
  -exchange      EXHF   =         0.00000000
  -V(xc)+E(xc)   XCENC  =       170.48482933
  PAW double counting   =      6413.98780847    -6378.90717146
  entropy T*S    EENTRO =        -0.00000000
  eigenvalues    EBANDS =      -788.52686884
  atomic energy  EATOM  =      6689.01075358
  Solvation  Ediel_sol  =         0.00000000
  ---------------------------------------------------
  free energy    TOTEN  =       -68.63642992 eV

  energy without entropy =      -68.63642992  energy(sigma->0) =      -68.63642992


--------------------------------------------------------------------------------------------------------




--------------------------------------- Iteration      1(   9)  ---------------------------------------


    POTLOK:  cpu time    0.0332: real time    0.0332
    SETDIJ:  cpu time    0.7776: real time    0.7776
atom =   1  type =  1  l = 2
 
 onsite density matrix
 
spin component  1
 
  0.0788  0.0000  0.0450  0.0000  0.0000
  0.0000  0.0467  0.0000  0.0193  0.0000
  0.0450  0.0000  0.0542  0.0000  0.0000
  0.0000  0.0193  0.0000  0.0467  0.0000
  0.0000  0.0000  0.0000  0.0000  0.0220
 
spin component  2
 
  0.9390  0.0000 -0.0007  0.0000  0.0000
  0.0000  0.9584  0.0000  0.0167  0.0000
 -0.0007  0.0000  0.9410  0.0000 -0.0000
  0.0000  0.0167  0.0000  0.9584  0.0000
  0.0000  0.0000 -0.0000  0.0000  0.9431
 
 occupancies and eigenvectors
 
  o =  0.0198  v = -0.6067  0.0000  0.7950  0.0000 -0.0000  0.0000  0.0000  0.0000  0.0000  0.0000      0.0000  0.0000  0.0000  0.0000  0.0000  0.0000  0.0000  0.0000  0.0000  0.0000
  o =  0.0220  v = -0.0000 -0.0000  0.0000  0.0000  1.0000  0.0000  0.0000  0.0000  0.0000  0.0000      0.0000  0.0000  0.0000  0.0000  0.0000  0.0000  0.0000  0.0000  0.0000  0.0000
  o =  0.0274  v =  0.0000  0.7071  0.0000 -0.7071  0.0000  0.0000  0.0000  0.0000  0.0000  0.0000      0.0000  0.0000  0.0000  0.0000  0.0000  0.0000  0.0000  0.0000  0.0000  0.0000
  o =  0.0660  v =  0.0000 -0.7071  0.0000 -0.7071 -0.0000  0.0000  0.0000  0.0000  0.0000  0.0000      0.0000  0.0000  0.0000  0.0000  0.0000  0.0000  0.0000  0.0000  0.0000  0.0000
  o =  0.1131  v = -0.7950  0.0000 -0.6067  0.0000 -0.0000  0.0000  0.0000  0.0000  0.0000  0.0000      0.0000  0.0000  0.0000  0.0000  0.0000  0.0000  0.0000  0.0000  0.0000  0.0000
  o =  0.9388  v =  0.0000  0.0000  0.0000  0.0000  0.0000  0.9479 -0.0000  0.3185  0.0000  0.0000      0.0000  0.0000  0.0000  0.0000  0.0000  0.0000  0.0000  0.0000  0.0000  0.0000
  o =  0.9412  v =  0.0000  0.0000  0.0000  0.0000  0.0000 -0.3185 -0.0000  0.9479  0.0000  0.0000      0.0000  0.0000  0.0000  0.0000  0.0000  0.0000  0.0000  0.0000  0.0000  0.0000
  o =  0.9417  v =  0.0000  0.0000  0.0000  0.0000  0.0000  0.0000 -0.7071  0.0000  0.7071 -0.0000      0.0000  0.0000  0.0000  0.0000  0.0000  0.0000  0.0000  0.0000  0.0000  0.0000
  o =  0.9431  v =  0.0000  0.0000  0.0000  0.0000  0.0000  0.0000 -0.0000 -0.0000  0.0000  1.0000      0.0000  0.0000  0.0000  0.0000  0.0000  0.0000  0.0000  0.0000  0.0000  0.0000
  o =  0.9752  v =  0.0000  0.0000  0.0000  0.0000  0.0000  0.0000  0.7071  0.0000  0.7071  0.0000      0.0000  0.0000  0.0000  0.0000  0.0000  0.0000  0.0000  0.0000  0.0000  0.0000
atom =   2  type =  1  l = 2
 
 onsite density matrix
 
spin component  1
 
  0.9390  0.0000  0.0007  0.0000  0.0000
  0.0000  0.9584  0.0000 -0.0167  0.0000
  0.0007  0.0000  0.9410  0.0000  0.0000
  0.0000 -0.0167  0.0000  0.9584  0.0000
  0.0000  0.0000  0.0000  0.0000  0.9431
 
spin component  2
 
  0.0788  0.0000 -0.0450  0.0000 -0.0000
  0.0000  0.0467  0.0000 -0.0193  0.0000
 -0.0450  0.0000  0.0542  0.0000 -0.0000
  0.0000 -0.0193  0.0000  0.0467  0.0000
 -0.0000  0.0000 -0.0000  0.0000  0.0220
 
 occupancies and eigenvectors
 
  o =  0.0198  v =  0.0000  0.0000  0.0000  0.0000  0.0000 -0.6067 -0.0000 -0.7950  0.0000 -0.0000      0.0000  0.0000  0.0000  0.0000  0.0000  0.0000  0.0000  0.0000  0.0000  0.0000
  o =  0.0220  v =  0.0000  0.0000  0.0000  0.0000  0.0000 -0.0000  0.0000 -0.0000  0.0000  1.0000      0.0000  0.0000  0.0000  0.0000  0.0000  0.0000  0.0000  0.0000  0.0000  0.0000
  o =  0.0274  v =  0.0000  0.0000  0.0000  0.0000  0.0000  0.0000 -0.7071  0.0000 -0.7071  0.0000      0.0000  0.0000  0.0000  0.0000  0.0000  0.0000  0.0000  0.0000  0.0000  0.0000
  o =  0.0660  v =  0.0000  0.0000  0.0000  0.0000  0.0000  0.0000  0.7071  0.0000 -0.7071 -0.0000      0.0000  0.0000  0.0000  0.0000  0.0000  0.0000  0.0000  0.0000  0.0000  0.0000
  o =  0.1131  v =  0.0000  0.0000  0.0000  0.0000  0.0000 -0.7950 -0.0000  0.6067  0.0000 -0.0000      0.0000  0.0000  0.0000  0.0000  0.0000  0.0000  0.0000  0.0000  0.0000  0.0000
  o =  0.9388  v =  0.9479  0.0000 -0.3185  0.0000  0.0000  0.0000  0.0000  0.0000  0.0000  0.0000      0.0000  0.0000  0.0000  0.0000  0.0000  0.0000  0.0000  0.0000  0.0000  0.0000
  o =  0.9412  v = -0.3185  0.0000 -0.9479  0.0000  0.0000  0.0000  0.0000  0.0000  0.0000  0.0000      0.0000  0.0000  0.0000  0.0000  0.0000  0.0000  0.0000  0.0000  0.0000  0.0000
  o =  0.9417  v = -0.0000 -0.7071 -0.0000 -0.7071 -0.0000  0.0000  0.0000  0.0000  0.0000  0.0000      0.0000  0.0000  0.0000  0.0000  0.0000  0.0000  0.0000  0.0000  0.0000  0.0000
  o =  0.9431  v =  0.0000 -0.0000  0.0000 -0.0000  1.0000  0.0000  0.0000  0.0000  0.0000  0.0000      0.0000  0.0000  0.0000  0.0000  0.0000  0.0000  0.0000  0.0000  0.0000  0.0000
  o =  0.9752  v = -0.0000  0.7071 -0.0000 -0.7071 -0.0000  0.0000  0.0000  0.0000  0.0000  0.0000      0.0000  0.0000  0.0000  0.0000  0.0000  0.0000  0.0000  0.0000  0.0000  0.0000
     EDDAV:  cpu time    2.6066: real time    2.6067
       DOS:  cpu time    0.0003: real time    0.0003
    CHARGE:  cpu time    0.3728: real time    0.3728
    MIXING:  cpu time    0.0007: real time    0.0007
    --------------------------------------------
      LOOP:  cpu time    3.7911: real time    3.7912

 eigenvalue-minimisations  :  5064
 total energy-change (2. order) : 0.4679574E+00  (-0.4850122E+00)
 number of electron      54.0000007 magnetization      -0.0000000
 augmentation part       19.9941228 magnetization      -0.0000000

 Broyden mixing:
  rms(total) = 0.81235E+00    rms(broyden)= 0.81231E+00
  rms(prec ) = 0.89725E+00
  weight for this iteration     100.00

 eigenvalues of (default mixing * dielectric matrix)
  average eigenvalue GAMMA=   0.9452
  1.7119  0.5747  0.7471  0.7471

 Free energy of the ion-electron system (eV)
  ---------------------------------------------------
  alpha Z        PSCENC =       199.38838823
  Ewald energy   TEWEN  =     -4203.06823030
  -Hartree energ DENC   =     -2163.17539216
  -exchange      EXHF   =         0.00000000
  -V(xc)+E(xc)   XCENC  =       168.54235926
  PAW double counting   =      6441.82741714    -6405.61877243
  entropy T*S    EENTRO =        -0.00000000
  eigenvalues    EBANDS =      -795.07499580
  atomic energy  EATOM  =      6689.01075358
  Solvation  Ediel_sol  =         0.00000000
  ---------------------------------------------------
  free energy    TOTEN  =       -68.16847248 eV

  energy without entropy =      -68.16847248  energy(sigma->0) =      -68.16847248


--------------------------------------------------------------------------------------------------------




--------------------------------------- Iteration      1(  10)  ---------------------------------------


    POTLOK:  cpu time    0.0331: real time    0.0331
    SETDIJ:  cpu time    0.7786: real time    0.7786
atom =   1  type =  1  l = 2
 
 onsite density matrix
 
spin component  1
 
  0.0365  0.0000  0.0076  0.0000 -0.0000
  0.0000  0.0515  0.0000  0.0214  0.0000
  0.0076  0.0000  0.0353  0.0000 -0.0000
  0.0000  0.0214  0.0000  0.0515  0.0000
 -0.0000  0.0000 -0.0000  0.0000  0.0296
 
spin component  2
 
  0.9780  0.0000  0.0378  0.0000  0.0000
  0.0000  0.9515  0.0000  0.0164  0.0000
  0.0378  0.0000  0.9563  0.0000  0.0000
  0.0000  0.0164  0.0000  0.9515  0.0000
  0.0000  0.0000  0.0000  0.0000  0.9320
 
 occupancies and eigenvectors
 
  o =  0.0283  v = -0.6775  0.0000  0.7355  0.0000  0.0000  0.0000  0.0000  0.0000  0.0000  0.0000      0.0000  0.0000  0.0000  0.0000  0.0000  0.0000  0.0000  0.0000  0.0000  0.0000
  o =  0.0296  v = -0.0000 -0.0000  0.0000  0.0000 -1.0000  0.0000  0.0000  0.0000  0.0000  0.0000      0.0000  0.0000  0.0000  0.0000  0.0000  0.0000  0.0000  0.0000  0.0000  0.0000
  o =  0.0301  v =  0.0000 -0.7071  0.0000  0.7071 -0.0000  0.0000  0.0000  0.0000  0.0000  0.0000      0.0000  0.0000  0.0000  0.0000  0.0000  0.0000  0.0000  0.0000  0.0000  0.0000
  o =  0.0435  v = -0.7355  0.0000 -0.6775  0.0000  0.0000  0.0000  0.0000  0.0000  0.0000  0.0000      0.0000  0.0000  0.0000  0.0000  0.0000  0.0000  0.0000  0.0000  0.0000  0.0000
  o =  0.0730  v =  0.0000 -0.7071  0.0000 -0.7071 -0.0000  0.0000  0.0000  0.0000  0.0000  0.0000      0.0000  0.0000  0.0000  0.0000  0.0000  0.0000  0.0000  0.0000  0.0000  0.0000
  o =  0.9278  v =  0.0000  0.0000  0.0000  0.0000  0.0000 -0.6019  0.0000  0.7985  0.0000 -0.0000      0.0000  0.0000  0.0000  0.0000  0.0000  0.0000  0.0000  0.0000  0.0000  0.0000
  o =  0.9320  v =  0.0000  0.0000  0.0000  0.0000  0.0000 -0.0000 -0.0000  0.0000  0.0000  1.0000      0.0000  0.0000  0.0000  0.0000  0.0000  0.0000  0.0000  0.0000  0.0000  0.0000
  o =  0.9351  v =  0.0000  0.0000  0.0000  0.0000  0.0000  0.0000  0.7071  0.0000 -0.7071  0.0000      0.0000  0.0000  0.0000  0.0000  0.0000  0.0000  0.0000  0.0000  0.0000  0.0000
  o =  0.9679  v =  0.0000  0.0000  0.0000  0.0000  0.0000  0.0000 -0.7071  0.0000 -0.7071 -0.0000      0.0000  0.0000  0.0000  0.0000  0.0000  0.0000  0.0000  0.0000  0.0000  0.0000
  o =  1.0066  v =  0.0000  0.0000  0.0000  0.0000  0.0000 -0.7985  0.0000 -0.6019  0.0000 -0.0000      0.0000  0.0000  0.0000  0.0000  0.0000  0.0000  0.0000  0.0000  0.0000  0.0000
atom =   2  type =  1  l = 2
 
 onsite density matrix
 
spin component  1
 
  0.9780  0.0000 -0.0378  0.0000 -0.0000
  0.0000  0.9515  0.0000 -0.0164  0.0000
 -0.0378  0.0000  0.9563  0.0000 -0.0000
  0.0000 -0.0164  0.0000  0.9515  0.0000
 -0.0000  0.0000 -0.0000  0.0000  0.9320
 
spin component  2
 
  0.0365  0.0000 -0.0076  0.0000  0.0000
  0.0000  0.0515  0.0000 -0.0214  0.0000
 -0.0076  0.0000  0.0353  0.0000  0.0000
  0.0000 -0.0214  0.0000  0.0515  0.0000
  0.0000  0.0000  0.0000  0.0000  0.0296
 
 occupancies and eigenvectors
 
  o =  0.0283  v =  0.0000  0.0000  0.0000  0.0000  0.0000 -0.6775 -0.0000 -0.7355  0.0000  0.0000      0.0000  0.0000  0.0000  0.0000  0.0000  0.0000  0.0000  0.0000  0.0000  0.0000
  o =  0.0296  v =  0.0000  0.0000  0.0000  0.0000  0.0000 -0.0000  0.0000 -0.0000  0.0000 -1.0000      0.0000  0.0000  0.0000  0.0000  0.0000  0.0000  0.0000  0.0000  0.0000  0.0000
  o =  0.0301  v =  0.0000  0.0000  0.0000  0.0000  0.0000  0.0000  0.7071  0.0000  0.7071  0.0000      0.0000  0.0000  0.0000  0.0000  0.0000  0.0000  0.0000  0.0000  0.0000  0.0000
  o =  0.0435  v =  0.0000  0.0000  0.0000  0.0000  0.0000 -0.7355 -0.0000  0.6775  0.0000  0.0000      0.0000  0.0000  0.0000  0.0000  0.0000  0.0000  0.0000  0.0000  0.0000  0.0000
  o =  0.0730  v =  0.0000  0.0000  0.0000  0.0000  0.0000  0.0000  0.7071  0.0000 -0.7071  0.0000      0.0000  0.0000  0.0000  0.0000  0.0000  0.0000  0.0000  0.0000  0.0000  0.0000
  o =  0.9278  v = -0.6019 -0.0000 -0.7985  0.0000 -0.0000  0.0000  0.0000  0.0000  0.0000  0.0000      0.0000  0.0000  0.0000  0.0000  0.0000  0.0000  0.0000  0.0000  0.0000  0.0000
  o =  0.9320  v =  0.0000  0.0000  0.0000  0.0000 -1.0000  0.0000  0.0000  0.0000  0.0000  0.0000      0.0000  0.0000  0.0000  0.0000  0.0000  0.0000  0.0000  0.0000  0.0000  0.0000
  o =  0.9351  v =  0.0000 -0.7071  0.0000 -0.7071 -0.0000  0.0000  0.0000  0.0000  0.0000  0.0000      0.0000  0.0000  0.0000  0.0000  0.0000  0.0000  0.0000  0.0000  0.0000  0.0000
  o =  0.9679  v =  0.0000 -0.7071  0.0000  0.7071 -0.0000  0.0000  0.0000  0.0000  0.0000  0.0000      0.0000  0.0000  0.0000  0.0000  0.0000  0.0000  0.0000  0.0000  0.0000  0.0000
  o =  1.0066  v = -0.7985 -0.0000  0.6019  0.0000 -0.0000  0.0000  0.0000  0.0000  0.0000  0.0000      0.0000  0.0000  0.0000  0.0000  0.0000  0.0000  0.0000  0.0000  0.0000  0.0000
     EDDAV:  cpu time    2.4818: real time    2.4819
       DOS:  cpu time    0.0003: real time    0.0003
    CHARGE:  cpu time    0.3696: real time    0.3696
    MIXING:  cpu time    0.0007: real time    0.0007
    --------------------------------------------
      LOOP:  cpu time    3.6643: real time    3.6643

 eigenvalue-minimisations  :  4680
 total energy-change (2. order) : 0.7051692E-01  (-0.4335665E-01)
 number of electron      54.0000007 magnetization      -0.0000000
 augmentation part       19.9915389 magnetization      -0.0000000

 Broyden mixing:
  rms(total) = 0.58245E+00    rms(broyden)= 0.58245E+00
  rms(prec ) = 0.64487E+00
  weight for this iteration     100.00

 eigenvalues of (default mixing * dielectric matrix)
  average eigenvalue GAMMA=   1.1853
  2.7644  0.9865  0.9865  0.5944  0.5944

 Free energy of the ion-electron system (eV)
  ---------------------------------------------------
  alpha Z        PSCENC =       199.38838823
  Ewald energy   TEWEN  =     -4203.06823030
  -Hartree energ DENC   =     -2156.44557467
  -exchange      EXHF   =         0.00000000
  -V(xc)+E(xc)   XCENC  =       165.79262579
  PAW double counting   =      6505.98886353    -6470.93399767
  entropy T*S    EENTRO =        -0.00000000
  eigenvalues    EBANDS =      -797.83078405
  atomic energy  EATOM  =      6689.01075358
  Solvation  Ediel_sol  =         0.00000000
  ---------------------------------------------------
  free energy    TOTEN  =       -68.09795555 eV

  energy without entropy =      -68.09795555  energy(sigma->0) =      -68.09795555


--------------------------------------------------------------------------------------------------------




--------------------------------------- Iteration      1(  11)  ---------------------------------------


    POTLOK:  cpu time    0.0334: real time    0.0334
    SETDIJ:  cpu time    0.7761: real time    0.7761
atom =   1  type =  1  l = 2
 
 onsite density matrix
 
spin component  1
 
  0.0482  0.0000  0.0277  0.0000  0.0000
  0.0000  0.0438  0.0000  0.0251  0.0000
  0.0277  0.0000  0.0356  0.0000  0.0000
  0.0000  0.0251  0.0000  0.0438  0.0000
  0.0000  0.0000  0.0000  0.0000  0.0154
 
spin component  2
 
  0.9652  0.0000  0.0207  0.0000 -0.0000
  0.0000  0.9590  0.0000  0.0171  0.0000
  0.0207  0.0000  0.9529  0.0000 -0.0000
  0.0000  0.0171  0.0000  0.9590  0.0000
[...]
     30       6.6060      0.00000
     31       7.3355      0.00000
     32       7.8591      0.00000
     33      10.0340      0.00000
     34      11.0021      0.00000
     35      11.4347      0.00000
     36      12.6029      0.00000

 k-point    28 :       0.2500    0.2500    0.4444
  band No.  band energies     occupation 
      1     -49.2459      1.00000
      2     -49.2058      1.00000
      3     -49.1850      1.00000
      4     -42.7370      1.00000
      5     -42.6940      1.00000
      6     -42.6626      1.00000
      7     -22.6135      1.00000
      8     -22.5590      1.00000
      9     -22.5306      1.00000
     10     -22.4303      1.00000
     11      -4.6221      1.00000
     12      -4.2360      1.00000
     13      -4.2202      1.00000
     14      -3.9303      1.00000
     15      -3.7194      1.00000
     16      -3.3712      1.00000
     17      -3.1722      1.00000
     18      -2.9395      1.00000
     19      -2.4976      1.00000
     20      -2.3260      1.00000
     21      -2.2400      1.00000
     22      -2.1424      1.00000
     23       0.7904      1.00000
     24       0.7906      1.00000
     25       1.0351      1.00000
     26       1.6440      1.00000
     27       2.1075      1.00000
     28       6.3794      0.00000
     29       6.4019      0.00000
     30       6.5801      0.00000
     31       7.3434      0.00000
     32       7.8510      0.00000
     33       9.6756      0.00000
     34      11.2207      0.00000
     35      12.3409      0.00000
     36      12.5039      0.00000

 k-point    29 :       0.4167    0.2500    0.4444
  band No.  band energies     occupation 
      1     -49.2459      1.00000
      2     -49.2058      1.00000
      3     -49.1850      1.00000
      4     -42.7370      1.00000
      5     -42.6940      1.00000
      6     -42.6626      1.00000
      7     -22.6018      1.00000
      8     -22.5642      1.00000
      9     -22.5222      1.00000
     10     -22.4441      1.00000
     11      -4.6644      1.00000
     12      -4.4484      1.00000
     13      -4.1583      1.00000
     14      -4.0464      1.00000
     15      -3.5520      1.00000
     16      -3.3925      1.00000
     17      -3.1675      1.00000
     18      -3.0350      1.00000
     19      -2.3810      1.00000
     20      -2.2905      1.00000
     21      -2.1228      1.00000
     22      -2.0761      1.00000
     23       0.7588      1.00000
     24       0.7943      1.00000
     25       1.0067      1.00000
     26       1.6613      1.00000
     27       2.1806      1.00000
     28       6.3744      0.00000
     29       6.4073      0.00000
     30       6.6095      0.00000
     31       7.3172      0.00000
     32       7.8201      0.00000
     33      10.1803      0.00000
     34      11.3303      0.00000
     35      11.5886      0.00000
     36      12.6329      0.00000

 k-point    30 :       0.4167    0.4167    0.4444
  band No.  band energies     occupation 
      1     -49.2459      1.00000
      2     -49.2058      1.00000
      3     -49.1850      1.00000
      4     -42.7370      1.00000
      5     -42.6940      1.00000
      6     -42.6626      1.00000
      7     -22.6165      1.00000
      8     -22.5555      1.00000
      9     -22.5164      1.00000
     10     -22.4416      1.00000
     11      -4.7741      1.00000
     12      -4.6013      1.00000
     13      -4.1479      1.00000
     14      -4.1417      1.00000
     15      -3.6223      1.00000
     16      -3.2913      1.00000
     17      -3.1508      1.00000
     18      -2.9241      1.00000
     19      -2.2517      1.00000
     20      -2.1889      1.00000
     21      -2.0680      1.00000
     22      -2.0440      1.00000
     23       0.7523      1.00000
     24       0.7916      1.00000
     25       0.9997      1.00000
     26       1.6985      1.00000
     27       2.1790      1.00000
     28       6.3784      0.00000
     29       6.4094      0.00000
     30       6.6208      0.00000
     31       7.2943      0.00000
     32       7.7223      0.00000
     33      10.5322      0.00000
     34      11.7024      0.00000
     35      11.7323      0.00000
     36      12.0108      0.00000


--------------------------------------------------------------------------------------------------------


 soft charge-density along one line, spin component           1
         0         1         2         3         4         5         6         7         8         9
 total charge-density along one line
 
 soft charge-density along one line, spin component           2
         0         1         2         3         4         5         6         7         8         9
 total charge-density along one line
 
 pseudopotential strength for first ion, spin component:           1
-45.227  -0.000  -0.038   7.798   0.000   0.016  -0.000   0.000
 -0.000 -45.193  -0.000   0.000   7.784   0.000   0.000   0.000
 -0.038  -0.000 -45.227   0.016   0.000   7.798   0.000   0.000
  7.798   0.000   0.016   5.590  -0.000   0.004  -0.000  -0.000
  0.000   7.784   0.000  -0.000   5.585  -0.000  -0.000   0.000
  0.016   0.000   7.798   0.004  -0.000   5.590  -0.000  -0.000
 -0.000   0.000   0.000  -0.000  -0.000  -0.000  -2.984  -0.000
  0.000   0.000   0.000  -0.000   0.000  -0.000  -0.000  -2.966
 -0.000   0.000   0.000   0.000  -0.000   0.000   0.020  -0.000
  0.000   0.000   0.000  -0.000   0.000  -0.000  -0.000  -0.018
  0.000   0.000  -0.000  -0.000  -0.000  -0.000  -0.000   0.000
 -0.000   0.000   0.000  -0.000  -0.000  -0.000  -3.499  -0.000
  0.000   0.000   0.000  -0.000   0.000  -0.000  -0.000  -3.482
 -0.000   0.000   0.000   0.000  -0.000   0.000   0.018  -0.000
  0.000   0.000   0.000  -0.000   0.000  -0.000  -0.000  -0.018
  0.000   0.000  -0.000  -0.000  -0.000  -0.000  -0.000   0.000
  0.000  -0.000   0.000   0.000  -0.000  -0.000   0.011   0.000
  0.000  -0.000   0.000   0.000  -0.000  -0.000   0.022   0.000
 pseudopotential strength for first ion, spin component:           2
-50.980  -0.000  -0.005   9.797   0.000   0.016   0.000   0.000
 -0.000 -50.980  -0.000   0.000   9.783   0.000   0.000   0.000
 -0.005  -0.000 -50.980   0.016   0.000   9.797  -0.000   0.000
  9.797   0.000   0.016   4.707  -0.000   0.001  -0.000  -0.000
  0.000   9.783   0.000  -0.000   4.706  -0.000  -0.000  -0.000
  0.016   0.000   9.797   0.001  -0.000   4.707  -0.000  -0.000
  0.000   0.000  -0.000  -0.000  -0.000  -0.000  -7.337  -0.000
  0.000   0.000   0.000  -0.000  -0.000  -0.000  -0.000  -7.327
  0.000   0.000  -0.000  -0.000  -0.000   0.000  -0.009  -0.000
  0.000  -0.000   0.000  -0.000   0.000  -0.000  -0.000  -0.027
 -0.000   0.000   0.000  -0.000  -0.000  -0.000   0.000   0.000
  0.000   0.000  -0.000  -0.000  -0.000  -0.000  -7.808  -0.000
  0.000   0.000   0.000  -0.000  -0.000  -0.000  -0.000  -7.799
  0.000   0.000  -0.000  -0.000  -0.000   0.000  -0.008  -0.000
  0.000  -0.000   0.000  -0.000   0.000  -0.000  -0.000  -0.027
 -0.000   0.000   0.000  -0.000  -0.000  -0.000   0.000   0.000
  0.000  -0.000  -0.000  -0.000  -0.000   0.000   0.011   0.000
  0.000  -0.000  -0.000  -0.000  -0.000   0.000   0.023   0.000
 total augmentation occupancy for first ion, spin component:           1
  2.001   0.000   0.000  -0.013   0.000   0.001   0.000   0.000   0.000   0.000   0.000   0.000   0.000   0.000   0.000   0.000
  0.000   2.001   0.000   0.000  -0.013   0.000   0.000   0.000   0.000   0.000   0.000   0.000   0.000   0.000   0.000   0.000
  0.000   0.000   2.001   0.001   0.000  -0.013   0.000   0.000   0.000   0.000   0.000   0.000   0.000   0.000   0.000   0.000
 -0.013   0.000   0.001   0.081   0.000  -0.009   0.000   0.000   0.000   0.000   0.000   0.000   0.000   0.000   0.000   0.000
  0.000  -0.013   0.000   0.000   0.090   0.000   0.000   0.000   0.000   0.000   0.000   0.000   0.000   0.000   0.000   0.000
  0.001   0.000  -0.013  -0.009   0.000   0.081   0.000   0.000   0.000   0.000   0.000   0.000   0.000   0.000   0.000   0.000
  0.000   0.000   0.000   0.000   0.000   0.000   7.757   0.000   2.996   0.000   0.000  -5.784   0.000  -2.817   0.000  -0.000
  0.000   0.000   0.000   0.000   0.000   0.000   0.000   6.565   0.000   2.534   0.000   0.000  -4.636   0.000  -2.380   0.000
  0.000   0.000   0.000   0.000   0.000   0.000   2.996   0.000   5.955   0.000  -0.000  -2.819   0.000  -4.096   0.000  -0.000
  0.000   0.000   0.000   0.000   0.000   0.000   0.000   2.534   0.000   6.565   0.000   0.000  -2.380   0.000  -4.636   0.000
  0.000   0.000   0.000   0.000   0.000   0.000   0.000   0.000   0.000   0.000   3.894   0.000   0.000  -0.000   0.000  -2.113
  0.000   0.000   0.000   0.000   0.000   0.000  -5.784   0.000  -2.819   0.000   0.000   4.984   0.000   2.683   0.000  -0.000
  0.000   0.000   0.000   0.000   0.000   0.000   0.000  -4.636   0.000  -2.380   0.000   0.000   3.872   0.000   2.263   0.000
  0.000   0.000   0.000   0.000   0.000   0.000  -2.817   0.000  -4.096   0.000   0.000   2.683   0.000   3.385   0.000   0.000
  0.000   0.000   0.000   0.000   0.000   0.000   0.000  -2.380   0.000  -4.636   0.000   0.000   2.263   0.000   3.872   0.000
  0.000   0.000   0.000   0.000   0.000   0.000  -0.000   0.000   0.000   0.000  -2.113   0.000   0.000   0.000   0.000   1.456
  0.000   0.000   0.000   0.000   0.000   0.000   0.440   0.000  -0.297   0.000   0.000  -0.417   0.000   0.276   0.000   0.000
  0.000   0.000   0.000   0.000   0.000   0.000  -0.091   0.000   0.068   0.000  -0.000   0.097   0.000  -0.068   0.000   0.000
 total augmentation occupancy for first ion, spin component:           2
  0.004   0.000  -0.000   0.017   0.000  -0.001   0.000   0.000   0.000   0.000   0.000   0.000   0.000   0.000   0.000   0.000
  0.000   0.004   0.000   0.000   0.018   0.000   0.000   0.000   0.000   0.000   0.000   0.000   0.000   0.000   0.000   0.000
 -0.000   0.000   0.004  -0.001   0.000   0.017   0.000   0.000   0.000   0.000   0.000   0.000   0.000   0.000   0.000   0.000
  0.017   0.000  -0.001  -0.011   0.000  -0.000   0.000   0.000   0.000   0.000   0.000   0.000   0.000   0.000   0.000   0.000
  0.000   0.018   0.000   0.000  -0.010   0.000   0.000   0.000   0.000   0.000   0.000   0.000   0.000   0.000   0.000   0.000
 -0.001   0.000   0.017  -0.000   0.000  -0.011   0.000   0.000   0.000   0.000   0.000   0.000   0.000   0.000   0.000   0.000
  0.000   0.000   0.000   0.000   0.000   0.000  -5.102   0.000  -1.493   0.000   0.000   2.727   0.000   1.097   0.000   0.000
  0.000   0.000   0.000   0.000   0.000   0.000   0.000  -4.548   0.000  -1.273   0.000   0.000   2.299   0.000   0.937   0.000
  0.000   0.000   0.000   0.000   0.000   0.000  -1.493   0.000  -4.149   0.000  -0.000   1.097   0.000   2.012   0.000   0.000
  0.000   0.000   0.000   0.000   0.000   0.000   0.000  -1.273   0.000  -4.548   0.000   0.000   0.937   0.000   2.299   0.000
  0.000   0.000   0.000   0.000   0.000   0.000   0.000   0.000  -0.000   0.000  -3.256   0.000   0.000  -0.000   0.000   1.355
  0.000   0.000   0.000   0.000   0.000   0.000   2.727   0.000   1.097   0.000   0.000  -1.456   0.000  -0.706   0.000   0.000
  0.000   0.000   0.000   0.000   0.000   0.000   0.000   2.299   0.000   0.937   0.000   0.000  -1.155   0.000  -0.606   0.000
  0.000   0.000   0.000   0.000   0.000   0.000   1.097   0.000   2.012   0.000  -0.000  -0.706   0.000  -0.974   0.000   0.000
  0.000   0.000   0.000   0.000   0.000   0.000   0.000   0.937   0.000   2.299   0.000   0.000  -0.606   0.000  -1.155   0.000
  0.000   0.000   0.000   0.000   0.000   0.000   0.000   0.000   0.000   0.000   1.355   0.000   0.000  -0.000   0.000  -0.556
  0.000   0.000   0.000   0.000   0.000   0.000  -0.098   0.000   0.055   0.000  -0.000   0.022   0.000   0.001   0.000   0.000
  0.000   0.000   0.000   0.000   0.000   0.000  -0.000   0.000  -0.006   0.000   0.000   0.009   0.000  -0.004   0.000   0.000


------------------------ aborting loop because EDIFF is reached ----------------------------------------


 


 total charge     
 
# of ion       s       p       d       tot
------------------------------------------
    1        0.168   6.149   4.965  11.282
    2        0.172   6.145   4.971  11.288
    3        1.731   4.401   0.000   6.132
    4        1.731   4.401   0.000   6.132
    5        1.730   4.398   0.000   6.128
    6        1.730   4.398   0.000   6.128
--------------------------------------------------
tot          7.262  29.891   9.936  47.090
 


 magnetization (x)
 
# of ion       s       p       d       tot
------------------------------------------
    1       -0.022  -0.018  -4.581  -4.621
    2        0.023   0.016   4.579   4.618
    3        0.003   0.024   0.000   0.027
    4        0.003   0.024   0.000   0.027
    5       -0.003  -0.021   0.000  -0.024
    6       -0.003  -0.021   0.000  -0.024
--------------------------------------------------
tot         -0.001   0.006  -0.002   0.003
 
    CHARGE:  cpu time    0.0677: real time    0.0677
    FORLOC:  cpu time    0.0008: real time    0.0008
    FORNL :  cpu time    0.3712: real time    0.3712
    STRESS:  cpu time    6.5358: real time    6.5358
    FORCOR:  cpu time    0.0295: real time    0.0295
    FORHAR:  cpu time    0.0022: real time    0.0022
    MIXING:  cpu time    0.0013: real time    0.0013
    OFIELD:  cpu time    0.0000: real time    0.0000

  FORCE on cell =-STRESS in cart. coord.  units (eV):
  Direction    XX          YY          ZZ          XY          YZ          ZX
  --------------------------------------------------------------------------------------
  Alpha Z   199.38839   199.38839   199.38839
  Ewald   -1586.09778 -1586.09778 -1030.87583    -0.00000     0.00000     0.00000
  Hartree   594.08486   594.08486   969.39636    -0.00000    -0.00000    -0.00000
  E(xc)    -150.54807  -150.52247  -150.65926    -0.01455    -0.02275    -0.02476
  Local     163.67395   163.67395  -759.97259    -0.00000     0.00000    -0.00000
  n-local  -310.01712  -310.32310  -309.26986     0.01727     0.09868     0.09931
  augment   158.51959   158.51959   158.02740    -0.00000     0.00000    -0.00000
  Kinetic   930.82757   931.45531   923.95882    -0.38960    -0.71215    -0.75519
  Fock        0.00000     0.00000     0.00000     0.00000     0.00000     0.00000
  -------------------------------------------------------------------------------------
  Total       0.00505     0.00505    -0.00656     0.00000     0.00000     0.00000
  in kB       0.10460     0.10460    -0.13580     0.00000     0.00000     0.00000
  external pressure =        0.02 kB  Pullay stress =        0.00 kB


 VOLUME and BASIS-vectors are now :
 -----------------------------------------------------------------------------
  energy-cutoff  :      600.00
  volume of cell :       77.42
      direct lattice vectors                 reciprocal lattice vectors
     4.852568500  0.000000000  0.000000000     0.206076431  0.000000000  0.000000000
     0.000000000  4.852568500  0.000000000     0.000000000  0.206076431  0.000000000
     0.000000000  0.000000000  3.288011935     0.000000000  0.000000000  0.304135149

  length of vectors
     4.852568500  4.852568500  3.288011935     0.206076431  0.206076431  0.304135149


 FORCES acting on ions
    electron-ion (+dipol)            ewald-force                    non-local-force                 convergence-correction
 -----------------------------------------------------------------------------------------------
   -.178E-11 0.656E-11 -.531E-13   -.568E-13 -.568E-13 -.305E-14   0.000E+00 0.000E+00 0.000E+00   0.163E-13 -.159E-13 0.106E-12
   -.255E-13 -.265E-13 0.451E-13   0.171E-12 0.171E-12 -.494E-14   0.000E+00 0.000E+00 0.000E+00   -.164E-13 0.219E-13 -.119E-12
   -.325E+02 0.325E+02 0.864E-12   0.337E+02 -.337E+02 0.930E-15   -.120E+01 0.120E+01 0.000E+00   -.269E-04 0.269E-04 0.773E-14
   0.325E+02 -.325E+02 -.811E-11   -.337E+02 0.337E+02 0.116E-14   0.120E+01 -.120E+01 0.000E+00   0.269E-04 -.269E-04 0.884E-13
   0.325E+02 0.325E+02 0.515E-08   -.337E+02 -.337E+02 -.175E-14   0.120E+01 0.120E+01 -.542E-19   0.269E-04 0.269E-04 -.708E-11
   -.325E+02 -.325E+02 -.515E-08   0.337E+02 0.337E+02 -.154E-14   -.120E+01 -.120E+01 0.542E-19   -.269E-04 -.269E-04 0.697E-11
 -----------------------------------------------------------------------------------------------
   0.757E-12 0.751E-11 -.717E-11   0.000E+00 0.000E+00 -.918E-14   0.000E+00 0.000E+00 0.000E+00   -.261E-13 -.669E-15 -.240E-13
 
 
 POSITION                                       TOTAL-FORCE (eV/Angst)
 -----------------------------------------------------------------------------------
      2.42628      2.42628      1.64401         0.000000     -0.000000      0.000000
      0.00000      0.00000      0.00000         0.000000     -0.000000      0.000000
      0.95159      3.90098      1.64401         0.001587     -0.001587      0.000000
      3.90098      0.95159      1.64401        -0.001587      0.001587     -0.000000
      1.47470      1.47470      0.00000        -0.001587     -0.001587      0.000000
      3.37787      3.37787      0.00000         0.001587      0.001587     -0.000000
 -----------------------------------------------------------------------------------
    total drift:                                0.000000      0.000000     -0.000000


--------------------------------------------------------------------------------------------------------



  FREE ENERGIE OF THE ION-ELECTRON SYSTEM (eV)
  ---------------------------------------------------
  free  energy   TOTEN  =       -68.02430124 eV

  energy  without entropy=      -68.02430124  energy(sigma->0) =      -68.02430124
 


--------------------------------------------------------------------------------------------------------


    POTLOK:  cpu time    0.8126: real time    0.8126


--------------------------------------------------------------------------------------------------------


 writing wavefunctions
     LOOP+:  cpu time   88.3374: real time   88.3576
    4ORBIT:  cpu time    0.0000: real time    0.0000
 


 total charge     
 
# of ion       s       p       d       tot
------------------------------------------
    1        0.168   6.149   4.965  11.282
    2        0.172   6.145   4.971  11.288
    3        1.731   4.401   0.000   6.132
    4        1.731   4.401   0.000   6.132
    5        1.730   4.398   0.000   6.128
    6        1.730   4.398   0.000   6.128
--------------------------------------------------
tot          7.262  29.891   9.936  47.090
 


 magnetization (x)
 
# of ion       s       p       d       tot
------------------------------------------
    1       -0.022  -0.018  -4.581  -4.621
    2        0.023   0.016   4.579   4.618
    3        0.003   0.024   0.000   0.027
    4        0.003   0.024   0.000   0.027
    5       -0.003  -0.021   0.000  -0.024
    6       -0.003  -0.021   0.000  -0.024
--------------------------------------------------
tot         -0.001   0.006  -0.002   0.003
 

 total amount of memory used by VASP MPI-rank0    66335. kBytes
=======================================================================

   base      :      30000. kBytes
   nonl-proj :      22748. kBytes
   fftplans  :       1875. kBytes
   grid      :       3820. kBytes
   one-center:        186. kBytes
   wavefun   :       7706. kBytes
 
  
  
 General timing and accounting informations for this job:
 ========================================================
  
                  Total CPU time used (sec):       90.110
                            User time (sec):       76.035
                          System time (sec):       14.076
                         Elapsed time (sec):       90.181
  
                   Maximum memory used (kb):       81768.
                   Average memory used (kb):           0.
  
                          Minor page faults:        17527
                          Major page faults:            7
                 Voluntary context switches:          317
