       N       E                     dE             d eps       ncg     rms          rms(c)
DAV:   1     0.622394031329E+03    0.62239E+03   -0.31177E+04  1296   0.166E+03
DAV:   2     0.368777460031E+01   -0.61871E+03   -0.60259E+03  1500   0.474E+02
DAV:   3    -0.395420469625E+02   -0.43230E+02   -0.43070E+02  1488   0.141E+02
DAV:   4    -0.400892156627E+02   -0.54717E+00   -0.54705E+00  1464   0.174E+01
DAV:   5    -0.400980665181E+02   -0.88509E-02   -0.88505E-02  1560   0.213E+00    0.226E+01
DAV:   6    -0.381984968524E+02    0.18996E+01   -0.15582E+01  1608   0.315E+01    0.143E+01
DAV:   7    -0.389261696300E+02   -0.72767E+00   -0.18199E+00  1548   0.106E+01    0.113E+01
DAV:   8    -0.389878576120E+02   -0.61688E-01   -0.41755E-01  1500   0.545E+00    0.521E+00
DAV:   9    -0.391514921160E+02   -0.16363E+00   -0.47859E-02  1332   0.215E+00    0.129E+00
DAV:  10    -0.391525507774E+02   -0.10587E-02   -0.19679E-02  1584   0.124E+00    0.281E-01
DAV:  11    -0.391527909770E+02   -0.24020E-03   -0.27859E-03  1368   0.347E-01    0.131E-01
DAV:  12    -0.391529446205E+02   -0.15364E-03   -0.10247E-04  1572   0.121E-01    0.535E-02
DAV:  13    -0.391529983838E+02   -0.53763E-04   -0.85178E-05  1356   0.533E-02    0.209E-02
DAV:  14    -0.391530082915E+02   -0.99077E-05   -0.83597E-06  1524   0.208E-02    0.877E-03
DAV:  15    -0.391530081052E+02    0.18632E-06   -0.13100E-06  1428   0.702E-03    0.258E-03
DAV:  16    -0.391530083542E+02   -0.24900E-06   -0.20909E-07  1428   0.266E-03    0.169E-03
DAV:  17    -0.391530083159E+02    0.38309E-07   -0.17043E-08   924   0.104E-03
   1 F= -.39153008E+02 E0= -.39153008E+02  d E =-.391530E+02  mag=     0.0000
