 vasp.5.4.4.18Apr17-6-g9f103f2a35 (build Apr 27 2017 11:13:10) complex          
  
 executed on           IFC91_ompi date 2020.05.30  03:33:52
 running on    4 total cores
 distrk:  each k-point on    4 cores,    1 groups
 distr:  one band on NCORES_PER_BAND=   1 cores,    4 groups


--------------------------------------------------------------------------------------------------------


 INCAR:
 POTCAR:    PAW_PBE Mn_pv 02Aug2007               
 POTCAR:    PAW_PBE F 08Apr2002                   
 POTCAR:    PAW_PBE Mn_pv 02Aug2007               
   VRHFIN =Mn: 3p4s3d                                                           
   LEXCH  = PE                                                                  
   EATOM  =  2025.2664 eV,  148.8529 Ry                                         
                                                                                
   TITEL  = PAW_PBE Mn_pv 02Aug2007                                             
   LULTRA =        F    use ultrasoft PP ?                                      
   IUNSCR =        1    unscreen: 0-lin 1-nonlin 2-no                           
   RPACOR =    2.080    partial core radius                                     
   POMASS =   54.938; ZVAL   =   13.000    mass and valenz                      
   RCORE  =    2.300    outmost cutoff radius                                   
   RWIGS  =    2.500; RWIGS  =    1.323    wigner-seitz radius (au A)           
   ENMAX  =  269.864; ENMIN  =  202.398 eV                                      
   ICORE  =        3    local potential                                         
   LCOR   =        T    correct aug charges                                     
   LPAW   =        T    paw PP                                                  
   EAUG   =  569.085                                                            
   DEXC   =    0.000                                                            
   RMAX   =    2.343    core radius for proj-oper                               
   RAUG   =    1.300    factor for augmentation sphere                          
   RDEP   =    2.338    radius for radial grids                                 
   RDEPT  =    1.798    core radius for aug-charge                              
                                                                                
   Atomic configuration                                                         
    8 entries                                                                   
     n  l   j            E        occ.                                          
     1  0  0.50     -6424.8287   2.0000                                         
     2  0  0.50      -739.1154   2.0000                                         
     2  1  1.50      -625.3949   6.0000                                         
     3  0  0.50       -81.6100   2.0000                                         
     3  1  1.50       -50.4667   6.0000                                         
     3  2  2.50        -3.3745   6.0000                                         
     4  0  0.50        -4.1331   1.0000                                         
     4  3  2.50        -1.3606   0.0000                                         
   Description                                                                  
     l       E           TYP  RCUT    TYP  RCUT                                 
     1    -50.4666628     23  2.000                                             
     1     -1.3605826     23  2.000                                             
     2     -3.3744729     23  2.300                                             
     2     -4.7350555     23  2.300                                             
     0     -4.1331431     23  2.300                                             
     0      7.6656591     23  2.300                                             
     3      9.5240782     23  2.300                                             
  local pseudopotential read in
  partial core-charges read in
  partial kinetic energy density read in
  atomic valenz-charges read in
  non local Contribution for L=           1  read in
    real space projection operators read in
  non local Contribution for L=           1  read in
    real space projection operators read in
  non local Contribution for L=           2  read in
    real space projection operators read in
  non local Contribution for L=           2  read in
    real space projection operators read in
  non local Contribution for L=           0  read in
    real space projection operators read in
  non local Contribution for L=           0  read in
    real space projection operators read in
    PAW grid and wavefunctions read in
 
   number of l-projection  operators is LMAX  =           6
   number of lm-projection operators is LMMAX =          18
 
 POTCAR:    PAW_PBE F 08Apr2002                   
   VRHFIN =F: s2p5                                                              
   LEXCH  = PE                                                                  
   EATOM  =   659.6475 eV,   48.4827 Ry                                         
                                                                                
   TITEL  = PAW_PBE F 08Apr2002                                                 
   LULTRA =        F    use ultrasoft PP ?                                      
   IUNSCR =        1    unscreen: 0-lin 1-nonlin 2-no                           
   RPACOR =    1.200    partial core radius                                     
   POMASS =   18.998; ZVAL   =    7.000    mass and valenz                      
   RCORE  =    1.520    outmost cutoff radius                                   
   RWIGS  =    1.500; RWIGS  =    0.794    wigner-seitz radius (au A)           
   ENMAX  =  400.000; ENMIN  =  300.000 eV                                      
   ICORE  =        2    local potential                                         
   LCOR   =        T    correct aug charges                                     
   LPAW   =        T    paw PP                                                  
   EAUG   =  613.614                                                            
   RMAX   =    1.555    core radius for proj-oper                               
   RAUG   =    1.300    factor for augmentation sphere                          
   RDEP   =    1.539    radius for radial grids                                 
   RDEPT  =    1.299    core radius for aug-charge                              
                                                                                
   Atomic configuration                                                         
    4 entries                                                                   
     n  l   j            E        occ.                                          
     1  0  0.50      -663.3661   2.0000                                         
     2  0  0.50       -29.8995   2.0000                                         
     2  1  0.50       -11.1114   5.0000                                         
     3  2  1.50       -10.8847   0.0000                                         
   Description                                                                  
     l       E           TYP  RCUT    TYP  RCUT                                 
     0    -29.8995018     23  1.200                                             
     0     -9.5240782     23  1.200                                             
     1    -11.1113914     23  1.520                                             
     1      1.3605826     23  1.520                                             
     2    -10.8846608      7  1.500                                             
  local pseudopotential read in
  partial core-charges read in
  partial kinetic energy density read in
  atomic valenz-charges read in
  non local Contribution for L=           0  read in
    real space projection operators read in
  non local Contribution for L=           0  read in
    real space projection operators read in
  non local Contribution for L=           1  read in
    real space projection operators read in
  non local Contribution for L=           1  read in
    real space projection operators read in
    PAW grid and wavefunctions read in
 
   number of l-projection  operators is LMAX  =           4
   number of lm-projection operators is LMMAX =           8
 

 ----------------------------------------------------------------------------- 
|                                                                             |
|  ADVICE TO THIS USER RUNNING 'VASP/VAMP'   (HEAR YOUR MASTER'S VOICE ...):  |
|                                                                             |
|      You enforced a specific xc-type in the INCAR file,                     |
|      a different type was found on the POTCAR file                          |
|          I HOPE YOU KNOW, WHAT YOU ARE  DOING                               |
|                                                                             |
 ----------------------------------------------------------------------------- 

  PAW_PBE Mn_pv 02Aug2007               :
 energy of atom  1       EATOM=-2025.2664
 kinetic energy error for atom=    0.0020 (will be added to EATOM!!)
  PAW_PBE F 08Apr2002                   :
 energy of atom  2       EATOM= -659.6475
 kinetic energy error for atom=    0.0140 (will be added to EATOM!!)
 
 
 POSCAR: Mn  F                                   
  positions in cartesian coordinates
  No initial velocities read in
 exchange correlation table for  LEXCH =       14
   RHO(1)=    0.500       N(1)  =     2000
   RHO(2)=  100.500       N(2)  =     4000
 


--------------------------------------------------------------------------------------------------------


 ion  position               nearest neighbor table
   1  0.500  0.500  0.500-   3 2.11   4 2.11   5 2.14   6 2.14   5 2.14   6 2.14
   2  0.000  0.000  0.000-   5 2.11   6 2.11   3 2.14   4 2.14   3 2.14   4 2.14
   3  0.195  0.805  0.500-   1 2.11   2 2.14   2 2.14
   4  0.805  0.195  0.500-   1 2.11   2 2.14   2 2.14
   5  0.305  0.305  0.000-   2 2.11   1 2.14   1 2.14
   6  0.695  0.695  0.000-   2 2.11   1 2.14   1 2.14
 

IMPORTANT INFORMATION: All symmetrisations will be switched off!
NOSYMM: (Re-)initialisation of all symmetry stuff for point group C_1.

 
 
 KPOINTS: KPOINTS created by Atomic Simulation Env
  k-points in reciprocal lattice
Space group operators:
 irot       det(A)        alpha          n_x          n_y          n_z        tau_x        tau_y        tau_z
    1     1.000000     0.000000     1.000000     0.000000     0.000000     0.000000     0.000000     0.000000


--------------------------------------------------------------------------------------------------------




 Dimension of arrays:
   k-points           NKPTS =    152   k-points in BZ     NKDIM =    152   number of bands    NBANDS=     48
   number of dos      NEDOS =    301   number of ions     NIONS =      6
   non local maximal  LDIM  =      6   non local SUM 2l+1 LMDIM =     18
   total plane-waves  NPLWV =  24576
   max r-space proj   IRMAX =      1   max aug-charges    IRDMAX=  75389
   dimension x,y,z NGX =    32 NGY =   32 NGZ =   24
   dimension x,y,z NGXF=    64 NGYF=   64 NGZF=   48
   support grid    NGXF=   128 NGYF=  128 NGZF=   96
   ions per type =               2   4
   NGX,Y,Z   is equivalent  to a cutoff of  10.88, 10.88, 12.04 a.u.
   NGXF,Y,Z  is equivalent  to a cutoff of  21.75, 21.75, 24.07 a.u.

 SYSTEM =  unknown system                          
 POSCAR =  Mn  F                                   

 Startparameter for this run:
   NWRITE =      2    write-flag & timer
   PREC   = normal    normal or accurate (medium, high low for compatibility)
   ISTART =      0    job   : 0-new  1-cont  2-samecut
   ICHARG =     11    charge: 1-file 2-atom 10-const
   ISPIN  =      2    spin polarized calculation?
   LNONCOLLINEAR =      F non collinear calculations
   LSORBIT =      F    spin-orbit coupling
   INIWAV =      1    electr: 0-lowe 1-rand  2-diag
   LASPH  =      T    aspherical Exc in radial PAW
   METAGGA=      F    non-selfconsistent MetaGGA calc.

 Electronic Relaxation 1
   ENCUT  =  700.0 eV  51.45 Ry    7.17 a.u.  10.55 10.55  7.15*2*pi/ulx,y,z
   ENINI  =  700.0     initial cutoff
   ENAUG  =  613.6 eV  augmentation charge cutoff
   NELM   =     60;   NELMIN=  2; NELMDL=  0     # of ELM steps 
   EDIFF  = 0.1E-06   stopping-criterion for ELM
   LREAL  =      F    real-space projection
   NLSPLINE    = F    spline interpolate recip. space projectors
   LCOMPAT=      F    compatible to vasp.4.4
   GGA_COMPAT  = T    GGA compatible to vasp.4.4-vasp.4.6
   LMAXPAW     = -100 max onsite density
   LMAXMIX     =    4 max onsite mixed and CHGCAR
   VOSKOWN=      0    Vosko Wilk Nusair interpolation
   ROPT   =    0.00000   0.00000
 Ionic relaxation
   EDIFFG = 0.1E-05   stopping-criterion for IOM
   NSW    =      0    number of steps for IOM
   NBLOCK =      1;   KBLOCK =      1    inner block; outer block 
   IBRION =     -1    ionic relax: 0-MD 1-quasi-New 2-CG
   NFREE  =      0    steps in history (QN), initial steepest desc. (CG)
   ISIF   =      2    stress and relaxation
   IWAVPR =     10    prediction:  0-non 1-charg 2-wave 3-comb
   ISYM   =      0    0-nonsym 1-usesym 2-fastsym
   LCORR  =      T    Harris-Foulkes like correction to forces

   POTIM  = 0.5000    time-step for ionic-motion
   TEIN   =    0.0    initial temperature
   TEBEG  =    0.0;   TEEND  =   0.0 temperature during run
   SMASS  =  -3.00    Nose mass-parameter (am)
   estimated Nose-frequenzy (Omega)   =  0.10E-29 period in steps =****** mass=  -0.547E-27a.u.
   SCALEE = 1.0000    scale energy and forces
   NPACO  =    256;   APACO  = 16.0  distance and # of slots for P.C.
   PSTRESS=    0.0 pullay stress

  Mass of Ions in am
   POMASS =  54.94 19.00
  Ionic Valenz
   ZVAL   =  13.00  7.00
  Atomic Wigner-Seitz radii
   RWIGS  =  -1.00 -1.00
  virtual crystal weights 
   VCA    =   1.00  1.00
   NELECT =      54.0000    total number of electrons
   NUPDOWN=      -1.0000    fix difference up-down

 DOS related values:
   EMIN   =  10.00;   EMAX   =-10.00  energy-range for DOS
   EFERMI =   0.00
   ISMEAR =     0;   SIGMA  =   0.01  broadening in eV -4-tet -1-fermi 0-gaus

 Electronic relaxation 2 (details)
   IALGO  =     38    algorithm
   LDIAG  =      T    sub-space diagonalisation (order eigenvalues)
   LSUBROT=      F    optimize rotation matrix (better conditioning)
   TURBO    =      0    0=normal 1=particle mesh
   IRESTART =      0    0=no restart 2=restart with 2 vectors
   NREBOOT  =      0    no. of reboots
   NMIN     =      0    reboot dimension
   EREF     =   0.00    reference energy to select bands
   IMIX   =      4    mixing-type and parameters
     AMIX     =   0.40;   BMIX     =  1.00
     AMIX_MAG =   1.60;   BMIX_MAG =  1.00
     AMIN     =   0.10
     WC   =   100.;   INIMIX=   1;  MIXPRE=   1;  MAXMIX= -45

 Intra band minimization:
   WEIMIN = 0.0000     energy-eigenvalue tresh-hold
   EBREAK =  0.52E-09  absolut break condition
   DEPER  =   0.30     relativ break condition  

   TIME   =   0.40     timestep for ELM

  volume/ion in A,a.u.               =      13.22        89.23
  Fermi-wavevector in a.u.,A,eV,Ry     =   1.440092  2.721380 28.216662  2.073866
  Thomas-Fermi vector in A             =   2.558875
 
 Write flags
   LWAVE        =      F    write WAVECAR
   LDOWNSAMPLE  =      F    k-point downsampling of WAVECAR
   LCHARG       =      T    write CHGCAR
   LVTOT        =      F    write LOCPOT, total local potential
   LVHAR        =      F    write LOCPOT, Hartree potential only
   LELF         =      F    write electronic localiz. function (ELF)
   LORBIT       =     11    0 simple, 1 ext, 2 COOP (PROOUT), +10 PAW based schemes


 Dipole corrections
   LMONO  =      F    monopole corrections only (constant potential shift)
   LDIPOL =      F    correct potential (dipole corrections)
   IDIPOL =      0    1-x, 2-y, 3-z, 4-all directions 
   EPSILON=  1.0000000 bulk dielectric constant

 LDA+U is selected, type is set to LDAUTYPE =  2
   angular momentum for each species LDAUL =     2   -1
   U (eV)           for each species LDAUU =   0.0  0.0
   J (eV)           for each species LDAUJ =   0.0  0.0
 Exchange correlation treatment:
   GGA     =    PS    GGA type
   LEXCH   =    14    internal setting for exchange type
   VOSKOWN=      0    Vosko Wilk Nusair interpolation
   LHFCALC =     F    Hartree Fock is set to
   LHFONE  =     F    Hartree Fock one center treatment
   AEXX    =    0.0000 exact exchange contribution

 Linear response parameters
   LEPSILON=     F    determine dielectric tensor
   LRPA    =     F    only Hartree local field effects (RPA)
   LNABLA  =     F    use nabla operator in PAW spheres
   LVEL    =     F    velocity operator in full k-point grid
   LINTERFAST=   F  fast interpolation
   KINTER  =     0    interpolate to denser k-point grid
   CSHIFT  =0.1000    complex shift for real part using Kramers Kronig
   OMEGAMAX=  -1.0    maximum frequency
   DEG_THRESHOLD= 0.2000000E-02 threshold for treating states as degnerate
   RTIME   =   -0.100 relaxation time in fs
  (WPLASMAI=    0.000 imaginary part of plasma frequency in eV, 0.658/RTIME)
   DFIELD  = 0.0000000 0.0000000 0.0000000 field for delta impulse in time
 
 Orbital magnetization related:
   ORBITALMAG=     F  switch on orbital magnetization
   LCHIMAG   =     F  perturbation theory with respect to B field
   DQ        =  0.001000  dq finite difference perturbation B field
   LLRAUG    =     F  two centre corrections for induced B field



--------------------------------------------------------------------------------------------------------


 Static calculation
 charge density and potential remain constant during run
 spin polarized calculation
 Variant of blocked Davidson
 Davidson routine will perform the subspace rotation
 perform sub-space diagonalisation
    after iterative eigenvector-optimisation
 no mixing
 using additional bands           21
 reciprocal scheme for non local part
 use partial core corrections
 calculate Harris-corrections to forces 
   (improved forces if not selfconsistent)
 use gradient corrections 
 WARNING: stress and forces are not correct
  (second derivative of E(xc) not defined)
 use of overlap-Matrix (Vanderbilt PP)
 Gauss-broadening in eV      SIGMA  =   0.01


--------------------------------------------------------------------------------------------------------


  energy-cutoff  :      700.00
  volume of cell :       79.33
      direct lattice vectors                 reciprocal lattice vectors
     4.891796665  0.000000000  0.000000000     0.204423869  0.000000000  0.000000000
     0.000000000  4.891796665  0.000000000     0.000000000  0.204423869  0.000000000
     0.000000000  0.000000000  3.315204934     0.000000000  0.000000000  0.301640478

  length of vectors
     4.891796665  4.891796665  3.315204934     0.204423869  0.204423869  0.301640478


 
 k-points in units of 2pi/SCALE and weight: KPOINTS created by Atomic Simulation Env
   0.00000000  0.00000000  0.00000000       0.007
   0.00000000  0.00786255  0.00000000       0.007
   0.00000000  0.01572490  0.00000000       0.007
   0.00000000  0.02358745  0.00000000       0.007
   0.00000000  0.03144979  0.00000000       0.007
   0.00000000  0.03931235  0.00000000       0.007
   0.00000000  0.04717469  0.00000000       0.007
   0.00000000  0.05503724  0.00000000       0.007
   0.00000000  0.06289959  0.00000000       0.007
   0.00000000  0.07076214  0.00000000       0.007
   0.00000000  0.07862449  0.00000000       0.007
   0.00000000  0.08648704  0.00000000       0.007
   0.00000000  0.09434938  0.00000000       0.007
   0.00000000  0.10221193  0.00000000       0.007
   0.00786255  0.10221193  0.00000000       0.007
   0.01572490  0.10221193  0.00000000       0.007
   0.02358745  0.10221193  0.00000000       0.007
   0.03144979  0.10221193  0.00000000       0.007
   0.03931235  0.10221193  0.00000000       0.007
   0.04717469  0.10221193  0.00000000       0.007
   0.05503724  0.10221193  0.00000000       0.007
   0.06289959  0.10221193  0.00000000       0.007
   0.07076214  0.10221193  0.00000000       0.007
   0.07862449  0.10221193  0.00000000       0.007
   0.08648704  0.10221193  0.00000000       0.007
   0.09434938  0.10221193  0.00000000       0.007
   0.10221193  0.10221193  0.00000000       0.007
   0.09653345  0.09653345  0.00000000       0.007
   0.09085496  0.09085496  0.00000000       0.007
   0.08517668  0.08517668  0.00000000       0.007
   0.07949819  0.07949819  0.00000000       0.007
   0.07381971  0.07381971  0.00000000       0.007
   0.06814122  0.06814122  0.00000000       0.007
   0.06246294  0.06246294  0.00000000       0.007
   0.05678445  0.05678445  0.00000000       0.007
   0.05110597  0.05110597  0.00000000       0.007
   0.04542748  0.04542748  0.00000000       0.007
   0.03974899  0.03974899  0.00000000       0.007
   0.03407071  0.03407071  0.00000000       0.007
   0.02839223  0.02839223  0.00000000       0.007
   0.02271374  0.02271374  0.00000000       0.007
   0.01703525  0.01703525  0.00000000       0.007
   0.01135697  0.01135697  0.00000000       0.007
   0.00567849  0.00567849  0.00000000       0.007
   0.00000000  0.00000000  0.00000000       0.007
   0.00000000  0.00000000  0.00793797       0.007
   0.00000000  0.00000000  0.01587594       0.007
   0.00000000  0.00000000  0.02381361       0.007
   0.00000000  0.00000000  0.03175158       0.007
   0.00000000  0.00000000  0.03968955       0.007
   0.00000000  0.00000000  0.04762752       0.007
   0.00000000  0.00000000  0.05556549       0.007
   0.00000000  0.00000000  0.06350316       0.007
   0.00000000  0.00000000  0.07144113       0.007
   0.00000000  0.00000000  0.07937910       0.007
   0.00000000  0.00000000  0.08731708       0.007
   0.00000000  0.00000000  0.09525474       0.007
   0.00000000  0.00000000  0.10319272       0.007
   0.00000000  0.00000000  0.11113069       0.007
   0.00000000  0.00000000  0.11906866       0.007
   0.00000000  0.00000000  0.12700663       0.007
   0.00000000  0.00000000  0.13494430       0.007
   0.00000000  0.00000000  0.14288227       0.007
   0.00000000  0.00000000  0.15082024       0.007
   0.00000000  0.00786255  0.15082024       0.007
   0.00000000  0.01572490  0.15082024       0.007
   0.00000000  0.02358745  0.15082024       0.007
   0.00000000  0.03144979  0.15082024       0.007
   0.00000000  0.03931235  0.15082024       0.007
   0.00000000  0.04717469  0.15082024       0.007
   0.00000000  0.05503724  0.15082024       0.007
   0.00000000  0.06289959  0.15082024       0.007
   0.00000000  0.07076214  0.15082024       0.007
   0.00000000  0.07862449  0.15082024       0.007
   0.00000000  0.08648704  0.15082024       0.007
   0.00000000  0.09434938  0.15082024       0.007
   0.00000000  0.10221193  0.15082024       0.007
   0.00786255  0.10221193  0.15082024       0.007
   0.01572490  0.10221193  0.15082024       0.007
   0.02358745  0.10221193  0.15082024       0.007
   0.03144979  0.10221193  0.15082024       0.007
   0.03931235  0.10221193  0.15082024       0.007
   0.04717469  0.10221193  0.15082024       0.007
   0.05503724  0.10221193  0.15082024       0.007
   0.06289959  0.10221193  0.15082024       0.007
   0.07076214  0.10221193  0.15082024       0.007
   0.07862449  0.10221193  0.15082024       0.007
   0.08648704  0.10221193  0.15082024       0.007
   0.09434938  0.10221193  0.15082024       0.007
   0.10221193  0.10221193  0.15082024       0.007
   0.09683232  0.09683232  0.15082024       0.007
   0.09145270  0.09145270  0.15082024       0.007
   0.08607328  0.08607328  0.15082024       0.007
   0.08069366  0.08069366  0.15082024       0.007
   0.07531405  0.07531405  0.15082024       0.007
   0.06993443  0.06993443  0.15082024       0.007
   0.06455481  0.06455481  0.15082024       0.007
   0.05917540  0.05917540  0.15082024       0.007
   0.05379578  0.05379578  0.15082024       0.007
   0.04841616  0.04841616  0.15082024       0.007
   0.04303654  0.04303654  0.15082024       0.007
   0.03765713  0.03765713  0.15082024       0.007
   0.03227751  0.03227751  0.15082024       0.007
   0.02689789  0.02689789  0.15082024       0.007
   0.02151827  0.02151827  0.15082024       0.007
   0.01613865  0.01613865  0.15082024       0.007
   0.01075924  0.01075924  0.15082024       0.007
   0.00537962  0.00537962  0.15082024       0.007
   0.00000000  0.00000000  0.15082024       0.007
   0.00000000  0.10221193  0.00000000       0.007
   0.00000000  0.10221193  0.00754101       0.007
   0.00000000  0.10221193  0.01508202       0.007
   0.00000000  0.10221193  0.02262304       0.007
   0.00000000  0.10221193  0.03016405       0.007
   0.00000000  0.10221193  0.03770506       0.007
   0.00000000  0.10221193  0.04524607       0.007
   0.00000000  0.10221193  0.05278708       0.007
   0.00000000  0.10221193  0.06032810       0.007
   0.00000000  0.10221193  0.06786911       0.007
   0.00000000  0.10221193  0.07541012       0.007
   0.00000000  0.10221193  0.08295113       0.007
   0.00000000  0.10221193  0.09049214       0.007
   0.00000000  0.10221193  0.09803316       0.007
   0.00000000  0.10221193  0.10557417       0.007
   0.00000000  0.10221193  0.11311518       0.007
   0.00000000  0.10221193  0.12065619       0.007
   0.00000000  0.10221193  0.12819720       0.007
   0.00000000  0.10221193  0.13573821       0.007
   0.00000000  0.10221193  0.14327923       0.007
   0.00000000  0.10221193  0.15082024       0.007
   0.10221193  0.10221193  0.00000000       0.007
   0.10221193  0.10221193  0.00718206       0.007
   0.10221193  0.10221193  0.01436382       0.007
   0.10221193  0.10221193  0.02154588       0.007
   0.10221193  0.10221193  0.02872764       0.007
   0.10221193  0.10221193  0.03590970       0.007
   0.10221193  0.10221193  0.04309145       0.007
   0.10221193  0.10221193  0.05027351       0.007
   0.10221193  0.10221193  0.05745527       0.007
   0.10221193  0.10221193  0.06463733       0.007
   0.10221193  0.10221193  0.07181909       0.007
   0.10221193  0.10221193  0.07900115       0.007
   0.10221193  0.10221193  0.08618291       0.007
   0.10221193  0.10221193  0.09336497       0.007
   0.10221193  0.10221193  0.10054673       0.007
   0.10221193  0.10221193  0.10772879       0.007
   0.10221193  0.10221193  0.11491054       0.007
   0.10221193  0.10221193  0.12209260       0.007
   0.10221193  0.10221193  0.12927436       0.007
   0.10221193  0.10221193  0.13645642       0.007
   0.10221193  0.10221193  0.14363818       0.007
   0.10221193  0.10221193  0.15082024       0.007
 
 k-points in reciprocal lattice and weights: KPOINTS created by Atomic Simulation Env
   0.00000000  0.00000000  0.00000000       0.007
   0.00000000  0.03846200  0.00000000       0.007
   0.00000000  0.07692300  0.00000000       0.007
   0.00000000  0.11538500  0.00000000       0.007
   0.00000000  0.15384600  0.00000000       0.007
   0.00000000  0.19230800  0.00000000       0.007
   0.00000000  0.23076900  0.00000000       0.007
   0.00000000  0.26923100  0.00000000       0.007
   0.00000000  0.30769200  0.00000000       0.007
   0.00000000  0.34615400  0.00000000       0.007
   0.00000000  0.38461500  0.00000000       0.007
   0.00000000  0.42307700  0.00000000       0.007
   0.00000000  0.46153800  0.00000000       0.007
   0.00000000  0.50000000  0.00000000       0.007
   0.03846200  0.50000000  0.00000000       0.007
   0.07692300  0.50000000  0.00000000       0.007
   0.11538500  0.50000000  0.00000000       0.007
   0.15384600  0.50000000  0.00000000       0.007
   0.19230800  0.50000000  0.00000000       0.007
   0.23076900  0.50000000  0.00000000       0.007
   0.26923100  0.50000000  0.00000000       0.007
   0.30769200  0.50000000  0.00000000       0.007
   0.34615400  0.50000000  0.00000000       0.007
   0.38461500  0.50000000  0.00000000       0.007
   0.42307700  0.50000000  0.00000000       0.007
   0.46153800  0.50000000  0.00000000       0.007
   0.50000000  0.50000000  0.00000000       0.007
   0.47222200  0.47222200  0.00000000       0.007
   0.44444400  0.44444400  0.00000000       0.007
   0.41666700  0.41666700  0.00000000       0.007
   0.38888900  0.38888900  0.00000000       0.007
   0.36111100  0.36111100  0.00000000       0.007
   0.33333300  0.33333300  0.00000000       0.007
   0.30555600  0.30555600  0.00000000       0.007
   0.27777800  0.27777800  0.00000000       0.007
   0.25000000  0.25000000  0.00000000       0.007
   0.22222200  0.22222200  0.00000000       0.007
   0.19444400  0.19444400  0.00000000       0.007
   0.16666700  0.16666700  0.00000000       0.007
   0.13888900  0.13888900  0.00000000       0.007
   0.11111100  0.11111100  0.00000000       0.007
   0.08333300  0.08333300  0.00000000       0.007
   0.05555600  0.05555600  0.00000000       0.007
   0.02777800  0.02777800  0.00000000       0.007
   0.00000000  0.00000000  0.00000000       0.007
   0.00000000  0.00000000  0.02631600       0.007
   0.00000000  0.00000000  0.05263200       0.007
   0.00000000  0.00000000  0.07894700       0.007
   0.00000000  0.00000000  0.10526300       0.007
   0.00000000  0.00000000  0.13157900       0.007
   0.00000000  0.00000000  0.15789500       0.007
   0.00000000  0.00000000  0.18421100       0.007
   0.00000000  0.00000000  0.21052600       0.007
   0.00000000  0.00000000  0.23684200       0.007
   0.00000000  0.00000000  0.26315800       0.007
   0.00000000  0.00000000  0.28947400       0.007
   0.00000000  0.00000000  0.31578900       0.007
   0.00000000  0.00000000  0.34210500       0.007
   0.00000000  0.00000000  0.36842100       0.007
   0.00000000  0.00000000  0.39473700       0.007
   0.00000000  0.00000000  0.42105300       0.007
   0.00000000  0.00000000  0.44736800       0.007
   0.00000000  0.00000000  0.47368400       0.007
   0.00000000  0.00000000  0.50000000       0.007
   0.00000000  0.03846200  0.50000000       0.007
   0.00000000  0.07692300  0.50000000       0.007
   0.00000000  0.11538500  0.50000000       0.007
   0.00000000  0.15384600  0.50000000       0.007
   0.00000000  0.19230800  0.50000000       0.007
   0.00000000  0.23076900  0.50000000       0.007
   0.00000000  0.26923100  0.50000000       0.007
   0.00000000  0.30769200  0.50000000       0.007
   0.00000000  0.34615400  0.50000000       0.007
   0.00000000  0.38461500  0.50000000       0.007
   0.00000000  0.42307700  0.50000000       0.007
   0.00000000  0.46153800  0.50000000       0.007
   0.00000000  0.50000000  0.50000000       0.007
   0.03846200  0.50000000  0.50000000       0.007
   0.07692300  0.50000000  0.50000000       0.007
   0.11538500  0.50000000  0.50000000       0.007
   0.15384600  0.50000000  0.50000000       0.007
   0.19230800  0.50000000  0.50000000       0.007
   0.23076900  0.50000000  0.50000000       0.007
   0.26923100  0.50000000  0.50000000       0.007
   0.30769200  0.50000000  0.50000000       0.007
   0.34615400  0.50000000  0.50000000       0.007
   0.38461500  0.50000000  0.50000000       0.007
   0.42307700  0.50000000  0.50000000       0.007
   0.46153800  0.50000000  0.50000000       0.007
   0.50000000  0.50000000  0.50000000       0.007
   0.47368400  0.47368400  0.50000000       0.007
   0.44736800  0.44736800  0.50000000       0.007
   0.42105300  0.42105300  0.50000000       0.007
   0.39473700  0.39473700  0.50000000       0.007
   0.36842100  0.36842100  0.50000000       0.007
   0.34210500  0.34210500  0.50000000       0.007
   0.31578900  0.31578900  0.50000000       0.007
   0.28947400  0.28947400  0.50000000       0.007
   0.26315800  0.26315800  0.50000000       0.007
   0.23684200  0.23684200  0.50000000       0.007
   0.21052600  0.21052600  0.50000000       0.007
   0.18421100  0.18421100  0.50000000       0.007
   0.15789500  0.15789500  0.50000000       0.007
   0.13157900  0.13157900  0.50000000       0.007
   0.10526300  0.10526300  0.50000000       0.007
   0.07894700  0.07894700  0.50000000       0.007
   0.05263200  0.05263200  0.50000000       0.007
   0.02631600  0.02631600  0.50000000       0.007
   0.00000000  0.00000000  0.50000000       0.007
   0.00000000  0.50000000  0.00000000       0.007
   0.00000000  0.50000000  0.02500000       0.007
   0.00000000  0.50000000  0.05000000       0.007
   0.00000000  0.50000000  0.07500000       0.007
   0.00000000  0.50000000  0.10000000       0.007
   0.00000000  0.50000000  0.12500000       0.007
   0.00000000  0.50000000  0.15000000       0.007
   0.00000000  0.50000000  0.17500000       0.007
   0.00000000  0.50000000  0.20000000       0.007
   0.00000000  0.50000000  0.22500000       0.007
   0.00000000  0.50000000  0.25000000       0.007
   0.00000000  0.50000000  0.27500000       0.007
   0.00000000  0.50000000  0.30000000       0.007
   0.00000000  0.50000000  0.32500000       0.007
   0.00000000  0.50000000  0.35000000       0.007
   0.00000000  0.50000000  0.37500000       0.007
   0.00000000  0.50000000  0.40000000       0.007
   0.00000000  0.50000000  0.42500000       0.007
   0.00000000  0.50000000  0.45000000       0.007
   0.00000000  0.50000000  0.47500000       0.007
   0.00000000  0.50000000  0.50000000       0.007
   0.50000000  0.50000000  0.00000000       0.007
   0.50000000  0.50000000  0.02381000       0.007
   0.50000000  0.50000000  0.04761900       0.007
   0.50000000  0.50000000  0.07142900       0.007
   0.50000000  0.50000000  0.09523800       0.007
   0.50000000  0.50000000  0.11904800       0.007
   0.50000000  0.50000000  0.14285700       0.007
   0.50000000  0.50000000  0.16666700       0.007
   0.50000000  0.50000000  0.19047600       0.007
   0.50000000  0.50000000  0.21428600       0.007
   0.50000000  0.50000000  0.23809500       0.007
   0.50000000  0.50000000  0.26190500       0.007
   0.50000000  0.50000000  0.28571400       0.007
   0.50000000  0.50000000  0.30952400       0.007
   0.50000000  0.50000000  0.33333300       0.007
   0.50000000  0.50000000  0.35714300       0.007
   0.50000000  0.50000000  0.38095200       0.007
   0.50000000  0.50000000  0.40476200       0.007
   0.50000000  0.50000000  0.42857100       0.007
   0.50000000  0.50000000  0.45238100       0.007
   0.50000000  0.50000000  0.47619000       0.007
   0.50000000  0.50000000  0.50000000       0.007
 
 position of ions in fractional coordinates (direct lattice) 
   0.50000000  0.50000000  0.50000000
   0.00000000  0.00000000  0.00000000
   0.19508961  0.80491039  0.50000000
   0.80491039  0.19508961  0.50000000
   0.30491039  0.30491039  0.00000000
   0.69508961  0.69508961  0.00000000
 
 position of ions in cartesian coordinates  (Angst):
   2.44589833  2.44589833  1.65760247
   0.00000000  0.00000000  0.00000000
   0.95433872  3.93745795  1.65760247
   3.93745795  0.95433872  1.65760247
   1.49155962  1.49155962  0.00000000
   3.40023705  3.40023705  0.00000000
 


--------------------------------------------------------------------------------------------------------


 k-point  1 :   0.0000 0.0000 0.0000  plane waves:    3347
 k-point  2 :   0.0000 0.0385 0.0000  plane waves:    3339
 k-point  3 :   0.0000 0.0769 0.0000  plane waves:    3347
 k-point  4 :   0.0000 0.1154 0.0000  plane waves:    3349
 k-point  5 :   0.0000 0.1538 0.0000  plane waves:    3343
 k-point  6 :   0.0000 0.1923 0.0000  plane waves:    3341
 k-point  7 :   0.0000 0.2308 0.0000  plane waves:    3337
 k-point  8 :   0.0000 0.2692 0.0000  plane waves:    3339
 k-point  9 :   0.0000 0.3077 0.0000  plane waves:    3333
 k-point 10 :   0.0000 0.3462 0.0000  plane waves:    3335
 k-point 11 :   0.0000 0.3846 0.0000  plane waves:    3335
 k-point 12 :   0.0000 0.4231 0.0000  plane waves:    3329
 k-point 13 :   0.0000 0.4615 0.0000  plane waves:    3346
 k-point 14 :   0.0000 0.5000 0.0000  plane waves:    3350
 k-point 15 :   0.0385 0.5000 0.0000  plane waves:    3336
 k-point 16 :   0.0769 0.5000 0.0000  plane waves:    3332
 k-point 17 :   0.1154 0.5000 0.0000  plane waves:    3328
 k-point 18 :   0.1538 0.5000 0.0000  plane waves:    3320
 k-point 19 :   0.1923 0.5000 0.0000  plane waves:    3332
 k-point 20 :   0.2308 0.5000 0.0000  plane waves:    3340
 k-point 21 :   0.2692 0.5000 0.0000  plane waves:    3332
 k-point 22 :   0.3077 0.5000 0.0000  plane waves:    3332
 k-point 23 :   0.3462 0.5000 0.0000  plane waves:    3330
 k-point 24 :   0.3846 0.5000 0.0000  plane waves:    3330
 k-point 25 :   0.4231 0.5000 0.0000  plane waves:    3324
 k-point 26 :   0.4615 0.5000 0.0000  plane waves:    3328
 k-point 27 :   0.5000 0.5000 0.0000  plane waves:    3356
 k-point 28 :   0.4722 0.4722 0.0000  plane waves:    3328
 k-point 29 :   0.4444 0.4444 0.0000  plane waves:    3327
 k-point 30 :   0.4167 0.4167 0.0000  plane waves:    3325
 k-point 31 :   0.3889 0.3889 0.0000  plane waves:    3333
 k-point 32 :   0.3611 0.3611 0.0000  plane waves:    3339
 k-point 33 :   0.3333 0.3333 0.0000  plane waves:    3333
 k-point 34 :   0.3056 0.3056 0.0000  plane waves:    3345
 k-point 35 :   0.2778 0.2778 0.0000  plane waves:    3335
 k-point 36 :   0.2500 0.2500 0.0000  plane waves:    3331
 k-point 37 :   0.2222 0.2222 0.0000  plane waves:    3325
 k-point 38 :   0.1944 0.1944 0.0000  plane waves:    3329
 k-point 39 :   0.1667 0.1667 0.0000  plane waves:    3325
 k-point 40 :   0.1389 0.1389 0.0000  plane waves:    3337
 k-point 41 :   0.1111 0.1111 0.0000  plane waves:    3333
 k-point 42 :   0.0833 0.0833 0.0000  plane waves:    3347
 k-point 43 :   0.0556 0.0556 0.0000  plane waves:    3349
 k-point 44 :   0.0278 0.0278 0.0000  plane waves:    3339
 k-point 45 :   0.0000 0.0000 0.0000  plane waves:    3347
 k-point 46 :   0.0000 0.0000 0.0263  plane waves:    3351
 k-point 47 :   0.0000 0.0000 0.0526  plane waves:    3355
 k-point 48 :   0.0000 0.0000 0.0789  plane waves:    3355
 k-point 49 :   0.0000 0.0000 0.1053  plane waves:    3351
 k-point 50 :   0.0000 0.0000 0.1316  plane waves:    3355
 k-point 51 :   0.0000 0.0000 0.1579  plane waves:    3342
 k-point 52 :   0.0000 0.0000 0.1842  plane waves:    3342
 k-point 53 :   0.0000 0.0000 0.2105  plane waves:    3342
 k-point 54 :   0.0000 0.0000 0.2368  plane waves:    3334
 k-point 55 :   0.0000 0.0000 0.2632  plane waves:    3322
 k-point 56 :   0.0000 0.0000 0.2895  plane waves:    3330
 k-point 57 :   0.0000 0.0000 0.3158  plane waves:    3314
 k-point 58 :   0.0000 0.0000 0.3421  plane waves:    3326
 k-point 59 :   0.0000 0.0000 0.3684  plane waves:    3322
 k-point 60 :   0.0000 0.0000 0.3947  plane waves:    3342
 k-point 61 :   0.0000 0.0000 0.4211  plane waves:    3350
 k-point 62 :   0.0000 0.0000 0.4474  plane waves:    3366
 k-point 63 :   0.0000 0.0000 0.4737  plane waves:    3362
 k-point 64 :   0.0000 0.0000 0.5000  plane waves:    3342
 k-point 65 :   0.0000 0.0385 0.5000  plane waves:    3354
 k-point 66 :   0.0000 0.0769 0.5000  plane waves:    3346
 k-point 67 :   0.0000 0.1154 0.5000  plane waves:    3344
 k-point 68 :   0.0000 0.1538 0.5000  plane waves:    3344
 k-point 69 :   0.0000 0.1923 0.5000  plane waves:    3360
 k-point 70 :   0.0000 0.2308 0.5000  plane waves:    3352
 k-point 71 :   0.0000 0.2692 0.5000  plane waves:    3354
 k-point 72 :   0.0000 0.3077 0.5000  plane waves:    3342
 k-point 73 :   0.0000 0.3462 0.5000  plane waves:    3344
 k-point 74 :   0.0000 0.3846 0.5000  plane waves:    3352
 k-point 75 :   0.0000 0.4231 0.5000  plane waves:    3350
 k-point 76 :   0.0000 0.4615 0.5000  plane waves:    3346
 k-point 77 :   0.0000 0.5000 0.5000  plane waves:    3364
 k-point 78 :   0.0385 0.5000 0.5000  plane waves:    3344
 k-point 79 :   0.0769 0.5000 0.5000  plane waves:    3340
 k-point 80 :   0.1154 0.5000 0.5000  plane waves:    3332
 k-point 81 :   0.1538 0.5000 0.5000  plane waves:    3344
 k-point 82 :   0.1923 0.5000 0.5000  plane waves:    3340
 k-point 83 :   0.2308 0.5000 0.5000  plane waves:    3336
 k-point 84 :   0.2692 0.5000 0.5000  plane waves:    3340
 k-point 85 :   0.3077 0.5000 0.5000  plane waves:    3340
 k-point 86 :   0.3462 0.5000 0.5000  plane waves:    3336
 k-point 87 :   0.3846 0.5000 0.5000  plane waves:    3332
 k-point 88 :   0.4231 0.5000 0.5000  plane waves:    3320
 k-point 89 :   0.4615 0.5000 0.5000  plane waves:    3320
 k-point 90 :   0.5000 0.5000 0.5000  plane waves:    3344
 k-point 91 :   0.4737 0.4737 0.5000  plane waves:    3322
 k-point 92 :   0.4474 0.4474 0.5000  plane waves:    3318
 k-point 93 :   0.4211 0.4211 0.5000  plane waves:    3324
 k-point 94 :   0.3947 0.3947 0.5000  plane waves:    3320
 k-point 95 :   0.3684 0.3684 0.5000  plane waves:    3328
 k-point 96 :   0.3421 0.3421 0.5000  plane waves:    3328
 k-point 97 :   0.3158 0.3158 0.5000  plane waves:    3336
 k-point 98 :   0.2895 0.2895 0.5000  plane waves:    3342
 k-point 99 :   0.2632 0.2632 0.5000  plane waves:    3338
 k-point ** :   0.2368 0.2368 0.5000  plane waves:    3342
 k-point ** :   0.2105 0.2105 0.5000  plane waves:    3340
 k-point ** :   0.1842 0.1842 0.5000  plane waves:    3334
 k-point ** :   0.1579 0.1579 0.5000  plane waves:    3334
 k-point ** :   0.1316 0.1316 0.5000  plane waves:    3338
 k-point ** :   0.1053 0.1053 0.5000  plane waves:    3344
 k-point ** :   0.0789 0.0789 0.5000  plane waves:    3348
 k-point ** :   0.0526 0.0526 0.5000  plane waves:    3352
 k-point ** :   0.0263 0.0263 0.5000  plane waves:    3352
 k-point ** :   0.0000 0.0000 0.5000  plane waves:    3342
 k-point ** :   0.0000 0.5000 0.0000  plane waves:    3350
 k-point ** :   0.0000 0.5000 0.0250  plane waves:    3342
 k-point ** :   0.0000 0.5000 0.0500  plane waves:    3328
 k-point ** :   0.0000 0.5000 0.0750  plane waves:    3330
 k-point ** :   0.0000 0.5000 0.1000  plane waves:    3324
 k-point ** :   0.0000 0.5000 0.1250  plane waves:    3324
 k-point ** :   0.0000 0.5000 0.1500  plane waves:    3326
 k-point ** :   0.0000 0.5000 0.1750  plane waves:    3338
 k-point ** :   0.0000 0.5000 0.2000  plane waves:    3338
 k-point ** :   0.0000 0.5000 0.2250  plane waves:    3346
 k-point ** :   0.0000 0.5000 0.2500  plane waves:    3336
 k-point ** :   0.0000 0.5000 0.2750  plane waves:    3322
 k-point ** :   0.0000 0.5000 0.3000  plane waves:    3336
 k-point ** :   0.0000 0.5000 0.3250  plane waves:    3340
 k-point ** :   0.0000 0.5000 0.3500  plane waves:    3328
 k-point ** :   0.0000 0.5000 0.3750  plane waves:    3334
 k-point ** :   0.0000 0.5000 0.4000  plane waves:    3334
 k-point ** :   0.0000 0.5000 0.4250  plane waves:    3342
 k-point ** :   0.0000 0.5000 0.4500  plane waves:    3342
 k-point ** :   0.0000 0.5000 0.4750  plane waves:    3356
 k-point ** :   0.0000 0.5000 0.5000  plane waves:    3364
 k-point ** :   0.5000 0.5000 0.0000  plane waves:    3356
 k-point ** :   0.5000 0.5000 0.0238  plane waves:    3304
 k-point ** :   0.5000 0.5000 0.0476  plane waves:    3304
 k-point ** :   0.5000 0.5000 0.0714  plane waves:    3320
 k-point ** :   0.5000 0.5000 0.0952  plane waves:    3320
 k-point ** :   0.5000 0.5000 0.1190  plane waves:    3304
 k-point ** :   0.5000 0.5000 0.1429  plane waves:    3316
 k-point ** :   0.5000 0.5000 0.1667  plane waves:    3320
 k-point ** :   0.5000 0.5000 0.1905  plane waves:    3320
 k-point ** :   0.5000 0.5000 0.2143  plane waves:    3320
 k-point ** :   0.5000 0.5000 0.2381  plane waves:    3304
 k-point ** :   0.5000 0.5000 0.2619  plane waves:    3308
 k-point ** :   0.5000 0.5000 0.2857  plane waves:    3324
 k-point ** :   0.5000 0.5000 0.3095  plane waves:    3320
 k-point ** :   0.5000 0.5000 0.3333  plane waves:    3324
 k-point ** :   0.5000 0.5000 0.3571  plane waves:    3324
 k-point ** :   0.5000 0.5000 0.3810  plane waves:    3340
 k-point ** :   0.5000 0.5000 0.4048  plane waves:    3340
 k-point ** :   0.5000 0.5000 0.4286  plane waves:    3340
 k-point ** :   0.5000 0.5000 0.4524  plane waves:    3324
 k-point ** :   0.5000 0.5000 0.4762  plane waves:    3332
 k-point ** :   0.5000 0.5000 0.5000  plane waves:    3344

 maximum and minimum number of plane-waves per node :      3366     3304

 maximum number of plane-waves:      3366
 maximum index in each direction: 
   IXMAX=   10   IYMAX=   10   IZMAX=    7
   IXMIN=  -11   IYMIN=  -11   IZMIN=   -7


 serial   3D FFT for wavefunctions
 parallel 3D FFT for charge:
    minimum data exchange during FFTs selected (reduces bandwidth)


 total amount of memory used by VASP MPI-rank0   391980. kBytes
=======================================================================

   base      :      30000. kBytes
   nonl-proj :     147760. kBytes
   fftplans  :       7420. kBytes
   grid      :       6062. kBytes
   one-center:        186. kBytes
   wavefun   :     200552. kBytes
 
     INWAV:  cpu time    0.0000: real time    0.0000
 initial charge density was supplied:
 number of electron      53.9999997 magnetization      -0.0000000
 keeping initial charge density in first step


--------------------------------------------------------------------------------------------------------


 Maximum index for augmentation-charges        18257 (set IRDMAX)


--------------------------------------------------------------------------------------------------------


 First call to EWALD:  gamma=   0.413
 Maximum number of real-space cells 2x 2x 3
 Maximum number of reciprocal cells 3x 3x 2

    FEWALD:  cpu time    0.0011: real time    0.0011


--------------------------------------- Iteration      1(   1)  ---------------------------------------


    POTLOK:  cpu time    0.0668: real time    0.0668
    SETDIJ:  cpu time    1.3348: real time    1.3349
atom =   1  type =  1  l = 2
 
 onsite density matrix
 
spin component  1
 
  0.0617 -0.0000  0.0331 -0.0000 -0.0000
 -0.0000  0.0528 -0.0000  0.0270 -0.0000
  0.0331 -0.0000  0.0464 -0.0000 -0.0000
 -0.0000  0.0270 -0.0000  0.0528  0.0000
 -0.0000 -0.0000 -0.0000  0.0000  0.0204
 
spin component  2
 
  0.9553  0.0000  0.0174  0.0000 -0.0000
  0.0000  0.9517 -0.0000  0.0167 -0.0000
  0.0174 -0.0000  0.9437 -0.0000 -0.0000
  0.0000  0.0167 -0.0000  0.9517  0.0000
 -0.0000 -0.0000 -0.0000  0.0000  0.9361
 
 occupancies and eigenvectors
 
  o =  0.0201  v =  0.6222 -0.0000 -0.7829 -0.0000 -0.0000  0.0000  0.0000  0.0000  0.0000  0.0000      0.0000  0.0000  0.0000  0.0000  0.0000  0.0000  0.0000  0.0000  0.0000  0.0000
  o =  0.0204  v =  0.0000  0.0000 -0.0000 -0.0000  1.0000  0.0000  0.0000  0.0000  0.0000  0.0000      0.0000  0.0000  0.0000  0.0000  0.0000  0.0000  0.0000  0.0000  0.0000  0.0000
  o =  0.0258  v =  0.0000 -0.7071 -0.0000  0.7071  0.0000  0.0000  0.0000  0.0000  0.0000  0.0000      0.0000  0.0000  0.0000  0.0000  0.0000  0.0000  0.0000  0.0000  0.0000  0.0000
  o =  0.0799  v = -0.0000 -0.7071 -0.0000 -0.7071  0.0000  0.0000  0.0000  0.0000  0.0000  0.0000      0.0000  0.0000  0.0000  0.0000  0.0000  0.0000  0.0000  0.0000  0.0000  0.0000
  o =  0.0880  v = -0.7829  0.0000 -0.6222  0.0000  0.0000  0.0000  0.0000  0.0000  0.0000  0.0000      0.0000  0.0000  0.0000  0.0000  0.0000  0.0000  0.0000  0.0000  0.0000  0.0000
  o =  0.9312  v =  0.0000  0.0000  0.0000  0.0000  0.0000 -0.5846  0.0000  0.8113  0.0000  0.0000      0.0000  0.0000  0.0000  0.0000  0.0000  0.0000  0.0000  0.0000  0.0000  0.0000
  o =  0.9350  v =  0.0000  0.0000  0.0000  0.0000  0.0000 -0.0000 -0.7071  0.0000  0.7071 -0.0000      0.0000  0.0000  0.0000  0.0000  0.0000  0.0000  0.0000  0.0000  0.0000  0.0000
  o =  0.9361  v =  0.0000  0.0000  0.0000  0.0000  0.0000  0.0000 -0.0000 -0.0000  0.0000  1.0000      0.0000  0.0000  0.0000  0.0000  0.0000  0.0000  0.0000  0.0000  0.0000  0.0000
  o =  0.9679  v =  0.0000  0.0000  0.0000  0.0000  0.0000 -0.8113 -0.0000 -0.5846 -0.0000  0.0000      0.0000  0.0000  0.0000  0.0000  0.0000  0.0000  0.0000  0.0000  0.0000  0.0000
  o =  0.9684  v =  0.0000  0.0000  0.0000  0.0000  0.0000 -0.0000  0.7071 -0.0000  0.7071  0.0000      0.0000  0.0000  0.0000  0.0000  0.0000  0.0000  0.0000  0.0000  0.0000  0.0000
atom =   2  type =  1  l = 2
 
 onsite density matrix
 
spin component  1
 
  0.9553 -0.0000 -0.0174 -0.0000  0.0000
 -0.0000  0.9517 -0.0000 -0.0167 -0.0000
 -0.0174 -0.0000  0.9437 -0.0000 -0.0000
 -0.0000 -0.0167 -0.0000  0.9517  0.0000
  0.0000 -0.0000 -0.0000  0.0000  0.9361
 
spin component  2
 
  0.0617  0.0000 -0.0331  0.0000  0.0000
  0.0000  0.0528 -0.0000 -0.0270 -0.0000
 -0.0331 -0.0000  0.0464 -0.0000 -0.0000
  0.0000 -0.0270 -0.0000  0.0528  0.0000
  0.0000 -0.0000 -0.0000  0.0000  0.0204
 
 occupancies and eigenvectors
 
  o =  0.0201  v =  0.0000  0.0000  0.0000  0.0000  0.0000  0.6222  0.0000  0.7829  0.0000  0.0000      0.0000  0.0000  0.0000  0.0000  0.0000  0.0000  0.0000  0.0000  0.0000  0.0000
  o =  0.0204  v =  0.0000  0.0000  0.0000  0.0000  0.0000 -0.0000  0.0000 -0.0000 -0.0000  1.0000      0.0000  0.0000  0.0000  0.0000  0.0000  0.0000  0.0000  0.0000  0.0000  0.0000
  o =  0.0258  v =  0.0000  0.0000  0.0000  0.0000  0.0000 -0.0000  0.7071 -0.0000  0.7071  0.0000      0.0000  0.0000  0.0000  0.0000  0.0000  0.0000  0.0000  0.0000  0.0000  0.0000
  o =  0.0799  v =  0.0000  0.0000  0.0000  0.0000  0.0000  0.0000  0.7071 -0.0000 -0.7071 -0.0000      0.0000  0.0000  0.0000  0.0000  0.0000  0.0000  0.0000  0.0000  0.0000  0.0000
  o =  0.0880  v =  0.0000  0.0000  0.0000  0.0000  0.0000  0.7829  0.0000 -0.6222  0.0000  0.0000      0.0000  0.0000  0.0000  0.0000  0.0000  0.0000  0.0000  0.0000  0.0000  0.0000
  o =  0.9312  v = -0.5846 -0.0000 -0.8113 -0.0000 -0.0000  0.0000  0.0000  0.0000  0.0000  0.0000      0.0000  0.0000  0.0000  0.0000  0.0000  0.0000  0.0000  0.0000  0.0000  0.0000
  o =  0.9350  v = -0.0000  0.7071 -0.0000  0.7071  0.0000  0.0000  0.0000  0.0000  0.0000  0.0000      0.0000  0.0000  0.0000  0.0000  0.0000  0.0000  0.0000  0.0000  0.0000  0.0000
  o =  0.9361  v = -0.0000  0.0000 -0.0000 -0.0000  1.0000  0.0000  0.0000  0.0000  0.0000  0.0000      0.0000  0.0000  0.0000  0.0000  0.0000  0.0000  0.0000  0.0000  0.0000  0.0000
  o =  0.9679  v =  0.8113  0.0000 -0.5846  0.0000  0.0000  0.0000  0.0000  0.0000  0.0000  0.0000      0.0000  0.0000  0.0000  0.0000  0.0000  0.0000  0.0000  0.0000  0.0000  0.0000
  o =  0.9684  v = -0.0000  0.7071  0.0000 -0.7071 -0.0000  0.0000  0.0000  0.0000  0.0000  0.0000      0.0000  0.0000  0.0000  0.0000  0.0000  0.0000  0.0000  0.0000  0.0000  0.0000
     EDDAV:  cpu time   28.0057: real time   28.1331
       DOS:  cpu time    0.0084: real time    0.0084
    --------------------------------------------
      LOOP:  cpu time   29.4157: real time   29.5432

 eigenvalue-minimisations  : 29248
 total energy-change (2. order) : 0.7257653E+03  (-0.3348380E+04)
 number of electron      53.9999997 magnetization      -0.0000000
 augmentation part       53.9999997 magnetization      -0.0000000

 Free energy of the ion-electron system (eV)
  ---------------------------------------------------
  alpha Z        PSCENC =       194.59399051
  Ewald energy   TEWEN  =     -4167.81530784
  -Hartree energ DENC   =     -2160.97756032
  -exchange      EXHF   =         0.00000000
  -V(xc)+E(xc)   XCENC  =       293.49582572
  PAW double counting   =      6194.02394471    -6319.84128202
  entropy T*S    EENTRO =        -0.00011513
  eigenvalues    EBANDS =        14.58518641
  atomic energy  EATOM  =      6677.70059608
  Solvation  Ediel_sol  =         0.00000000
  ---------------------------------------------------
  free energy    TOTEN  =       725.76527813 eV

  energy without entropy =      725.76539325  energy(sigma->0) =      725.76533569


--------------------------------------------------------------------------------------------------------




--------------------------------------- Iteration      1(   2)  ---------------------------------------


     EDDAV:  cpu time   29.0423: real time   29.0425
       DOS:  cpu time    0.0024: real time    0.0024
    --------------------------------------------
      LOOP:  cpu time   29.0447: real time   29.0449

 eigenvalue-minimisations  : 29240
 total energy-change (2. order) :-0.6980357E+03  (-0.6444076E+03)
 number of electron      53.9999997 magnetization      -0.0000000
 augmentation part       53.9999997 magnetization      -0.0000000

 Free energy of the ion-electron system (eV)
  ---------------------------------------------------
  alpha Z        PSCENC =       194.59399051
  Ewald energy   TEWEN  =     -4167.81530784
  -Hartree energ DENC   =     -2160.97756032
  -exchange      EXHF   =         0.00000000
  -V(xc)+E(xc)   XCENC  =       293.49582572
  PAW double counting   =      6194.02394471    -6319.84128202
  entropy T*S    EENTRO =        -0.00000000
  eigenvalues    EBANDS =      -683.45061052
  atomic energy  EATOM  =      6677.70059608
  Solvation  Ediel_sol  =         0.00000000
  ---------------------------------------------------
  free energy    TOTEN  =        27.72959633 eV

  energy without entropy =       27.72959633  energy(sigma->0) =       27.72959633


--------------------------------------------------------------------------------------------------------




--------------------------------------- Iteration      1(   3)  ---------------------------------------


     EDDAV:  cpu time   31.0452: real time   31.0459
       DOS:  cpu time    0.0019: real time    0.0019
    --------------------------------------------
      LOOP:  cpu time   31.0470: real time   31.0477

 eigenvalue-minimisations  : 33192
 total energy-change (2. order) :-0.6715751E+02  (-0.6572201E+02)
 number of electron      53.9999997 magnetization      -0.0000000
 augmentation part       53.9999997 magnetization      -0.0000000

 Free energy of the ion-electron system (eV)
  ---------------------------------------------------
  alpha Z        PSCENC =       194.59399051
  Ewald energy   TEWEN  =     -4167.81530784
  -Hartree energ DENC   =     -2160.97756032
  -exchange      EXHF   =         0.00000000
  -V(xc)+E(xc)   XCENC  =       293.49582572
  PAW double counting   =      6194.02394471    -6319.84128202
  entropy T*S    EENTRO =        -0.00000000
  eigenvalues    EBANDS =      -750.60811953
  atomic energy  EATOM  =      6677.70059608
  Solvation  Ediel_sol  =         0.00000000
  ---------------------------------------------------
  free energy    TOTEN  =       -39.42791268 eV

  energy without entropy =      -39.42791268  energy(sigma->0) =      -39.42791268


--------------------------------------------------------------------------------------------------------




--------------------------------------- Iteration      1(   4)  ---------------------------------------


     EDDAV:  cpu time   30.5264: real time   30.5268
       DOS:  cpu time    0.0019: real time    0.0018
    --------------------------------------------
      LOOP:  cpu time   30.5283: real time   30.5286

 eigenvalue-minimisations  : 32320
 total energy-change (2. order) :-0.1260831E+01  (-0.1258481E+01)
 number of electron      53.9999997 magnetization      -0.0000000
 augmentation part       53.9999997 magnetization      -0.0000000

 Free energy of the ion-electron system (eV)
  ---------------------------------------------------
  alpha Z        PSCENC =       194.59399051
  Ewald energy   TEWEN  =     -4167.81530784
  -Hartree energ DENC   =     -2160.97756032
  -exchange      EXHF   =         0.00000000
  -V(xc)+E(xc)   XCENC  =       293.49582572
  PAW double counting   =      6194.02394471    -6319.84128202
  entropy T*S    EENTRO =        -0.00000000
  eigenvalues    EBANDS =      -751.86895088
  atomic energy  EATOM  =      6677.70059608
  Solvation  Ediel_sol  =         0.00000000
  ---------------------------------------------------
  free energy    TOTEN  =       -40.68874404 eV

  energy without entropy =      -40.68874404  energy(sigma->0) =      -40.68874404


--------------------------------------------------------------------------------------------------------




--------------------------------------- Iteration      1(   5)  ---------------------------------------


     EDDAV:  cpu time   30.9783: real time   30.9826
       DOS:  cpu time    0.0019: real time    0.0019
    --------------------------------------------
      LOOP:  cpu time   30.9802: real time   30.9845

 eigenvalue-minimisations  : 32896
 total energy-change (2. order) :-0.1230810E-01  (-0.1230771E-01)
 number of electron      53.9999997 magnetization      -0.0000000
 augmentation part       53.9999997 magnetization      -0.0000000

 Free energy of the ion-electron system (eV)
  ---------------------------------------------------
  alpha Z        PSCENC =       194.59399051
  Ewald energy   TEWEN  =     -4167.81530784
  -Hartree energ DENC   =     -2160.97756032
  -exchange      EXHF   =         0.00000000
  -V(xc)+E(xc)   XCENC  =       293.49582572
  PAW double counting   =      6194.02394471    -6319.84128202
  entropy T*S    EENTRO =        -0.00000000
  eigenvalues    EBANDS =      -751.88125898
  atomic energy  EATOM  =      6677.70059608
  Solvation  Ediel_sol  =         0.00000000
  ---------------------------------------------------
  free energy    TOTEN  =       -40.70105214 eV

  energy without entropy =      -40.70105214  energy(sigma->0) =      -40.70105214


--------------------------------------------------------------------------------------------------------




--------------------------------------- Iteration      1(   6)  ---------------------------------------


     EDDAV:  cpu time   30.6935: real time   30.6940
       DOS:  cpu time    0.0022: real time    0.0022
    --------------------------------------------
      LOOP:  cpu time   30.6957: real time   30.6962

 eigenvalue-minimisations  : 32536
 total energy-change (2. order) :-0.3121514E-03  (-0.3121461E-03)
 number of electron      53.9999997 magnetization      -0.0000000
 augmentation part       53.9999997 magnetization      -0.0000000

 Free energy of the ion-electron system (eV)
  ---------------------------------------------------
  alpha Z        PSCENC =       194.59399051
  Ewald energy   TEWEN  =     -4167.81530784
  -Hartree energ DENC   =     -2160.97756032
  -exchange      EXHF   =         0.00000000
  -V(xc)+E(xc)   XCENC  =       293.49582572
  PAW double counting   =      6194.02394471    -6319.84128202
  entropy T*S    EENTRO =        -0.00000000
  eigenvalues    EBANDS =      -751.88157113
  atomic energy  EATOM  =      6677.70059608
  Solvation  Ediel_sol  =         0.00000000
  ---------------------------------------------------
  free energy    TOTEN  =       -40.70136429 eV

  energy without entropy =      -40.70136429  energy(sigma->0) =      -40.70136429


--------------------------------------------------------------------------------------------------------




--------------------------------------- Iteration      1(   7)  ---------------------------------------


     EDDAV:  cpu time   32.9474: real time   32.9485
       DOS:  cpu time    0.0023: real time    0.0023
    --------------------------------------------
      LOOP:  cpu time   32.9496: real time   32.9507

 eigenvalue-minimisations  : 35528
 total energy-change (2. order) :-0.1199927E-04  (-0.1199920E-04)
 number of electron      53.9999997 magnetization      -0.0000000
 augmentation part       53.9999997 magnetization      -0.0000000

 Free energy of the ion-electron system (eV)
  ---------------------------------------------------
  alpha Z        PSCENC =       194.59399051
  Ewald energy   TEWEN  =     -4167.81530784
  -Hartree energ DENC   =     -2160.97756032
  -exchange      EXHF   =         0.00000000
  -V(xc)+E(xc)   XCENC  =       293.49582572
  PAW double counting   =      6194.02394471    -6319.84128202
  entropy T*S    EENTRO =        -0.00000000
  eigenvalues    EBANDS =      -751.88158313
  atomic energy  EATOM  =      6677.70059608
  Solvation  Ediel_sol  =         0.00000000
  ---------------------------------------------------
  free energy    TOTEN  =       -40.70137629 eV

  energy without entropy =      -40.70137629  energy(sigma->0) =      -40.70137629


--------------------------------------------------------------------------------------------------------




--------------------------------------- Iteration      1(   8)  ---------------------------------------


     EDDAV:  cpu time   29.6546: real time   29.6562
       DOS:  cpu time    0.0021: real time    0.0020
    --------------------------------------------
      LOOP:  cpu time   29.6566: real time   29.6582

 eigenvalue-minimisations  : 29824
 total energy-change (2. order) :-0.5335014E-06  (-0.5334924E-06)
 number of electron      53.9999997 magnetization      -0.0000000
 augmentation part       53.9999997 magnetization      -0.0000000

 Free energy of the ion-electron system (eV)
  ---------------------------------------------------
  alpha Z        PSCENC =       194.59399051
  Ewald energy   TEWEN  =     -4167.81530784
  -Hartree energ DENC   =     -2160.97756032
  -exchange      EXHF   =         0.00000000
  -V(xc)+E(xc)   XCENC  =       293.49582572
  PAW double counting   =      6194.02394471    -6319.84128202
  entropy T*S    EENTRO =        -0.00000000
  eigenvalues    EBANDS =      -751.88158367
  atomic energy  EATOM  =      6677.70059608
  Solvation  Ediel_sol  =         0.00000000
  ---------------------------------------------------
  free energy    TOTEN  =       -40.70137682 eV

  energy without entropy =      -40.70137682  energy(sigma->0) =      -40.70137682


--------------------------------------------------------------------------------------------------------




--------------------------------------- Iteration      1(   9)  ---------------------------------------


     EDDAV:  cpu time   24.9153: real time   24.9210
       DOS:  cpu time    0.0021: real time    0.0021
    --------------------------------------------
      LOOP:  cpu time   24.9174: real time   24.9230

 eigenvalue-minimisations  : 22816
 total energy-change (2. order) :-0.2587240E-07  (-0.2589655E-07)
 number of electron      53.9999997 magnetization      -0.0000000
 augmentation part       53.9999997 magnetization      -0.0000000

 Free energy of the ion-electron system (eV)
  ---------------------------------------------------
  alpha Z        PSCENC =       194.59399051
  Ewald energy   TEWEN  =     -4167.81530784
  -Hartree energ DENC   =     -2160.97756032
  -exchange      EXHF   =         0.00000000
  -V(xc)+E(xc)   XCENC  =       293.49582572
  PAW double counting   =      6194.02394471    -6319.84128202
  entropy T*S    EENTRO =        -0.00000000
  eigenvalues    EBANDS =      -751.88158369
  atomic energy  EATOM  =      6677.70059608
  Solvation  Ediel_sol  =         0.00000000
  ---------------------------------------------------
  free energy    TOTEN  =       -40.70137685 eV

  energy without entropy =      -40.70137685  energy(sigma->0) =      -40.70137685


--------------------------------------------------------------------------------------------------------




 average (electrostatic) potential at core
  the test charge radii are     0.9577  0.7167
  (the norm of the test charge is              1.0000)
       1 -70.9438       2 -70.9438       3 -77.1517       4 -77.1517       5 -77.1517
       6 -77.1517
 
 
 
 E-fermi :   2.7443     XC(G=0):  -9.9612     alpha+bet : -8.4484


 spin component 1

 k-point     1 :       0.0000    0.0000    0.0000
  band No.  band energies     occupation 
      1     -46.7968      1.00000
      2     -46.7339      1.00000
      3     -46.7214      1.00000
      4     -41.9321      1.00000
      5     -41.8746      1.00000
      6     -41.8627      1.00000
      7     -21.2821      1.00000
      8     -20.7668      1.00000
      9     -20.7432      1.00000
     10     -20.6850      1.00000
     11      -4.8895      1.00000
     12      -3.9064      1.00000
     13      -3.4153      1.00000
     14      -3.3522      1.00000
     15      -2.8938      1.00000
     16      -2.8803      1.00000
     17      -2.8324      1.00000
     18      -2.8280      1.00000
     19      -1.9591      1.00000
     20      -1.5631      1.00000
     21      -1.5449      1.00000
     22      -1.2502      1.00000
     23       0.8561      1.00000
     24       1.0826      1.00000
     25       1.2586      1.00000
     26       2.1300      1.00000
     27       2.4824      1.00000
     28       4.6018      0.00000
     29       5.0618      0.00000
     30       5.5404      0.00000
     31       5.5562      0.00000
     32       6.5072      0.00000
     33       6.5331      0.00000
     34       9.6404      0.00000
     35      10.1467      0.00000
     36      11.6767      0.00000
     37      12.7773      0.00000
     38      14.5787      0.00000
     39      15.0602      0.00000
     40      15.6371      0.00000
     41      15.9051      0.00000
     42      16.8449      0.00000
     43      18.4949      0.00000
     44      19.2563      0.00000
     45      22.7750      0.00000
     46      22.9339      0.00000
     47      23.4838      0.00000
     48      23.5468      0.00000

 k-point     2 :       0.0000    0.0385    0.0000
  band No.  band energies     occupation 
      1     -46.7968      1.00000
      2     -46.7338      1.00000
      3     -46.7214      1.00000
      4     -41.9321      1.00000
      5     -41.8746      1.00000
      6     -41.8627      1.00000
      7     -21.2804      1.00000
      8     -20.7703      1.00000
      9     -20.7416      1.00000
     10     -20.6850      1.00000
     11      -4.8839      1.00000
     12      -3.9063      1.00000
     13      -3.4124      1.00000
     14      -3.3527      1.00000
     15      -2.8959      1.00000
     16      -2.8812      1.00000
     17      -2.8314      1.00000
     18      -2.8242      1.00000
     19      -1.9627      1.00000
     20      -1.5720      1.00000
     21      -1.5510      1.00000
     22      -1.2530      1.00000
     23       0.8568      1.00000
     24       1.0833      1.00000
     25       1.2591      1.00000
     26       2.1345      1.00000
     27       2.4833      1.00000
     28       4.6191      0.00000
     29       5.0629      0.00000
     30       5.5396      0.00000
     31       5.5557      0.00000
     32       6.5051      0.00000
     33       6.5327      0.00000
     34       9.6259      0.00000
     35      10.1325      0.00000
     36      11.6955      0.00000
     37      12.7986      0.00000
     38      14.5424      0.00000
     39      14.9781      0.00000
     40      15.7220      0.00000
     41      15.9493      0.00000
     42      16.8502      0.00000
     43      18.4954      0.00000
     44      19.2619      0.00000
     45      22.6195      0.00000
     46      22.9144      0.00000
     47      23.5013      0.00000
     48      23.6361      0.00000

 k-point     3 :       0.0000    0.0769    0.0000
  band No.  band energies     occupation 
      1     -46.7968      1.00000
      2     -46.7338      1.00000
      3     -46.7214      1.00000
      4     -41.9321      1.00000
      5     -41.8746      1.00000
      6     -41.8627      1.00000
      7     -21.2753      1.00000
      8     -20.7792      1.00000
      9     -20.7382      1.00000
     10     -20.6851      1.00000
     11      -4.8675      1.00000
     12      -3.9062      1.00000
     13      -3.4037      1.00000
     14      -3.3540      1.00000
     15      -2.9029      1.00000
     16      -2.8832      1.00000
     17      -2.8276      1.00000
     18      -2.8133      1.00000
     19      -1.9733      1.00000
     20      -1.6052      1.00000
     21      -1.5625      1.00000
     22      -1.2614      1.00000
     23       0.8591      1.00000
     24       1.0854      1.00000
     25       1.2604      1.00000
     26       2.1479      1.00000
     27       2.4860      1.00000
     28       4.6702      0.00000
     29       5.0665      0.00000
     30       5.5371      0.00000
     31       5.5541      0.00000
     32       6.4990      0.00000
     33       6.5315      0.00000
     34       9.5725      0.00000
     35      10.1076      0.00000
     36      11.7426      0.00000
     37      12.8638      0.00000
     38      14.4412      0.00000
     39      14.8160      0.00000
     40      15.8673      0.00000
     41      16.0985      0.00000
     42      16.8659      0.00000
     43      18.4969      0.00000
     44      19.2788      0.00000
     45      22.2914      0.00000
     46      22.8478      0.00000
     47      23.1998      0.00000
     48      23.5366      0.00000

 k-point     4 :       0.0000    0.1154    0.0000
  band No.  band energies     occupation 
      1     -46.7968      1.00000
      2     -46.7338      1.00000
      3     -46.7214      1.00000
      4     -41.9321      1.00000
      5     -41.8746      1.00000
      6     -41.8627      1.00000
      7     -21.2669      1.00000
      8     -20.7917      1.00000
      9     -20.7348      1.00000
     10     -20.6852      1.00000
     11      -4.8404      1.00000
     12      -3.9065      1.00000
     13      -3.3890      1.00000
     14      -3.3560      1.00000
     15      -2.9156      1.00000
     16      -2.8854      1.00000
     17      -2.8200      1.00000
     18      -2.7965      1.00000
     19      -1.9906      1.00000
     20      -1.6624      1.00000
     21      -1.5766      1.00000
     22      -1.2752      1.00000
     23       0.8627      1.00000
     24       1.0887      1.00000
     25       1.2626      1.00000
     26       2.1692      1.00000
     27       2.4902      1.00000
     28       4.7521      0.00000
     29       5.0739      0.00000
     30       5.5331      0.00000
     31       5.5516      0.00000
     32       6.4892      0.00000
     33       6.5295      0.00000
     34       9.4627      0.00000
     35      10.1059      0.00000
     36      11.7982      0.00000
     37      12.9752      0.00000
     38      14.2958      0.00000
     39      14.6430      0.00000
     40      15.9995      0.00000
     41      16.3349      0.00000
     42      16.8913      0.00000
     43      18.4993      0.00000
     44      19.3071      0.00000
     45      21.9092      0.00000
     46      22.6756      0.00000
     47      22.7187      0.00000
     48      23.5038      0.00000

 k-point     5 :       0.0000    0.1538    0.0000
  band No.  band energies     occupation 
      1     -46.7968      1.00000
      2     -46.7338      1.00000
      3     -46.7214      1.00000
      4     -41.9321      1.00000
      5     -41.8746      1.00000
      6     -41.8627      1.00000
      7     -21.2553      1.00000
      8     -20.8071      1.00000
      9     -20.7319      1.00000
     10     -20.6853      1.00000
     11      -4.8033      1.00000
     12      -3.9078      1.00000
     13      -3.3683      1.00000
     14      -3.3586      1.00000
     15      -2.9337      1.00000
     16      -2.8873      1.00000
     17      -2.8087      1.00000
     18      -2.7744      1.00000
     19      -2.0143      1.00000
     20      -1.7392      1.00000
     21      -1.5933      1.00000
     22      -1.2943      1.00000
     23       0.8674      1.00000
     24       1.0930      1.00000
     25       1.2653      1.00000
     26       2.1971      1.00000
     27       2.4958      1.00000
     28       4.8575      0.00000
     29       5.0896      0.00000
     30       5.5278      0.00000
     31       5.5482      0.00000
     32       6.4765      0.00000
     33       6.5269      0.00000
     34       9.2967      0.00000
     35      10.1432      0.00000
     36      11.8450      0.00000
     37      13.1311      0.00000
     38      14.1310      0.00000
     39      14.4722      0.00000
     40      16.1365      0.00000
     41      16.5993      0.00000
     42      16.9252      0.00000
     43      18.5024      0.00000
     44      19.3471      0.00000
     45      21.5122      0.00000
     46      22.1597      0.00000
     47      22.5273      0.00000
     48      23.4822      0.00000

 k-point     6 :       0.0000    0.1923    0.0000
  band No.  band energies     occupation 
      1     -46.7968      1.00000
      2     -46.7338      1.00000
      3     -46.7214      1.00000
      4     -41.9321      1.00000
      5     -41.8746      1.00000
      6     -41.8627      1.00000
      7     -21.2406      1.00000
      8     -20.8252      1.00000
      9     -20.7295      1.00000
     10     -20.6855      1.00000
     11      -4.7569      1.00000
     12      -3.9111      1.00000
     13      -3.3616      1.00000
     14      -3.3416      1.00000
     15      -2.9558      1.00000
     16      -2.8889      1.00000
     17      -2.7946      1.00000
     18      -2.7477      1.00000
     19      -2.0439      1.00000
     20      -1.8317      1.00000
     21      -1.6113      1.00000
     22      -1.3184      1.00000
     23       0.8728      1.00000
     24       1.0980      1.00000
     25       1.2683      1.00000
     26       2.2299      1.00000
     27       2.5024      1.00000
     28       4.9628      0.00000
     29       5.1340      0.00000
     30       5.5215      0.00000
     31       5.5443      0.00000
     32       6.4617      0.00000
     33       6.5239      0.00000
     34       9.0903      0.00000
     35      10.2150      0.00000
     36      11.8747      0.00000
     37      13.3221      0.00000
     38      13.9662      0.00000
     39      14.3077      0.00000
     40      16.2873      0.00000
     41      16.8547      0.00000
     42      16.9660      0.00000
     43      18.5060      0.00000
     44      19.3993      0.00000
     45      21.1161      0.00000
     46      21.6840      0.00000
     47      22.2926      0.00000
     48      23.4522      0.00000

 k-point     7 :       0.0000    0.2308    0.0000
  band No.  band energies     occupation 
      1     -46.7968      1.00000
      2     -46.7338      1.00000
      3     -46.7214      1.00000
      4     -41.9321      1.00000
      5     -41.8746      1.00000
      6     -41.8627      1.00000
      7     -21.2231      1.00000
      8     -20.8458      1.00000
      9     -20.7276      1.00000
     10     -20.6858      1.00000
     11      -4.7025      1.00000
     12      -3.9173      1.00000
     13      -3.3648      1.00000
     14      -3.3094      1.00000
     15      -2.9797      1.00000
     16      -2.8900      1.00000
     17      -2.7790      1.00000
     18      -2.7166      1.00000
     19      -2.0787      1.00000
     20      -1.9358      1.00000
     21      -1.6287      1.00000
     22      -1.3471      1.00000
     23       0.8786      1.00000
     24       1.1035      1.00000
     25       1.2715      1.00000
     26       2.2655      1.00000
     27       2.5097      1.00000
     28       5.0208      0.00000
     29       5.2502      0.00000
     30       5.5146      0.00000
     31       5.5403      0.00000
     32       6.4458      0.00000
     33       6.5206      0.00000
     34       8.8580      0.00000
     35      10.3136      0.00000
     36      11.8853      0.00000
     37      13.5186      0.00000
     38      13.8181      0.00000
     39      14.1672      0.00000
     40      16.4533      0.00000
     41      17.0117      0.00000
     42      17.0709      0.00000
     43      18.5098      0.00000
     44      19.4642      0.00000
     45      20.7235      0.00000
     46      21.2842      0.00000
     47      22.0356      0.00000
     48      23.4118      0.00000

 k-point     8 :       0.0000    0.2692    0.0000
  band No.  band energies     occupation 
      1     -46.7968      1.00000
      2     -46.7338      1.00000
      3     -46.7214      1.00000
      4     -41.9321      1.00000
      5     -41.8747      1.00000
      6     -41.8627      1.00000
      7     -21.2029      1.00000
      8     -20.8687      1.00000
      9     -20.7260      1.00000
     10     -20.6861      1.00000
     11      -4.6414      1.00000
     12      -3.9276      1.00000
     13      -3.3679      1.00000
     14      -3.2726      1.00000
     15      -3.0026      1.00000
     16      -2.8908      1.00000
     17      -2.7635      1.00000
     18      -2.6815      1.00000
     19      -2.1179      1.00000
     20      -2.0474      1.00000
     21      -1.6433      1.00000
     22      -1.3796      1.00000
     23       0.8844      1.00000
     24       1.1091      1.00000
     25       1.2746      1.00000
     26       2.3019      1.00000
     27       2.5173      1.00000
     28       5.0422      0.00000
     29       5.4219      0.00000
     30       5.5074      0.00000
     31       5.5380      0.00000
     32       6.4300      0.00000
     33       6.5172      0.00000
     34       8.6097      0.00000
     35      10.4331      0.00000
     36      11.8769      0.00000
     37      13.5922      0.00000
     38      13.7377      0.00000
     39      14.1305      0.00000
     40      16.6345      0.00000
     41      17.0597      0.00000
     42      17.2132      0.00000
     43      18.5137      0.00000
     44      19.5426      0.00000
     45      20.3280      0.00000
     46      21.0065      0.00000
     47      21.7708      0.00000
     48      23.3589      0.00000

 k-point     9 :       0.0000    0.3077    0.0000
  band No.  band energies     occupation 
      1     -46.7968      1.00000
      2     -46.7338      1.00000
      3     -46.7214      1.00000
      4     -41.9321      1.00000
      5     -41.8747      1.00000
      6     -41.8627      1.00000
      7     -21.1804      1.00000
      8     -20.8936      1.00000
      9     -20.7247      1.00000
     10     -20.6863      1.00000
     11      -4.5753      1.00000
     12      -3.9432      1.00000
     13      -3.3708      1.00000
     14      -3.2342      1.00000
     15      -3.0196      1.00000
     16      -2.8914      1.00000
     17      -2.7495      1.00000
     18      -2.6428      1.00000
     19      -2.1621      1.00000
     20      -2.1609      1.00000
     21      -1.6533      1.00000
     22      -1.4151      1.00000
     23       0.8900      1.00000
     24       1.1145      1.00000
     25       1.2775      1.00000
     26       2.3371      1.00000
     27       2.5246      1.00000
     28       5.0526      0.00000
     29       5.5005      0.00000
     30       5.5251      0.00000
     31       5.6314      0.00000
     32       6.4161      0.00000
     33       6.5139      0.00000
     34       8.3518      0.00000
     35      10.5689      0.00000
     36      11.8497      0.00000
     37      13.4940      0.00000
     38      13.6686      0.00000
     39      14.3061      0.00000
     40      16.8294      0.00000
     41      17.1073      0.00000
     42      17.2504      0.00000
     43      18.5173      0.00000
     44      19.6354      0.00000
     45      19.9296      0.00000
     46      20.8876      0.00000
     47      21.5075      0.00000
     48      23.2882      0.00000

 k-point    10 :       0.0000    0.3462    0.0000
  band No.  band energies     occupation 
      1     -46.7968      1.00000
      2     -46.7338      1.00000
      3     -46.7214      1.00000
      4     -41.9321      1.00000
      5     -41.8747      1.00000
      6     -41.8627      1.00000
      7     -21.1560      1.00000
      8     -20.9200      1.00000
      9     -20.7237      1.00000
     10     -20.6866      1.00000
     11      -4.5067      1.00000
     12      -3.9648      1.00000
     13      -3.3734      1.00000
     14      -3.2008      1.00000
     15      -3.0224      1.00000
     16      -2.8918      1.00000
     17      -2.7388      1.00000
     18      -2.6009      1.00000
     19      -2.2757      1.00000
     20      -2.2069      1.00000
     21      -1.6570      1.00000
     22      -1.4526      1.00000
     23       0.8949      1.00000
     24       1.1193      1.00000
     25       1.2801      1.00000
     26       2.3690      1.00000
     27       2.5314      1.00000
     28       5.0591      0.00000
[...]
     25       1.2630      1.00000
     26       1.9890      1.00000
     27       2.4116      1.00000
     28       5.2898      0.00000
     29       5.3460      0.00000
     30       5.5188      0.00000
     31       6.0763      0.00000
     32       6.4060      0.00000
     33       9.8908      0.00000
     34      10.9487      0.00000
     35      10.9976      0.00000
     36      11.1371      0.00000
     37      12.1073      0.00000
     38      12.2219      0.00000
     39      12.3873      0.00000
     40      12.6869      0.00000
     41      17.7681      0.00000
     42      18.0256      0.00000
     43      18.7285      0.00000
     44      19.5482      0.00000
     45      19.9124      0.00000
     46      20.8635      0.00000
     47      21.4698      0.00000
     48      21.5360      0.00000

 k-point   151 :       0.5000    0.5000    0.4762
  band No.  band energies     occupation 
      1     -46.7935      1.00000
      2     -46.7422      1.00000
      3     -46.7326      1.00000
      4     -41.9267      1.00000
      5     -41.8922      1.00000
      6     -41.8729      1.00000
      7     -20.8971      1.00000
      8     -20.8340      1.00000
      9     -20.7835      1.00000
     10     -20.7240      1.00000
     11      -4.4776      1.00000
     12      -4.3159      1.00000
     13      -3.7771      1.00000
     14      -3.7466      1.00000
     15      -3.3053      1.00000
     16      -2.8750      1.00000
     17      -2.8407      1.00000
     18      -2.6254      1.00000
     19      -1.8114      1.00000
     20      -1.7558      1.00000
     21      -1.6896      1.00000
     22      -1.6734      1.00000
     23       1.0015      1.00000
     24       1.0709      1.00000
     25       1.2661      1.00000
     26       1.9833      1.00000
     27       2.4192      1.00000
     28       5.2854      0.00000
     29       5.3433      0.00000
     30       5.5231      0.00000
     31       6.0736      0.00000
     32       6.4139      0.00000
     33       9.9494      0.00000
     34      11.0216      0.00000
     35      11.0319      0.00000
     36      11.3015      0.00000
     37      11.9278      0.00000
     38      12.2480      0.00000
     39      12.2931      0.00000
     40      12.5182      0.00000
     41      17.8755      0.00000
     42      18.0859      0.00000
     43      18.7170      0.00000
     44      19.5372      0.00000
     45      19.7876      0.00000
     46      20.9087      0.00000
     47      21.5081      0.00000
     48      21.5517      0.00000

 k-point   152 :       0.5000    0.5000    0.5000
  band No.  band energies     occupation 
      1     -46.7935      1.00000
      2     -46.7424      1.00000
      3     -46.7326      1.00000
      4     -41.9267      1.00000
      5     -41.8923      1.00000
      6     -41.8729      1.00000
      7     -20.8963      1.00000
      8     -20.8333      1.00000
      9     -20.7835      1.00000
     10     -20.7240      1.00000
     11      -4.4799      1.00000
     12      -4.3163      1.00000
     13      -3.7789      1.00000
     14      -3.7453      1.00000
     15      -3.3071      1.00000
     16      -2.8810      1.00000
     17      -2.8412      1.00000
     18      -2.6280      1.00000
     19      -1.8085      1.00000
     20      -1.7558      1.00000
     21      -1.6870      1.00000
     22      -1.6691      1.00000
     23       0.9994      1.00000
     24       1.0707      1.00000
     25       1.2672      1.00000
     26       1.9815      1.00000
     27       2.4218      1.00000
     28       5.2839      0.00000
     29       5.3423      0.00000
     30       5.5245      0.00000
     31       6.0727      0.00000
     32       6.4165      0.00000
     33       9.9702      0.00000
     34      11.0415      0.00000
     35      11.0484      0.00000
     36      11.3835      0.00000
     37      11.8407      0.00000
     38      12.2591      0.00000
     39      12.2954      0.00000
     40      12.4238      0.00000
     41      17.9149      0.00000
     42      18.1067      0.00000
     43      18.7131      0.00000
     44      19.5335      0.00000
     45      19.7421      0.00000
     46      20.9248      0.00000
     47      21.5244      0.00000
     48      21.5462      0.00000


--------------------------------------------------------------------------------------------------------


 soft charge-density along one line, spin component           1
         0         1         2         3         4         5         6         7         8         9
 total charge-density along one line
 
 soft charge-density along one line, spin component           2
         0         1         2         3         4         5         6         7         8         9
 total charge-density along one line
 
 pseudopotential strength for first ion, spin component:           1
-42.620  -0.000  -0.029   7.922   0.000   0.013  -0.000   0.000
 -0.000 -42.586  -0.000   0.000   7.907   0.000   0.000  -0.000
 -0.029  -0.000 -42.620   0.013   0.000   7.922  -0.000   0.000
  7.922   0.000   0.013   5.235   0.000  -0.002   0.000  -0.000
  0.000   7.907   0.000   0.000   5.238   0.000  -0.000   0.000
  0.013   0.000   7.922  -0.002   0.000   5.235   0.000  -0.000
 -0.000   0.000  -0.000   0.000  -0.000   0.000  -3.166  -0.000
  0.000  -0.000   0.000  -0.000   0.000  -0.000  -0.000  -3.147
 -0.000   0.000  -0.000   0.000  -0.000   0.000   0.020   0.000
  0.000  -0.000   0.000  -0.000   0.000  -0.000  -0.000  -0.010
  0.000  -0.000   0.000  -0.000   0.000   0.000   0.000   0.000
 -0.000   0.000  -0.000   0.000  -0.000   0.000  -3.653  -0.000
  0.000  -0.000   0.000  -0.000   0.000  -0.000  -0.000  -3.635
 -0.000   0.000  -0.000   0.000  -0.000   0.000   0.019   0.000
  0.000  -0.000   0.000  -0.000   0.000  -0.000  -0.000  -0.010
  0.000  -0.000   0.000  -0.000   0.000   0.000   0.000   0.000
  0.000  -0.000   0.000   0.000  -0.000   0.000   0.007   0.000
  0.000  -0.000   0.000   0.000  -0.000   0.000   0.014   0.000
 pseudopotential strength for first ion, spin component:           2
-45.884  -0.000  -0.022   9.419   0.000   0.008   0.000   0.000
 -0.000 -45.858  -0.000   0.000   9.410   0.000  -0.000   0.000
 -0.022  -0.000 -45.884   0.008   0.000   9.419   0.000  -0.000
  9.419   0.000   0.008   4.732  -0.000  -0.001  -0.000  -0.000
  0.000   9.410   0.000  -0.000   4.734  -0.000   0.000  -0.000
  0.008   0.000   9.419  -0.001  -0.000   4.732  -0.000   0.000
  0.000  -0.000   0.000  -0.000   0.000  -0.000  -6.137  -0.000
  0.000   0.000  -0.000  -0.000  -0.000   0.000  -0.000  -6.127
 -0.000   0.000  -0.000   0.000  -0.000   0.000   0.026   0.000
 -0.000   0.000   0.000   0.000  -0.000  -0.000  -0.000  -0.003
 -0.000   0.000   0.000   0.000  -0.000  -0.000  -0.000   0.000
  0.000  -0.000   0.000  -0.000   0.000  -0.000  -6.583  -0.000
  0.000   0.000  -0.000  -0.000  -0.000   0.000  -0.000  -6.573
 -0.000   0.000  -0.000   0.000  -0.000   0.000   0.026   0.000
 -0.000   0.000   0.000   0.000  -0.000  -0.000  -0.000  -0.003
 -0.000   0.000   0.000   0.000  -0.000  -0.000   0.000   0.000
 -0.000  -0.000  -0.000   0.000   0.000   0.000   0.003   0.000
 -0.000  -0.000  -0.000   0.000   0.000   0.000   0.006   0.000
 total augmentation occupancy for first ion, spin component:           1
  2.000   0.000   0.000   0.000   0.000   0.000   0.000   0.000   0.000   0.000   0.000   0.000   0.000   0.000   0.000   0.000
  0.000   2.000   0.000   0.000   0.000   0.000   0.000   0.000   0.000   0.000   0.000   0.000   0.000   0.000   0.000   0.000
  0.000   0.000   2.000   0.000   0.000   0.000   0.000   0.000   0.000   0.000   0.000   0.000   0.000   0.000   0.000   0.000
  0.000   0.000   0.000   0.000   0.000   0.000   0.000   0.000   0.000   0.000   0.000   0.000   0.000   0.000   0.000   0.000
  0.000   0.000   0.000   0.000   0.000   0.000   0.000   0.000   0.000   0.000   0.000   0.000   0.000   0.000   0.000   0.000
  0.000   0.000   0.000   0.000   0.000   0.000   0.000   0.000   0.000   0.000   0.000   0.000   0.000   0.000   0.000   0.000
  0.000   0.000   0.000   0.000   0.000   0.000   1.200   0.000   0.000   0.000   0.000   0.000   0.000   0.000   0.000   0.000
  0.000   0.000   0.000   0.000   0.000   0.000   0.000   1.200   0.000   0.000   0.000   0.000   0.000   0.000   0.000   0.000
  0.000   0.000   0.000   0.000   0.000   0.000   0.000   0.000   1.200   0.000   0.000   0.000   0.000   0.000   0.000   0.000
  0.000   0.000   0.000   0.000   0.000   0.000   0.000   0.000   0.000   1.200   0.000   0.000   0.000   0.000   0.000   0.000
  0.000   0.000   0.000   0.000   0.000   0.000   0.000   0.000   0.000   0.000   1.200   0.000   0.000   0.000   0.000   0.000
  0.000   0.000   0.000   0.000   0.000   0.000   0.000   0.000   0.000   0.000   0.000   0.000   0.000   0.000   0.000   0.000
  0.000   0.000   0.000   0.000   0.000   0.000   0.000   0.000   0.000   0.000   0.000   0.000   0.000   0.000   0.000   0.000
  0.000   0.000   0.000   0.000   0.000   0.000   0.000   0.000   0.000   0.000   0.000   0.000   0.000   0.000   0.000   0.000
  0.000   0.000   0.000   0.000   0.000   0.000   0.000   0.000   0.000   0.000   0.000   0.000   0.000   0.000   0.000   0.000
  0.000   0.000   0.000   0.000   0.000   0.000   0.000   0.000   0.000   0.000   0.000   0.000   0.000   0.000   0.000   0.000
  0.000   0.000   0.000   0.000   0.000   0.000   0.000   0.000   0.000   0.000   0.000   0.000   0.000   0.000   0.000   0.000
  0.000   0.000   0.000   0.000   0.000   0.000   0.000   0.000   0.000   0.000   0.000   0.000   0.000   0.000   0.000   0.000
 total augmentation occupancy for first ion, spin component:           2
 -0.923   0.000   0.000   0.000   0.000   0.000   0.000   0.000   0.000   0.000   0.000   0.000   0.000   0.000   0.000   0.000
  0.000  -0.923   0.000   0.000   0.000   0.000   0.000   0.000   0.000   0.000   0.000   0.000   0.000   0.000   0.000   0.000
  0.000   0.000  -0.923   0.000   0.000   0.000   0.000   0.000   0.000   0.000   0.000   0.000   0.000   0.000   0.000   0.000
  0.000   0.000   0.000   0.000   0.000   0.000   0.000   0.000   0.000   0.000   0.000   0.000   0.000   0.000   0.000   0.000
  0.000   0.000   0.000   0.000   0.000   0.000   0.000   0.000   0.000   0.000   0.000   0.000   0.000   0.000   0.000   0.000
  0.000   0.000   0.000   0.000   0.000   0.000   0.000   0.000   0.000   0.000   0.000   0.000   0.000   0.000   0.000   0.000
  0.000   0.000   0.000   0.000   0.000   0.000  -0.554   0.000   0.000   0.000   0.000   0.000   0.000   0.000   0.000   0.000
  0.000   0.000   0.000   0.000   0.000   0.000   0.000  -0.554   0.000   0.000   0.000   0.000   0.000   0.000   0.000   0.000
  0.000   0.000   0.000   0.000   0.000   0.000   0.000   0.000  -0.554   0.000   0.000   0.000   0.000   0.000   0.000   0.000
  0.000   0.000   0.000   0.000   0.000   0.000   0.000   0.000   0.000  -0.554   0.000   0.000   0.000   0.000   0.000   0.000
  0.000   0.000   0.000   0.000   0.000   0.000   0.000   0.000   0.000   0.000  -0.554   0.000   0.000   0.000   0.000   0.000
  0.000   0.000   0.000   0.000   0.000   0.000   0.000   0.000   0.000   0.000   0.000   0.000   0.000   0.000   0.000   0.000
  0.000   0.000   0.000   0.000   0.000   0.000   0.000   0.000   0.000   0.000   0.000   0.000   0.000   0.000   0.000   0.000
  0.000   0.000   0.000   0.000   0.000   0.000   0.000   0.000   0.000   0.000   0.000   0.000   0.000   0.000   0.000   0.000
  0.000   0.000   0.000   0.000   0.000   0.000   0.000   0.000   0.000   0.000   0.000   0.000   0.000   0.000   0.000   0.000
  0.000   0.000   0.000   0.000   0.000   0.000   0.000   0.000   0.000   0.000   0.000   0.000   0.000   0.000   0.000   0.000
  0.000   0.000   0.000   0.000   0.000   0.000   0.000   0.000   0.000   0.000   0.000   0.000   0.000   0.000   0.000   0.000
  0.000   0.000   0.000   0.000   0.000   0.000   0.000   0.000   0.000   0.000   0.000   0.000   0.000   0.000   0.000   0.000


------------------------ aborting loop because EDIFF is reached ----------------------------------------


 


 total charge     
 
# of ion       s       p       d       tot
------------------------------------------
    1        0.160   6.147   4.952  11.259
    2        0.161   6.146   4.953  11.260
    3        1.727   4.355   0.000   6.082
    4        1.727   4.355   0.000   6.082
    5        1.726   4.354   0.000   6.080
    6        1.726   4.354   0.000   6.080
--------------------------------------------------
tot          7.227  29.711   9.905  46.842
 


 magnetization (x)
 
# of ion       s       p       d       tot
------------------------------------------
    1       -0.017  -0.016  -4.498  -4.531
    2        0.018   0.016   4.497   4.530
    3        0.002   0.027   0.000   0.029
    4        0.002   0.027   0.000   0.029
    5       -0.002  -0.026   0.000  -0.028
    6       -0.002  -0.026   0.000  -0.028
--------------------------------------------------
tot         -0.000   0.001  -0.001   0.000
 
    CHARGE:  cpu time    0.9014: real time    0.9015
    FORLOC:  cpu time    0.0036: real time    0.0036
    FORNL :  cpu time    8.5252: real time    8.5253
    STRESS:  cpu time   11.8449: real time   11.8451
    FORCOR:  cpu time    0.0861: real time    0.0861
    FORHAR:  cpu time    0.0110: real time    0.0110
    OFIELD:  cpu time    0.0007: real time    0.0007

  FORCE on cell =-STRESS in cart. coord.  units (eV):
  Direction    XX          YY          ZZ          XY          YZ          ZX
  --------------------------------------------------------------------------------------
  Alpha Z   194.59399   194.59399   194.59399
  Ewald   -1579.42609 -1579.42609 -1008.96626    -0.00000    -0.00000    -0.00000
  Hartree   591.93500   591.74798   978.43993    -0.23194    -0.00000     0.00000
  E(xc)    -313.50484  -313.50636  -313.28798     0.00008    -0.00000    -0.00000
  Local     158.34477   159.14878  -791.99626     0.39329    -0.00000    -0.00000
  n-local  -242.77712  -242.53623  -241.90710     0.00285     0.00000     0.00000
  augment   265.54808   265.44725   265.24284    -0.00616     0.00000     0.00000
  Kinetic   924.43590   923.86422   917.02551    -0.15264    -0.00000    -0.00000
  Fock        0.00000     0.00000     0.00000     0.00000     0.00000     0.00000
  -------------------------------------------------------------------------------------
  Total      -0.85031    -0.66646    -0.85533     0.00548     0.00000     0.00000
  in kB     -17.17276   -13.45972   -17.27421     0.11069     0.00006     0.00001
  external pressure =      -15.97 kB  Pullay stress =        0.00 kB


 VOLUME and BASIS-vectors are now :
 -----------------------------------------------------------------------------
  energy-cutoff  :      700.00
  volume of cell :       79.33
      direct lattice vectors                 reciprocal lattice vectors
     4.891796665  0.000000000  0.000000000     0.204423869  0.000000000  0.000000000
     0.000000000  4.891796665  0.000000000     0.000000000  0.204423869  0.000000000
     0.000000000  0.000000000  3.315204934     0.000000000  0.000000000  0.301640478

  length of vectors
     4.891796665  4.891796665  3.315204934     0.204423869  0.204423869  0.301640478


 FORCES acting on ions
    electron-ion (+dipol)            ewald-force                    non-local-force                 convergence-correction
 -----------------------------------------------------------------------------------------------
   0.910E-06 0.452E-06 -.284E-06   0.000E+00 -.568E-13 -.757E-14   -.350E-05 -.130E-05 -.265E-06   -.818E-06 -.366E-06 0.180E-06
   0.180E-06 0.657E-06 -.133E-05   0.000E+00 0.000E+00 -.937E-14   0.556E-05 0.150E-05 -.248E-05   -.480E-07 -.543E-06 0.934E-06
   -.344E+02 0.343E+02 0.746E-07   0.357E+02 -.357E+02 0.376E-14   -.127E+01 0.132E+01 -.216E-06   0.653E-01 -.410E-01 0.338E-07
   0.344E+02 -.343E+02 -.503E-07   -.357E+02 0.357E+02 0.355E-14   0.127E+01 -.132E+01 -.380E-07   -.653E-01 0.410E-01 -.532E-07
   0.343E+02 0.342E+02 -.284E-07   -.357E+02 -.357E+02 0.688E-14   0.130E+01 0.136E+01 -.183E-07   0.733E-02 0.315E-01 -.566E-07
   -.343E+02 -.342E+02 0.958E-07   0.357E+02 0.357E+02 0.656E-14   -.130E+01 -.136E+01 0.985E-08   -.733E-02 -.315E-01 0.106E-07
 -----------------------------------------------------------------------------------------------
   0.543E-06 0.167E-05 -.153E-05   0.711E-14 0.000E+00 0.381E-14   0.186E-05 0.439E-06 -.301E-05   -.607E-06 -.124E-05 0.105E-05
 
 
 POSITION                                       TOTAL-FORCE (eV/Angst)
 -----------------------------------------------------------------------------------
      2.44590      2.44590      1.65760        -0.000004     -0.000001      0.000000
      0.00000      0.00000      0.00000         0.000005      0.000001     -0.000002
      0.95434      3.93746      1.65760         0.052725     -0.024211      0.000000
      3.93746      0.95434      1.65760        -0.052726      0.024212      0.000000
      1.49156      1.49156      0.00000        -0.046601     -0.018087      0.000000
      3.40024      3.40024      0.00000         0.046601      0.018087      0.000001
 -----------------------------------------------------------------------------------
    total drift:                                0.000002      0.000001     -0.000003


--------------------------------------------------------------------------------------------------------



  FREE ENERGIE OF THE ION-ELECTRON SYSTEM (eV)
  ---------------------------------------------------
  free  energy   TOTEN  =       -40.70137685 eV

  energy  without entropy=      -40.70137685  energy(sigma->0) =      -40.70137685
 


--------------------------------------------------------------------------------------------------------


    POTLOK:  cpu time    1.6102: real time    1.6103


--------------------------------------------------------------------------------------------------------


     LOOP+:  cpu time  294.1785: real time  294.3209
    4ORBIT:  cpu time    0.0000: real time    0.0000
 


 total charge     
 
# of ion       s       p       d       tot
------------------------------------------
    1        0.160   6.147   4.952  11.259
    2        0.161   6.146   4.953  11.260
    3        1.727   4.355   0.000   6.082
    4        1.727   4.355   0.000   6.082
    5        1.726   4.354   0.000   6.080
    6        1.726   4.354   0.000   6.080
--------------------------------------------------
tot          7.227  29.711   9.905  46.842
 


 magnetization (x)
 
# of ion       s       p       d       tot
------------------------------------------
    1       -0.017  -0.016  -4.498  -4.531
    2        0.018   0.016   4.497   4.530
    3        0.002   0.027   0.000   0.029
    4        0.002   0.027   0.000   0.029
    5       -0.002  -0.026   0.000  -0.028
    6       -0.002  -0.026   0.000  -0.028
--------------------------------------------------
tot         -0.000   0.001  -0.001   0.000
 

 total amount of memory used by VASP MPI-rank0   391980. kBytes
=======================================================================

   base      :      30000. kBytes
   nonl-proj :     147760. kBytes
   fftplans  :       7420. kBytes
   grid      :       6062. kBytes
   one-center:        186. kBytes
   wavefun   :     200552. kBytes
 
  
  
 General timing and accounting informations for this job:
 ========================================================
  
                  Total CPU time used (sec):      302.266
                            User time (sec):      301.190
                          System time (sec):        1.076
                         Elapsed time (sec):      302.450
  
                   Maximum memory used (kb):      396632.
                   Average memory used (kb):           0.
  
                          Minor page faults:        95186
                          Major page faults:            6
                 Voluntary context switches:          136
