       N       E                     dE             d eps       ncg     rms          rms(c)
DAV:   1     0.102948936942E+04    0.10295E+04   -0.42496E+04  1308   0.237E+03
DAV:   2     0.419719340813E+03   -0.60977E+03   -0.58464E+03  1512   0.571E+02
DAV:   3     0.381428890647E+03   -0.38290E+02   -0.37656E+02  1512   0.149E+02
DAV:   4     0.380890742719E+03   -0.53815E+00   -0.53763E+00  1560   0.190E+01
DAV:   5     0.380881913877E+03   -0.88288E-02   -0.88286E-02  1524   0.230E+00    0.593E+01
DAV:   6    -0.683524351572E+02   -0.44923E+03   -0.31367E+02  1584   0.215E+02    0.636E+01
DAV:   7    -0.711651152606E+02   -0.28127E+01   -0.49615E+01  1404   0.448E+01    0.169E+01
DAV:   8    -0.686068721300E+02    0.25582E+01   -0.73041E+00  1524   0.224E+01    0.610E+00
DAV:   9    -0.681438567965E+02    0.46302E+00   -0.36508E+00  1404   0.168E+01    0.778E+00
DAV:  10    -0.681038361212E+02    0.40021E-01   -0.32055E-01  1464   0.450E+00    0.536E+00
DAV:  11    -0.680600958628E+02    0.43740E-01   -0.45958E-01  1464   0.601E+00    0.127E+00
DAV:  12    -0.680469553226E+02    0.13141E-01   -0.32885E-02  1368   0.171E+00    0.842E-01
DAV:  13    -0.680423761097E+02    0.45792E-02   -0.27085E-02  1560   0.100E+00    0.802E-01
DAV:  14    -0.680380928681E+02    0.42832E-02   -0.32153E-02  1296   0.202E+00    0.243E-01
DAV:  15    -0.680390736393E+02   -0.98077E-03   -0.30718E-03  1452   0.406E-01    0.291E-01
DAV:  16    -0.680391034561E+02   -0.29817E-04   -0.35859E-03  1428   0.400E-01    0.125E-01
DAV:  17    -0.680389628274E+02    0.14063E-03   -0.50512E-04  1332   0.259E-01    0.800E-02
DAV:  18    -0.680387335391E+02    0.22929E-03   -0.37300E-04  1380   0.116E-01    0.221E-02
DAV:  19    -0.680387104234E+02    0.23116E-04   -0.56167E-05  1344   0.716E-02    0.943E-03
DAV:  20    -0.680387357330E+02   -0.25310E-04   -0.49044E-06  1632   0.136E-02    0.492E-03
DAV:  21    -0.680387407610E+02   -0.50280E-05   -0.25049E-07  1320   0.490E-03    0.453E-03
DAV:  22    -0.680387371050E+02    0.36560E-05   -0.41734E-07  1128   0.424E-03    0.306E-03
DAV:  23    -0.680387376793E+02   -0.57432E-06   -0.17198E-07  1020   0.245E-03    0.142E-03
DAV:  24    -0.680387386810E+02   -0.10017E-05   -0.62488E-08   648   0.168E-03    0.286E-04
DAV:  25    -0.680387390843E+02   -0.40336E-06   -0.15910E-08   648   0.821E-04    0.176E-04
DAV:  26    -0.680387390896E+02   -0.52505E-08   -0.27382E-09   648   0.330E-04
   1 F= -.68038739E+02 E0= -.68038739E+02  d E =-.680387E+02  mag=    -0.0000
       N       E                     dE             d eps       ncg     rms          rms(c)
DAV:   1    -0.680398565539E+02   -0.11175E-02   -0.23984E-02  1296   0.141E+00    0.292E-01
DAV:   2    -0.680389692714E+02    0.88728E-03   -0.21546E-03  1296   0.383E-01    0.174E-01
DAV:   3    -0.680388287936E+02    0.14048E-03   -0.79362E-04  1332   0.198E-01    0.630E-02
DAV:   4    -0.680387381963E+02    0.90597E-04   -0.38632E-05  1500   0.576E-02    0.521E-02
DAV:   5    -0.680387383196E+02   -0.12322E-06   -0.94456E-05  1560   0.622E-02    0.333E-02
DAV:   6    -0.680387284215E+02    0.98981E-05   -0.20808E-05  1452   0.340E-02    0.102E-02
DAV:   7    -0.680387309805E+02   -0.25590E-05   -0.25020E-05  1500   0.298E-02    0.129E-02
DAV:   8    -0.680387331686E+02   -0.21881E-05   -0.40672E-06  1380   0.154E-02    0.380E-03
DAV:   9    -0.680387332136E+02   -0.45065E-07   -0.19308E-06  1572   0.782E-03    0.712E-04
DAV:  10    -0.680387333603E+02   -0.14669E-06   -0.23550E-07   984   0.258E-03    0.152E-03
DAV:  11    -0.680387330574E+02    0.30297E-06   -0.14335E-08   648   0.875E-04    0.129E-03
DAV:  12    -0.680387331875E+02   -0.13014E-06   -0.27430E-08   648   0.105E-03    0.717E-04
DAV:  13    -0.680387332324E+02   -0.44894E-07   -0.29614E-08   648   0.997E-04
   2 F= -.68038733E+02 E0= -.68038733E+02  d E =0.585717E-05  mag=     0.0000
