 vasp.5.4.4.18Apr17-6-g9f103f2a35 (build Apr 27 2017 11:13:10) complex          
  
 executed on           IFC91_ompi date 2020.05.13  11:56:32
 running on   12 total cores
 distrk:  each k-point on   12 cores,    1 groups
 distr:  one band on NCORES_PER_BAND=   1 cores,   12 groups


--------------------------------------------------------------------------------------------------------


 INCAR:
 POTCAR:    PAW_PBE Mn_pv 02Aug2007               
 POTCAR:    PAW_PBE F 08Apr2002                   

 ----------------------------------------------------------------------------- 
|                                                                             |
|           W    W    AA    RRRRR   N    N  II  N    N   GGGG   !!!           |
|           W    W   A  A   R    R  NN   N  II  NN   N  G    G  !!!           |
|           W    W  A    A  R    R  N N  N  II  N N  N  G       !!!           |
|           W WW W  AAAAAA  RRRRR   N  N N  II  N  N N  G  GGG   !            |
|           WW  WW  A    A  R   R   N   NN  II  N   NN  G    G                |
|           W    W  A    A  R    R  N    N  II  N    N   GGGG   !!!           |
|                                                                             |
|      For optimal performance we recommend to set                            |
|        NCORE= 4 - approx SQRT( number of cores)                             |
|      NCORE specifies how many cores store one orbital (NPAR=cpu/NCORE).     |
|      This setting can  greatly improve the performance of VASP for DFT.     |
|      The default,   NCORE=1            might be grossly inefficient         |
|      on modern multi-core architectures or massively parallel machines.     |
|      Do your own testing !!!!                                               |
|      Unfortunately you need to use the default for GW and RPA calculations. |
|      (for HF NCORE is supported but not extensively tested yet)             |
|                                                                             |
 ----------------------------------------------------------------------------- 

 POTCAR:    PAW_PBE Mn_pv 02Aug2007               
   VRHFIN =Mn: 3p4s3d                                                           
   LEXCH  = PE                                                                  
   EATOM  =  2025.2664 eV,  148.8529 Ry                                         
                                                                                
   TITEL  = PAW_PBE Mn_pv 02Aug2007                                             
   LULTRA =        F    use ultrasoft PP ?                                      
   IUNSCR =        1    unscreen: 0-lin 1-nonlin 2-no                           
   RPACOR =    2.080    partial core radius                                     
   POMASS =   54.938; ZVAL   =   13.000    mass and valenz                      
   RCORE  =    2.300    outmost cutoff radius                                   
   RWIGS  =    2.500; RWIGS  =    1.323    wigner-seitz radius (au A)           
   ENMAX  =  269.864; ENMIN  =  202.398 eV                                      
   ICORE  =        3    local potential                                         
   LCOR   =        T    correct aug charges                                     
   LPAW   =        T    paw PP                                                  
   EAUG   =  569.085                                                            
   DEXC   =    0.000                                                            
   RMAX   =    2.343    core radius for proj-oper                               
   RAUG   =    1.300    factor for augmentation sphere                          
   RDEP   =    2.338    radius for radial grids                                 
   RDEPT  =    1.798    core radius for aug-charge                              
                                                                                
   Atomic configuration                                                         
    8 entries                                                                   
     n  l   j            E        occ.                                          
     1  0  0.50     -6424.8287   2.0000                                         
     2  0  0.50      -739.1154   2.0000                                         
     2  1  1.50      -625.3949   6.0000                                         
     3  0  0.50       -81.6100   2.0000                                         
     3  1  1.50       -50.4667   6.0000                                         
     3  2  2.50        -3.3745   6.0000                                         
     4  0  0.50        -4.1331   1.0000                                         
     4  3  2.50        -1.3606   0.0000                                         
   Description                                                                  
     l       E           TYP  RCUT    TYP  RCUT                                 
     1    -50.4666628     23  2.000                                             
     1     -1.3605826     23  2.000                                             
     2     -3.3744729     23  2.300                                             
     2     -4.7350555     23  2.300                                             
     0     -4.1331431     23  2.300                                             
     0      7.6656591     23  2.300                                             
     3      9.5240782     23  2.300                                             
  local pseudopotential read in
  partial core-charges read in
  partial kinetic energy density read in
  atomic valenz-charges read in
  non local Contribution for L=           1  read in
    real space projection operators read in
  non local Contribution for L=           1  read in
    real space projection operators read in
  non local Contribution for L=           2  read in
    real space projection operators read in
  non local Contribution for L=           2  read in
    real space projection operators read in
  non local Contribution for L=           0  read in
    real space projection operators read in
  non local Contribution for L=           0  read in
    real space projection operators read in
    PAW grid and wavefunctions read in
 
   number of l-projection  operators is LMAX  =           6
   number of lm-projection operators is LMMAX =          18
 
 POTCAR:    PAW_PBE F 08Apr2002                   
   VRHFIN =F: s2p5                                                              
   LEXCH  = PE                                                                  
   EATOM  =   659.6475 eV,   48.4827 Ry                                         
                                                                                
   TITEL  = PAW_PBE F 08Apr2002                                                 
   LULTRA =        F    use ultrasoft PP ?                                      
   IUNSCR =        1    unscreen: 0-lin 1-nonlin 2-no                           
   RPACOR =    1.200    partial core radius                                     
   POMASS =   18.998; ZVAL   =    7.000    mass and valenz                      
   RCORE  =    1.520    outmost cutoff radius                                   
   RWIGS  =    1.500; RWIGS  =    0.794    wigner-seitz radius (au A)           
   ENMAX  =  400.000; ENMIN  =  300.000 eV                                      
   ICORE  =        2    local potential                                         
   LCOR   =        T    correct aug charges                                     
   LPAW   =        T    paw PP                                                  
   EAUG   =  613.614                                                            
   RMAX   =    1.555    core radius for proj-oper                               
   RAUG   =    1.300    factor for augmentation sphere                          
   RDEP   =    1.539    radius for radial grids                                 
   RDEPT  =    1.299    core radius for aug-charge                              
                                                                                
   Atomic configuration                                                         
    4 entries                                                                   
     n  l   j            E        occ.                                          
     1  0  0.50      -663.3661   2.0000                                         
     2  0  0.50       -29.8995   2.0000                                         
     2  1  0.50       -11.1114   5.0000                                         
     3  2  1.50       -10.8847   0.0000                                         
   Description                                                                  
     l       E           TYP  RCUT    TYP  RCUT                                 
     0    -29.8995018     23  1.200                                             
     0     -9.5240782     23  1.200                                             
     1    -11.1113914     23  1.520                                             
     1      1.3605826     23  1.520                                             
     2    -10.8846608      7  1.500                                             
  local pseudopotential read in
  partial core-charges read in
  partial kinetic energy density read in
  atomic valenz-charges read in
  non local Contribution for L=           0  read in
    real space projection operators read in
  non local Contribution for L=           0  read in
    real space projection operators read in
  non local Contribution for L=           1  read in
    real space projection operators read in
  non local Contribution for L=           1  read in
    real space projection operators read in
    PAW grid and wavefunctions read in
 
   number of l-projection  operators is LMAX  =           4
   number of lm-projection operators is LMMAX =           8
 
  PAW_PBE Mn_pv 02Aug2007               :
 energy of atom  1       EATOM=-2025.2664
 kinetic energy error for atom=    0.0013 (will be added to EATOM!!)
  PAW_PBE F 08Apr2002                   :
 energy of atom  2       EATOM= -659.6475
 kinetic energy error for atom=    0.0092 (will be added to EATOM!!)
 
 
 POSCAR: Mn  F                                   
  positions in cartesian coordinates
  No initial velocities read in

 METAGGA = SCAN     LMAXTAU =  6    LMIXTAU =  F

 exchange correlation table for  LEXCH =        8
   RHO(1)=    0.500       N(1)  =     2000
   RHO(2)=  100.500       N(2)  =     4000
 


--------------------------------------------------------------------------------------------------------


 ion  position               nearest neighbor table
   1  0.500  0.500  0.500-   3 2.09   4 2.09   5 2.12   6 2.12   5 2.12   6 2.12
   2  0.000  0.000  0.000-   5 2.09   6 2.09   3 2.12   4 2.12   3 2.12   4 2.12
   3  0.196  0.804  0.500-   1 2.09   2 2.12   2 2.12
   4  0.804  0.196  0.500-   1 2.09   2 2.12   2 2.12
   5  0.304  0.304  0.000-   2 2.09   1 2.12   1 2.12
   6  0.696  0.696  0.000-   2 2.09   1 2.12   1 2.12
 
  LATTYP: Found a simple tetragonal cell.
 ALAT       =     4.8525685001
 C/A-ratio  =     0.6775817662
  
  Lattice vectors:
  
 A1 = (   4.8525685001,   0.0000000000,   0.0000000000)
 A2 = (   0.0000000000,   4.8525685001,   0.0000000000)
 A3 = (   0.0000000000,   0.0000000000,   3.2880119349)


Analysis of symmetry for initial positions (statically):
=====================================================================
 Subroutine PRICEL returns:
 Original cell was already a primitive cell.
 

 Routine SETGRP: Setting up the symmetry group for a 
 simple tetragonal supercell.


 Subroutine GETGRP returns: Found 16 space group operations
 (whereof  8 operations were pure point group operations)
 out of a pool of 16 trial point group operations.


The static configuration has the point symmetry D_2h.
 The point group associated with its full space group is D_4h.


Analysis of symmetry for dynamics (positions and initial velocities):
=====================================================================
 Subroutine PRICEL returns:
 Original cell was already a primitive cell.
 

 Routine SETGRP: Setting up the symmetry group for a 
 simple tetragonal supercell.


 Subroutine GETGRP returns: Found 16 space group operations
 (whereof  8 operations were pure point group operations)
 out of a pool of 16 trial point group operations.


The dynamic configuration has the point symmetry D_2h.
 The point group associated with its full space group is D_4h.


Analysis of structural, dynamic, and magnetic symmetry:
=====================================================================
 Subroutine PRICEL returns:
 Original cell was already a primitive cell.
 

 Routine SETGRP: Setting up the symmetry group for a 
 simple tetragonal supercell.


 Subroutine GETGRP returns: Found 16 space group operations
 (whereof  8 operations were pure point group operations)
 out of a pool of 16 trial point group operations.


The magnetic configuration has the point symmetry D_2h.
 The point group associated with its full space group is D_4h.


 Subroutine INISYM returns: Found 16 space group operations
 (whereof  8 operations are pure point group operations),
 and found     1 'primitive' translations

 
 
 KPOINTS: KPOINTS created by Atomic Simulation Env

Automatic generation of k-mesh.
Space group operators:
 irot       det(A)        alpha          n_x          n_y          n_z        tau_x        tau_y        tau_z
    1     1.000000     0.000000     1.000000     0.000000     0.000000     0.000000     0.000000     0.000000
    2    -1.000000     0.000000     1.000000     0.000000     0.000000     0.000000     0.000000     0.000000
    3     1.000000   180.000000     0.000000     0.000000     1.000000     0.000000     0.000000     0.000000
    4    -1.000000   180.000000     0.000000     0.000000     1.000000     0.000000     0.000000     0.000000
    5     1.000000   180.000000     0.707107     0.707107     0.000000     0.000000     0.000000     0.000000
    6    -1.000000   180.000000     0.707107     0.707107     0.000000     0.000000     0.000000     0.000000
    7     1.000000   180.000000     0.707107    -0.707107     0.000000     0.000000     0.000000     0.000000
    8    -1.000000   180.000000     0.707107    -0.707107     0.000000     0.000000     0.000000     0.000000
    9     1.000000    90.000000     0.000000     0.000000    -1.000000     0.500000     0.500000     0.500000
   10    -1.000000    90.000000     0.000000     0.000000    -1.000000     0.500000     0.500000     0.500000
   11     1.000000    90.000000     0.000000     0.000000     1.000000     0.500000     0.500000     0.500000
   12    -1.000000    90.000000     0.000000     0.000000     1.000000     0.500000     0.500000     0.500000
   13     1.000000   180.000000     0.000000     1.000000     0.000000     0.500000     0.500000     0.500000
   14    -1.000000   180.000000     0.000000     1.000000     0.000000     0.500000     0.500000     0.500000
   15     1.000000   180.000000     1.000000     0.000000     0.000000     0.500000     0.500000     0.500000
   16    -1.000000   180.000000     1.000000     0.000000     0.000000     0.500000     0.500000     0.500000
 
 Subroutine IBZKPT returns following result:
 ===========================================
 
 Found      9 irreducible k-points:
 
 Following reciprocal coordinates:
            Coordinates               Weight
  0.125000  0.125000  0.083333      8.000000
  0.375000  0.125000  0.083333     16.000000
  0.375000  0.375000  0.083333      8.000000
  0.125000  0.125000  0.250000      8.000000
  0.375000  0.125000  0.250000     16.000000
  0.375000  0.375000  0.250000      8.000000
  0.125000  0.125000  0.416667      8.000000
  0.375000  0.125000  0.416667     16.000000
  0.375000  0.375000  0.416667      8.000000
 
 Following cartesian coordinates:
            Coordinates               Weight
  0.025760  0.025760  0.025345      8.000000
  0.077279  0.025760  0.025345     16.000000
  0.077279  0.077279  0.025345      8.000000
  0.025760  0.025760  0.076034      8.000000
  0.077279  0.025760  0.076034     16.000000
  0.077279  0.077279  0.076034      8.000000
  0.025760  0.025760  0.126723      8.000000
  0.077279  0.025760  0.126723     16.000000
  0.077279  0.077279  0.126723      8.000000
 


--------------------------------------------------------------------------------------------------------




 Dimension of arrays:
   k-points           NKPTS =      9   k-points in BZ     NKDIM =      9   number of bands    NBANDS=     36
   number of dos      NEDOS =    301   number of ions     NIONS =      6
   non local maximal  LDIM  =      6   non local SUM 2l+1 LMDIM =     18
   total plane-waves  NPLWV =  31104
   max r-space proj   IRMAX =      1   max aug-charges    IRDMAX=  97706
   dimension x,y,z NGX =    36 NGY =   36 NGZ =   24
   dimension x,y,z NGXF=    72 NGYF=   72 NGZF=   48
   support grid    NGXF=   144 NGYF=  144 NGZF=   96
   ions per type =               2   4
   NGX,Y,Z   is equivalent  to a cutoff of  12.33, 12.33, 12.13 a.u.
   NGXF,Y,Z  is equivalent  to a cutoff of  24.67, 24.67, 24.27 a.u.

 SYSTEM =  unknown system                          
 POSCAR =  Mn  F                                   

 Startparameter for this run:
   NWRITE =      2    write-flag & timer
   PREC   = normal    normal or accurate (medium, high low for compatibility)
   ISTART =      0    job   : 0-new  1-cont  2-samecut
   ICHARG =      2    charge: 1-file 2-atom 10-const
   ISPIN  =      2    spin polarized calculation?
   LNONCOLLINEAR =      F non collinear calculations
   LSORBIT =      F    spin-orbit coupling
   INIWAV =      1    electr: 0-lowe 1-rand  2-diag
   LASPH  =      T    aspherical Exc in radial PAW
   METAGGA=      F    non-selfconsistent MetaGGA calc.

 Electronic Relaxation 1
   ENCUT  =  750.0 eV  55.12 Ry    7.42 a.u.  10.84 10.84  7.34*2*pi/ulx,y,z
   ENINI  =  750.0     initial cutoff
   ENAUG  =  613.6 eV  augmentation charge cutoff
   NELM   =     60;   NELMIN=  2; NELMDL= -5     # of ELM steps 
   EDIFF  = 0.1E-06   stopping-criterion for ELM
   LREAL  =      F    real-space projection
   NLSPLINE    = F    spline interpolate recip. space projectors
   LCOMPAT=      F    compatible to vasp.4.4
   GGA_COMPAT  = T    GGA compatible to vasp.4.4-vasp.4.6
   LMAXPAW     = -100 max onsite density
   LMAXMIX     =    4 max onsite mixed and CHGCAR
   VOSKOWN=      0    Vosko Wilk Nusair interpolation
   ROPT   =    0.00000   0.00000
 Ionic relaxation
   EDIFFG = -.5E-02   stopping-criterion for IOM
   NSW    =     50    number of steps for IOM
   NBLOCK =      1;   KBLOCK =     50    inner block; outer block 
   IBRION =      2    ionic relax: 0-MD 1-quasi-New 2-CG
   NFREE  =      1    steps in history (QN), initial steepest desc. (CG)
   ISIF   =      3    stress and relaxation
   IWAVPR =     11    prediction:  0-non 1-charg 2-wave 3-comb
   ISYM   =      2    0-nonsym 1-usesym 2-fastsym
   LCORR  =      T    Harris-Foulkes like correction to forces

   POTIM  = 0.5000    time-step for ionic-motion
   TEIN   =    0.0    initial temperature
   TEBEG  =    0.0;   TEEND  =   0.0 temperature during run
   SMASS  =  -3.00    Nose mass-parameter (am)
   estimated Nose-frequenzy (Omega)   =  0.10E-29 period in steps =****** mass=  -0.538E-27a.u.
   SCALEE = 1.0000    scale energy and forces
   NPACO  =    256;   APACO  = 16.0  distance and # of slots for P.C.
   PSTRESS=    0.0 pullay stress

  Mass of Ions in am
   POMASS =  54.94 19.00
  Ionic Valenz
   ZVAL   =  13.00  7.00
  Atomic Wigner-Seitz radii
   RWIGS  =  -1.00 -1.00
  virtual crystal weights 
   VCA    =   1.00  1.00
   NELECT =      54.0000    total number of electrons
   NUPDOWN=      -1.0000    fix difference up-down

 DOS related values:
   EMIN   =  10.00;   EMAX   =-10.00  energy-range for DOS
   EFERMI =   0.00
   ISMEAR =     0;   SIGMA  =   0.02  broadening in eV -4-tet -1-fermi 0-gaus

 Electronic relaxation 2 (details)
   IALGO  =     38    algorithm
   LDIAG  =      T    sub-space diagonalisation (order eigenvalues)
   LSUBROT=      F    optimize rotation matrix (better conditioning)
   TURBO    =      0    0=normal 1=particle mesh
   IRESTART =      0    0=no restart 2=restart with 2 vectors
   NREBOOT  =      0    no. of reboots
   NMIN     =      0    reboot dimension
   EREF     =   0.00    reference energy to select bands
   IMIX   =      4    mixing-type and parameters
     AMIX     =   0.40;   BMIX     =  1.00
     AMIX_MAG =   1.60;   BMIX_MAG =  1.00
     AMIN     =   0.10
     WC   =   100.;   INIMIX=   1;  MIXPRE=   1;  MAXMIX= -45

 Intra band minimization:
   WEIMIN = 0.0010     energy-eigenvalue tresh-hold
   EBREAK =  0.69E-09  absolut break condition
   DEPER  =   0.30     relativ break condition  

   TIME   =   0.40     timestep for ELM

  volume/ion in A,a.u.               =      12.90        87.08
  Fermi-wavevector in a.u.,A,eV,Ry     =   1.451824  2.743549 28.678246  2.107792
  Thomas-Fermi vector in A             =   2.569276
 
 Write flags
   LWAVE        =      F    write WAVECAR
   LDOWNSAMPLE  =      F    k-point downsampling of WAVECAR
   LCHARG       =      F    write CHGCAR
   LVTOT        =      F    write LOCPOT, total local potential
   LVHAR        =      F    write LOCPOT, Hartree potential only
   LELF         =      F    write electronic localiz. function (ELF)
   LORBIT       =     11    0 simple, 1 ext, 2 COOP (PROOUT), +10 PAW based schemes


 Dipole corrections
   LMONO  =      F    monopole corrections only (constant potential shift)
   LDIPOL =      F    correct potential (dipole corrections)
   IDIPOL =      0    1-x, 2-y, 3-z, 4-all directions 
   EPSILON=  1.0000000 bulk dielectric constant

 LDA+U is selected, type is set to LDAUTYPE =  2
   angular momentum for each species LDAUL =     2   -1
   U (eV)           for each species LDAUU =   0.0  0.0
   J (eV)           for each species LDAUJ =   0.0  0.0
 Exchange correlation treatment:
   GGA     =    --    GGA type
   LEXCH   =     8    internal setting for exchange type
   VOSKOWN=      0    Vosko Wilk Nusair interpolation
   LHFCALC =     F    Hartree Fock is set to
   LHFONE  =     F    Hartree Fock one center treatment
   AEXX    =    0.0000 exact exchange contribution

 Linear response parameters
   LEPSILON=     F    determine dielectric tensor
   LRPA    =     F    only Hartree local field effects (RPA)
   LNABLA  =     F    use nabla operator in PAW spheres
   LVEL    =     F    velocity operator in full k-point grid
   LINTERFAST=   F  fast interpolation
   KINTER  =     0    interpolate to denser k-point grid
   CSHIFT  =0.1000    complex shift for real part using Kramers Kronig
   OMEGAMAX=  -1.0    maximum frequency
   DEG_THRESHOLD= 0.2000000E-02 threshold for treating states as degnerate
   RTIME   =   -0.100 relaxation time in fs
  (WPLASMAI=    0.000 imaginary part of plasma frequency in eV, 0.658/RTIME)
   DFIELD  = 0.0000000 0.0000000 0.0000000 field for delta impulse in time
 
 Orbital magnetization related:
   ORBITALMAG=     F  switch on orbital magnetization
   LCHIMAG   =     F  perturbation theory with respect to B field
   DQ        =  0.001000  dq finite difference perturbation B field
   LLRAUG    =     F  two centre corrections for induced B field



--------------------------------------------------------------------------------------------------------


 conjugate gradient relaxation of ions
 charge density and potential will be updated during run
 spin polarized calculation
 Variant of blocked Davidson
 Davidson routine will perform the subspace rotation
 perform sub-space diagonalisation
    after iterative eigenvector-optimisation
 modified Broyden-mixing scheme, WC =      100.0
 initial mixing is a Kerker type mixing with AMIX =  0.4000 and BMIX =      1.0000
 Hartree-type preconditioning will be used
 using additional bands            9
 reciprocal scheme for non local part
 use partial core corrections
 calculate Harris-corrections to forces 
   (improved forces if not selfconsistent)
 use gradient corrections 
 use of overlap-Matrix (Vanderbilt PP)
 Gauss-broadening in eV      SIGMA  =   0.02


--------------------------------------------------------------------------------------------------------


  energy-cutoff  :      750.00
  volume of cell :       77.42
      direct lattice vectors                 reciprocal lattice vectors
     4.852568500  0.000000000  0.000000000     0.206076431  0.000000000  0.000000000
     0.000000000  4.852568500  0.000000000     0.000000000  0.206076431  0.000000000
     0.000000000  0.000000000  3.288011935     0.000000000  0.000000000  0.304135149

  length of vectors
     4.852568500  4.852568500  3.288011935     0.206076431  0.206076431  0.304135149


 
 k-points in units of 2pi/SCALE and weight: KPOINTS created by Atomic Simulation Env
   0.02575955  0.02575955  0.02534460       0.083
   0.07727866  0.02575955  0.02534460       0.167
   0.07727866  0.07727866  0.02534460       0.083
   0.02575955  0.02575955  0.07603379       0.083
   0.07727866  0.02575955  0.07603379       0.167
   0.07727866  0.07727866  0.07603379       0.083
   0.02575955  0.02575955  0.12672298       0.083
   0.07727866  0.02575955  0.12672298       0.167
   0.07727866  0.07727866  0.12672298       0.083
 
 k-points in reciprocal lattice and weights: KPOINTS created by Atomic Simulation Env
   0.12500000  0.12500000  0.08333333       0.083
   0.37500000  0.12500000  0.08333333       0.167
   0.37500000  0.37500000  0.08333333       0.083
   0.12500000  0.12500000  0.25000000       0.083
   0.37500000  0.12500000  0.25000000       0.167
   0.37500000  0.37500000  0.25000000       0.083
   0.12500000  0.12500000  0.41666667       0.083
   0.37500000  0.12500000  0.41666667       0.167
   0.37500000  0.37500000  0.41666667       0.083
 
 position of ions in fractional coordinates (direct lattice) 
   0.50000000  0.50000000  0.50000000
   0.00000000  0.00000000  0.00000000
   0.19609954  0.80390046  0.50000000
   0.80390046  0.19609954  0.50000000
   0.30390046  0.30390046  0.00000000
   0.69609954  0.69609954  0.00000000
 
 position of ions in cartesian coordinates  (Angst):
   2.42628425  2.42628425  1.64400597
   0.00000000  0.00000000  0.00000000
   0.95158645  3.90098205  1.64400597
   3.90098205  0.95158645  1.64400597
   1.47469780  1.47469780  0.00000000
   3.37787070  3.37787070  0.00000000
 


--------------------------------------------------------------------------------------------------------


 k-point  1 :   0.1250 0.1250 0.0833  plane waves:    3604
 k-point  2 :   0.3750 0.1250 0.0833  plane waves:    3616
 k-point  3 :   0.3750 0.3750 0.0833  plane waves:    3627
 k-point  4 :   0.1250 0.1250 0.2500  plane waves:    3606
 k-point  5 :   0.3750 0.1250 0.2500  plane waves:    3605
 k-point  6 :   0.3750 0.3750 0.2500  plane waves:    3612
 k-point  7 :   0.1250 0.1250 0.4167  plane waves:    3607
 k-point  8 :   0.3750 0.1250 0.4167  plane waves:    3610
 k-point  9 :   0.3750 0.3750 0.4167  plane waves:    3601

 maximum and minimum number of plane-waves per node :      3627     3601

 maximum number of plane-waves:      3627
 maximum index in each direction: 
   IXMAX=   10   IYMAX=   10   IZMAX=    7
   IXMIN=  -11   IYMIN=  -11   IZMIN=   -7


 serial   3D FFT for wavefunctions
 parallel 3D FFT for charge:
    minimum data exchange during FFTs selected (reduces bandwidth)


 total amount of memory used by VASP MPI-rank0    52961. kBytes
=======================================================================

   base      :      30000. kBytes
   nonl-proj :       9773. kBytes
   fftplans  :       3220. kBytes
   grid      :       6579. kBytes
   one-center:        186. kBytes
   wavefun   :       3203. kBytes
 
     INWAV:  cpu time    0.0000: real time    0.0000
 Broyden mixing: mesh for mixing (old mesh)
   NGX = 21   NGY = 21   NGZ = 15
  (NGX  = 72   NGY  = 72   NGZ  = 48)
  gives a total of   6615 points

 initial charge density was supplied:
 charge density of overlapping atoms calculated
 number of electron      54.0000000 magnetization       0.0000000
 keeping initial charge density in first step


--------------------------------------------------------------------------------------------------------


 Maximum index for augmentation-charges         8031 (set IRDMAX)


--------------------------------------------------------------------------------------------------------


 First call to EWALD:  gamma=   0.416
 Maximum number of real-space cells 2x 2x 3
 Maximum number of reciprocal cells 3x 3x 2

    FEWALD:  cpu time    0.0010: real time    0.0010


--------------------------------------- Iteration      1(   1)  ---------------------------------------


    POTLOK:  cpu time    0.0613: real time    0.0613
    SETDIJ:  cpu time    0.7969: real time    0.7969
atom =   1  type =  1  l = 2
 
 onsite density matrix
 
spin component  1
 
  0.2835  0.0000  0.0000  0.0000  0.0000
  0.0000  0.2835  0.0000  0.0000  0.0000
  0.0000  0.0000  0.2835  0.0000  0.0000
  0.0000  0.0000  0.0000  0.2835  0.0000
  0.0000  0.0000  0.0000  0.0000  0.2835
 
spin component  2
 
  0.7694  0.0000  0.0000  0.0000  0.0000
  0.0000  0.7694  0.0000  0.0000  0.0000
  0.0000  0.0000  0.7694  0.0000  0.0000
  0.0000  0.0000  0.0000  0.7694  0.0000
  0.0000  0.0000  0.0000  0.0000  0.7694
 
 occupancies and eigenvectors
 
  o =  0.2835  v =  1.0000  0.0000  0.0000  0.0000  0.0000  0.0000  0.0000  0.0000  0.0000  0.0000      0.0000  0.0000  0.0000  0.0000  0.0000  0.0000  0.0000  0.0000  0.0000  0.0000
  o =  0.2835  v =  0.0000  1.0000  0.0000  0.0000  0.0000  0.0000  0.0000  0.0000  0.0000  0.0000      0.0000  0.0000  0.0000  0.0000  0.0000  0.0000  0.0000  0.0000  0.0000  0.0000
  o =  0.2835  v =  0.0000  0.0000  1.0000  0.0000  0.0000  0.0000  0.0000  0.0000  0.0000  0.0000      0.0000  0.0000  0.0000  0.0000  0.0000  0.0000  0.0000  0.0000  0.0000  0.0000
  o =  0.2835  v =  0.0000  0.0000  0.0000  1.0000  0.0000  0.0000  0.0000  0.0000  0.0000  0.0000      0.0000  0.0000  0.0000  0.0000  0.0000  0.0000  0.0000  0.0000  0.0000  0.0000
  o =  0.2835  v =  0.0000  0.0000  0.0000  0.0000  1.0000  0.0000  0.0000  0.0000  0.0000  0.0000      0.0000  0.0000  0.0000  0.0000  0.0000  0.0000  0.0000  0.0000  0.0000  0.0000
  o =  0.7694  v =  0.0000  0.0000  0.0000  0.0000  0.0000  1.0000  0.0000  0.0000  0.0000  0.0000      0.0000  0.0000  0.0000  0.0000  0.0000  0.0000  0.0000  0.0000  0.0000  0.0000
  o =  0.7694  v =  0.0000  0.0000  0.0000  0.0000  0.0000  0.0000  1.0000  0.0000  0.0000  0.0000      0.0000  0.0000  0.0000  0.0000  0.0000  0.0000  0.0000  0.0000  0.0000  0.0000
  o =  0.7694  v =  0.0000  0.0000  0.0000  0.0000  0.0000  0.0000  0.0000  1.0000  0.0000  0.0000      0.0000  0.0000  0.0000  0.0000  0.0000  0.0000  0.0000  0.0000  0.0000  0.0000
  o =  0.7694  v =  0.0000  0.0000  0.0000  0.0000  0.0000  0.0000  0.0000  0.0000  1.0000  0.0000      0.0000  0.0000  0.0000  0.0000  0.0000  0.0000  0.0000  0.0000  0.0000  0.0000
  o =  0.7694  v =  0.0000  0.0000  0.0000  0.0000  0.0000  0.0000  0.0000  0.0000  0.0000  1.0000      0.0000  0.0000  0.0000  0.0000  0.0000  0.0000  0.0000  0.0000  0.0000  0.0000
atom =   2  type =  1  l = 2
 
 onsite density matrix
 
spin component  1
 
  0.7694  0.0000  0.0000  0.0000  0.0000
  0.0000  0.7694  0.0000  0.0000  0.0000
  0.0000  0.0000  0.7694  0.0000  0.0000
  0.0000  0.0000  0.0000  0.7694  0.0000
  0.0000  0.0000  0.0000  0.0000  0.7694
 
spin component  2
 
  0.2835  0.0000  0.0000  0.0000  0.0000
  0.0000  0.2835  0.0000  0.0000  0.0000
  0.0000  0.0000  0.2835  0.0000  0.0000
  0.0000  0.0000  0.0000  0.2835  0.0000
  0.0000  0.0000  0.0000  0.0000  0.2835
 
 occupancies and eigenvectors
 
  o =  0.2835  v =  0.0000  0.0000  0.0000  0.0000  0.0000  1.0000  0.0000  0.0000  0.0000  0.0000      0.0000  0.0000  0.0000  0.0000  0.0000  0.0000  0.0000  0.0000  0.0000  0.0000
  o =  0.2835  v =  0.0000  0.0000  0.0000  0.0000  0.0000  0.0000  1.0000  0.0000  0.0000  0.0000      0.0000  0.0000  0.0000  0.0000  0.0000  0.0000  0.0000  0.0000  0.0000  0.0000
  o =  0.2835  v =  0.0000  0.0000  0.0000  0.0000  0.0000  0.0000  0.0000  1.0000  0.0000  0.0000      0.0000  0.0000  0.0000  0.0000  0.0000  0.0000  0.0000  0.0000  0.0000  0.0000
  o =  0.2835  v =  0.0000  0.0000  0.0000  0.0000  0.0000  0.0000  0.0000  0.0000  1.0000  0.0000      0.0000  0.0000  0.0000  0.0000  0.0000  0.0000  0.0000  0.0000  0.0000  0.0000
  o =  0.2835  v =  0.0000  0.0000  0.0000  0.0000  0.0000  0.0000  0.0000  0.0000  0.0000  1.0000      0.0000  0.0000  0.0000  0.0000  0.0000  0.0000  0.0000  0.0000  0.0000  0.0000
  o =  0.7694  v =  1.0000  0.0000  0.0000  0.0000  0.0000  0.0000  0.0000  0.0000  0.0000  0.0000      0.0000  0.0000  0.0000  0.0000  0.0000  0.0000  0.0000  0.0000  0.0000  0.0000
  o =  0.7694  v =  0.0000  1.0000  0.0000  0.0000  0.0000  0.0000  0.0000  0.0000  0.0000  0.0000      0.0000  0.0000  0.0000  0.0000  0.0000  0.0000  0.0000  0.0000  0.0000  0.0000
  o =  0.7694  v =  0.0000  0.0000  1.0000  0.0000  0.0000  0.0000  0.0000  0.0000  0.0000  0.0000      0.0000  0.0000  0.0000  0.0000  0.0000  0.0000  0.0000  0.0000  0.0000  0.0000
  o =  0.7694  v =  0.0000  0.0000  0.0000  1.0000  0.0000  0.0000  0.0000  0.0000  0.0000  0.0000      0.0000  0.0000  0.0000  0.0000  0.0000  0.0000  0.0000  0.0000  0.0000  0.0000
  o =  0.7694  v =  0.0000  0.0000  0.0000  0.0000  1.0000  0.0000  0.0000  0.0000  0.0000  0.0000      0.0000  0.0000  0.0000  0.0000  0.0000  0.0000  0.0000  0.0000  0.0000  0.0000
     EDDAV:  cpu time    1.1787: real time    1.1971
       DOS:  cpu time    0.0003: real time    0.0003
    --------------------------------------------
      LOOP:  cpu time    2.0372: real time    2.0556

 eigenvalue-minimisations  :  1308
 total energy-change (2. order) : 0.1029489E+04  (-0.4249646E+04)
 number of electron      54.0000000 magnetization      -0.0000000
 augmentation part       54.0000000 magnetization      -0.0000000

 Free energy of the ion-electron system (eV)
  ---------------------------------------------------
  alpha Z        PSCENC =       199.38838823
  Ewald energy   TEWEN  =     -4203.06823030
  -Hartree energ DENC   =     -2130.62061719
  -exchange      EXHF   =         0.00000000
  -V(xc)+E(xc)   XCENC  =        -3.96116514
  PAW double counting   =      5566.43601843    -5528.13058630
  entropy T*S    EENTRO =        -0.00000000
  eigenvalues    EBANDS =       440.36208021
  atomic energy  EATOM  =      6689.08348147
  Solvation  Ediel_sol  =         0.00000000
  ---------------------------------------------------
  free energy    TOTEN  =      1029.48936942 eV

  energy without entropy =     1029.48936942  energy(sigma->0) =     1029.48936942


--------------------------------------------------------------------------------------------------------




--------------------------------------- Iteration      1(   2)  ---------------------------------------


     EDDAV:  cpu time    1.2868: real time    1.2869
       DOS:  cpu time    0.0003: real time    0.0003
    --------------------------------------------
      LOOP:  cpu time    1.2872: real time    1.2872

 eigenvalue-minimisations  :  1512
 total energy-change (2. order) :-0.6097700E+03  (-0.5846391E+03)
 number of electron      54.0000000 magnetization      -0.0000000
 augmentation part       54.0000000 magnetization      -0.0000000

 Free energy of the ion-electron system (eV)
  ---------------------------------------------------
  alpha Z        PSCENC =       199.38838823
  Ewald energy   TEWEN  =     -4203.06823030
  -Hartree energ DENC   =     -2130.62061719
  -exchange      EXHF   =         0.00000000
  -V(xc)+E(xc)   XCENC  =        -3.96116514
  PAW double counting   =      5566.43601843    -5528.13058630
  entropy T*S    EENTRO =        -0.00132946
  eigenvalues    EBANDS =      -169.40661894
  atomic energy  EATOM  =      6689.08348147
  Solvation  Ediel_sol  =         0.00000000
  ---------------------------------------------------
  free energy    TOTEN  =       419.71934081 eV

  energy without entropy =      419.72067027  energy(sigma->0) =      419.72000554


--------------------------------------------------------------------------------------------------------




--------------------------------------- Iteration      1(   3)  ---------------------------------------


     EDDAV:  cpu time    1.2929: real time    1.2930
       DOS:  cpu time    0.0002: real time    0.0002
    --------------------------------------------
      LOOP:  cpu time    1.2931: real time    1.2932

 eigenvalue-minimisations  :  1512
 total energy-change (2. order) :-0.3829045E+02  (-0.3765575E+02)
 number of electron      54.0000000 magnetization      -0.0000000
 augmentation part       54.0000000 magnetization      -0.0000000

 Free energy of the ion-electron system (eV)
  ---------------------------------------------------
  alpha Z        PSCENC =       199.38838823
  Ewald energy   TEWEN  =     -4203.06823030
  -Hartree energ DENC   =     -2130.62061719
  -exchange      EXHF   =         0.00000000
  -V(xc)+E(xc)   XCENC  =        -3.96116514
  PAW double counting   =      5566.43601843    -5528.13058630
  entropy T*S    EENTRO =        -0.00000000
  eigenvalues    EBANDS =      -207.69839856
  atomic energy  EATOM  =      6689.08348147
  Solvation  Ediel_sol  =         0.00000000
  ---------------------------------------------------
  free energy    TOTEN  =       381.42889065 eV

  energy without entropy =      381.42889065  energy(sigma->0) =      381.42889065


--------------------------------------------------------------------------------------------------------




--------------------------------------- Iteration      1(   4)  ---------------------------------------


     EDDAV:  cpu time    1.3157: real time    1.3157
       DOS:  cpu time    0.0002: real time    0.0002
    --------------------------------------------
      LOOP:  cpu time    1.3159: real time    1.3159

 eigenvalue-minimisations  :  1560
 total energy-change (2. order) :-0.5381479E+00  (-0.5376320E+00)
 number of electron      54.0000000 magnetization      -0.0000000
 augmentation part       54.0000000 magnetization      -0.0000000

 Free energy of the ion-electron system (eV)
  ---------------------------------------------------
  alpha Z        PSCENC =       199.38838823
  Ewald energy   TEWEN  =     -4203.06823030
  -Hartree energ DENC   =     -2130.62061719
  -exchange      EXHF   =         0.00000000
  -V(xc)+E(xc)   XCENC  =        -3.96116514
  PAW double counting   =      5566.43601843    -5528.13058630
  entropy T*S    EENTRO =        -0.00000000
  eigenvalues    EBANDS =      -208.23654649
  atomic energy  EATOM  =      6689.08348147
  Solvation  Ediel_sol  =         0.00000000
  ---------------------------------------------------
  free energy    TOTEN  =       380.89074272 eV

  energy without entropy =      380.89074272  energy(sigma->0) =      380.89074272


--------------------------------------------------------------------------------------------------------




--------------------------------------- Iteration      1(   5)  ---------------------------------------


     EDDAV:  cpu time    1.2938: real time    1.2938
       DOS:  cpu time    0.0002: real time    0.0002
    CHARGE:  cpu time    0.2663: real time    0.2663
    MIXING:  cpu time    0.0009: real time    0.0009
    --------------------------------------------
      LOOP:  cpu time    1.5612: real time    1.5612

 eigenvalue-minimisations  :  1524
 total energy-change (2. order) :-0.8828843E-02  (-0.8828569E-02)
 number of electron      54.0000001 magnetization      -0.0000000
 augmentation part       22.8764260 magnetization      -0.0000000

 Broyden mixing:
  rms(total) = 0.59341E+01    rms(broyden)= 0.59340E+01
  rms(prec ) = 0.62226E+01
  weight for this iteration     100.00

 Free energy of the ion-electron system (eV)
  ---------------------------------------------------
  alpha Z        PSCENC =       199.38838823
  Ewald energy   TEWEN  =     -4203.06823030
  -Hartree energ DENC   =     -2130.62061719
  -exchange      EXHF   =         0.00000000
  -V(xc)+E(xc)   XCENC  =        -3.96116514
  PAW double counting   =      5566.43601843    -5528.13058630
  entropy T*S    EENTRO =        -0.00000000
  eigenvalues    EBANDS =      -208.24537533
  atomic energy  EATOM  =      6689.08348147
  Solvation  Ediel_sol  =         0.00000000
  ---------------------------------------------------
  free energy    TOTEN  =       380.88191388 eV

  energy without entropy =      380.88191388  energy(sigma->0) =      380.88191388


--------------------------------------------------------------------------------------------------------




--------------------------------------- Iteration      1(   6)  ---------------------------------------


    POTLOK:  cpu time    0.0574: real time    0.0574
    SETDIJ:  cpu time    1.3863: real time    1.3863
atom =   1  type =  1  l = 2
 
 onsite density matrix
 
spin component  1
 
  0.0456  0.0000  0.0723  0.0000  0.0000
  0.0000  0.0151  0.0000  0.0669  0.0000
  0.0723  0.0000  0.0029  0.0000  0.0000
  0.0000  0.0669  0.0000  0.0151  0.0000
  0.0000  0.0000  0.0000  0.0000 -0.0745
 
spin component  2
 
  1.0509  0.0000 -0.0361  0.0000 -0.0000
  0.0000  1.0670  0.0000 -0.0335  0.0000
 -0.0361  0.0000  1.0721  0.0000 -0.0000
  0.0000 -0.0335  0.0000  1.0670  0.0000
 -0.0000  0.0000 -0.0000  0.0000  1.1133
 
 occupancies and eigenvectors
 
  o = -0.0745  v =  0.0000 -0.0000 -0.0000  0.0000  1.0000  0.0000  0.0000  0.0000  0.0000  0.0000      0.0000  0.0000  0.0000  0.0000  0.0000  0.0000  0.0000  0.0000  0.0000  0.0000
  o = -0.0518  v =  0.0000  0.7071 -0.0000 -0.7071  0.0000  0.0000  0.0000  0.0000  0.0000  0.0000      0.0000  0.0000  0.0000  0.0000  0.0000  0.0000  0.0000  0.0000  0.0000  0.0000
  o = -0.0511  v = -0.5987 -0.0000  0.8009  0.0000  0.0000  0.0000  0.0000  0.0000  0.0000  0.0000      0.0000  0.0000  0.0000  0.0000  0.0000  0.0000  0.0000  0.0000  0.0000  0.0000
  o =  0.0821  v =  0.0000 -0.7071  0.0000 -0.7071 -0.0000  0.0000  0.0000  0.0000  0.0000  0.0000      0.0000  0.0000  0.0000  0.0000  0.0000  0.0000  0.0000  0.0000  0.0000  0.0000
  o =  0.0997  v =  0.8009 -0.0000  0.5987  0.0000  0.0000  0.0000  0.0000  0.0000  0.0000  0.0000      0.0000  0.0000  0.0000  0.0000  0.0000  0.0000  0.0000  0.0000  0.0000  0.0000
  o =  1.0238  v =  0.0000  0.0000  0.0000  0.0000  0.0000  0.8005  0.0000  0.5993  0.0000  0.0000      0.0000  0.0000  0.0000  0.0000  0.0000  0.0000  0.0000  0.0000  0.0000  0.0000
  o =  1.0335  v =  0.0000  0.0000  0.0000  0.0000  0.0000  0.0000 -0.7071  0.0000 -0.7071  0.0000      0.0000  0.0000  0.0000  0.0000  0.0000  0.0000  0.0000  0.0000  0.0000  0.0000
  o =  1.0991  v =  0.0000  0.0000  0.0000  0.0000  0.0000  0.5993 -0.0000 -0.8005  0.0000 -0.0000      0.0000  0.0000  0.0000  0.0000  0.0000  0.0000  0.0000  0.0000  0.0000  0.0000
  o =  1.1005  v =  0.0000  0.0000  0.0000  0.0000  0.0000  0.0000  0.7071  0.0000 -0.7071 -0.0000      0.0000  0.0000  0.0000  0.0000  0.0000  0.0000  0.0000  0.0000  0.0000  0.0000
  o =  1.1133  v =  0.0000  0.0000  0.0000  0.0000  0.0000  0.0000  0.0000 -0.0000  0.0000  1.0000      0.0000  0.0000  0.0000  0.0000  0.0000  0.0000  0.0000  0.0000  0.0000  0.0000
atom =   2  type =  1  l = 2
 
 onsite density matrix
 
spin component  1
 
  1.0509  0.0000  0.0361  0.0000  0.0000
  0.0000  1.0670  0.0000  0.0335  0.0000
  0.0361  0.0000  1.0721  0.0000 -0.0000
  0.0000  0.0335  0.0000  1.0670  0.0000
  0.0000  0.0000 -0.0000  0.0000  1.1133
 
spin component  2
 
  0.0456  0.0000 -0.0723  0.0000 -0.0000
  0.0000  0.0151  0.0000 -0.0669  0.0000
 -0.0723  0.0000  0.0029  0.0000  0.0000
  0.0000 -0.0669  0.0000  0.0151  0.0000
 -0.0000  0.0000  0.0000  0.0000 -0.0745
 
 occupancies and eigenvectors
 
  o = -0.0745  v =  0.0000  0.0000  0.0000  0.0000  0.0000  0.0000  0.0000  0.0000  0.0000 -1.0000      0.0000  0.0000  0.0000  0.0000  0.0000  0.0000  0.0000  0.0000  0.0000  0.0000
  o = -0.0518  v =  0.0000  0.0000  0.0000  0.0000  0.0000 -0.0000  0.7071  0.0000  0.7071  0.0000      0.0000  0.0000  0.0000  0.0000  0.0000  0.0000  0.0000  0.0000  0.0000  0.0000
  o = -0.0511  v =  0.0000  0.0000  0.0000  0.0000  0.0000  0.5987  0.0000  0.8009  0.0000  0.0000      0.0000  0.0000  0.0000  0.0000  0.0000  0.0000  0.0000  0.0000  0.0000  0.0000
  o =  0.0821  v =  0.0000  0.0000  0.0000  0.0000  0.0000  0.0000  0.7071  0.0000 -0.7071 -0.0000      0.0000  0.0000  0.0000  0.0000  0.0000  0.0000  0.0000  0.0000  0.0000  0.0000
  o =  0.0997  v =  0.0000  0.0000  0.0000  0.0000  0.0000  0.8009 -0.0000 -0.5987  0.0000 -0.0000      0.0000  0.0000  0.0000  0.0000  0.0000  0.0000  0.0000  0.0000  0.0000  0.0000
  o =  1.0238  v =  0.8005  0.0000 -0.5993  0.0000 -0.0000  0.0000  0.0000  0.0000  0.0000  0.0000      0.0000  0.0000  0.0000  0.0000  0.0000  0.0000  0.0000  0.0000  0.0000  0.0000
  o =  1.0335  v =  0.0000  0.7071  0.0000 -0.7071  0.0000  0.0000  0.0000  0.0000  0.0000  0.0000      0.0000  0.0000  0.0000  0.0000  0.0000  0.0000  0.0000  0.0000  0.0000  0.0000
  o =  1.0991  v = -0.5993  0.0000 -0.8005  0.0000 -0.0000  0.0000  0.0000  0.0000  0.0000  0.0000      0.0000  0.0000  0.0000  0.0000  0.0000  0.0000  0.0000  0.0000  0.0000  0.0000
  o =  1.1005  v =  0.0000  0.7071  0.0000  0.7071  0.0000  0.0000  0.0000  0.0000  0.0000  0.0000      0.0000  0.0000  0.0000  0.0000  0.0000  0.0000  0.0000  0.0000  0.0000  0.0000
  o =  1.1133  v =  0.0000  0.0000  0.0000  0.0000 -1.0000  0.0000  0.0000  0.0000  0.0000  0.0000      0.0000  0.0000  0.0000  0.0000  0.0000  0.0000  0.0000  0.0000  0.0000  0.0000
     EDDAV:  cpu time    1.3294: real time    1.3294
       DOS:  cpu time    0.0004: real time    0.0004
    CHARGE:  cpu time    0.2648: real time    0.2648
    MIXING:  cpu time    0.0009: real time    0.0009
    --------------------------------------------
      LOOP:  cpu time    3.0392: real time    3.0392

 eigenvalue-minimisations  :  1584
 total energy-change (2. order) :-0.4492343E+03  (-0.3136676E+02)
 number of electron      54.0000001 magnetization      -0.0000000
 augmentation part       19.5985933 magnetization      -0.0000000

 Broyden mixing:
  rms(total) = 0.63566E+01    rms(broyden)= 0.63566E+01
  rms(prec ) = 0.68193E+01
  weight for this iteration     100.00

 eigenvalues of (default mixing * dielectric matrix)
  average eigenvalue GAMMA=   0.4164
  0.4164

 Free energy of the ion-electron system (eV)
  ---------------------------------------------------
  alpha Z        PSCENC =       199.38838823
  Ewald energy   TEWEN  =     -4203.06823030
  -Hartree energ DENC   =     -2217.03374587
  -exchange      EXHF   =         0.00000000
  -V(xc)+E(xc)   XCENC  =       145.31929819
  PAW double counting   =      6453.60089448    -6419.86430624
  entropy T*S    EENTRO =        -0.00110861
  eigenvalues    EBANDS =      -715.77710651
  atomic energy  EATOM  =      6689.08348147
  Solvation  Ediel_sol  =         0.00000000
  ---------------------------------------------------
  free energy    TOTEN  =       -68.35243516 eV

  energy without entropy =      -68.35132655  energy(sigma->0) =      -68.35188085


--------------------------------------------------------------------------------------------------------




--------------------------------------- Iteration      1(   7)  ---------------------------------------


    POTLOK:  cpu time    0.0564: real time    0.0564
    SETDIJ:  cpu time    1.3673: real time    1.3673
atom =   1  type =  1  l = 2
 
 onsite density matrix
 
spin component  1
 
  0.0893  0.0000  0.0390  0.0000  0.0000
  0.0000  0.0592  0.0000  0.0259  0.0000
  0.0390  0.0000  0.0646  0.0000  0.0000
  0.0000  0.0259  0.0000  0.0592  0.0000
  0.0000  0.0000  0.0000  0.0000  0.0199
 
spin component  2
 
  0.9736  0.0000 -0.0078  0.0000  0.0000
  0.0000  1.0007  0.0000  0.0088  0.0000
 -0.0078  0.0000  0.9830  0.0000 -0.0000
  0.0000  0.0088  0.0000  1.0007  0.0000
  0.0000  0.0000 -0.0000  0.0000  0.9980
 
 occupancies and eigenvectors
 
  o =  0.0199  v =  0.0000 -0.0000 -0.0000  0.0000  1.0000  0.0000  0.0000  0.0000  0.0000  0.0000      0.0000  0.0000  0.0000  0.0000  0.0000  0.0000  0.0000  0.0000  0.0000  0.0000
  o =  0.0334  v =  0.0000  0.7071  0.0000 -0.7071  0.0000  0.0000  0.0000  0.0000  0.0000  0.0000      0.0000  0.0000  0.0000  0.0000  0.0000  0.0000  0.0000  0.0000  0.0000  0.0000
  o =  0.0360  v = -0.5911 -0.0000  0.8066  0.0000  0.0000  0.0000  0.0000  0.0000  0.0000  0.0000      0.0000  0.0000  0.0000  0.0000  0.0000  0.0000  0.0000  0.0000  0.0000  0.0000
  o =  0.0851  v =  0.0000  0.7071  0.0000  0.7071  0.0000  0.0000  0.0000  0.0000  0.0000  0.0000      0.0000  0.0000  0.0000  0.0000  0.0000  0.0000  0.0000  0.0000  0.0000  0.0000
  o =  0.1179  v = -0.8066  0.0000 -0.5911  0.0000 -0.0000  0.0000  0.0000  0.0000  0.0000  0.0000      0.0000  0.0000  0.0000  0.0000  0.0000  0.0000  0.0000  0.0000  0.0000  0.0000
  o =  0.9692  v =  0.0000  0.0000  0.0000  0.0000  0.0000  0.8712 -0.0000  0.4909  0.0000  0.0000      0.0000  0.0000  0.0000  0.0000  0.0000  0.0000  0.0000  0.0000  0.0000  0.0000
  o =  0.9874  v =  0.0000  0.0000  0.0000  0.0000  0.0000 -0.4909 -0.0000  0.8712  0.0000  0.0000      0.0000  0.0000  0.0000  0.0000  0.0000  0.0000  0.0000  0.0000  0.0000  0.0000
  o =  0.9919  v =  0.0000  0.0000  0.0000  0.0000  0.0000  0.0000 -0.7071 -0.0000  0.7071  0.0000      0.0000  0.0000  0.0000  0.0000  0.0000  0.0000  0.0000  0.0000  0.0000  0.0000
  o =  0.9980  v =  0.0000  0.0000  0.0000  0.0000  0.0000 -0.0000 -0.0000  0.0000  0.0000 -1.0000      0.0000  0.0000  0.0000  0.0000  0.0000  0.0000  0.0000  0.0000  0.0000  0.0000
  o =  1.0095  v =  0.0000  0.0000  0.0000  0.0000  0.0000 -0.0000  0.7071  0.0000  0.7071 -0.0000      0.0000  0.0000  0.0000  0.0000  0.0000  0.0000  0.0000  0.0000  0.0000  0.0000
atom =   2  type =  1  l = 2
 
 onsite density matrix
 
spin component  1
 
  0.9736  0.0000  0.0078  0.0000  0.0000
  0.0000  1.0007  0.0000 -0.0088  0.0000
  0.0078  0.0000  0.9830  0.0000 -0.0000
  0.0000 -0.0088  0.0000  1.0007  0.0000
  0.0000  0.0000 -0.0000  0.0000  0.9980
 
spin component  2
 
  0.0893  0.0000 -0.0390  0.0000 -0.0000
  0.0000  0.0592  0.0000 -0.0259  0.0000
 -0.0390  0.0000  0.0646  0.0000 -0.0000
  0.0000 -0.0259  0.0000  0.0592  0.0000
 -0.0000  0.0000 -0.0000  0.0000  0.0199
 
 occupancies and eigenvectors
 
  o =  0.0199  v =  0.0000  0.0000  0.0000  0.0000  0.0000  0.0000  0.0000  0.0000  0.0000  1.0000      0.0000  0.0000  0.0000  0.0000  0.0000  0.0000  0.0000  0.0000  0.0000  0.0000
  o =  0.0334  v =  0.0000  0.0000  0.0000  0.0000  0.0000  0.0000 -0.7071  0.0000 -0.7071  0.0000      0.0000  0.0000  0.0000  0.0000  0.0000  0.0000  0.0000  0.0000  0.0000  0.0000
  o =  0.0360  v =  0.0000  0.0000  0.0000  0.0000  0.0000 -0.5911  0.0000 -0.8066  0.0000  0.0000      0.0000  0.0000  0.0000  0.0000  0.0000  0.0000  0.0000  0.0000  0.0000  0.0000
  o =  0.0851  v =  0.0000  0.0000  0.0000  0.0000  0.0000  0.0000  0.7071  0.0000 -0.7071 -0.0000      0.0000  0.0000  0.0000  0.0000  0.0000  0.0000  0.0000  0.0000  0.0000  0.0000
  o =  0.1179  v =  0.0000  0.0000  0.0000  0.0000  0.0000 -0.8066 -0.0000  0.5911  0.0000 -0.0000      0.0000  0.0000  0.0000  0.0000  0.0000  0.0000  0.0000  0.0000  0.0000  0.0000
  o =  0.9692  v = -0.8712  0.0000  0.4909  0.0000  0.0000  0.0000  0.0000  0.0000  0.0000  0.0000      0.0000  0.0000  0.0000  0.0000  0.0000  0.0000  0.0000  0.0000  0.0000  0.0000
  o =  0.9874  v = -0.4909  0.0000 -0.8712  0.0000 -0.0000  0.0000  0.0000  0.0000  0.0000  0.0000      0.0000  0.0000  0.0000  0.0000  0.0000  0.0000  0.0000  0.0000  0.0000  0.0000
  o =  0.9919  v =  0.0000 -0.7071  0.0000 -0.7071 -0.0000  0.0000  0.0000  0.0000  0.0000  0.0000      0.0000  0.0000  0.0000  0.0000  0.0000  0.0000  0.0000  0.0000  0.0000  0.0000
  o =  0.9980  v =  0.0000  0.0000  0.0000  0.0000 -1.0000  0.0000  0.0000  0.0000  0.0000  0.0000      0.0000  0.0000  0.0000  0.0000  0.0000  0.0000  0.0000  0.0000  0.0000  0.0000
  o =  1.0095  v =  0.0000  0.7071  0.0000 -0.7071  0.0000  0.0000  0.0000  0.0000  0.0000  0.0000      0.0000  0.0000  0.0000  0.0000  0.0000  0.0000  0.0000  0.0000  0.0000  0.0000
     EDDAV:  cpu time    1.2343: real time    1.2344
       DOS:  cpu time    0.0002: real time    0.0002
    CHARGE:  cpu time    0.2645: real time    0.2645
    MIXING:  cpu time    0.0010: real time    0.0010
    --------------------------------------------
      LOOP:  cpu time    2.9236: real time    2.9237

 eigenvalue-minimisations  :  1404
 total energy-change (2. order) :-0.2812680E+01  (-0.4961520E+01)
 number of electron      54.0000001 magnetization      -0.0000000
 augmentation part       19.5843079 magnetization      -0.0000000

 Broyden mixing:
  rms(total) = 0.16930E+01    rms(broyden)= 0.16930E+01
  rms(prec ) = 0.24153E+01
  weight for this iteration     100.00

 eigenvalues of (default mixing * dielectric matrix)
  average eigenvalue GAMMA=   0.7002
  0.7002  0.7002

 Free energy of the ion-electron system (eV)
  ---------------------------------------------------
  alpha Z        PSCENC =       199.38838823
  Ewald energy   TEWEN  =     -4203.06823030
  -Hartree energ DENC   =     -2192.32784522
  -exchange      EXHF   =         0.00000000
  -V(xc)+E(xc)   XCENC  =       167.63913467
  PAW double counting   =      6503.26617586    -6469.88110150
  entropy T*S    EENTRO =        -0.00000000
  eigenvalues    EBANDS =      -765.26511847
  atomic energy  EATOM  =      6689.08348147
  Solvation  Ediel_sol  =         0.00000000
  ---------------------------------------------------
  free energy    TOTEN  =       -71.16511526 eV

  energy without entropy =      -71.16511526  energy(sigma->0) =      -71.16511526


--------------------------------------------------------------------------------------------------------




--------------------------------------- Iteration      1(   8)  ---------------------------------------


    POTLOK:  cpu time    0.0562: real time    0.0562
    SETDIJ:  cpu time    1.3669: real time    1.3669
atom =   1  type =  1  l = 2
 
 onsite density matrix
 
spin component  1
 
  0.0489  0.0000  0.0133  0.0000  0.0000
  0.0000  0.0532  0.0000  0.0231  0.0000
  0.0133  0.0000  0.0421  0.0000  0.0000
  0.0000  0.0231  0.0000  0.0532  0.0000
  0.0000  0.0000  0.0000  0.0000  0.0255
 
spin component  2
 
  0.9904  0.0000  0.0253  0.0000  0.0000
  0.0000  0.9789  0.0000  0.0122  0.0000
  0.0253  0.0000  0.9794  0.0000  0.0000
  0.0000  0.0122  0.0000  0.9789  0.0000
  0.0000  0.0000  0.0000  0.0000  0.9653
 
 occupancies and eigenvectors
 
  o =  0.0255  v =  0.0000 -0.0000 -0.0000  0.0000  1.0000  0.0000  0.0000  0.0000  0.0000  0.0000      0.0000  0.0000  0.0000  0.0000  0.0000  0.0000  0.0000  0.0000  0.0000  0.0000
  o =  0.0301  v =  0.0000  0.7071  0.0000 -0.7071 -0.0000  0.0000  0.0000  0.0000  0.0000  0.0000      0.0000  0.0000  0.0000  0.0000  0.0000  0.0000  0.0000  0.0000  0.0000  0.0000
  o =  0.0318  v = -0.6137 -0.0000  0.7896  0.0000  0.0000  0.0000  0.0000  0.0000  0.0000  0.0000      0.0000  0.0000  0.0000  0.0000  0.0000  0.0000  0.0000  0.0000  0.0000  0.0000
  o =  0.0593  v = -0.7896  0.0000 -0.6137  0.0000 -0.0000  0.0000  0.0000  0.0000  0.0000  0.0000      0.0000  0.0000  0.0000  0.0000  0.0000  0.0000  0.0000  0.0000  0.0000  0.0000
  o =  0.0763  v =  0.0000 -0.7071  0.0000 -0.7071  0.0000  0.0000  0.0000  0.0000  0.0000  0.0000      0.0000  0.0000  0.0000  0.0000  0.0000  0.0000  0.0000  0.0000  0.0000  0.0000
  o =  0.9590  v =  0.0000  0.0000  0.0000  0.0000  0.0000 -0.6278  0.0000  0.7783  0.0000  0.0000      0.0000  0.0000  0.0000  0.0000  0.0000  0.0000  0.0000  0.0000  0.0000  0.0000
  o =  0.9653  v =  0.0000  0.0000  0.0000  0.0000  0.0000  0.0000 -0.0000 -0.0000  0.0000  1.0000      0.0000  0.0000  0.0000  0.0000  0.0000  0.0000  0.0000  0.0000  0.0000  0.0000
  o =  0.9668  v =  0.0000  0.0000  0.0000  0.0000  0.0000  0.0000  0.7071  0.0000 -0.7071  0.0000      0.0000  0.0000  0.0000  0.0000  0.0000  0.0000  0.0000  0.0000  0.0000  0.0000
  o =  0.9911  v =  0.0000  0.0000  0.0000  0.0000  0.0000  0.0000 -0.7071  0.0000 -0.7071 -0.0000      0.0000  0.0000  0.0000  0.0000  0.0000  0.0000  0.0000  0.0000  0.0000  0.0000
  o =  1.0108  v =  0.0000  0.0000  0.0000  0.0000  0.0000 -0.7783  0.0000 -0.6278  0.0000 -0.0000      0.0000  0.0000  0.0000  0.0000  0.0000  0.0000  0.0000  0.0000  0.0000  0.0000
atom =   2  type =  1  l = 2
 
 onsite density matrix
 
spin component  1
 
  0.9904  0.0000 -0.0253  0.0000 -0.0000
  0.0000  0.9789  0.0000 -0.0122  0.0000
 -0.0253  0.0000  0.9794  0.0000 -0.0000
  0.0000 -0.0122  0.0000  0.9789  0.0000
 -0.0000  0.0000 -0.0000  0.0000  0.9653
 
spin component  2
 
  0.0489  0.0000 -0.0133  0.0000 -0.0000
  0.0000  0.0532  0.0000 -0.0231  0.0000
 -0.0133  0.0000  0.0421  0.0000 -0.0000
  0.0000 -0.0231  0.0000  0.0532  0.0000
 -0.0000  0.0000 -0.0000  0.0000  0.0255
 
 occupancies and eigenvectors
 
  o =  0.0255  v =  0.0000  0.0000  0.0000  0.0000  0.0000  0.0000  0.0000  0.0000  0.0000  1.0000      0.0000  0.0000  0.0000  0.0000  0.0000  0.0000  0.0000  0.0000  0.0000  0.0000
  o =  0.0301  v =  0.0000  0.0000  0.0000  0.0000  0.0000  0.0000 -0.7071  0.0000 -0.7071  0.0000      0.0000  0.0000  0.0000  0.0000  0.0000  0.0000  0.0000  0.0000  0.0000  0.0000
  o =  0.0318  v =  0.0000  0.0000  0.0000  0.0000  0.0000 -0.6137  0.0000 -0.7896  0.0000  0.0000      0.0000  0.0000  0.0000  0.0000  0.0000  0.0000  0.0000  0.0000  0.0000  0.0000
  o =  0.0593  v =  0.0000  0.0000  0.0000  0.0000  0.0000 -0.7896 -0.0000  0.6137  0.0000 -0.0000      0.0000  0.0000  0.0000  0.0000  0.0000  0.0000  0.0000  0.0000  0.0000  0.0000
  o =  0.0763  v =  0.0000  0.0000  0.0000  0.0000  0.0000  0.0000  0.7071  0.0000 -0.7071 -0.0000      0.0000  0.0000  0.0000  0.0000  0.0000  0.0000  0.0000  0.0000  0.0000  0.0000
  o =  0.9590  v = -0.6278  0.0000 -0.7783  0.0000 -0.0000  0.0000  0.0000  0.0000  0.0000  0.0000      0.0000  0.0000  0.0000  0.0000  0.0000  0.0000  0.0000  0.0000  0.0000  0.0000
  o =  0.9653  v =  0.0000  0.0000 -0.0000  0.0000  1.0000  0.0000  0.0000  0.0000  0.0000  0.0000      0.0000  0.0000  0.0000  0.0000  0.0000  0.0000  0.0000  0.0000  0.0000  0.0000
  o =  0.9668  v =  0.0000 -0.7071  0.0000 -0.7071  0.0000  0.0000  0.0000  0.0000  0.0000  0.0000      0.0000  0.0000  0.0000  0.0000  0.0000  0.0000  0.0000  0.0000  0.0000  0.0000
  o =  0.9911  v =  0.0000  0.7071  0.0000 -0.7071 -0.0000  0.0000  0.0000  0.0000  0.0000  0.0000      0.0000  0.0000  0.0000  0.0000  0.0000  0.0000  0.0000  0.0000  0.0000  0.0000
  o =  1.0108  v = -0.7783  0.0000  0.6278  0.0000  0.0000  0.0000  0.0000  0.0000  0.0000  0.0000      0.0000  0.0000  0.0000  0.0000  0.0000  0.0000  0.0000  0.0000  0.0000  0.0000
     EDDAV:  cpu time    1.2951: real time    1.2951
       DOS:  cpu time    0.0002: real time    0.0002
    CHARGE:  cpu time    0.2643: real time    0.2643
    MIXING:  cpu time    0.0010: real time    0.0010
    --------------------------------------------
      LOOP:  cpu time    2.9837: real time    2.9837

 eigenvalue-minimisations  :  1524
 total energy-change (2. order) : 0.2558243E+01  (-0.7304117E+00)
 number of electron      54.0000001 magnetization      -0.0000000
 augmentation part       19.8242367 magnetization      -0.0000000

 Broyden mixing:
  rms(total) = 0.60971E+00    rms(broyden)= 0.60968E+00
  rms(prec ) = 0.89588E+00
  weight for this iteration     100.00

 eigenvalues of (default mixing * dielectric matrix)
  average eigenvalue GAMMA=   0.7420
  0.9249  0.6505  0.6505

 Free energy of the ion-electron system (eV)
  ---------------------------------------------------
  alpha Z        PSCENC =       199.38838823
  Ewald energy   TEWEN  =     -4203.06823030
  -Hartree energ DENC   =     -2173.93437793
  -exchange      EXHF   =         0.00000000
  -V(xc)+E(xc)   XCENC  =       170.20690797
  PAW double counting   =      6425.94984300    -6390.73768407
  entropy T*S    EENTRO =        -0.00000000
  eigenvalues    EBANDS =      -785.49520051
  atomic energy  EATOM  =      6689.08348147
  Solvation  Ediel_sol  =         0.00000000
  ---------------------------------------------------
  free energy    TOTEN  =       -68.60687213 eV

  energy without entropy =      -68.60687213  energy(sigma->0) =      -68.60687213


--------------------------------------------------------------------------------------------------------




--------------------------------------- Iteration      1(   9)  ---------------------------------------


    POTLOK:  cpu time    0.0565: real time    0.0565
    SETDIJ:  cpu time    1.3677: real time    1.3677
atom =   1  type =  1  l = 2
 
 onsite density matrix
 
spin component  1
 
  0.0688  0.0000  0.0381  0.0000 -0.0000
  0.0000  0.0477  0.0000  0.0191  0.0000
  0.0381  0.0000  0.0516  0.0000 -0.0000
  0.0000  0.0191  0.0000  0.0477  0.0000
 -0.0000  0.0000 -0.0000  0.0000  0.0233
 
spin component  2
 
  0.9500  0.0000  0.0064  0.0000  0.0000
  0.0000  0.9596  0.0000  0.0179  0.0000
  0.0064  0.0000  0.9450  0.0000  0.0000
  0.0000  0.0179  0.0000  0.9596  0.0000
  0.0000  0.0000  0.0000  0.0000  0.9426
 
 occupancies and eigenvectors
 
  o =  0.0211  v = -0.6242  0.0000  0.7813  0.0000  0.0000  0.0000  0.0000  0.0000  0.0000  0.0000      0.0000  0.0000  0.0000  0.0000  0.0000  0.0000  0.0000  0.0000  0.0000  0.0000
  o =  0.0233  v = -0.0000 -0.0000  0.0000  0.0000 -1.0000  0.0000  0.0000  0.0000  0.0000  0.0000      0.0000  0.0000  0.0000  0.0000  0.0000  0.0000  0.0000  0.0000  0.0000  0.0000
  o =  0.0286  v =  0.0000  0.7071  0.0000 -0.7071 -0.0000  0.0000  0.0000  0.0000  0.0000  0.0000      0.0000  0.0000  0.0000  0.0000  0.0000  0.0000  0.0000  0.0000  0.0000  0.0000
  o =  0.0668  v =  0.0000  0.7071  0.0000  0.7071 -0.0000  0.0000  0.0000  0.0000  0.0000  0.0000      0.0000  0.0000  0.0000  0.0000  0.0000  0.0000  0.0000  0.0000  0.0000  0.0000
  o =  0.0993  v = -0.7813  0.0000 -0.6242  0.0000  0.0000  0.0000  0.0000  0.0000  0.0000  0.0000      0.0000  0.0000  0.0000  0.0000  0.0000  0.0000  0.0000  0.0000  0.0000  0.0000
  o =  0.9407  v =  0.0000  0.0000  0.0000  0.0000  0.0000 -0.5632  0.0000  0.8263 -0.0000 -0.0000      0.0000  0.0000  0.0000  0.0000  0.0000  0.0000  0.0000  0.0000  0.0000  0.0000
  o =  0.9417  v =  0.0000  0.0000  0.0000  0.0000  0.0000  0.0000  0.7071 -0.0000 -0.7071 -0.0000      0.0000  0.0000  0.0000  0.0000  0.0000  0.0000  0.0000  0.0000  0.0000  0.0000
  o =  0.9426  v =  0.0000  0.0000  0.0000  0.0000  0.0000 -0.0000  0.0000  0.0000 -0.0000  1.0000      0.0000  0.0000  0.0000  0.0000  0.0000  0.0000  0.0000  0.0000  0.0000  0.0000
  o =  0.9543  v =  0.0000  0.0000  0.0000  0.0000  0.0000 -0.8263  0.0000 -0.5632 -0.0000 -0.0000      0.0000  0.0000  0.0000  0.0000  0.0000  0.0000  0.0000  0.0000  0.0000  0.0000
  o =  0.9775  v =  0.0000  0.0000  0.0000  0.0000  0.0000  0.0000 -0.7071  0.0000 -0.7071 -0.0000      0.0000  0.0000  0.0000  0.0000  0.0000  0.0000  0.0000  0.0000  0.0000  0.0000
atom =   2  type =  1  l = 2
 
 onsite density matrix
 
spin component  1
 
  0.9500  0.0000 -0.0064  0.0000  0.0000
  0.0000  0.9596  0.0000 -0.0179  0.0000
 -0.0064  0.0000  0.9450  0.0000 -0.0000
  0.0000 -0.0179  0.0000  0.9596  0.0000
  0.0000  0.0000 -0.0000  0.0000  0.9426
 
spin component  2
 
  0.0688  0.0000 -0.0381  0.0000 -0.0000
  0.0000  0.0477  0.0000 -0.0191  0.0000
 -0.0381  0.0000  0.0516  0.0000  0.0000
  0.0000 -0.0191  0.0000  0.0477  0.0000
 -0.0000  0.0000  0.0000  0.0000  0.0233
 
 occupancies and eigenvectors
 
  o =  0.0211  v =  0.0000  0.0000  0.0000  0.0000  0.0000 -0.6242  0.0000 -0.7813  0.0000  0.0000      0.0000  0.0000  0.0000  0.0000  0.0000  0.0000  0.0000  0.0000  0.0000  0.0000
  o =  0.0233  v =  0.0000  0.0000  0.0000  0.0000  0.0000 -0.0000 -0.0000 -0.0000  0.0000 -1.0000      0.0000  0.0000  0.0000  0.0000  0.0000  0.0000  0.0000  0.0000  0.0000  0.0000
  o =  0.0286  v =  0.0000  0.0000  0.0000  0.0000  0.0000  0.0000 -0.7071  0.0000 -0.7071  0.0000      0.0000  0.0000  0.0000  0.0000  0.0000  0.0000  0.0000  0.0000  0.0000  0.0000
  o =  0.0668  v =  0.0000  0.0000  0.0000  0.0000  0.0000  0.0000 -0.7071  0.0000  0.7071  0.0000      0.0000  0.0000  0.0000  0.0000  0.0000  0.0000  0.0000  0.0000  0.0000  0.0000
  o =  0.0993  v =  0.0000  0.0000  0.0000  0.0000  0.0000 -0.7813  0.0000  0.6242  0.0000  0.0000      0.0000  0.0000  0.0000  0.0000  0.0000  0.0000  0.0000  0.0000  0.0000  0.0000
  o =  0.9407  v = -0.5632  0.0000 -0.8263  0.0000  0.0000  0.0000  0.0000  0.0000  0.0000  0.0000      0.0000  0.0000  0.0000  0.0000  0.0000  0.0000  0.0000  0.0000  0.0000  0.0000
  o =  0.9417  v =  0.0000 -0.7071  0.0000 -0.7071 -0.0000  0.0000  0.0000  0.0000  0.0000  0.0000      0.0000  0.0000  0.0000  0.0000  0.0000  0.0000  0.0000  0.0000  0.0000  0.0000
  o =  0.9426  v =  0.0000 -0.0000  0.0000  0.0000  1.0000  0.0000  0.0000  0.0000  0.0000  0.0000      0.0000  0.0000  0.0000  0.0000  0.0000  0.0000  0.0000  0.0000  0.0000  0.0000
  o =  0.9543  v = -0.8263  0.0000  0.5632  0.0000 -0.0000  0.0000  0.0000  0.0000  0.0000  0.0000      0.0000  0.0000  0.0000  0.0000  0.0000  0.0000  0.0000  0.0000  0.0000  0.0000
  o =  0.9775  v =  0.0000  0.7071  0.0000 -0.7071  0.0000  0.0000  0.0000  0.0000  0.0000  0.0000      0.0000  0.0000  0.0000  0.0000  0.0000  0.0000  0.0000  0.0000  0.0000  0.0000
     EDDAV:  cpu time    1.2381: real time    1.2383
       DOS:  cpu time    0.0002: real time    0.0002
    CHARGE:  cpu time    0.2647: real time    0.2647
    MIXING:  cpu time    0.0011: real time    0.0011
    --------------------------------------------
      LOOP:  cpu time    2.9284: real time    2.9285

 eigenvalue-minimisations  :  1404
 total energy-change (2. order) : 0.4630153E+00  (-0.3650824E+00)
 number of electron      54.0000001 magnetization      -0.0000000
 augmentation part       20.0113585 magnetization      -0.0000000

 Broyden mixing:
  rms(total) = 0.77769E+00    rms(broyden)= 0.77769E+00
  rms(prec ) = 0.82370E+00
  weight for this iteration     100.00

 eigenvalues of (default mixing * dielectric matrix)
  average eigenvalue GAMMA=   0.9783
  1.8245  0.7555  0.7555  0.5775

 Free energy of the ion-electron system (eV)
  ---------------------------------------------------
  alpha Z        PSCENC =       199.38838823
  Ewald energy   TEWEN  =     -4203.06823030
  -Hartree energ DENC   =     -2158.91637007
  -exchange      EXHF   =         0.00000000
  -V(xc)+E(xc)   XCENC  =       168.28288471
  PAW double counting   =      6446.09170302    -6409.93388949
  entropy T*S    EENTRO =        -0.00000000
  eigenvalues    EBANDS =      -799.07182437
  atomic energy  EATOM  =      6689.08348147
  Solvation  Ediel_sol  =         0.00000000
  ---------------------------------------------------
  free energy    TOTEN  =       -68.14385680 eV

  energy without entropy =      -68.14385680  energy(sigma->0) =      -68.14385680


--------------------------------------------------------------------------------------------------------




--------------------------------------- Iteration      1(  10)  ---------------------------------------


    POTLOK:  cpu time    0.0569: real time    0.0569
    SETDIJ:  cpu time    1.3670: real time    1.3670
atom =   1  type =  1  l = 2
 
 onsite density matrix
 
spin component  1
 
  0.0432  0.0000  0.0122  0.0000  0.0000
  0.0000  0.0500  0.0000  0.0218  0.0000
  0.0122  0.0000  0.0358  0.0000  0.0000
  0.0000  0.0218  0.0000  0.0500  0.0000
  0.0000  0.0000  0.0000  0.0000  0.0281
 
spin component  2
 
  0.9705  0.0000  0.0341  0.0000 -0.0000
  0.0000  0.9520  0.0000  0.0169  0.0000
  0.0341  0.0000  0.9544  0.0000  0.0000
  0.0000  0.0169  0.0000  0.9520  0.0000
 -0.0000  0.0000  0.0000  0.0000  0.9317
 
 occupancies and eigenvectors
 
  o =  0.0268  v = -0.5965  0.0000  0.8026  0.0000 -0.0000  0.0000  0.0000  0.0000  0.0000  0.0000      0.0000  0.0000  0.0000  0.0000  0.0000  0.0000  0.0000  0.0000  0.0000  0.0000
  o =  0.0281  v = -0.0000 -0.0000  0.0000  0.0000  1.0000  0.0000  0.0000  0.0000  0.0000  0.0000      0.0000  0.0000  0.0000  0.0000  0.0000  0.0000  0.0000  0.0000  0.0000  0.0000
  o =  0.0282  v =  0.0000  0.7071  0.0000 -0.7071  0.0000  0.0000  0.0000  0.0000  0.0000  0.0000      0.0000  0.0000  0.0000  0.0000  0.0000  0.0000  0.0000  0.0000  0.0000  0.0000
  o =  0.0522  v = -0.8026  0.0000 -0.5965  0.0000 -0.0000  0.0000  0.0000  0.0000  0.0000  0.0000      0.0000  0.0000  0.0000  0.0000  0.0000  0.0000  0.0000  0.0000  0.0000  0.0000
  o =  0.0717  v =  0.0000 -0.7071  0.0000 -0.7071 -0.0000  0.0000  0.0000  0.0000  0.0000  0.0000      0.0000  0.0000  0.0000  0.0000  0.0000  0.0000  0.0000  0.0000  0.0000  0.0000
  o =  0.9274  v =  0.0000  0.0000  0.0000  0.0000  0.0000 -0.6206  0.0000  0.7841  0.0000 -0.0000      0.0000  0.0000  0.0000  0.0000  0.0000  0.0000  0.0000  0.0000  0.0000  0.0000
  o =  0.9317  v =  0.0000  0.0000  0.0000  0.0000  0.0000  0.0000 -0.0000  0.0000  0.0000  1.0000      0.0000  0.0000  0.0000  0.0000  0.0000  0.0000  0.0000  0.0000  0.0000  0.0000
  o =  0.9351  v =  0.0000  0.0000  0.0000  0.0000  0.0000  0.0000  0.7071  0.0000 -0.7071  0.0000      0.0000  0.0000  0.0000  0.0000  0.0000  0.0000  0.0000  0.0000  0.0000  0.0000
  o =  0.9689  v =  0.0000  0.0000  0.0000  0.0000  0.0000  0.0000  0.7071  0.0000  0.7071  0.0000      0.0000  0.0000  0.0000  0.0000  0.0000  0.0000  0.0000  0.0000  0.0000  0.0000
  o =  0.9975  v =  0.0000  0.0000  0.0000  0.0000  0.0000 -0.7841  0.0000 -0.6206  0.0000  0.0000      0.0000  0.0000  0.0000  0.0000  0.0000  0.0000  0.0000  0.0000  0.0000  0.0000
atom =   2  type =  1  l = 2
 
 onsite density matrix
 
spin component  1
 
  0.9705  0.0000 -0.0341  0.0000 -0.0000
  0.0000  0.9520  0.0000 -0.0169  0.0000
 -0.0341  0.0000  0.9544  0.0000  0.0000
  0.0000 -0.0169  0.0000  0.9520  0.0000
 -0.0000  0.0000  0.0000  0.0000  0.9317
 
spin component  2
 
  0.0432  0.0000 -0.0122  0.0000  0.0000
  0.0000  0.0500  0.0000 -0.0218  0.0000
 -0.0122  0.0000  0.0358  0.0000 -0.0000
  0.0000 -0.0218  0.0000  0.0500  0.0000
  0.0000  0.0000 -0.0000  0.0000  0.0281
 
 occupancies and eigenvectors
 
  o =  0.0268  v =  0.0000  0.0000  0.0000  0.0000  0.0000 -0.5965  0.0000 -0.8026  0.0000 -0.0000      0.0000  0.0000  0.0000  0.0000  0.0000  0.0000  0.0000  0.0000  0.0000  0.0000
  o =  0.0281  v =  0.0000  0.0000  0.0000  0.0000  0.0000 -0.0000 -0.0000 -0.0000  0.0000  1.0000      0.0000  0.0000  0.0000  0.0000  0.0000  0.0000  0.0000  0.0000  0.0000  0.0000
  o =  0.0282  v =  0.0000  0.0000  0.0000  0.0000  0.0000  0.0000 -0.7071  0.0000 -0.7071 -0.0000      0.0000  0.0000  0.0000  0.0000  0.0000  0.0000  0.0000  0.0000  0.0000  0.0000
  o =  0.0522  v =  0.0000  0.0000  0.0000  0.0000  0.0000 -0.8026  0.0000  0.5965  0.0000 -0.0000      0.0000  0.0000  0.0000  0.0000  0.0000  0.0000  0.0000  0.0000  0.0000  0.0000
  o =  0.0717  v =  0.0000  0.0000  0.0000  0.0000  0.0000  0.0000 -0.7071  0.0000  0.7071 -0.0000      0.0000  0.0000  0.0000  0.0000  0.0000  0.0000  0.0000  0.0000  0.0000  0.0000
  o =  0.9274  v = -0.6206  0.0000 -0.7841  0.0000  0.0000  0.0000  0.0000  0.0000  0.0000  0.0000      0.0000  0.0000  0.0000  0.0000  0.0000  0.0000  0.0000  0.0000  0.0000  0.0000
  o =  0.9317  v =  0.0000 -0.0000  0.0000 -0.0000  1.0000  0.0000  0.0000  0.0000  0.0000  0.0000      0.0000  0.0000  0.0000  0.0000  0.0000  0.0000  0.0000  0.0000  0.0000  0.0000
  o =  0.9351  v = -0.0000 -0.7071 -0.0000 -0.7071 -0.0000  0.0000  0.0000  0.0000  0.0000  0.0000      0.0000  0.0000  0.0000  0.0000  0.0000  0.0000  0.0000  0.0000  0.0000  0.0000
  o =  0.9689  v =  0.0000  0.7071  0.0000 -0.7071  0.0000  0.0000  0.0000  0.0000  0.0000  0.0000      0.0000  0.0000  0.0000  0.0000  0.0000  0.0000  0.0000  0.0000  0.0000  0.0000
  o =  0.9975  v = -0.7841  0.0000  0.6206  0.0000  0.0000  0.0000  0.0000  0.0000  0.0000  0.0000      0.0000  0.0000  0.0000  0.0000  0.0000  0.0000  0.0000  0.0000  0.0000  0.0000
     EDDAV:  cpu time    1.2668: real time    1.2668
       DOS:  cpu time    0.0002: real time    0.0002
    CHARGE:  cpu time    0.2650: real time    0.2650
    MIXING:  cpu time    0.0012: real time    0.0012
    --------------------------------------------
      LOOP:  cpu time    2.9570: real time    2.9570

 eigenvalue-minimisations  :  1464
 total energy-change (2. order) : 0.4002068E-01  (-0.3205508E-01)
 number of electron      54.0000001 magnetization       0.0000000
 augmentation part       20.0243968 magnetization       0.0000000

 Broyden mixing:
  rms(total) = 0.53631E+00    rms(broyden)= 0.53631E+00
  rms(prec ) = 0.58627E+00
  weight for this iteration     100.00

 eigenvalues of (default mixing * dielectric matrix)
  average eigenvalue GAMMA=   1.2208
  2.9366  0.9745  0.9745  0.6093  0.6093

 Free energy of the ion-electron system (eV)
  ---------------------------------------------------
  alpha Z        PSCENC =       199.38838823
  Ewald energy   TEWEN  =     -4203.06823030
  -Hartree energ DENC   =     -2153.47313499
  -exchange      EXHF   =         0.00000000
  -V(xc)+E(xc)   XCENC  =       166.07766188
  PAW double counting   =      6519.79702026    -6484.88424434
  entropy T*S    EENTRO =        -0.00000000
  eigenvalues    EBANDS =      -801.02477833
  atomic energy  EATOM  =      6689.08348147
  Solvation  Ediel_sol  =         0.00000000
  ---------------------------------------------------
  free energy    TOTEN  =       -68.10383612 eV

  energy without entropy =      -68.10383612  energy(sigma->0) =      -68.10383612


--------------------------------------------------------------------------------------------------------




--------------------------------------- Iteration      1(  11)  ---------------------------------------


    POTLOK:  cpu time    0.0562: real time    0.0562
    SETDIJ:  cpu time    1.3669: real time    1.3669
atom =   1  type =  1  l = 2
 
 onsite density matrix
 
spin component  1
 
  0.0517  0.0000  0.0304  0.0000 -0.0000
  0.0000  0.0435  0.0000  0.0252  0.0000
  0.0304  0.0000  0.0369  0.0000 -0.0000
  0.0000  0.0252  0.0000  0.0435  0.0000
 -0.0000  0.0000 -0.0000  0.0000  0.0146
 
spin component  2
 
  0.9621  0.0000  0.0182  0.0000 -0.0000
  0.0000  0.9583  0.0000  0.0164  0.0000
  0.0182  0.0000  0.9512  0.0000  0.0000
  0.0000  0.0164  0.0000  0.9583  0.0000
 -0.0000  0.0000  0.0000  0.0000  0.9429
 
 occupancies and eigenvectors
 
  o =  0.0130  v = -0.6178  0.0000  0.7863  0.0000  0.0000  0.0000  0.0000  0.0000  0.0000  0.0000      0.0000  0.0000  0.0000  0.0000  0.0000  0.0000  0.0000  0.0000  0.0000  0.0000
  o =  0.0146  v = -0.0000 -0.0000  0.0000  0.0000 -1.0000  0.0000  0.0000  0.0000  0.0000  0.0000      0.0000  0.0000  0.0000  0.0000  0.0000  0.0000  0.0000  0.0000  0.0000  0.0000
  o =  0.0182  v =  0.0000 -0.7071  0.0000  0.7071 -0.0000  0.0000  0.0000  0.0000  0.0000  0.0000      0.0000  0.0000  0.0000  0.0000  0.0000  0.0000  0.0000  0.0000  0.0000  0.0000
  o =  0.0687  v =  0.0000 -0.7071  0.0000 -0.7071 -0.0000  0.0000  0.0000  0.0000  0.0000  0.0000      0.0000  0.0000  0.0000  0.0000  0.0000  0.0000  0.0000  0.0000  0.0000  0.0000
  o =  0.0756  v = -0.7863  0.0000 -0.6178  0.0000  0.0000  0.0000  0.0000  0.0000  0.0000  0.0000      0.0000  0.0000  0.0000  0.0000  0.0000  0.0000  0.0000  0.0000  0.0000  0.0000
  o =  0.9377  v =  0.0000  0.0000  0.0000  0.0000  0.0000 -0.5971 -0.0000  0.8021  0.0000 -0.0000      0.0000  0.0000  0.0000  0.0000  0.0000  0.0000  0.0000  0.0000  0.0000  0.0000
  o =  0.9420  v =  0.0000  0.0000  0.0000  0.0000  0.0000  0.0000  0.7071  0.0000 -0.7071 -0.0000      0.0000  0.0000  0.0000  0.0000  0.0000  0.0000  0.0000  0.0000  0.0000  0.0000
  o =  0.9429  v =  0.0000  0.0000  0.0000  0.0000  0.0000 -0.0000  0.0000  0.0000  0.0000  1.0000      0.0000  0.0000  0.0000  0.0000  0.0000  0.0000  0.0000  0.0000  0.0000  0.0000
  o =  0.9747  v =  0.0000  0.0000  0.0000  0.0000  0.0000  0.0000 -0.7071  0.0000 -0.7071  0.0000      0.0000  0.0000  0.0000  0.0000  0.0000  0.0000  0.0000  0.0000  0.0000  0.0000
  o =  0.9757  v =  0.0000  0.0000  0.0000  0.0000  0.0000 -0.8021 -0.0000 -0.5971  0.0000 -0.0000      0.0000  0.0000  0.0000  0.0000  0.0000  0.0000  0.0000  0.0000  0.0000  0.0000
atom =   2  type =  1  l = 2
 
 onsite density matrix
 
spin component  1
 
  0.9621  0.0000 -0.0182  0.0000  0.0000
  0.0000  0.9583  0.0000 -0.0164  0.0000
 -0.0182  0.0000  0.9512  0.0000  0.0000
  0.0000 -0.0164  0.0000  0.9583  0.0000
  0.0000  0.0000  0.0000  0.0000  0.9429
 
spin component  2
 
  0.0517  0.0000 -0.0304  0.0000 -0.0000
  0.0000  0.0435  0.0000 -0.0252  0.0000
 -0.0304  0.0000  0.0369  0.0000 -0.0000
  0.0000 -0.0252  0.0000  0.0435  0.0000
 -0.0000  0.0000 -0.0000  0.0000  0.0146
 
 occupancies and eigenvectors
 
  o =  0.0130  v =  0.0000  0.0000  0.0000  0.0000  0.0000 -0.6178 -0.0000 -0.7863  0.0000 -0.0000      0.0000  0.0000  0.0000  0.0000  0.0000  0.0000  0.0000  0.0000  0.0000  0.0000
  o =  0.0146  v =  0.0000  0.0000  0.0000  0.0000  0.0000 -0.0000  0.0000 -0.0000  0.0000  1.0000      0.0000  0.0000  0.0000  0.0000  0.0000  0.0000  0.0000  0.0000  0.0000  0.0000
  o =  0.0182  v =  0.0000  0.0000  0.0000  0.0000  0.0000  0.0000 -0.7071  0.0000 -0.7071  0.0000      0.0000  0.0000  0.0000  0.0000  0.0000  0.0000  0.0000  0.0000  0.0000  0.0000
  o =  0.0687  v =  0.0000  0.0000  0.0000  0.0000  0.0000  0.0000  0.7071  0.0000 -0.7071 -0.0000      0.0000  0.0000  0.0000  0.0000  0.0000  0.0000  0.0000  0.0000  0.0000  0.0000
  o =  0.0756  v =  0.0000  0.0000  0.0000  0.0000  0.0000 -0.7863 -0.0000  0.6178  0.0000 -0.0000      0.0000  0.0000  0.0000  0.0000  0.0000  0.0000  0.0000  0.0000  0.0000  0.0000
  o =  0.9377  v = -0.5971  0.0000 -0.8021  0.0000  0.0000  0.0000  0.0000  0.0000  0.0000  0.0000      0.0000  0.0000  0.0000  0.0000  0.0000  0.0000  0.0000  0.0000  0.0000  0.0000
  o =  0.9420  v =  0.0000 -0.7071  0.0000 -0.7071 -0.0000  0.0000  0.0000  0.0000  0.0000  0.0000      0.0000  0.0000  0.0000  0.0000  0.0000  0.0000  0.0000  0.0000  0.0000  0.0000
  o =  0.9429  v =  0.0000  0.0000 -0.0000  0.0000 -1.0000  0.0000  0.0000  0.0000  0.0000  0.0000      0.0000  0.0000  0.0000  0.0000  0.0000  0.0000  0.0000  0.0000  0.0000  0.0000
  o =  0.9747  v =  0.0000  0.7071  0.0000 -0.7071  0.0000  0.0000  0.0000  0.0000  0.0000  0.0000      0.0000  0.0000  0.0000  0.0000  0.0000  0.0000  0.0000  0.0000  0.0000  0.0000
  o =  0.9757  v = -0.8021  0.0000  0.5971  0.0000 -0.0000  0.0000  0.0000  0.0000  0.0000  0.0000      0.0000  0.0000  0.0000  0.0000  0.0000  0.0000  0.0000  0.0000  0.0000  0.0000
     EDDAV:  cpu time    1.2725: real time    1.2725
       DOS:  cpu time    0.0002: real time    0.0002
    CHARGE:  cpu time    0.2643: real time    0.2643
    MIXING:  cpu time    0.0012: real time    0.0012
    --------------------------------------------
      LOOP:  cpu time    2.9613: real time    2.9613

 eigenvalue-minimisations  :  1464
 total energy-change (2. order) : 0.4374026E-01  (-0.4595815E-01)
 number of electron      54.0000001 magnetization       0.0000000
 augmentation part       20.0534568 magnetization       0.0000000

 Broyden mixing:
  rms(total) = 0.12742E+00    rms(broyden)= 0.12740E+00
  rms(prec ) = 0.17950E+00
  weight for this iteration     100.00

 eigenvalues of (default mixing * dielectric matrix)
  average eigenvalue GAMMA=   1.1237
  3.0054  0.9923  0.9923  0.5959  0.5781  0.5781

 Free energy of the ion-electron system (eV)
  ---------------------------------------------------
[...]
     13      -4.0270      1.00000
     14      -3.8450      1.00000
     15      -3.6858      1.00000
     16      -3.4911      1.00000
     17      -3.1091      1.00000
     18      -2.9306      1.00000
     19      -2.7985      1.00000
     20      -2.3915      1.00000
     21      -2.3032      1.00000
     22      -2.2443      1.00000
     23       0.7987      1.00000
     24       0.8419      1.00000
     25       1.0858      1.00000
     26       1.7132      1.00000
     27       2.0619      1.00000
     28       6.4054      0.00000
     29       6.4346      0.00000
     30       6.5379      0.00000
     31       7.3912      0.00000
     32       7.6831      0.00000
     33       8.9974      0.00000
     34      11.2917      0.00000
     35      12.7576      0.00000
     36      13.1177      0.00000

 k-point     8 :       0.3750    0.1250    0.4167
  band No.  band energies     occupation 
      1     -49.2334      1.00000
      2     -49.1931      1.00000
      3     -49.1729      1.00000
      4     -42.7243      1.00000
      5     -42.6808      1.00000
      6     -42.6507      1.00000
      7     -22.6202      1.00000
      8     -22.5636      1.00000
      9     -22.5138      1.00000
     10     -22.4449      1.00000
     11      -4.5039      1.00000
     12      -4.2477      1.00000
     13      -4.1651      1.00000
     14      -3.9867      1.00000
     15      -3.6172      1.00000
     16      -3.3804      1.00000
     17      -3.2068      1.00000
     18      -3.1015      1.00000
     19      -2.5332      1.00000
     20      -2.3732      1.00000
     21      -2.1944      1.00000
     22      -2.0917      1.00000
     23       0.7856      1.00000
     24       0.8148      1.00000
     25       1.0249      1.00000
     26       1.6701      1.00000
     27       2.1906      1.00000
     28       6.3933      0.00000
     29       6.4276      0.00000
     30       6.5940      0.00000
     31       7.3460      0.00000
     32       7.8645      0.00000
     33       9.6228      0.00000
     34      11.1495      0.00000
     35      11.6704      0.00000
     36      12.9814      0.00000

 k-point     9 :       0.3750    0.3750    0.4167
  band No.  band energies     occupation 
      1     -49.2334      1.00000
      2     -49.1931      1.00000
      3     -49.1729      1.00000
      4     -42.7243      1.00000
      5     -42.6808      1.00000
      6     -42.6507      1.00000
      7     -22.6132      1.00000
      8     -22.5723      1.00000
      9     -22.5143      1.00000
     10     -22.4392      1.00000
     11      -4.7392      1.00000
     12      -4.5293      1.00000
     13      -4.1605      1.00000
     14      -4.0996      1.00000
     15      -3.5906      1.00000
     16      -3.3134      1.00000
     17      -3.1431      1.00000
     18      -2.9108      1.00000
     19      -2.3228      1.00000
     20      -2.2282      1.00000
     21      -2.1162      1.00000
     22      -2.0395      1.00000
     23       0.7833      1.00000
     24       0.8074      1.00000
     25       1.0106      1.00000
     26       1.7044      1.00000
     27       2.1662      1.00000
     28       6.3999      0.00000
     29       6.4250      0.00000
     30       6.6118      0.00000
     31       7.3220      0.00000
     32       7.7684      0.00000
     33      10.1177      0.00000
     34      11.7030      0.00000
     35      11.7358      0.00000
     36      11.9697      0.00000


--------------------------------------------------------------------------------------------------------


 soft charge-density along one line, spin component           1
         0         1         2         3         4         5         6         7         8         9
 total charge-density along one line
 
 soft charge-density along one line, spin component           2
         0         1         2         3         4         5         6         7         8         9
 total charge-density along one line
 
 pseudopotential strength for first ion, spin component:           1
-45.218  -0.000  -0.038   7.794   0.000   0.016  -0.000   0.000
 -0.000 -45.184  -0.000   0.000   7.780   0.000   0.000   0.000
 -0.038  -0.000 -45.218   0.016   0.000   7.794   0.000   0.000
  7.794   0.000   0.016   5.591  -0.000   0.004  -0.000  -0.000
  0.000   7.780   0.000  -0.000   5.585  -0.000  -0.000   0.000
  0.016   0.000   7.794   0.004  -0.000   5.591  -0.000  -0.000
 -0.000   0.000   0.000  -0.000  -0.000  -0.000  -2.977  -0.000
  0.000   0.000   0.000  -0.000   0.000  -0.000  -0.000  -2.959
 -0.000   0.000   0.000   0.000  -0.000   0.000   0.020  -0.000
  0.000   0.000   0.000  -0.000   0.000  -0.000  -0.000  -0.018
  0.000  -0.000  -0.000  -0.000   0.000  -0.000  -0.000   0.000
 -0.000   0.000   0.000  -0.000  -0.000  -0.000  -3.492  -0.000
  0.000   0.000   0.000  -0.000   0.000  -0.000  -0.000  -3.475
 -0.000   0.000   0.000   0.000  -0.000   0.000   0.018  -0.000
  0.000   0.000   0.000  -0.000   0.000  -0.000  -0.000  -0.018
  0.000  -0.000  -0.000  -0.000   0.000  -0.000  -0.000   0.000
  0.000  -0.000   0.000   0.000  -0.000  -0.000   0.011   0.000
  0.000  -0.000   0.000   0.000  -0.000  -0.000   0.022   0.000
 pseudopotential strength for first ion, spin component:           2
-50.971  -0.000  -0.005   9.793   0.000   0.016   0.000   0.000
 -0.000 -50.971  -0.000   0.000   9.779   0.000   0.000   0.000
 -0.005  -0.000 -50.971   0.016   0.000   9.793  -0.000   0.000
  9.793   0.000   0.016   4.708  -0.000   0.001  -0.000  -0.000
  0.000   9.779   0.000  -0.000   4.707  -0.000  -0.000  -0.000
  0.016   0.000   9.793   0.001  -0.000   4.708  -0.000  -0.000
  0.000   0.000  -0.000  -0.000  -0.000  -0.000  -7.329  -0.000
  0.000   0.000   0.000  -0.000  -0.000  -0.000  -0.000  -7.320
  0.000   0.000  -0.000  -0.000  -0.000   0.000  -0.009  -0.000
  0.000  -0.000   0.000  -0.000   0.000  -0.000  -0.000  -0.028
 -0.000  -0.000   0.000  -0.000   0.000  -0.000   0.000   0.000
  0.000   0.000  -0.000  -0.000  -0.000  -0.000  -7.800  -0.000
  0.000   0.000   0.000  -0.000  -0.000  -0.000  -0.000  -7.791
  0.000   0.000  -0.000  -0.000  -0.000   0.000  -0.008  -0.000
  0.000  -0.000   0.000  -0.000   0.000  -0.000  -0.000  -0.027
 -0.000  -0.000   0.000  -0.000   0.000  -0.000   0.000   0.000
  0.000  -0.000  -0.000  -0.000  -0.000   0.000   0.011   0.000
  0.000  -0.000  -0.000  -0.000  -0.000   0.000   0.023   0.000
 total augmentation occupancy for first ion, spin component:           1
  2.001   0.000   0.000  -0.013   0.000   0.001   0.000   0.000   0.000   0.000   0.000   0.000   0.000   0.000   0.000   0.000
  0.000   2.001   0.000   0.000  -0.013   0.000   0.000   0.000   0.000   0.000   0.000   0.000   0.000   0.000   0.000   0.000
  0.000   0.000   2.001   0.001   0.000  -0.013   0.000   0.000   0.000   0.000   0.000   0.000   0.000   0.000   0.000   0.000
 -0.013   0.000   0.001   0.081   0.000  -0.009   0.000   0.000   0.000   0.000   0.000   0.000   0.000   0.000   0.000   0.000
  0.000  -0.013   0.000   0.000   0.090   0.000   0.000   0.000   0.000   0.000   0.000   0.000   0.000   0.000   0.000   0.000
  0.001   0.000  -0.013  -0.009   0.000   0.081   0.000   0.000   0.000   0.000   0.000   0.000   0.000   0.000   0.000   0.000
  0.000   0.000   0.000   0.000   0.000   0.000   7.767   0.000   3.004   0.000   0.000  -5.795   0.000  -2.825   0.000  -0.000
  0.000   0.000   0.000   0.000   0.000   0.000   0.000   6.573   0.000   2.542   0.000   0.000  -4.646   0.000  -2.388   0.000
  0.000   0.000   0.000   0.000   0.000   0.000   3.004   0.000   5.960   0.000   0.000  -2.826   0.000  -4.102   0.000   0.000
  0.000   0.000   0.000   0.000   0.000   0.000   0.000   2.542   0.000   6.573   0.000   0.000  -2.388   0.000  -4.646   0.000
  0.000   0.000   0.000   0.000   0.000   0.000   0.000   0.000   0.000   0.000   3.894   0.000   0.000   0.000   0.000  -2.114
  0.000   0.000   0.000   0.000   0.000   0.000  -5.795   0.000  -2.826   0.000  -0.000   4.997   0.000   2.691   0.000   0.000
  0.000   0.000   0.000   0.000   0.000   0.000   0.000  -4.646   0.000  -2.388   0.000   0.000   3.882   0.000   2.271   0.000
  0.000   0.000   0.000   0.000   0.000   0.000  -2.825   0.000  -4.102   0.000   0.000   2.691   0.000   3.393   0.000  -0.000
  0.000   0.000   0.000   0.000   0.000   0.000   0.000  -2.388   0.000  -4.646   0.000   0.000   2.271   0.000   3.882   0.000
  0.000   0.000   0.000   0.000   0.000   0.000   0.000   0.000  -0.000   0.000  -2.114   0.000   0.000   0.000   0.000   1.458
  0.000   0.000   0.000   0.000   0.000   0.000   0.440   0.000  -0.298   0.000   0.000  -0.418   0.000   0.277   0.000   0.000
  0.000   0.000   0.000   0.000   0.000   0.000  -0.092   0.000   0.069   0.000  -0.000   0.097   0.000  -0.068   0.000   0.000
 total augmentation occupancy for first ion, spin component:           2
  0.004   0.000  -0.000   0.017   0.000  -0.001   0.000   0.000   0.000   0.000   0.000   0.000   0.000   0.000   0.000   0.000
  0.000   0.004   0.000   0.000   0.018   0.000   0.000   0.000   0.000   0.000   0.000   0.000   0.000   0.000   0.000   0.000
 -0.000   0.000   0.004  -0.001   0.000   0.017   0.000   0.000   0.000   0.000   0.000   0.000   0.000   0.000   0.000   0.000
  0.017   0.000  -0.001  -0.011   0.000  -0.000   0.000   0.000   0.000   0.000   0.000   0.000   0.000   0.000   0.000   0.000
  0.000   0.018   0.000   0.000  -0.010   0.000   0.000   0.000   0.000   0.000   0.000   0.000   0.000   0.000   0.000   0.000
 -0.001   0.000   0.017  -0.000   0.000  -0.011   0.000   0.000   0.000   0.000   0.000   0.000   0.000   0.000   0.000   0.000
  0.000   0.000   0.000   0.000   0.000   0.000  -5.100   0.000  -1.495   0.000   0.000   2.726   0.000   1.097   0.000  -0.000
  0.000   0.000   0.000   0.000   0.000   0.000   0.000  -4.547   0.000  -1.275   0.000   0.000   2.299   0.000   0.938   0.000
  0.000   0.000   0.000   0.000   0.000   0.000  -1.495   0.000  -4.146   0.000   0.000   1.097   0.000   2.010   0.000   0.000
  0.000   0.000   0.000   0.000   0.000   0.000   0.000  -1.275   0.000  -4.547   0.000   0.000   0.938   0.000   2.299   0.000
  0.000   0.000   0.000   0.000   0.000   0.000   0.000   0.000   0.000   0.000  -3.253  -0.000   0.000  -0.000   0.000   1.353
  0.000   0.000   0.000   0.000   0.000   0.000   2.726   0.000   1.097   0.000   0.000  -1.455   0.000  -0.706   0.000   0.000
  0.000   0.000   0.000   0.000   0.000   0.000   0.000   2.299   0.000   0.938   0.000   0.000  -1.154   0.000  -0.606   0.000
  0.000   0.000   0.000   0.000   0.000   0.000   1.097   0.000   2.010   0.000  -0.000  -0.706   0.000  -0.973   0.000   0.000
  0.000   0.000   0.000   0.000   0.000   0.000   0.000   0.938   0.000   2.299   0.000   0.000  -0.606   0.000  -1.154   0.000
  0.000   0.000   0.000   0.000   0.000   0.000   0.000   0.000   0.000   0.000   1.353   0.000   0.000   0.000   0.000  -0.555
  0.000   0.000   0.000   0.000   0.000   0.000  -0.098   0.000   0.056   0.000  -0.000   0.022   0.000   0.001   0.000   0.000
  0.000   0.000   0.000   0.000   0.000   0.000  -0.000   0.000  -0.006   0.000   0.000   0.009   0.000  -0.004   0.000   0.000


------------------------ aborting loop because EDIFF is reached ----------------------------------------


 


 total charge     
 
# of ion       s       p       d       tot
------------------------------------------
    1        0.168   6.149   4.965  11.283
    2        0.173   6.145   4.972  11.289
    3        1.733   4.404   0.000   6.137
    4        1.733   4.404   0.000   6.137
    5        1.733   4.400   0.000   6.133
    6        1.733   4.400   0.000   6.133
--------------------------------------------------
tot          7.273  29.902   9.937  47.112
 


 magnetization (x)
 
# of ion       s       p       d       tot
------------------------------------------
    1       -0.022  -0.018  -4.581  -4.621
    2        0.023   0.016   4.578   4.617
    3        0.003   0.025   0.000   0.027
    4        0.003   0.025   0.000   0.027
    5       -0.003  -0.021   0.000  -0.024
    6       -0.003  -0.021   0.000  -0.024
--------------------------------------------------
tot         -0.001   0.006  -0.003   0.003
 
    CHARGE:  cpu time    0.0697: real time    0.0697
    FORLOC:  cpu time    0.0022: real time    0.0022
    FORNL :  cpu time    0.3175: real time    0.3175
    STRESS:  cpu time    3.8928: real time    3.8928
    FORCOR:  cpu time    0.0513: real time    0.0513
    FORHAR:  cpu time    0.0036: real time    0.0036
    MIXING:  cpu time    0.0013: real time    0.0013
    OFIELD:  cpu time    0.0000: real time    0.0000

  FORCE on cell =-STRESS in cart. coord.  units (eV):
  Direction    XX          YY          ZZ          XY          YZ          ZX
  --------------------------------------------------------------------------------------
  Alpha Z   199.63885   199.63885   199.63885
  Ewald   -1586.74077 -1586.74077 -1031.33986     0.00000    -0.00000    -0.00000
  Hartree   593.73881   593.73881   969.09839    -0.00000    -0.00000    -0.00000
  E(xc)    -150.58736  -150.56393  -150.69848    -0.01645    -0.02614    -0.02789
  Local     164.23006   164.23006  -759.64162    -0.00000     0.00000    -0.00000
  n-local  -310.13890  -310.41702  -309.36843     0.01893     0.11094     0.11107
  augment   158.54558   158.54558   158.05518     0.00000     0.00000    -0.00000
  Kinetic   931.16330   931.73301   924.27151    -0.43883    -0.81185    -0.84771
  Fock        0.00000     0.00000     0.00000     0.00000     0.00000     0.00000
  -------------------------------------------------------------------------------------
  Total       0.00708     0.00708     0.01555    -0.00000     0.00000     0.00000
  in kB       0.14675     0.14675     0.32227    -0.00000     0.00000     0.00000
  external pressure =        0.21 kB  Pullay stress =        0.00 kB


 VOLUME and BASIS-vectors are now :
 -----------------------------------------------------------------------------
  energy-cutoff  :      750.00
  volume of cell :       77.33
      direct lattice vectors                 reciprocal lattice vectors
     4.850612339 -0.000000000  0.000000000     0.206159538  0.000000000  0.000000000
    -0.000000000  4.850612339  0.000000000     0.000000000  0.206159538  0.000000000
     0.000000000  0.000000000  3.286535998     0.000000000  0.000000000  0.304271732

  length of vectors
     4.850612339  4.850612339  3.286535998     0.206159538  0.206159538  0.304271732


 FORCES acting on ions
    electron-ion (+dipol)            ewald-force                    non-local-force                 convergence-correction
 -----------------------------------------------------------------------------------------------
   0.213E-11 0.514E-11 0.443E-11   -.114E-12 0.568E-13 0.681E-14   0.162E-25 0.000E+00 0.000E+00   -.161E-12 -.119E-12 -.109E-12
   -.742E-13 -.571E-13 0.354E-14   0.284E-13 0.284E-13 0.596E-14   -.157E-25 0.000E+00 0.000E+00   0.235E-13 -.820E-14 -.134E-13
   -.325E+02 0.325E+02 0.585E-11   0.337E+02 -.337E+02 -.329E-14   -.120E+01 0.120E+01 0.434E-18   0.168E-05 -.168E-05 -.201E-13
   0.325E+02 -.325E+02 0.553E-12   -.337E+02 0.337E+02 -.340E-14   0.120E+01 -.120E+01 -.434E-18   -.168E-05 0.168E-05 -.414E-13
   0.325E+02 0.325E+02 -.248E-07   -.337E+02 -.337E+02 -.385E-14   0.120E+01 0.120E+01 0.434E-18   -.168E-05 -.168E-05 0.669E-13
   -.325E+02 -.325E+02 0.248E-07   0.337E+02 0.337E+02 -.408E-14   -.120E+01 -.120E+01 -.434E-18   0.168E-05 0.168E-05 -.928E-13
 -----------------------------------------------------------------------------------------------
   -.980E-12 0.819E-11 0.540E-11   -.711E-14 -.711E-14 -.186E-14   0.222E-15 -.222E-15 0.000E+00   -.329E-12 -.359E-12 -.210E-12
 
 
 POSITION                                       TOTAL-FORCE (eV/Angst)
 -----------------------------------------------------------------------------------
      2.42531      2.42531      1.64327         0.000000      0.000000      0.000000
      0.00000      0.00000      0.00000        -0.000000      0.000000      0.000000
      0.95123      3.89938      1.64327         0.001502     -0.001502      0.000000
      3.89938      0.95123      1.64327        -0.001502      0.001502      0.000000
      1.47407      1.47407     -0.00000        -0.001502     -0.001502      0.000000
      3.37654      3.37654      0.00000         0.001502      0.001502      0.000000
 -----------------------------------------------------------------------------------
    total drift:                               -0.000000      0.000000      0.000000


--------------------------------------------------------------------------------------------------------



  FREE ENERGIE OF THE ION-ELECTRON SYSTEM (eV)
  ---------------------------------------------------
  free  energy   TOTEN  =       -68.03873323 eV

  energy  without entropy=      -68.03873323  energy(sigma->0) =      -68.03873323
 
 d Force = 0.2422369E-06[ 0.347E-06, 0.138E-06]  d Energy =-0.5857170E-05 0.610E-05
 d Force = 0.7778453E-02[ 0.778E-02, 0.778E-02]  d Ewald  = 0.1750019E+01-0.174E+01


--------------------------------------------------------------------------------------------------------


    POTLOK:  cpu time    1.4245: real time    1.4245


--------------------------------------------------------------------------------------------------------


 Steepest descent step on ions:
 trial-energy change:    0.000006  1 .order   -0.000027   -0.000066    0.000012
  (g-gl).g = 0.656E-04      g.g   = 0.656E-04  gl.gl    = 0.000E+00
 g(Force)  = 0.138E-06   g(Stress)= 0.655E-04 ortho     = 0.000E+00
 gamma     =   0.00000
 trial     =   1.00000
 opt step  =   0.84165  (harmonic =   0.84165) maximal distance =0.00002428
 next E    =   -68.038767   (d E  =  -0.00003)


--------------------------------------------------------------------------------------------------------


  
 reached required accuracy - stopping structural energy minimisation
     LOOP+:  cpu time   43.5933: real time   43.5939
    4ORBIT:  cpu time    0.0000: real time    0.0000
 


 total charge     
 
# of ion       s       p       d       tot
------------------------------------------
    1        0.168   6.149   4.965  11.283
    2        0.173   6.145   4.972  11.289
    3        1.733   4.404   0.000   6.137
    4        1.733   4.404   0.000   6.137
    5        1.733   4.400   0.000   6.133
    6        1.733   4.400   0.000   6.133
--------------------------------------------------
tot          7.273  29.902   9.937  47.112
 


 magnetization (x)
 
# of ion       s       p       d       tot
------------------------------------------
    1       -0.022  -0.018  -4.581  -4.621
    2        0.023   0.016   4.578   4.617
    3        0.003   0.025   0.000   0.027
    4        0.003   0.025   0.000   0.027
    5       -0.003  -0.021   0.000  -0.024
    6       -0.003  -0.021   0.000  -0.024
--------------------------------------------------
tot         -0.001   0.006  -0.003   0.003
 

 total amount of memory used by VASP MPI-rank0    52961. kBytes
=======================================================================

   base      :      30000. kBytes
   nonl-proj :       9773. kBytes
   fftplans  :       3220. kBytes
   grid      :       6579. kBytes
   one-center:        186. kBytes
   wavefun   :       3203. kBytes
 
  
  
 General timing and accounting informations for this job:
 ========================================================
  
                  Total CPU time used (sec):      119.256
                            User time (sec):       82.250
                          System time (sec):       37.005
                         Elapsed time (sec):      119.327
  
                   Maximum memory used (kb):       84492.
                   Average memory used (kb):           0.
  
                          Minor page faults:        20645
                          Major page faults:            8
                 Voluntary context switches:          301
