       N       E                     dE             d eps       ncg     rms          rms(c)
DAV:   1     0.674432647952E+03    0.67443E+03   -0.33764E+04   144   0.185E+03
DAV:   2     0.840132160090E+01   -0.66603E+03   -0.64817E+03   168   0.499E+02
DAV:   3    -0.394921354387E+02   -0.47893E+02   -0.47727E+02   144   0.152E+02
DAV:   4    -0.401209363261E+02   -0.62880E+00   -0.62838E+00   192   0.192E+01
DAV:   5    -0.401307105131E+02   -0.97742E-02   -0.97742E-02   144   0.233E+00    0.225E+01
DAV:   6    -0.382447894315E+02    0.18859E+01   -0.16099E+01   216   0.317E+01    0.144E+01
DAV:   7    -0.389629130542E+02   -0.71812E+00   -0.16810E+00   168   0.105E+01    0.111E+01
DAV:   8    -0.389726480890E+02   -0.97350E-02   -0.47972E-01   192   0.573E+00    0.481E+00
DAV:   9    -0.391670605381E+02   -0.19441E+00   -0.60286E-02   168   0.237E+00    0.132E+00
DAV:  10    -0.391665662367E+02    0.49430E-03   -0.15579E-02   144   0.112E+00    0.263E-01
DAV:  11    -0.391668609672E+02   -0.29473E-03   -0.27912E-03   144   0.340E-01    0.116E-01
DAV:  12    -0.391669831633E+02   -0.12220E-03   -0.81215E-05   168   0.106E-01    0.537E-02
DAV:  13    -0.391670556949E+02   -0.72532E-04   -0.11002E-04   144   0.609E-02    0.224E-02
DAV:  14    -0.391670638211E+02   -0.81262E-05   -0.14177E-05   168   0.316E-02    0.925E-03
DAV:  15    -0.391670636732E+02    0.14790E-06   -0.24501E-06   144   0.996E-03    0.340E-03
DAV:  16    -0.391670639816E+02   -0.30838E-06   -0.26287E-07   144   0.323E-03    0.165E-03
DAV:  17    -0.391670639573E+02    0.24234E-07   -0.42493E-08   144   0.146E-03
   1 F= -.39167064E+02 E0= -.39167064E+02  d E =-.391671E+02  mag=     0.0000
       N       E                     dE             d eps       ncg     rms          rms(c)
DAV:   1    -0.392754457505E+02   -0.10838E+00   -0.47327E+00   144   0.159E+01    0.253E+00
DAV:   2    -0.392030387116E+02    0.72407E-01   -0.18218E-01   192   0.324E+00    0.147E+00
DAV:   3    -0.391901538520E+02    0.12885E-01   -0.23665E-02   168   0.141E+00    0.776E-01
DAV:   4    -0.391849682318E+02    0.51856E-02   -0.46010E-03   168   0.483E-01    0.341E-01
DAV:   5    -0.391843362065E+02    0.63203E-03   -0.13164E-03   216   0.295E-01    0.146E-01
DAV:   6    -0.391843665217E+02   -0.30315E-04   -0.11446E-04   144   0.701E-02    0.608E-02
DAV:   7    -0.391843717589E+02   -0.52373E-05   -0.93003E-06   192   0.222E-02    0.312E-02
DAV:   8    -0.391843740409E+02   -0.22820E-05   -0.17924E-06   168   0.112E-02    0.603E-03
DAV:   9    -0.391843743630E+02   -0.32207E-06   -0.48234E-07   168   0.430E-03    0.156E-03
DAV:  10    -0.391843744423E+02   -0.79322E-07   -0.44122E-08    96   0.164E-03
   2 F= -.39184374E+02 E0= -.39184374E+02  d E =-.173105E-01  mag=     0.0000
       N       E                     dE             d eps       ncg     rms          rms(c)
DAV:   1    -0.392218863857E+02   -0.37512E-01   -0.17735E+00   144   0.976E+00    0.155E+00
DAV:   2    -0.391945263389E+02    0.27360E-01   -0.67871E-02   192   0.199E+00    0.910E-01
DAV:   3    -0.391896939133E+02    0.48324E-02   -0.90037E-03   168   0.862E-01    0.482E-01
DAV:   4    -0.391877442884E+02    0.19496E-02   -0.17071E-03   168   0.295E-01    0.212E-01
DAV:   5    -0.391875003753E+02    0.24391E-03   -0.50378E-04   192   0.182E-01    0.885E-02
DAV:   6    -0.391875124947E+02   -0.12119E-04   -0.48771E-05   144   0.482E-02    0.369E-02
DAV:   7    -0.391875147025E+02   -0.22079E-05   -0.34377E-06   192   0.137E-02    0.188E-02
DAV:   8    -0.391875155658E+02   -0.86323E-06   -0.68581E-07   168   0.695E-03    0.368E-03
DAV:   9    -0.391875157031E+02   -0.13733E-06   -0.18089E-07   168   0.264E-03    0.960E-04
DAV:  10    -0.391875157379E+02   -0.34796E-07   -0.16406E-08    96   0.995E-04
   3 F= -.39187516E+02 E0= -.39187516E+02  d E =-.204518E-01  mag=     0.0000
       N       E                     dE             d eps       ncg     rms          rms(c)
DAV:   1    -0.392854614105E+02   -0.97946E-01   -0.29480E+00   144   0.140E+01    0.265E+00
DAV:   2    -0.392019683172E+02    0.83493E-01   -0.22923E-01   192   0.373E+00    0.159E+00
DAV:   3    -0.391973958895E+02    0.45724E-02   -0.20950E-02   168   0.149E+00    0.666E-01
DAV:   4    -0.391943138626E+02    0.30820E-02   -0.30675E-03   192   0.430E-01    0.390E-01
DAV:   5    -0.391934683096E+02    0.84555E-03   -0.12770E-03   216   0.286E-01    0.136E-01
DAV:   6    -0.391934981619E+02   -0.29852E-04   -0.11953E-04   168   0.969E-02    0.469E-02
DAV:   7    -0.391935022214E+02   -0.40596E-05   -0.11102E-05   192   0.246E-02    0.261E-02
DAV:   8    -0.391935044812E+02   -0.22598E-05   -0.16856E-06   144   0.113E-02    0.427E-03
DAV:   9    -0.391935047094E+02   -0.22814E-06   -0.32959E-07   168   0.546E-03    0.149E-03
DAV:  10    -0.391935047287E+02   -0.19313E-07   -0.51234E-08   120   0.183E-03
   4 F= -.39193505E+02 E0= -.39193505E+02  d E =-.598899E-02  mag=    -0.0000
       N       E                     dE             d eps       ncg     rms          rms(c)
DAV:   1    -0.392092473042E+02   -0.15743E-01   -0.48766E-01   144   0.566E+00    0.107E+00
DAV:   2    -0.391954569836E+02    0.13790E-01   -0.38278E-02   192   0.151E+00    0.638E-01
DAV:   3    -0.391947048736E+02    0.75211E-03   -0.34822E-03   168   0.607E-01    0.269E-01
DAV:   4    -0.391941999805E+02    0.50489E-03   -0.49960E-04   192   0.172E-01    0.157E-01
DAV:   5    -0.391940599655E+02    0.14001E-03   -0.20817E-04   192   0.116E-01    0.547E-02
DAV:   6    -0.391940658654E+02   -0.58999E-05   -0.19476E-05   144   0.386E-02    0.190E-02
DAV:   7    -0.391940663652E+02   -0.49977E-06   -0.18389E-06   192   0.991E-03    0.108E-02
DAV:   8    -0.391940667501E+02   -0.38492E-06   -0.28299E-07   120   0.472E-03    0.186E-03
DAV:   9    -0.391940668002E+02   -0.50069E-07   -0.59799E-08    96   0.257E-03
   5 F= -.39194067E+02 E0= -.39194067E+02  d E =-.655106E-02  mag=     0.0000
       N       E                     dE             d eps       ncg     rms          rms(c)
DAV:   1    -0.391969413680E+02   -0.28746E-02   -0.50385E-01   144   0.486E+00    0.455E-01
DAV:   2    -0.391954234492E+02    0.15179E-02   -0.14441E-02   192   0.863E-01    0.256E-01
DAV:   3    -0.391951679166E+02    0.25553E-03   -0.62416E-04   168   0.248E-01    0.130E-01
DAV:   4    -0.391950342208E+02    0.13370E-03   -0.96582E-05   144   0.742E-02    0.638E-02
DAV:   5    -0.391950084751E+02    0.25746E-04   -0.38557E-05   192   0.495E-02    0.237E-02
DAV:   6    -0.391950097207E+02   -0.12456E-05   -0.40302E-06   192   0.142E-02    0.917E-03
DAV:   7    -0.391950100486E+02   -0.32792E-06   -0.27424E-07   144   0.393E-03    0.494E-03
DAV:   8    -0.391950101056E+02   -0.56930E-07   -0.35159E-08    72   0.174E-03
   6 F= -.39195010E+02 E0= -.39195010E+02  d E =-.943305E-03  mag=    -0.0000
       N       E                     dE             d eps       ncg     rms          rms(c)
DAV:   1    -0.392011343579E+02   -0.61243E-02   -0.14402E+00   144   0.822E+00    0.771E-01
DAV:   2    -0.391967433007E+02    0.43911E-02   -0.41585E-02   192   0.146E+00    0.432E-01
DAV:   3    -0.391960086605E+02    0.73464E-03   -0.18045E-03   168   0.426E-01    0.219E-01
DAV:   4    -0.391956257020E+02    0.38296E-03   -0.27958E-04   144   0.126E-01    0.108E-01
DAV:   5    -0.391955515592E+02    0.74143E-04   -0.11091E-04   216   0.837E-02    0.405E-02
DAV:   6    -0.391955554894E+02   -0.39302E-05   -0.10582E-05   192   0.219E-02    0.154E-02
DAV:   7    -0.391955561859E+02   -0.69653E-06   -0.76660E-07   144   0.650E-03    0.841E-03
DAV:   8    -0.391955563425E+02   -0.15660E-06   -0.99176E-08    96   0.290E-03    0.175E-03
DAV:   9    -0.391955563733E+02   -0.30820E-07   -0.43717E-08    72   0.147E-03
   7 F= -.39195556E+02 E0= -.39195556E+02  d E =-.148957E-02  mag=    -0.0000
       N       E                     dE             d eps       ncg     rms          rms(c)
DAV:   1    -0.391956025855E+02   -0.46243E-04   -0.10453E-02   144   0.701E-01    0.659E-02
DAV:   2    -0.391955704728E+02    0.32113E-04   -0.29724E-04   192   0.125E-01    0.376E-02
DAV:   3    -0.391955651375E+02    0.53353E-05   -0.13137E-05   168   0.354E-02    0.189E-02
DAV:   4    -0.391955623074E+02    0.28301E-05   -0.19883E-06   144   0.107E-02    0.933E-03
DAV:   5    -0.391955615974E+02    0.71001E-06   -0.81807E-07   192   0.721E-03    0.341E-03
DAV:   6    -0.391955616543E+02   -0.56883E-07   -0.82130E-08   120   0.207E-03
   8 F= -.39195562E+02 E0= -.39195562E+02  d E =-.149485E-02  mag=     0.0000
       N       E                     dE             d eps       ncg     rms          rms(c)
DAV:   1    -0.391964317770E+02   -0.87018E-03   -0.70791E-02   144   0.200E+00    0.266E-01
DAV:   2    -0.391956610307E+02    0.77075E-03   -0.36856E-03   144   0.442E-01    0.145E-01
DAV:   3    -0.391956231207E+02    0.37910E-04   -0.26199E-04   168   0.167E-01    0.684E-02
DAV:   4    -0.391956026248E+02    0.20496E-04   -0.24069E-05   168   0.380E-02    0.415E-02
DAV:   5    -0.391955947807E+02    0.78440E-05   -0.76372E-06   168   0.218E-02    0.151E-02
DAV:   6    -0.391955952169E+02   -0.43614E-06   -0.92575E-07   192   0.720E-03    0.311E-03
DAV:   7    -0.391955951541E+02    0.62775E-07   -0.69366E-08    96   0.217E-03
   9 F= -.39195595E+02 E0= -.39195595E+02  d E =-.334998E-04  mag=     0.0000
       N       E                     dE             d eps       ncg     rms          rms(c)
DAV:   1    -0.391956860427E+02   -0.90826E-04   -0.69697E-03   144   0.626E-01    0.835E-02
DAV:   2    -0.391956100728E+02    0.75970E-04   -0.36416E-04   144   0.139E-01    0.454E-02
DAV:   3    -0.391956064569E+02    0.36159E-05   -0.25917E-05   168   0.527E-02    0.214E-02
DAV:   4    -0.391956044689E+02    0.19880E-05   -0.23792E-06   168   0.119E-02    0.130E-02
DAV:   5    -0.391956040282E+02    0.44073E-06   -0.74434E-07   168   0.681E-03    0.476E-03
DAV:   6    -0.391956040065E+02    0.21686E-07   -0.82409E-08    96   0.226E-03
  10 F= -.39195604E+02 E0= -.39195604E+02  d E =-.423522E-04  mag=     0.0000
