 vasp.5.4.4.18Apr17-6-g9f103f2a35 (build Apr 27 2017 11:13:10) complex          
  
 executed on           IFC91_ompi date 2020.05.13  12:18:52
 running on   12 total cores
 distrk:  each k-point on   12 cores,    1 groups
 distr:  one band on NCORES_PER_BAND=   1 cores,   12 groups


--------------------------------------------------------------------------------------------------------


 INCAR:
 POTCAR:    PAW_PBE Mn_pv 02Aug2007               
 POTCAR:    PAW_PBE F 08Apr2002                   

 ----------------------------------------------------------------------------- 
|                                                                             |
|           W    W    AA    RRRRR   N    N  II  N    N   GGGG   !!!           |
|           W    W   A  A   R    R  NN   N  II  NN   N  G    G  !!!           |
|           W    W  A    A  R    R  N N  N  II  N N  N  G       !!!           |
|           W WW W  AAAAAA  RRRRR   N  N N  II  N  N N  G  GGG   !            |
|           WW  WW  A    A  R   R   N   NN  II  N   NN  G    G                |
|           W    W  A    A  R    R  N    N  II  N    N   GGGG   !!!           |
|                                                                             |
|      For optimal performance we recommend to set                            |
|        NCORE= 4 - approx SQRT( number of cores)                             |
|      NCORE specifies how many cores store one orbital (NPAR=cpu/NCORE).     |
|      This setting can  greatly improve the performance of VASP for DFT.     |
|      The default,   NCORE=1            might be grossly inefficient         |
|      on modern multi-core architectures or massively parallel machines.     |
|      Do your own testing !!!!                                               |
|      Unfortunately you need to use the default for GW and RPA calculations. |
|      (for HF NCORE is supported but not extensively tested yet)             |
|                                                                             |
 ----------------------------------------------------------------------------- 

 POTCAR:    PAW_PBE Mn_pv 02Aug2007               
   VRHFIN =Mn: 3p4s3d                                                           
   LEXCH  = PE                                                                  
   EATOM  =  2025.2664 eV,  148.8529 Ry                                         
                                                                                
   TITEL  = PAW_PBE Mn_pv 02Aug2007                                             
   LULTRA =        F    use ultrasoft PP ?                                      
   IUNSCR =        1    unscreen: 0-lin 1-nonlin 2-no                           
   RPACOR =    2.080    partial core radius                                     
   POMASS =   54.938; ZVAL   =   13.000    mass and valenz                      
   RCORE  =    2.300    outmost cutoff radius                                   
   RWIGS  =    2.500; RWIGS  =    1.323    wigner-seitz radius (au A)           
   ENMAX  =  269.864; ENMIN  =  202.398 eV                                      
   ICORE  =        3    local potential                                         
   LCOR   =        T    correct aug charges                                     
   LPAW   =        T    paw PP                                                  
   EAUG   =  569.085                                                            
   DEXC   =    0.000                                                            
   RMAX   =    2.343    core radius for proj-oper                               
   RAUG   =    1.300    factor for augmentation sphere                          
   RDEP   =    2.338    radius for radial grids                                 
   RDEPT  =    1.798    core radius for aug-charge                              
                                                                                
   Atomic configuration                                                         
    8 entries                                                                   
     n  l   j            E        occ.                                          
     1  0  0.50     -6424.8287   2.0000                                         
     2  0  0.50      -739.1154   2.0000                                         
     2  1  1.50      -625.3949   6.0000                                         
     3  0  0.50       -81.6100   2.0000                                         
     3  1  1.50       -50.4667   6.0000                                         
     3  2  2.50        -3.3745   6.0000                                         
     4  0  0.50        -4.1331   1.0000                                         
     4  3  2.50        -1.3606   0.0000                                         
   Description                                                                  
     l       E           TYP  RCUT    TYP  RCUT                                 
     1    -50.4666628     23  2.000                                             
     1     -1.3605826     23  2.000                                             
     2     -3.3744729     23  2.300                                             
     2     -4.7350555     23  2.300                                             
     0     -4.1331431     23  2.300                                             
     0      7.6656591     23  2.300                                             
     3      9.5240782     23  2.300                                             
  local pseudopotential read in
  partial core-charges read in
  partial kinetic energy density read in
  atomic valenz-charges read in
  non local Contribution for L=           1  read in
    real space projection operators read in
  non local Contribution for L=           1  read in
    real space projection operators read in
  non local Contribution for L=           2  read in
    real space projection operators read in
  non local Contribution for L=           2  read in
    real space projection operators read in
  non local Contribution for L=           0  read in
    real space projection operators read in
  non local Contribution for L=           0  read in
    real space projection operators read in
    PAW grid and wavefunctions read in
 
   number of l-projection  operators is LMAX  =           6
   number of lm-projection operators is LMMAX =          18
 
 POTCAR:    PAW_PBE F 08Apr2002                   
   VRHFIN =F: s2p5                                                              
   LEXCH  = PE                                                                  
   EATOM  =   659.6475 eV,   48.4827 Ry                                         
                                                                                
   TITEL  = PAW_PBE F 08Apr2002                                                 
   LULTRA =        F    use ultrasoft PP ?                                      
   IUNSCR =        1    unscreen: 0-lin 1-nonlin 2-no                           
   RPACOR =    1.200    partial core radius                                     
   POMASS =   18.998; ZVAL   =    7.000    mass and valenz                      
   RCORE  =    1.520    outmost cutoff radius                                   
   RWIGS  =    1.500; RWIGS  =    0.794    wigner-seitz radius (au A)           
   ENMAX  =  400.000; ENMIN  =  300.000 eV                                      
   ICORE  =        2    local potential                                         
   LCOR   =        T    correct aug charges                                     
   LPAW   =        T    paw PP                                                  
   EAUG   =  613.614                                                            
   RMAX   =    1.555    core radius for proj-oper                               
   RAUG   =    1.300    factor for augmentation sphere                          
   RDEP   =    1.539    radius for radial grids                                 
   RDEPT  =    1.299    core radius for aug-charge                              
                                                                                
   Atomic configuration                                                         
    4 entries                                                                   
     n  l   j            E        occ.                                          
     1  0  0.50      -663.3661   2.0000                                         
     2  0  0.50       -29.8995   2.0000                                         
     2  1  0.50       -11.1114   5.0000                                         
     3  2  1.50       -10.8847   0.0000                                         
   Description                                                                  
     l       E           TYP  RCUT    TYP  RCUT                                 
     0    -29.8995018     23  1.200                                             
     0     -9.5240782     23  1.200                                             
     1    -11.1113914     23  1.520                                             
     1      1.3605826     23  1.520                                             
     2    -10.8846608      7  1.500                                             
  local pseudopotential read in
  partial core-charges read in
  partial kinetic energy density read in
  atomic valenz-charges read in
  non local Contribution for L=           0  read in
    real space projection operators read in
  non local Contribution for L=           0  read in
    real space projection operators read in
  non local Contribution for L=           1  read in
    real space projection operators read in
  non local Contribution for L=           1  read in
    real space projection operators read in
    PAW grid and wavefunctions read in
 
   number of l-projection  operators is LMAX  =           4
   number of lm-projection operators is LMMAX =           8
 

 ----------------------------------------------------------------------------- 
|                                                                             |
|  ADVICE TO THIS USER RUNNING 'VASP/VAMP'   (HEAR YOUR MASTER'S VOICE ...):  |
|                                                                             |
|      You enforced a specific xc-type in the INCAR file,                     |
|      a different type was found on the POTCAR file                          |
|          I HOPE YOU KNOW, WHAT YOU ARE  DOING                               |
|                                                                             |
 ----------------------------------------------------------------------------- 

  PAW_PBE Mn_pv 02Aug2007               :
 energy of atom  1       EATOM=-2025.2664
 kinetic energy error for atom=    0.0047 (will be added to EATOM!!)
  PAW_PBE F 08Apr2002                   :
 energy of atom  2       EATOM= -659.6475
 kinetic energy error for atom=    0.0256 (will be added to EATOM!!)
 
 
 POSCAR: Mn  F                                   
  positions in cartesian coordinates
  No initial velocities read in
 exchange correlation table for  LEXCH =       14
   RHO(1)=    0.500       N(1)  =     2000
   RHO(2)=  100.500       N(2)  =     4000
 


--------------------------------------------------------------------------------------------------------


 ion  position               nearest neighbor table
   1  0.500  0.500  0.500-   3 2.10   4 2.10   5 2.13   6 2.13   5 2.13   6 2.13
   2  0.000  0.000  0.000-   5 2.10   6 2.10   3 2.13   4 2.13   3 2.13   4 2.13
   3  0.195  0.805  0.500-   1 2.10   2 2.13   2 2.13
   4  0.805  0.195  0.500-   1 2.10   2 2.13   2 2.13
   5  0.305  0.305  0.000-   2 2.10   1 2.13   1 2.13
   6  0.695  0.695  0.000-   2 2.10   1 2.13   1 2.13
 
  LATTYP: Found a simple tetragonal cell.
 ALAT       =     4.8831441434
 C/A-ratio  =     0.6759574529
  
  Lattice vectors:
  
 A1 = (   4.8831441434,   0.0000000000,   0.0000000000)
 A2 = (   0.0000000000,   4.8831441434,   0.0000000000)
 A3 = (   0.0000000000,   0.0000000000,   3.3007976771)


Analysis of symmetry for initial positions (statically):
=====================================================================
 Subroutine PRICEL returns:
 Original cell was already a primitive cell.
 

 Routine SETGRP: Setting up the symmetry group for a 
 simple tetragonal supercell.


 Subroutine GETGRP returns: Found 16 space group operations
 (whereof  8 operations were pure point group operations)
 out of a pool of 16 trial point group operations.


The static configuration has the point symmetry D_2h.
 The point group associated with its full space group is D_4h.


Analysis of symmetry for dynamics (positions and initial velocities):
=====================================================================
 Subroutine PRICEL returns:
 Original cell was already a primitive cell.
 

 Routine SETGRP: Setting up the symmetry group for a 
 simple tetragonal supercell.


 Subroutine GETGRP returns: Found 16 space group operations
 (whereof  8 operations were pure point group operations)
 out of a pool of 16 trial point group operations.


The dynamic configuration has the point symmetry D_2h.
 The point group associated with its full space group is D_4h.


Analysis of structural, dynamic, and magnetic symmetry:
=====================================================================
 Subroutine PRICEL returns:
 Original cell was already a primitive cell.
 

 Routine SETGRP: Setting up the symmetry group for a 
 simple tetragonal supercell.


 Subroutine GETGRP returns: Found 16 space group operations
 (whereof  8 operations were pure point group operations)
 out of a pool of 16 trial point group operations.


The magnetic configuration has the point symmetry D_2h.
 The point group associated with its full space group is D_4h.


 Subroutine INISYM returns: Found 16 space group operations
 (whereof  8 operations are pure point group operations),
 and found     1 'primitive' translations

 
 
 KPOINTS: KPOINTS created by Atomic Simulation Env

Automatic generation of k-mesh.
Space group operators:
 irot       det(A)        alpha          n_x          n_y          n_z        tau_x        tau_y        tau_z
    1     1.000000     0.000001     1.000000     0.000000     0.000000     0.000000     0.000000     0.000000
    2    -1.000000     0.000001     1.000000     0.000000     0.000000     0.000000     0.000000     0.000000
    3     1.000000   179.999999     0.000000     0.000000     1.000000     0.000000     0.000000     0.000000
    4    -1.000000   179.999999     0.000000     0.000000     1.000000     0.000000     0.000000     0.000000
    5     1.000000   180.000000     0.707107     0.707107     0.000000     0.000000     0.000000     0.000000
    6    -1.000000   180.000000     0.707107     0.707107     0.000000     0.000000     0.000000     0.000000
    7     1.000000   180.000000     0.707107    -0.707107     0.000000     0.000000     0.000000     0.000000
    8    -1.000000   180.000000     0.707107    -0.707107     0.000000     0.000000     0.000000     0.000000
    9     1.000000    90.000000     0.000000     0.000000    -1.000000     0.500000     0.500000     0.500000
   10    -1.000000    90.000000     0.000000     0.000000    -1.000000     0.500000     0.500000     0.500000
   11     1.000000    90.000000     0.000000     0.000000     1.000000     0.500000     0.500000     0.500000
   12    -1.000000    90.000000     0.000000     0.000000     1.000000     0.500000     0.500000     0.500000
   13     1.000000   180.000000     0.000000     1.000000     0.000000     0.500000     0.500000     0.500000
   14    -1.000000   180.000000     0.000000     1.000000     0.000000     0.500000     0.500000     0.500000
   15     1.000000   180.000000     1.000000     0.000000     0.000000     0.500000     0.500000     0.500000
   16    -1.000000   180.000000     1.000000     0.000000     0.000000     0.500000     0.500000     0.500000
 
 Subroutine IBZKPT returns following result:
 ===========================================
 
 Found      1 irreducible k-points:
 
 Following reciprocal coordinates:
            Coordinates               Weight
  0.000000  0.000000  0.250000      2.000000
 
 Following cartesian coordinates:
            Coordinates               Weight
  0.000000  0.000000  0.075739      2.000000
 


--------------------------------------------------------------------------------------------------------




 Dimension of arrays:
   k-points           NKPTS =      1   k-points in BZ     NKDIM =      1   number of bands    NBANDS=     36
   number of dos      NEDOS =    301   number of ions     NIONS =      6
   non local maximal  LDIM  =      6   non local SUM 2l+1 LMDIM =     18
   total plane-waves  NPLWV =  18000
   max r-space proj   IRMAX =      1   max aug-charges    IRDMAX=  55706
   dimension x,y,z NGX =    30 NGY =   30 NGZ =   20
   dimension x,y,z NGXF=    60 NGYF=   60 NGZF=   40
   support grid    NGXF=   120 NGYF=  120 NGZF=   80
   ions per type =               2   4
   NGX,Y,Z   is equivalent  to a cutoff of  10.21, 10.21, 10.07 a.u.
   NGXF,Y,Z  is equivalent  to a cutoff of  20.43, 20.43, 20.15 a.u.

 SYSTEM =  unknown system                          
 POSCAR =  Mn  F                                   

 Startparameter for this run:
   NWRITE =      2    write-flag & timer
   PREC   = normal    normal or accurate (medium, high low for compatibility)
   ISTART =      0    job   : 0-new  1-cont  2-samecut
   ICHARG =      2    charge: 1-file 2-atom 10-const
   ISPIN  =      2    spin polarized calculation?
   LNONCOLLINEAR =      F non collinear calculations
   LSORBIT =      F    spin-orbit coupling
   INIWAV =      1    electr: 0-lowe 1-rand  2-diag
   LASPH  =      T    aspherical Exc in radial PAW
   METAGGA=      F    non-selfconsistent MetaGGA calc.

 Electronic Relaxation 1
   ENCUT  =  600.0 eV  44.10 Ry    6.64 a.u.   9.75  9.75  6.59*2*pi/ulx,y,z
   ENINI  =  600.0     initial cutoff
   ENAUG  =  613.6 eV  augmentation charge cutoff
   NELM   =     60;   NELMIN=  2; NELMDL= -5     # of ELM steps 
   EDIFF  = 0.1E-06   stopping-criterion for ELM
   LREAL  =      F    real-space projection
   NLSPLINE    = F    spline interpolate recip. space projectors
   LCOMPAT=      F    compatible to vasp.4.4
   GGA_COMPAT  = T    GGA compatible to vasp.4.4-vasp.4.6
   LMAXPAW     = -100 max onsite density
   LMAXMIX     =    4 max onsite mixed and CHGCAR
   VOSKOWN=      0    Vosko Wilk Nusair interpolation
   ROPT   =    0.00000   0.00000
 Ionic relaxation
   EDIFFG = -.5E-02   stopping-criterion for IOM
   NSW    =     50    number of steps for IOM
   NBLOCK =      1;   KBLOCK =     50    inner block; outer block 
   IBRION =      2    ionic relax: 0-MD 1-quasi-New 2-CG
   NFREE  =      1    steps in history (QN), initial steepest desc. (CG)
   ISIF   =      3    stress and relaxation
   IWAVPR =     11    prediction:  0-non 1-charg 2-wave 3-comb
   ISYM   =      2    0-nonsym 1-usesym 2-fastsym
   LCORR  =      T    Harris-Foulkes like correction to forces

   POTIM  = 0.5000    time-step for ionic-motion
   TEIN   =    0.0    initial temperature
   TEBEG  =    0.0;   TEEND  =   0.0 temperature during run
   SMASS  =  -3.00    Nose mass-parameter (am)
   estimated Nose-frequenzy (Omega)   =  0.10E-29 period in steps =****** mass=  -0.545E-27a.u.
   SCALEE = 1.0000    scale energy and forces
   NPACO  =    256;   APACO  = 16.0  distance and # of slots for P.C.
   PSTRESS=    0.0 pullay stress

  Mass of Ions in am
   POMASS =  54.94 19.00
  Ionic Valenz
   ZVAL   =  13.00  7.00
  Atomic Wigner-Seitz radii
   RWIGS  =  -1.00 -1.00
  virtual crystal weights 
   VCA    =   1.00  1.00
   NELECT =      54.0000    total number of electrons
   NUPDOWN=      -1.0000    fix difference up-down

 DOS related values:
   EMIN   =  10.00;   EMAX   =-10.00  energy-range for DOS
   EFERMI =   0.00
   ISMEAR =     0;   SIGMA  =   0.02  broadening in eV -4-tet -1-fermi 0-gaus

 Electronic relaxation 2 (details)
   IALGO  =     38    algorithm
   LDIAG  =      T    sub-space diagonalisation (order eigenvalues)
   LSUBROT=      F    optimize rotation matrix (better conditioning)
   TURBO    =      0    0=normal 1=particle mesh
   IRESTART =      0    0=no restart 2=restart with 2 vectors
   NREBOOT  =      0    no. of reboots
   NMIN     =      0    reboot dimension
   EREF     =   0.00    reference energy to select bands
   IMIX   =      4    mixing-type and parameters
     AMIX     =   0.40;   BMIX     =  1.00
     AMIX_MAG =   1.60;   BMIX_MAG =  1.00
     AMIN     =   0.10
     WC   =   100.;   INIMIX=   1;  MIXPRE=   1;  MAXMIX= -45

 Intra band minimization:
   WEIMIN = 0.0010     energy-eigenvalue tresh-hold
   EBREAK =  0.69E-09  absolut break condition
   DEPER  =   0.30     relativ break condition  

   TIME   =   0.40     timestep for ELM

  volume/ion in A,a.u.               =      13.12        88.52
  Fermi-wavevector in a.u.,A,eV,Ry     =   1.443888  2.728552 28.365585  2.084812
  Thomas-Fermi vector in A             =   2.562245
 
 Write flags
   LWAVE        =      F    write WAVECAR
   LDOWNSAMPLE  =      F    k-point downsampling of WAVECAR
   LCHARG       =      F    write CHGCAR
   LVTOT        =      F    write LOCPOT, total local potential
   LVHAR        =      F    write LOCPOT, Hartree potential only
   LELF         =      F    write electronic localiz. function (ELF)
   LORBIT       =     11    0 simple, 1 ext, 2 COOP (PROOUT), +10 PAW based schemes


 Dipole corrections
   LMONO  =      F    monopole corrections only (constant potential shift)
   LDIPOL =      F    correct potential (dipole corrections)
   IDIPOL =      0    1-x, 2-y, 3-z, 4-all directions 
   EPSILON=  1.0000000 bulk dielectric constant

 LDA+U is selected, type is set to LDAUTYPE =  2
   angular momentum for each species LDAUL =     2   -1
   U (eV)           for each species LDAUU =   4.0  0.0
   J (eV)           for each species LDAUJ =   0.0  0.0
 Exchange correlation treatment:
   GGA     =    PS    GGA type
   LEXCH   =    14    internal setting for exchange type
   VOSKOWN=      0    Vosko Wilk Nusair interpolation
   LHFCALC =     F    Hartree Fock is set to
   LHFONE  =     F    Hartree Fock one center treatment
   AEXX    =    0.0000 exact exchange contribution

 Linear response parameters
   LEPSILON=     F    determine dielectric tensor
   LRPA    =     F    only Hartree local field effects (RPA)
   LNABLA  =     F    use nabla operator in PAW spheres
   LVEL    =     F    velocity operator in full k-point grid
   LINTERFAST=   F  fast interpolation
   KINTER  =     0    interpolate to denser k-point grid
   CSHIFT  =0.1000    complex shift for real part using Kramers Kronig
   OMEGAMAX=  -1.0    maximum frequency
   DEG_THRESHOLD= 0.2000000E-02 threshold for treating states as degnerate
   RTIME   =   -0.100 relaxation time in fs
  (WPLASMAI=    0.000 imaginary part of plasma frequency in eV, 0.658/RTIME)
   DFIELD  = 0.0000000 0.0000000 0.0000000 field for delta impulse in time
 
 Orbital magnetization related:
   ORBITALMAG=     F  switch on orbital magnetization
   LCHIMAG   =     F  perturbation theory with respect to B field
   DQ        =  0.001000  dq finite difference perturbation B field
   LLRAUG    =     F  two centre corrections for induced B field



--------------------------------------------------------------------------------------------------------


 conjugate gradient relaxation of ions
 charge density and potential will be updated during run
 spin polarized calculation
 Variant of blocked Davidson
 Davidson routine will perform the subspace rotation
 perform sub-space diagonalisation
    after iterative eigenvector-optimisation
 modified Broyden-mixing scheme, WC =      100.0
 initial mixing is a Kerker type mixing with AMIX =  0.4000 and BMIX =      1.0000
 Hartree-type preconditioning will be used
 using additional bands            9
 reciprocal scheme for non local part
 use partial core corrections
 calculate Harris-corrections to forces 
   (improved forces if not selfconsistent)
 use gradient corrections 
 use of overlap-Matrix (Vanderbilt PP)
 Gauss-broadening in eV      SIGMA  =   0.02


--------------------------------------------------------------------------------------------------------


  energy-cutoff  :      600.00
  volume of cell :       78.71
      direct lattice vectors                 reciprocal lattice vectors
     4.883144143  0.000000000  0.000000000     0.204786091  0.000000000  0.000000000
     0.000000000  4.883144143  0.000000000     0.000000000  0.204786091  0.000000000
     0.000000000  0.000000000  3.300797677     0.000000000  0.000000000  0.302957072

  length of vectors
     4.883144143  4.883144143  3.300797677     0.204786091  0.204786091  0.302957072


 
 k-points in units of 2pi/SCALE and weight: KPOINTS created by Atomic Simulation Env
   0.00000000  0.00000000  0.07573927       1.000
 
 k-points in reciprocal lattice and weights: KPOINTS created by Atomic Simulation Env
   0.00000000  0.00000000  0.25000000       1.000
 
 position of ions in fractional coordinates (direct lattice) 
   0.50000000  0.50000000  0.50000000
   0.00000000  0.00000000  0.00000000
   0.19544394  0.80455606  0.50000000
   0.80455606  0.19544394  0.50000000
   0.30455606  0.30455606  0.00000000
   0.69544394  0.69544394  0.00000000
 
 position of ions in cartesian coordinates  (Angst):
   2.44157207  2.44157207  1.65039884
   0.00000000  0.00000000  0.00000000
   0.95438093  3.92876321  1.65039884
   3.92876321  0.95438093  1.65039884
   1.48719114  1.48719114  0.00000000
   3.39595300  3.39595300  0.00000000
 


--------------------------------------------------------------------------------------------------------


 k-point  1 :   0.0000 0.0000 0.2500  plane waves:    2609

 maximum and minimum number of plane-waves per node :      2609     2609

 maximum number of plane-waves:      2609
 maximum index in each direction: 
   IXMAX=    9   IYMAX=    9   IZMAX=    6
   IXMIN=   -9   IYMIN=   -9   IZMIN=   -6


 serial   3D FFT for wavefunctions
 parallel 3D FFT for charge:
    minimum data exchange during FFTs selected (reduces bandwidth)


 total amount of memory used by VASP MPI-rank0    35790. kBytes
=======================================================================

   base      :      30000. kBytes
   nonl-proj :       1004. kBytes
   fftplans  :       1875. kBytes
   grid      :       2467. kBytes
   one-center:        186. kBytes
   wavefun   :        258. kBytes
 
     INWAV:  cpu time    0.0000: real time    0.0000
 Broyden mixing: mesh for mixing (old mesh)
   NGX = 19   NGY = 19   NGZ = 13
  (NGX  = 60   NGY  = 60   NGZ  = 40)
  gives a total of   4693 points

 initial charge density was supplied:
 charge density of overlapping atoms calculated
 number of electron      54.0000000 magnetization       0.0000000
 keeping initial charge density in first step


--------------------------------------------------------------------------------------------------------


 Maximum index for augmentation-charges         4263 (set IRDMAX)


--------------------------------------------------------------------------------------------------------


 First call to EWALD:  gamma=   0.414
 Maximum number of real-space cells 2x 2x 3
 Maximum number of reciprocal cells 3x 3x 2

    FEWALD:  cpu time    0.0010: real time    0.0010


--------------------------------------- Iteration      1(   1)  ---------------------------------------


    POTLOK:  cpu time    0.0179: real time    0.0179
    SETDIJ:  cpu time    0.6746: real time    0.6746
atom =   1  type =  1  l = 2
 
 onsite density matrix
 
spin component  1
 
  0.2835  0.0000  0.0000  0.0000  0.0000
  0.0000  0.2835  0.0000  0.0000  0.0000
  0.0000  0.0000  0.2835  0.0000  0.0000
  0.0000  0.0000  0.0000  0.2835  0.0000
  0.0000  0.0000  0.0000  0.0000  0.2835
 
spin component  2
 
  0.7694  0.0000  0.0000  0.0000  0.0000
  0.0000  0.7694  0.0000  0.0000  0.0000
  0.0000  0.0000  0.7694  0.0000  0.0000
  0.0000  0.0000  0.0000  0.7694  0.0000
  0.0000  0.0000  0.0000  0.0000  0.7694
 
 occupancies and eigenvectors
 
  o =  0.2835  v =  1.0000  0.0000  0.0000  0.0000  0.0000  0.0000  0.0000  0.0000  0.0000  0.0000      0.0000  0.0000  0.0000  0.0000  0.0000  0.0000  0.0000  0.0000  0.0000  0.0000
  o =  0.2835  v =  0.0000  1.0000  0.0000  0.0000  0.0000  0.0000  0.0000  0.0000  0.0000  0.0000      0.0000  0.0000  0.0000  0.0000  0.0000  0.0000  0.0000  0.0000  0.0000  0.0000
  o =  0.2835  v =  0.0000  0.0000  1.0000  0.0000  0.0000  0.0000  0.0000  0.0000  0.0000  0.0000      0.0000  0.0000  0.0000  0.0000  0.0000  0.0000  0.0000  0.0000  0.0000  0.0000
  o =  0.2835  v =  0.0000  0.0000  0.0000  1.0000  0.0000  0.0000  0.0000  0.0000  0.0000  0.0000      0.0000  0.0000  0.0000  0.0000  0.0000  0.0000  0.0000  0.0000  0.0000  0.0000
  o =  0.2835  v =  0.0000  0.0000  0.0000  0.0000  1.0000  0.0000  0.0000  0.0000  0.0000  0.0000      0.0000  0.0000  0.0000  0.0000  0.0000  0.0000  0.0000  0.0000  0.0000  0.0000
  o =  0.7694  v =  0.0000  0.0000  0.0000  0.0000  0.0000  1.0000  0.0000  0.0000  0.0000  0.0000      0.0000  0.0000  0.0000  0.0000  0.0000  0.0000  0.0000  0.0000  0.0000  0.0000
  o =  0.7694  v =  0.0000  0.0000  0.0000  0.0000  0.0000  0.0000  1.0000  0.0000  0.0000  0.0000      0.0000  0.0000  0.0000  0.0000  0.0000  0.0000  0.0000  0.0000  0.0000  0.0000
  o =  0.7694  v =  0.0000  0.0000  0.0000  0.0000  0.0000  0.0000  0.0000  1.0000  0.0000  0.0000      0.0000  0.0000  0.0000  0.0000  0.0000  0.0000  0.0000  0.0000  0.0000  0.0000
  o =  0.7694  v =  0.0000  0.0000  0.0000  0.0000  0.0000  0.0000  0.0000  0.0000  1.0000  0.0000      0.0000  0.0000  0.0000  0.0000  0.0000  0.0000  0.0000  0.0000  0.0000  0.0000
  o =  0.7694  v =  0.0000  0.0000  0.0000  0.0000  0.0000  0.0000  0.0000  0.0000  0.0000  1.0000      0.0000  0.0000  0.0000  0.0000  0.0000  0.0000  0.0000  0.0000  0.0000  0.0000
atom =   2  type =  1  l = 2
 
 onsite density matrix
 
spin component  1
 
  0.7694  0.0000  0.0000  0.0000  0.0000
  0.0000  0.7694  0.0000  0.0000  0.0000
  0.0000  0.0000  0.7694  0.0000  0.0000
  0.0000  0.0000  0.0000  0.7694  0.0000
  0.0000  0.0000  0.0000  0.0000  0.7694
 
spin component  2
 
  0.2835  0.0000  0.0000  0.0000  0.0000
  0.0000  0.2835  0.0000  0.0000  0.0000
  0.0000  0.0000  0.2835  0.0000  0.0000
  0.0000  0.0000  0.0000  0.2835  0.0000
  0.0000  0.0000  0.0000  0.0000  0.2835
 
 occupancies and eigenvectors
 
  o =  0.2835  v =  0.0000  0.0000  0.0000  0.0000  0.0000  1.0000  0.0000  0.0000  0.0000  0.0000      0.0000  0.0000  0.0000  0.0000  0.0000  0.0000  0.0000  0.0000  0.0000  0.0000
  o =  0.2835  v =  0.0000  0.0000  0.0000  0.0000  0.0000  0.0000  1.0000  0.0000  0.0000  0.0000      0.0000  0.0000  0.0000  0.0000  0.0000  0.0000  0.0000  0.0000  0.0000  0.0000
  o =  0.2835  v =  0.0000  0.0000  0.0000  0.0000  0.0000  0.0000  0.0000  1.0000  0.0000  0.0000      0.0000  0.0000  0.0000  0.0000  0.0000  0.0000  0.0000  0.0000  0.0000  0.0000
  o =  0.2835  v =  0.0000  0.0000  0.0000  0.0000  0.0000  0.0000  0.0000  0.0000  1.0000  0.0000      0.0000  0.0000  0.0000  0.0000  0.0000  0.0000  0.0000  0.0000  0.0000  0.0000
  o =  0.2835  v =  0.0000  0.0000  0.0000  0.0000  0.0000  0.0000  0.0000  0.0000  0.0000  1.0000      0.0000  0.0000  0.0000  0.0000  0.0000  0.0000  0.0000  0.0000  0.0000  0.0000
  o =  0.7694  v =  1.0000  0.0000  0.0000  0.0000  0.0000  0.0000  0.0000  0.0000  0.0000  0.0000      0.0000  0.0000  0.0000  0.0000  0.0000  0.0000  0.0000  0.0000  0.0000  0.0000
  o =  0.7694  v =  0.0000  1.0000  0.0000  0.0000  0.0000  0.0000  0.0000  0.0000  0.0000  0.0000      0.0000  0.0000  0.0000  0.0000  0.0000  0.0000  0.0000  0.0000  0.0000  0.0000
  o =  0.7694  v =  0.0000  0.0000  1.0000  0.0000  0.0000  0.0000  0.0000  0.0000  0.0000  0.0000      0.0000  0.0000  0.0000  0.0000  0.0000  0.0000  0.0000  0.0000  0.0000  0.0000
  o =  0.7694  v =  0.0000  0.0000  0.0000  1.0000  0.0000  0.0000  0.0000  0.0000  0.0000  0.0000      0.0000  0.0000  0.0000  0.0000  0.0000  0.0000  0.0000  0.0000  0.0000  0.0000
  o =  0.7694  v =  0.0000  0.0000  0.0000  0.0000  1.0000  0.0000  0.0000  0.0000  0.0000  0.0000      0.0000  0.0000  0.0000  0.0000  0.0000  0.0000  0.0000  0.0000  0.0000  0.0000
     EDDAV:  cpu time    0.0398: real time    0.0610
       DOS:  cpu time    0.0002: real time    0.0002
    --------------------------------------------
      LOOP:  cpu time    0.7324: real time    0.7536

 eigenvalue-minimisations  :   144
 total energy-change (2. order) : 0.6744326E+03  (-0.3376448E+04)
 number of electron      54.0000000 magnetization       0.0000000
 augmentation part       54.0000000 magnetization       0.0000000

 Free energy of the ion-electron system (eV)
  ---------------------------------------------------
  alpha Z        PSCENC =       196.13658257
  Ewald energy   TEWEN  =     -4178.31221721
  -Hartree energ DENC   =     -2146.41896641
  -exchange      EXHF   =         0.00000000
  -V(xc)+E(xc)   XCENC  =       293.25934242
  PAW double counting   =      5439.83165491    -5546.16339751
  entropy T*S    EENTRO =        -0.00000000
  eigenvalues    EBANDS =       -61.54889913
  atomic energy  EATOM  =      6677.64854832
  Solvation  Ediel_sol  =         0.00000000
  ---------------------------------------------------
  free energy    TOTEN  =       674.43264795 eV

  energy without entropy =      674.43264795  energy(sigma->0) =      674.43264795


--------------------------------------------------------------------------------------------------------




--------------------------------------- Iteration      1(   2)  ---------------------------------------


     EDDAV:  cpu time    0.0455: real time    0.0455
       DOS:  cpu time    0.0001: real time    0.0001
    --------------------------------------------
      LOOP:  cpu time    0.0456: real time    0.0456

 eigenvalue-minimisations  :   168
 total energy-change (2. order) :-0.6660313E+03  (-0.6481745E+03)
 number of electron      54.0000000 magnetization       0.0000000
 augmentation part       54.0000000 magnetization       0.0000000

 Free energy of the ion-electron system (eV)
  ---------------------------------------------------
  alpha Z        PSCENC =       196.13658257
  Ewald energy   TEWEN  =     -4178.31221721
  -Hartree energ DENC   =     -2146.41896641
  -exchange      EXHF   =         0.00000000
  -V(xc)+E(xc)   XCENC  =       293.25934242
  PAW double counting   =      5439.83165491    -5546.16339751
  entropy T*S    EENTRO =        -0.00000000
  eigenvalues    EBANDS =      -727.58022548
  atomic energy  EATOM  =      6677.64854832
  Solvation  Ediel_sol  =         0.00000000
  ---------------------------------------------------
  free energy    TOTEN  =         8.40132160 eV

  energy without entropy =        8.40132160  energy(sigma->0) =        8.40132160


--------------------------------------------------------------------------------------------------------




--------------------------------------- Iteration      1(   3)  ---------------------------------------


     EDDAV:  cpu time    0.0367: real time    0.0367
       DOS:  cpu time    0.0001: real time    0.0001
    --------------------------------------------
      LOOP:  cpu time    0.0368: real time    0.0368

 eigenvalue-minimisations  :   144
 total energy-change (2. order) :-0.4789346E+02  (-0.4772745E+02)
 number of electron      54.0000000 magnetization       0.0000000
 augmentation part       54.0000000 magnetization       0.0000000

 Free energy of the ion-electron system (eV)
  ---------------------------------------------------
  alpha Z        PSCENC =       196.13658257
  Ewald energy   TEWEN  =     -4178.31221721
  -Hartree energ DENC   =     -2146.41896641
  -exchange      EXHF   =         0.00000000
  -V(xc)+E(xc)   XCENC  =       293.25934242
  PAW double counting   =      5439.83165491    -5546.16339751
  entropy T*S    EENTRO =        -0.00000000
  eigenvalues    EBANDS =      -775.47368252
  atomic energy  EATOM  =      6677.64854832
  Solvation  Ediel_sol  =         0.00000000
  ---------------------------------------------------
  free energy    TOTEN  =       -39.49213544 eV

  energy without entropy =      -39.49213544  energy(sigma->0) =      -39.49213544


--------------------------------------------------------------------------------------------------------




--------------------------------------- Iteration      1(   4)  ---------------------------------------


     EDDAV:  cpu time    0.0483: real time    0.0483
       DOS:  cpu time    0.0001: real time    0.0001
    --------------------------------------------
      LOOP:  cpu time    0.0484: real time    0.0484

 eigenvalue-minimisations  :   192
 total energy-change (2. order) :-0.6288009E+00  (-0.6283782E+00)
 number of electron      54.0000000 magnetization       0.0000000
 augmentation part       54.0000000 magnetization       0.0000000

 Free energy of the ion-electron system (eV)
  ---------------------------------------------------
  alpha Z        PSCENC =       196.13658257
  Ewald energy   TEWEN  =     -4178.31221721
  -Hartree energ DENC   =     -2146.41896641
  -exchange      EXHF   =         0.00000000
  -V(xc)+E(xc)   XCENC  =       293.25934242
  PAW double counting   =      5439.83165491    -5546.16339751
  entropy T*S    EENTRO =        -0.00000000
  eigenvalues    EBANDS =      -776.10248341
  atomic energy  EATOM  =      6677.64854832
  Solvation  Ediel_sol  =         0.00000000
  ---------------------------------------------------
  free energy    TOTEN  =       -40.12093633 eV

  energy without entropy =      -40.12093633  energy(sigma->0) =      -40.12093633


--------------------------------------------------------------------------------------------------------




--------------------------------------- Iteration      1(   5)  ---------------------------------------


     EDDAV:  cpu time    0.0366: real time    0.0366
       DOS:  cpu time    0.0001: real time    0.0001
    CHARGE:  cpu time    0.0233: real time    0.0233
    MIXING:  cpu time    0.0005: real time    0.0005
    --------------------------------------------
      LOOP:  cpu time    0.0606: real time    0.0606

 eigenvalue-minimisations  :   144
 total energy-change (2. order) :-0.9774187E-02  (-0.9774168E-02)
 number of electron      54.0000010 magnetization      -0.0000000
 augmentation part       20.0491715 magnetization      -0.0000000

 Broyden mixing:
  rms(total) = 0.22464E+01    rms(broyden)= 0.22463E+01
  rms(prec ) = 0.30233E+01
  weight for this iteration     100.00

 Free energy of the ion-electron system (eV)
  ---------------------------------------------------
  alpha Z        PSCENC =       196.13658257
  Ewald energy   TEWEN  =     -4178.31221721
  -Hartree energ DENC   =     -2146.41896641
  -exchange      EXHF   =         0.00000000
  -V(xc)+E(xc)   XCENC  =       293.25934242
  PAW double counting   =      5439.83165491    -5546.16339751
  entropy T*S    EENTRO =        -0.00000000
  eigenvalues    EBANDS =      -776.11225760
  atomic energy  EATOM  =      6677.64854832
  Solvation  Ediel_sol  =         0.00000000
  ---------------------------------------------------
  free energy    TOTEN  =       -40.13071051 eV

  energy without entropy =      -40.13071051  energy(sigma->0) =      -40.13071051


--------------------------------------------------------------------------------------------------------




--------------------------------------- Iteration      1(   6)  ---------------------------------------


    POTLOK:  cpu time    0.0159: real time    0.0159
    SETDIJ:  cpu time    0.6882: real time    0.6882
atom =   1  type =  1  l = 2
 
 onsite density matrix
 
spin component  1
 
 -0.0835  0.0000  0.0033  0.0000 -0.0000
  0.0000 -0.0794  0.0000  0.0007  0.0000
  0.0033  0.0000 -0.0690  0.0000  0.0000
  0.0000  0.0007  0.0000 -0.0794  0.0000
 -0.0000  0.0000  0.0000  0.0000 -0.0829
 
spin component  2
 
  1.1093  0.0000  0.0135  0.0000 -0.0000
  0.0000  1.0982  0.0000  0.0134  0.0000
  0.0135  0.0000  1.0808  0.0000  0.0000
  0.0000  0.0134  0.0000  1.0982  0.0000
 -0.0000  0.0000  0.0000  0.0000  1.0867
 
 occupancies and eigenvectors
 
  o = -0.0842  v = -0.9770  0.0000  0.2133 -0.0000 -0.0000  0.0000  0.0000  0.0000  0.0000  0.0000      0.0000  0.0000  0.0000  0.0000  0.0000  0.0000  0.0000  0.0000  0.0000  0.0000
  o = -0.0829  v = -0.0000  0.0000 -0.0000 -0.0000  1.0000  0.0000  0.0000  0.0000  0.0000  0.0000      0.0000  0.0000  0.0000  0.0000  0.0000  0.0000  0.0000  0.0000  0.0000  0.0000
  o = -0.0801  v =  0.0000  0.7071  0.0000 -0.7071 -0.0000  0.0000  0.0000  0.0000  0.0000  0.0000      0.0000  0.0000  0.0000  0.0000  0.0000  0.0000  0.0000  0.0000  0.0000  0.0000
  o = -0.0788  v =  0.0000  0.7071  0.0000  0.7071 -0.0000  0.0000  0.0000  0.0000  0.0000  0.0000      0.0000  0.0000  0.0000  0.0000  0.0000  0.0000  0.0000  0.0000  0.0000  0.0000
  o = -0.0683  v =  0.2133 -0.0000  0.9770 -0.0000  0.0000  0.0000  0.0000  0.0000  0.0000  0.0000      0.0000  0.0000  0.0000  0.0000  0.0000  0.0000  0.0000  0.0000  0.0000  0.0000
  o =  1.0754  v =  0.0000  0.0000  0.0000  0.0000  0.0000 -0.3706  0.0000  0.9288  0.0000 -0.0000      0.0000  0.0000  0.0000  0.0000  0.0000  0.0000  0.0000  0.0000  0.0000  0.0000
  o =  1.0848  v =  0.0000  0.0000  0.0000  0.0000  0.0000  0.0000 -0.7071 -0.0000  0.7071 -0.0000      0.0000  0.0000  0.0000  0.0000  0.0000  0.0000  0.0000  0.0000  0.0000  0.0000
  o =  1.0867  v =  0.0000  0.0000  0.0000  0.0000  0.0000  0.0000 -0.0000  0.0000  0.0000  1.0000      0.0000  0.0000  0.0000  0.0000  0.0000  0.0000  0.0000  0.0000  0.0000  0.0000
  o =  1.1115  v =  0.0000  0.0000  0.0000  0.0000  0.0000  0.0000 -0.7071  0.0000 -0.7071  0.0000      0.0000  0.0000  0.0000  0.0000  0.0000  0.0000  0.0000  0.0000  0.0000  0.0000
  o =  1.1146  v =  0.0000  0.0000  0.0000  0.0000  0.0000 -0.9288  0.0000 -0.3706  0.0000  0.0000      0.0000  0.0000  0.0000  0.0000  0.0000  0.0000  0.0000  0.0000  0.0000  0.0000
atom =   2  type =  1  l = 2
 
 onsite density matrix
 
spin component  1
 
  1.1093  0.0000 -0.0135  0.0000 -0.0000
  0.0000  1.0982  0.0000 -0.0134  0.0000
 -0.0135  0.0000  1.0808  0.0000  0.0000
  0.0000 -0.0134  0.0000  1.0982  0.0000
 -0.0000  0.0000  0.0000  0.0000  1.0867
 
spin component  2
 
 -0.0835  0.0000 -0.0033  0.0000 -0.0000
  0.0000 -0.0794  0.0000 -0.0007  0.0000
 -0.0033  0.0000 -0.0690  0.0000 -0.0000
  0.0000 -0.0007  0.0000 -0.0794  0.0000
 -0.0000  0.0000 -0.0000  0.0000 -0.0829
 
 occupancies and eigenvectors
 
  o = -0.0842  v =  0.0000  0.0000  0.0000  0.0000  0.0000  0.9770  0.0000  0.2133  0.0000  0.0000      0.0000  0.0000  0.0000  0.0000  0.0000  0.0000  0.0000  0.0000  0.0000  0.0000
  o = -0.0829  v =  0.0000  0.0000  0.0000  0.0000  0.0000 -0.0000  0.0000  0.0000  0.0000  1.0000      0.0000  0.0000  0.0000  0.0000  0.0000  0.0000  0.0000  0.0000  0.0000  0.0000
  o = -0.0801  v =  0.0000  0.0000  0.0000  0.0000  0.0000  0.0000 -0.7071  0.0000 -0.7071  0.0000      0.0000  0.0000  0.0000  0.0000  0.0000  0.0000  0.0000  0.0000  0.0000  0.0000
  o = -0.0788  v =  0.0000  0.0000  0.0000  0.0000  0.0000  0.0000 -0.7071  0.0000  0.7071  0.0000      0.0000  0.0000  0.0000  0.0000  0.0000  0.0000  0.0000  0.0000  0.0000  0.0000
  o = -0.0683  v =  0.0000  0.0000  0.0000  0.0000  0.0000 -0.2133 -0.0000  0.9770  0.0000 -0.0000      0.0000  0.0000  0.0000  0.0000  0.0000  0.0000  0.0000  0.0000  0.0000  0.0000
  o =  1.0754  v = -0.3706 -0.0000 -0.9288 -0.0000  0.0000  0.0000  0.0000  0.0000  0.0000  0.0000      0.0000  0.0000  0.0000  0.0000  0.0000  0.0000  0.0000  0.0000  0.0000  0.0000
  o =  1.0848  v = -0.0000  0.7071 -0.0000  0.7071 -0.0000  0.0000  0.0000  0.0000  0.0000  0.0000      0.0000  0.0000  0.0000  0.0000  0.0000  0.0000  0.0000  0.0000  0.0000  0.0000
  o =  1.0867  v =  0.0000  0.0000  0.0000  0.0000  1.0000  0.0000  0.0000  0.0000  0.0000  0.0000      0.0000  0.0000  0.0000  0.0000  0.0000  0.0000  0.0000  0.0000  0.0000  0.0000
  o =  1.1115  v = -0.0000  0.7071  0.0000 -0.7071  0.0000  0.0000  0.0000  0.0000  0.0000  0.0000      0.0000  0.0000  0.0000  0.0000  0.0000  0.0000  0.0000  0.0000  0.0000  0.0000
  o =  1.1146  v = -0.9288 -0.0000  0.3706  0.0000  0.0000  0.0000  0.0000  0.0000  0.0000  0.0000      0.0000  0.0000  0.0000  0.0000  0.0000  0.0000  0.0000  0.0000  0.0000  0.0000
     EDDAV:  cpu time    0.0531: real time    0.0531
       DOS:  cpu time    0.0001: real time    0.0001
    CHARGE:  cpu time    0.0234: real time    0.0234
    MIXING:  cpu time    0.0005: real time    0.0005
    --------------------------------------------
      LOOP:  cpu time    0.7814: real time    0.7814

 eigenvalue-minimisations  :   216
 total energy-change (2. order) : 0.1885921E+01  (-0.1609905E+01)
 number of electron      54.0000009 magnetization      -0.0000000
 augmentation part       19.9233492 magnetization      -0.0000000

 Broyden mixing:
  rms(total) = 0.14429E+01    rms(broyden)= 0.14428E+01
  rms(prec ) = 0.15067E+01
  weight for this iteration     100.00

 eigenvalues of (default mixing * dielectric matrix)
  average eigenvalue GAMMA=   0.7821
  0.7821

 Free energy of the ion-electron system (eV)
  ---------------------------------------------------
  alpha Z        PSCENC =       196.13658257
  Ewald energy   TEWEN  =     -4178.31221721
  -Hartree energ DENC   =     -2166.05053762
  -exchange      EXHF   =         0.00000000
  -V(xc)+E(xc)   XCENC  =       293.65793971
  PAW double counting   =      5688.56140850    -5785.77832557
  entropy T*S    EENTRO =        -0.00000000
  eigenvalues    EBANDS =      -764.10818813
  atomic energy  EATOM  =      6677.64854832
  Solvation  Ediel_sol  =         0.00000000
  ---------------------------------------------------
  free energy    TOTEN  =       -38.24478943 eV

  energy without entropy =      -38.24478943  energy(sigma->0) =      -38.24478943


--------------------------------------------------------------------------------------------------------




--------------------------------------- Iteration      1(   7)  ---------------------------------------


    POTLOK:  cpu time    0.0158: real time    0.0158
    SETDIJ:  cpu time    0.7107: real time    0.7107
atom =   1  type =  1  l = 2
 
 onsite density matrix
 
spin component  1
 
  0.1123  0.0000  0.0190  0.0000  0.0000
  0.0000  0.1073  0.0000  0.0154  0.0000
  0.0190  0.0000  0.1028  0.0000  0.0000
  0.0000  0.0154  0.0000  0.1073  0.0000
  0.0000  0.0000  0.0000  0.0000  0.0903
 
spin component  2
 
  0.9059  0.0000  0.0067  0.0000 -0.0000
  0.0000  0.9018  0.0000  0.0056  0.0000
  0.0067  0.0000  0.8978  0.0000  0.0000
  0.0000  0.0056  0.0000  0.9018  0.0000
 -0.0000  0.0000  0.0000  0.0000  0.8963
 
 occupancies and eigenvectors
 
  o =  0.0879  v = -0.6151  0.0000  0.7884  0.0000 -0.0000  0.0000  0.0000  0.0000  0.0000  0.0000      0.0000  0.0000  0.0000  0.0000  0.0000  0.0000  0.0000  0.0000  0.0000  0.0000
  o =  0.0903  v = -0.0000 -0.0000  0.0000  0.0000  1.0000  0.0000  0.0000  0.0000  0.0000  0.0000      0.0000  0.0000  0.0000  0.0000  0.0000  0.0000  0.0000  0.0000  0.0000  0.0000
  o =  0.0919  v =  0.0000  0.7071  0.0000 -0.7071  0.0000  0.0000  0.0000  0.0000  0.0000  0.0000      0.0000  0.0000  0.0000  0.0000  0.0000  0.0000  0.0000  0.0000  0.0000  0.0000
  o =  0.1227  v =  0.0000 -0.7071  0.0000 -0.7071 -0.0000  0.0000  0.0000  0.0000  0.0000  0.0000      0.0000  0.0000  0.0000  0.0000  0.0000  0.0000  0.0000  0.0000  0.0000  0.0000
  o =  0.1272  v = -0.7884  0.0000 -0.6151  0.0000 -0.0000  0.0000  0.0000  0.0000  0.0000  0.0000      0.0000  0.0000  0.0000  0.0000  0.0000  0.0000  0.0000  0.0000  0.0000  0.0000
  o =  0.8941  v =  0.0000  0.0000  0.0000  0.0000  0.0000 -0.4916 -0.0000  0.8708  0.0000 -0.0000      0.0000  0.0000  0.0000  0.0000  0.0000  0.0000  0.0000  0.0000  0.0000  0.0000
  o =  0.8962  v =  0.0000  0.0000  0.0000  0.0000  0.0000  0.0000  0.7071  0.0000 -0.7071 -0.0000      0.0000  0.0000  0.0000  0.0000  0.0000  0.0000  0.0000  0.0000  0.0000  0.0000
  o =  0.8963  v =  0.0000  0.0000  0.0000  0.0000  0.0000 -0.0000  0.0000  0.0000  0.0000  1.0000      0.0000  0.0000  0.0000  0.0000  0.0000  0.0000  0.0000  0.0000  0.0000  0.0000
  o =  0.9074  v =  0.0000  0.0000  0.0000  0.0000  0.0000  0.0000 -0.7071  0.0000 -0.7071  0.0000      0.0000  0.0000  0.0000  0.0000  0.0000  0.0000  0.0000  0.0000  0.0000  0.0000
  o =  0.9097  v =  0.0000  0.0000  0.0000  0.0000  0.0000 -0.8708 -0.0000 -0.4916  0.0000 -0.0000      0.0000  0.0000  0.0000  0.0000  0.0000  0.0000  0.0000  0.0000  0.0000  0.0000
atom =   2  type =  1  l = 2
 
 onsite density matrix
 
spin component  1
 
  0.9059  0.0000 -0.0067  0.0000  0.0000
  0.0000  0.9018  0.0000 -0.0056  0.0000
 -0.0067  0.0000  0.8978  0.0000  0.0000
  0.0000 -0.0056  0.0000  0.9018  0.0000
  0.0000  0.0000  0.0000  0.0000  0.8963
 
spin component  2
 
  0.1123  0.0000 -0.0190  0.0000 -0.0000
  0.0000  0.1073  0.0000 -0.0154  0.0000
 -0.0190  0.0000  0.1028  0.0000 -0.0000
  0.0000 -0.0154  0.0000  0.1073  0.0000
 -0.0000  0.0000 -0.0000  0.0000  0.0903
 
 occupancies and eigenvectors
 
  o =  0.0879  v =  0.0000  0.0000  0.0000  0.0000  0.0000 -0.6151  0.0000 -0.7884  0.0000 -0.0000      0.0000  0.0000  0.0000  0.0000  0.0000  0.0000  0.0000  0.0000  0.0000  0.0000
  o =  0.0903  v =  0.0000  0.0000  0.0000  0.0000  0.0000  0.0000  0.0000 -0.0000  0.0000  1.0000      0.0000  0.0000  0.0000  0.0000  0.0000  0.0000  0.0000  0.0000  0.0000  0.0000
  o =  0.0919  v =  0.0000  0.0000  0.0000  0.0000  0.0000  0.0000 -0.7071  0.0000 -0.7071  0.0000      0.0000  0.0000  0.0000  0.0000  0.0000  0.0000  0.0000  0.0000  0.0000  0.0000
  o =  0.1227  v =  0.0000  0.0000  0.0000  0.0000  0.0000  0.0000  0.7071  0.0000 -0.7071 -0.0000      0.0000  0.0000  0.0000  0.0000  0.0000  0.0000  0.0000  0.0000  0.0000  0.0000
  o =  0.1272  v =  0.0000  0.0000  0.0000  0.0000  0.0000 -0.7884  0.0000  0.6151  0.0000  0.0000      0.0000  0.0000  0.0000  0.0000  0.0000  0.0000  0.0000  0.0000  0.0000  0.0000
  o =  0.8941  v = -0.4916  0.0000 -0.8708  0.0000  0.0000  0.0000  0.0000  0.0000  0.0000  0.0000      0.0000  0.0000  0.0000  0.0000  0.0000  0.0000  0.0000  0.0000  0.0000  0.0000
  o =  0.8962  v =  0.0000 -0.7071  0.0000 -0.7071 -0.0000  0.0000  0.0000  0.0000  0.0000  0.0000      0.0000  0.0000  0.0000  0.0000  0.0000  0.0000  0.0000  0.0000  0.0000  0.0000
  o =  0.8963  v =  0.0000  0.0000 -0.0000  0.0000 -1.0000  0.0000  0.0000  0.0000  0.0000  0.0000      0.0000  0.0000  0.0000  0.0000  0.0000  0.0000  0.0000  0.0000  0.0000  0.0000
  o =  0.9074  v =  0.0000 -0.7071  0.0000  0.7071 -0.0000  0.0000  0.0000  0.0000  0.0000  0.0000      0.0000  0.0000  0.0000  0.0000  0.0000  0.0000  0.0000  0.0000  0.0000  0.0000
  o =  0.9097  v = -0.8708  0.0000  0.4916  0.0000 -0.0000  0.0000  0.0000  0.0000  0.0000  0.0000      0.0000  0.0000  0.0000  0.0000  0.0000  0.0000  0.0000  0.0000  0.0000  0.0000
     EDDAV:  cpu time    0.0425: real time    0.0425
       DOS:  cpu time    0.0001: real time    0.0001
    CHARGE:  cpu time    0.0234: real time    0.0234
    MIXING:  cpu time    0.0005: real time    0.0005
    --------------------------------------------
      LOOP:  cpu time    0.7931: real time    0.7931

 eigenvalue-minimisations  :   168
 total energy-change (2. order) :-0.7181236E+00  (-0.1681043E+00)
 number of electron      54.0000009 magnetization       0.0000000
 augmentation part       19.9179911 magnetization       0.0000000

 Broyden mixing:
  rms(total) = 0.11122E+01    rms(broyden)= 0.11122E+01
  rms(prec ) = 0.11469E+01
  weight for this iteration     100.00

 eigenvalues of (default mixing * dielectric matrix)
  average eigenvalue GAMMA=   1.3444
  0.7021  1.9867

 Free energy of the ion-electron system (eV)
  ---------------------------------------------------
  alpha Z        PSCENC =       196.13658257
  Ewald energy   TEWEN  =     -4178.31221721
  -Hartree energ DENC   =     -2161.48747870
  -exchange      EXHF   =         0.00000000
  -V(xc)+E(xc)   XCENC  =       294.20462733
  PAW double counting   =      5912.80313285    -6019.60384601
  entropy T*S    EENTRO =        -0.00000000
  eigenvalues    EBANDS =      -760.35226221
  atomic energy  EATOM  =      6677.64854832
  Solvation  Ediel_sol  =         0.00000000
  ---------------------------------------------------
  free energy    TOTEN  =       -38.96291305 eV

  energy without entropy =      -38.96291305  energy(sigma->0) =      -38.96291305


--------------------------------------------------------------------------------------------------------




--------------------------------------- Iteration      1(   8)  ---------------------------------------


    POTLOK:  cpu time    0.0158: real time    0.0158
    SETDIJ:  cpu time    0.6882: real time    0.6883
atom =   1  type =  1  l = 2
 
 onsite density matrix
 
spin component  1
 
 -0.0257  0.0000  0.0206  0.0000 -0.0000
  0.0000 -0.0257  0.0000  0.0133  0.0000
  0.0206  0.0000 -0.0208  0.0000 -0.0000
  0.0000  0.0133  0.0000 -0.0257  0.0000
 -0.0000  0.0000 -0.0000  0.0000 -0.0438
 
spin component  2
 
  1.0416  0.0000  0.0159  0.0000  0.0000
  0.0000  1.0301  0.0000  0.0168  0.0000
  0.0159  0.0000  1.0147  0.0000  0.0000
  0.0000  0.0168  0.0000  1.0301  0.0000
  0.0000  0.0000  0.0000  0.0000  1.0163
 
 occupancies and eigenvectors
 
  o = -0.0440  v =  0.7481 -0.0000 -0.6636  0.0000 -0.0000  0.0000  0.0000  0.0000  0.0000  0.0000      0.0000  0.0000  0.0000  0.0000  0.0000  0.0000  0.0000  0.0000  0.0000  0.0000
  o = -0.0438  v = -0.0000 -0.0000  0.0000  0.0000 -1.0000  0.0000  0.0000  0.0000  0.0000  0.0000      0.0000  0.0000  0.0000  0.0000  0.0000  0.0000  0.0000  0.0000  0.0000  0.0000
  o = -0.0389  v =  0.0000  0.7071  0.0000 -0.7071 -0.0000  0.0000  0.0000  0.0000  0.0000  0.0000      0.0000  0.0000  0.0000  0.0000  0.0000  0.0000  0.0000  0.0000  0.0000  0.0000
  o = -0.0124  v =  0.0000 -0.7071  0.0000 -0.7071  0.0000  0.0000  0.0000  0.0000  0.0000  0.0000      0.0000  0.0000  0.0000  0.0000  0.0000  0.0000  0.0000  0.0000  0.0000  0.0000
  o = -0.0025  v =  0.6636 -0.0000  0.7481  0.0000 -0.0000  0.0000  0.0000  0.0000  0.0000  0.0000      0.0000  0.0000  0.0000  0.0000  0.0000  0.0000  0.0000  0.0000  0.0000  0.0000
  o =  1.0073  v =  0.0000  0.0000  0.0000  0.0000  0.0000 -0.4209 -0.0000  0.9071  0.0000 -0.0000      0.0000  0.0000  0.0000  0.0000  0.0000  0.0000  0.0000  0.0000  0.0000  0.0000
  o =  1.0134  v =  0.0000  0.0000  0.0000  0.0000  0.0000 -0.0000  0.7071  0.0000 -0.7071 -0.0000      0.0000  0.0000  0.0000  0.0000  0.0000  0.0000  0.0000  0.0000  0.0000  0.0000
  o =  1.0163  v =  0.0000  0.0000  0.0000  0.0000  0.0000 -0.0000  0.0000  0.0000 -0.0000  1.0000      0.0000  0.0000  0.0000  0.0000  0.0000  0.0000  0.0000  0.0000  0.0000  0.0000
  o =  1.0469  v =  0.0000  0.0000  0.0000  0.0000  0.0000 -0.0000  0.7071 -0.0000  0.7071 -0.0000      0.0000  0.0000  0.0000  0.0000  0.0000  0.0000  0.0000  0.0000  0.0000  0.0000
  o =  1.0489  v =  0.0000  0.0000  0.0000  0.0000  0.0000 -0.9071 -0.0000 -0.4209 -0.0000 -0.0000      0.0000  0.0000  0.0000  0.0000  0.0000  0.0000  0.0000  0.0000  0.0000  0.0000
atom =   2  type =  1  l = 2
 
 onsite density matrix
 
spin component  1
 
  1.0416  0.0000 -0.0159  0.0000  0.0000
  0.0000  1.0301  0.0000 -0.0168  0.0000
 -0.0159  0.0000  1.0147  0.0000  0.0000
  0.0000 -0.0168  0.0000  1.0301  0.0000
  0.0000  0.0000  0.0000  0.0000  1.0163
 
spin component  2
 
 -0.0257  0.0000 -0.0206  0.0000 -0.0000
  0.0000 -0.0257  0.0000 -0.0133  0.0000
 -0.0206  0.0000 -0.0208  0.0000 -0.0000
  0.0000 -0.0133  0.0000 -0.0257  0.0000
 -0.0000  0.0000 -0.0000  0.0000 -0.0438
 
 occupancies and eigenvectors
 
  o = -0.0440  v =  0.0000  0.0000  0.0000  0.0000  0.0000  0.7481  0.0000  0.6636  0.0000  0.0000      0.0000  0.0000  0.0000  0.0000  0.0000  0.0000  0.0000  0.0000  0.0000  0.0000
  o = -0.0438  v =  0.0000  0.0000  0.0000  0.0000  0.0000  0.0000  0.0000  0.0000  0.0000 -1.0000      0.0000  0.0000  0.0000  0.0000  0.0000  0.0000  0.0000  0.0000  0.0000  0.0000
  o = -0.0389  v =  0.0000  0.0000  0.0000  0.0000  0.0000  0.0000 -0.7071  0.0000 -0.7071 -0.0000      0.0000  0.0000  0.0000  0.0000  0.0000  0.0000  0.0000  0.0000  0.0000  0.0000
  o = -0.0124  v =  0.0000  0.0000  0.0000  0.0000  0.0000  0.0000 -0.7071 -0.0000  0.7071 -0.0000      0.0000  0.0000  0.0000  0.0000  0.0000  0.0000  0.0000  0.0000  0.0000  0.0000
  o = -0.0025  v =  0.0000  0.0000  0.0000  0.0000  0.0000 -0.6636 -0.0000  0.7481  0.0000 -0.0000      0.0000  0.0000  0.0000  0.0000  0.0000  0.0000  0.0000  0.0000  0.0000  0.0000
  o =  1.0073  v = -0.4209  0.0000 -0.9071  0.0000  0.0000  0.0000  0.0000  0.0000  0.0000  0.0000      0.0000  0.0000  0.0000  0.0000  0.0000  0.0000  0.0000  0.0000  0.0000  0.0000
  o =  1.0134  v = -0.0000 -0.7071 -0.0000 -0.7071 -0.0000  0.0000  0.0000  0.0000  0.0000  0.0000      0.0000  0.0000  0.0000  0.0000  0.0000  0.0000  0.0000  0.0000  0.0000  0.0000
  o =  1.0163  v =  0.0000 -0.0000  0.0000 -0.0000  1.0000  0.0000  0.0000  0.0000  0.0000  0.0000      0.0000  0.0000  0.0000  0.0000  0.0000  0.0000  0.0000  0.0000  0.0000  0.0000
  o =  1.0469  v = -0.0000 -0.7071  0.0000  0.7071 -0.0000  0.0000  0.0000  0.0000  0.0000  0.0000      0.0000  0.0000  0.0000  0.0000  0.0000  0.0000  0.0000  0.0000  0.0000  0.0000
  o =  1.0489  v = -0.9071  0.0000  0.4209 -0.0000  0.0000  0.0000  0.0000  0.0000  0.0000  0.0000      0.0000  0.0000  0.0000  0.0000  0.0000  0.0000  0.0000  0.0000  0.0000  0.0000
     EDDAV:  cpu time    0.0488: real time    0.0488
       DOS:  cpu time    0.0001: real time    0.0001
    CHARGE:  cpu time    0.0233: real time    0.0233
    MIXING:  cpu time    0.0006: real time    0.0006
    --------------------------------------------
      LOOP:  cpu time    0.7769: real time    0.7769

 eigenvalue-minimisations  :   192
 total energy-change (2. order) :-0.9735035E-02  (-0.4797171E-01)
 number of electron      54.0000009 magnetization      -0.0000000
 augmentation part       19.9542505 magnetization      -0.0000000

 Broyden mixing:
  rms(total) = 0.48139E+00    rms(broyden)= 0.48139E+00
  rms(prec ) = 0.51039E+00
  weight for this iteration     100.00

 eigenvalues of (default mixing * dielectric matrix)
  average eigenvalue GAMMA=   1.1821
  1.8888  1.0133  0.6442

 Free energy of the ion-electron system (eV)
  ---------------------------------------------------
  alpha Z        PSCENC =       196.13658257
  Ewald energy   TEWEN  =     -4178.31221721
  -Hartree energ DENC   =     -2156.46992323
  -exchange      EXHF   =         0.00000000
  -V(xc)+E(xc)   XCENC  =       293.67007973
  PAW double counting   =      6128.88935502    -6232.86411643
  entropy T*S    EENTRO =        -0.00000000
  eigenvalues    EBANDS =      -767.67095685
  atomic energy  EATOM  =      6677.64854832
  Solvation  Ediel_sol  =         0.00000000
  ---------------------------------------------------
  free energy    TOTEN  =       -38.97264809 eV

  energy without entropy =      -38.97264809  energy(sigma->0) =      -38.97264809


--------------------------------------------------------------------------------------------------------




--------------------------------------- Iteration      1(   9)  ---------------------------------------


    POTLOK:  cpu time    0.0158: real time    0.0158
    SETDIJ:  cpu time    0.6869: real time    0.6869
atom =   1  type =  1  l = 2
 
 onsite density matrix
 
spin component  1
 
  0.0437  0.0000  0.0233  0.0000  0.0000
  0.0000  0.0388  0.0000  0.0186  0.0000
  0.0233  0.0000  0.0362  0.0000  0.0000
  0.0000  0.0186  0.0000  0.0388  0.0000
  0.0000  0.0000  0.0000  0.0000  0.0177
 
spin component  2
 
  0.9689  0.0000  0.0199  0.0000 -0.0000
  0.0000  0.9609  0.0000  0.0174  0.0000
  0.0199  0.0000  0.9516  0.0000  0.0000
  0.0000  0.0174  0.0000  0.9609  0.0000
 -0.0000  0.0000  0.0000  0.0000  0.9442
 
 occupancies and eigenvectors
 
  o =  0.0164  v = -0.6489  0.0000  0.7609  0.0000 -0.0000  0.0000  0.0000  0.0000  0.0000  0.0000      0.0000  0.0000  0.0000  0.0000  0.0000  0.0000  0.0000  0.0000  0.0000  0.0000
  o =  0.0177  v = -0.0000 -0.0000  0.0000  0.0000  1.0000  0.0000  0.0000  0.0000  0.0000  0.0000      0.0000  0.0000  0.0000  0.0000  0.0000  0.0000  0.0000  0.0000  0.0000  0.0000
  o =  0.0202  v =  0.0000  0.7071  0.0000 -0.7071  0.0000  0.0000  0.0000  0.0000  0.0000  0.0000      0.0000  0.0000  0.0000  0.0000  0.0000  0.0000  0.0000  0.0000  0.0000  0.0000
  o =  0.0574  v =  0.0000 -0.7071  0.0000 -0.7071 -0.0000  0.0000  0.0000  0.0000  0.0000  0.0000      0.0000  0.0000  0.0000  0.0000  0.0000  0.0000  0.0000  0.0000  0.0000  0.0000
  o =  0.0636  v = -0.7609  0.0000 -0.6489  0.0000 -0.0000  0.0000  0.0000  0.0000  0.0000  0.0000      0.0000  0.0000  0.0000  0.0000  0.0000  0.0000  0.0000  0.0000  0.0000  0.0000
  o =  0.9386  v =  0.0000  0.0000  0.0000  0.0000  0.0000 -0.5481 -0.0000  0.8364  0.0000 -0.0000      0.0000  0.0000  0.0000  0.0000  0.0000  0.0000  0.0000  0.0000  0.0000  0.0000
  o =  0.9435  v =  0.0000  0.0000  0.0000  0.0000  0.0000  0.0000  0.7071  0.0000 -0.7071 -0.0000      0.0000  0.0000  0.0000  0.0000  0.0000  0.0000  0.0000  0.0000  0.0000  0.0000
  o =  0.9442  v =  0.0000  0.0000  0.0000  0.0000  0.0000 -0.0000  0.0000  0.0000  0.0000  1.0000      0.0000  0.0000  0.0000  0.0000  0.0000  0.0000  0.0000  0.0000  0.0000  0.0000
  o =  0.9783  v =  0.0000  0.0000  0.0000  0.0000  0.0000  0.0000 -0.7071  0.0000 -0.7071  0.0000      0.0000  0.0000  0.0000  0.0000  0.0000  0.0000  0.0000  0.0000  0.0000  0.0000
  o =  0.9820  v =  0.0000  0.0000  0.0000  0.0000  0.0000 -0.8364 -0.0000 -0.5481  0.0000 -0.0000      0.0000  0.0000  0.0000  0.0000  0.0000  0.0000  0.0000  0.0000  0.0000  0.0000
atom =   2  type =  1  l = 2
 
 onsite density matrix
 
spin component  1
 
  0.9689  0.0000 -0.0199  0.0000 -0.0000
  0.0000  0.9609  0.0000 -0.0174  0.0000
 -0.0199  0.0000  0.9516  0.0000 -0.0000
  0.0000 -0.0174  0.0000  0.9609  0.0000
 -0.0000  0.0000 -0.0000  0.0000  0.9442
 
spin component  2
 
  0.0437  0.0000 -0.0233  0.0000  0.0000
  0.0000  0.0388  0.0000 -0.0186  0.0000
 -0.0233  0.0000  0.0362  0.0000  0.0000
  0.0000 -0.0186  0.0000  0.0388  0.0000
  0.0000  0.0000  0.0000  0.0000  0.0177
 
 occupancies and eigenvectors
 
  o =  0.0164  v =  0.0000  0.0000  0.0000  0.0000  0.0000 -0.6489 -0.0000 -0.7609  0.0000  0.0000      0.0000  0.0000  0.0000  0.0000  0.0000  0.0000  0.0000  0.0000  0.0000  0.0000
  o =  0.0177  v =  0.0000  0.0000  0.0000  0.0000  0.0000 -0.0000  0.0000 -0.0000  0.0000 -1.0000      0.0000  0.0000  0.0000  0.0000  0.0000  0.0000  0.0000  0.0000  0.0000  0.0000
  o =  0.0202  v =  0.0000  0.0000  0.0000  0.0000  0.0000  0.0000  0.7071  0.0000  0.7071  0.0000      0.0000  0.0000  0.0000  0.0000  0.0000  0.0000  0.0000  0.0000  0.0000  0.0000
  o =  0.0574  v =  0.0000  0.0000  0.0000  0.0000  0.0000  0.0000  0.7071  0.0000 -0.7071  0.0000      0.0000  0.0000  0.0000  0.0000  0.0000  0.0000  0.0000  0.0000  0.0000  0.0000
  o =  0.0636  v =  0.0000  0.0000  0.0000  0.0000  0.0000 -0.7609 -0.0000  0.6489  0.0000  0.0000      0.0000  0.0000  0.0000  0.0000  0.0000  0.0000  0.0000  0.0000  0.0000  0.0000
  o =  0.9386  v = -0.5481  0.0000 -0.8364  0.0000 -0.0000  0.0000  0.0000  0.0000  0.0000  0.0000      0.0000  0.0000  0.0000  0.0000  0.0000  0.0000  0.0000  0.0000  0.0000  0.0000
  o =  0.9435  v = -0.0000 -0.7071 -0.0000 -0.7071  0.0000  0.0000  0.0000  0.0000  0.0000  0.0000      0.0000  0.0000  0.0000  0.0000  0.0000  0.0000  0.0000  0.0000  0.0000  0.0000
  o =  0.9442  v = -0.0000  0.0000 -0.0000  0.0000  1.0000  0.0000  0.0000  0.0000  0.0000  0.0000      0.0000  0.0000  0.0000  0.0000  0.0000  0.0000  0.0000  0.0000  0.0000  0.0000
  o =  0.9783  v = -0.0000  0.7071  0.0000 -0.7071  0.0000  0.0000  0.0000  0.0000  0.0000  0.0000      0.0000  0.0000  0.0000  0.0000  0.0000  0.0000  0.0000  0.0000  0.0000  0.0000
  o =  0.9820  v = -0.8364 -0.0000  0.5481  0.0000 -0.0000  0.0000  0.0000  0.0000  0.0000  0.0000      0.0000  0.0000  0.0000  0.0000  0.0000  0.0000  0.0000  0.0000  0.0000  0.0000
     EDDAV:  cpu time    0.0429: real time    0.0429
       DOS:  cpu time    0.0001: real time    0.0001
    CHARGE:  cpu time    0.0235: real time    0.0235
    MIXING:  cpu time    0.0006: real time    0.0006
    --------------------------------------------
      LOOP:  cpu time    0.7699: real time    0.7699

 eigenvalue-minimisations  :   168
 total energy-change (2. order) :-0.1944124E+00  (-0.6028630E-02)
 number of electron      54.0000009 magnetization       0.0000000
 augmentation part       19.9461537 magnetization       0.0000000

 Broyden mixing:
  rms(total) = 0.13184E+00    rms(broyden)= 0.13184E+00
  rms(prec ) = 0.14265E+00
  weight for this iteration     100.00

 eigenvalues of (default mixing * dielectric matrix)
  average eigenvalue GAMMA=   1.2204
  2.6114  0.8214  0.8214  0.6275

 Free energy of the ion-electron system (eV)
  ---------------------------------------------------
  alpha Z        PSCENC =       196.13658257
  Ewald energy   TEWEN  =     -4178.31221721
  -Hartree energ DENC   =     -2156.56846342
  -exchange      EXHF   =         0.00000000
  -V(xc)+E(xc)   XCENC  =       293.91613658
  PAW double counting   =      6269.47260921    -6377.60070139
  entropy T*S    EENTRO =        -0.00000000
  eigenvalues    EBANDS =      -763.85955519
  atomic energy  EATOM  =      6677.64854832
  Solvation  Ediel_sol  =         0.00000000
  ---------------------------------------------------
  free energy    TOTEN  =       -39.16706054 eV

  energy without entropy =      -39.16706054  energy(sigma->0) =      -39.16706054


--------------------------------------------------------------------------------------------------------




--------------------------------------- Iteration      1(  10)  ---------------------------------------


    POTLOK:  cpu time    0.0158: real time    0.0158
    SETDIJ:  cpu time    0.6893: real time    0.6893
atom =   1  type =  1  l = 2
 
 onsite density matrix
 
spin component  1
 
  0.0422  0.0000  0.0258  0.0000 -0.0000
  0.0000  0.0381  0.0000  0.0197  0.0000
  0.0258  0.0000  0.0366  0.0000  0.0000
  0.0000  0.0197  0.0000  0.0381  0.0000
 -0.0000  0.0000  0.0000  0.0000  0.0153
 
spin component  2
 
  0.9706  0.0000  0.0176  0.0000  0.0000
  0.0000  0.9618  0.0000  0.0164  0.0000
  0.0176  0.0000  0.9513  0.0000  0.0000
  0.0000  0.0164  0.0000  0.9618  0.0000
  0.0000  0.0000  0.0000  0.0000  0.9465
 
 occupancies and eigenvectors
 
  o =  0.0135  v = -0.6679 -0.0000  0.7442  0.0000 -0.0000  0.0000  0.0000  0.0000  0.0000  0.0000      0.0000  0.0000  0.0000  0.0000  0.0000  0.0000  0.0000  0.0000  0.0000  0.0000
  o =  0.0153  v = -0.0000  0.0000  0.0000  0.0000  1.0000  0.0000  0.0000  0.0000  0.0000  0.0000      0.0000  0.0000  0.0000  0.0000  0.0000  0.0000  0.0000  0.0000  0.0000  0.0000
  o =  0.0184  v =  0.0000  0.7071  0.0000 -0.7071 -0.0000  0.0000  0.0000  0.0000  0.0000  0.0000      0.0000  0.0000  0.0000  0.0000  0.0000  0.0000  0.0000  0.0000  0.0000  0.0000
  o =  0.0578  v =  0.0000 -0.7071  0.0000 -0.7071  0.0000  0.0000  0.0000  0.0000  0.0000  0.0000      0.0000  0.0000  0.0000  0.0000  0.0000  0.0000  0.0000  0.0000  0.0000  0.0000
  o =  0.0654  v = -0.7442 -0.0000 -0.6679  0.0000 -0.0000  0.0000  0.0000  0.0000  0.0000  0.0000      0.0000  0.0000  0.0000  0.0000  0.0000  0.0000  0.0000  0.0000  0.0000  0.0000
  o =  0.9409  v =  0.0000  0.0000  0.0000  0.0000  0.0000 -0.5095  0.0000  0.8605 -0.0000 -0.0000      0.0000  0.0000  0.0000  0.0000  0.0000  0.0000  0.0000  0.0000  0.0000  0.0000
  o =  0.9454  v =  0.0000  0.0000  0.0000  0.0000  0.0000 -0.0000 -0.7071  0.0000  0.7071 -0.0000      0.0000  0.0000  0.0000  0.0000  0.0000  0.0000  0.0000  0.0000  0.0000  0.0000
  o =  0.9465  v =  0.0000  0.0000  0.0000  0.0000  0.0000 -0.0000 -0.0000  0.0000  0.0000  1.0000      0.0000  0.0000  0.0000  0.0000  0.0000  0.0000  0.0000  0.0000  0.0000  0.0000
  o =  0.9782  v =  0.0000  0.0000  0.0000  0.0000  0.0000 -0.0000 -0.7071 -0.0000 -0.7071 -0.0000      0.0000  0.0000  0.0000  0.0000  0.0000  0.0000  0.0000  0.0000  0.0000  0.0000
  o =  0.9810  v =  0.0000  0.0000  0.0000  0.0000  0.0000 -0.8605  0.0000 -0.5095  0.0000 -0.0000      0.0000  0.0000  0.0000  0.0000  0.0000  0.0000  0.0000  0.0000  0.0000  0.0000
atom =   2  type =  1  l = 2
 
 onsite density matrix
 
spin component  1
 
  0.9706  0.0000 -0.0176  0.0000  0.0000
  0.0000  0.9618  0.0000 -0.0164  0.0000
 -0.0176  0.0000  0.9513  0.0000 -0.0000
  0.0000 -0.0164  0.0000  0.9618  0.0000
  0.0000  0.0000 -0.0000  0.0000  0.9465
 
spin component  2
 
  0.0422  0.0000 -0.0258  0.0000  0.0000
  0.0000  0.0381  0.0000 -0.0197  0.0000
 -0.0258  0.0000  0.0366  0.0000 -0.0000
  0.0000 -0.0197  0.0000  0.0381  0.0000
  0.0000  0.0000 -0.0000  0.0000  0.0153
 
 occupancies and eigenvectors
 
  o =  0.0135  v =  0.0000  0.0000  0.0000  0.0000  0.0000 -0.6679  0.0000 -0.7442  0.0000 -0.0000      0.0000  0.0000  0.0000  0.0000  0.0000  0.0000  0.0000  0.0000  0.0000  0.0000
  o =  0.0153  v =  0.0000  0.0000  0.0000  0.0000  0.0000 -0.0000 -0.0000 -0.0000  0.0000  1.0000      0.0000  0.0000  0.0000  0.0000  0.0000  0.0000  0.0000  0.0000  0.0000  0.0000
  o =  0.0184  v =  0.0000  0.0000  0.0000  0.0000  0.0000  0.0000 -0.7071  0.0000 -0.7071 -0.0000      0.0000  0.0000  0.0000  0.0000  0.0000  0.0000  0.0000  0.0000  0.0000  0.0000
  o =  0.0578  v =  0.0000  0.0000  0.0000  0.0000  0.0000  0.0000  0.7071  0.0000 -0.7071  0.0000      0.0000  0.0000  0.0000  0.0000  0.0000  0.0000  0.0000  0.0000  0.0000  0.0000
  o =  0.0654  v =  0.0000  0.0000  0.0000  0.0000  0.0000 -0.7442  0.0000  0.6679  0.0000 -0.0000      0.0000  0.0000  0.0000  0.0000  0.0000  0.0000  0.0000  0.0000  0.0000  0.0000
  o =  0.9409  v = -0.5095  0.0000 -0.8605  0.0000  0.0000  0.0000  0.0000  0.0000  0.0000  0.0000      0.0000  0.0000  0.0000  0.0000  0.0000  0.0000  0.0000  0.0000  0.0000  0.0000
  o =  0.9454  v =  0.0000 -0.7071  0.0000 -0.7071 -0.0000  0.0000  0.0000  0.0000  0.0000  0.0000      0.0000  0.0000  0.0000  0.0000  0.0000  0.0000  0.0000  0.0000  0.0000  0.0000
  o =  0.9465  v =  0.0000 -0.0000  0.0000  0.0000  1.0000  0.0000  0.0000  0.0000  0.0000  0.0000      0.0000  0.0000  0.0000  0.0000  0.0000  0.0000  0.0000  0.0000  0.0000  0.0000
  o =  0.9782  v =  0.0000  0.7071  0.0000 -0.7071  0.0000  0.0000  0.0000  0.0000  0.0000  0.0000      0.0000  0.0000  0.0000  0.0000  0.0000  0.0000  0.0000  0.0000  0.0000  0.0000
  o =  0.9810  v = -0.8605  0.0000  0.5095  0.0000 -0.0000  0.0000  0.0000  0.0000  0.0000  0.0000      0.0000  0.0000  0.0000  0.0000  0.0000  0.0000  0.0000  0.0000  0.0000  0.0000
     EDDAV:  cpu time    0.0387: real time    0.0389
       DOS:  cpu time    0.0002: real time    0.0002
    CHARGE:  cpu time    0.0233: real time    0.0233
    MIXING:  cpu time    0.0007: real time    0.0007
    --------------------------------------------
      LOOP:  cpu time    0.7679: real time    0.7681

 eigenvalue-minimisations  :   144
 total energy-change (2. order) : 0.4943014E-03  (-0.1557928E-02)
 number of electron      54.0000009 magnetization      -0.0000000
 augmentation part       19.9432488 magnetization      -0.0000000

 Broyden mixing:
  rms(total) = 0.26297E-01    rms(broyden)= 0.26293E-01
  rms(prec ) = 0.29289E-01
  weight for this iteration     100.00

 eigenvalues of (default mixing * dielectric matrix)
  average eigenvalue GAMMA=   1.1527
  2.5200  0.9468  0.9468  0.7376  0.6126

 Free energy of the ion-electron system (eV)
  ---------------------------------------------------
  alpha Z        PSCENC =       196.13658257
  Ewald energy   TEWEN  =     -4178.31221721
  -Hartree energ DENC   =     -2157.33331432
  -exchange      EXHF   =         0.00000000
  -V(xc)+E(xc)   XCENC  =       294.01037590
  PAW double counting   =      6265.03526678    -6373.11839155
  entropy T*S    EENTRO =        -0.00000000
  eigenvalues    EBANDS =      -763.23341672
  atomic energy  EATOM  =      6677.64854832
  Solvation  Ediel_sol  =         0.00000000
  ---------------------------------------------------
  free energy    TOTEN  =       -39.16656624 eV

  energy without entropy =      -39.16656624  energy(sigma->0) =      -39.16656624


--------------------------------------------------------------------------------------------------------




--------------------------------------- Iteration      1(  11)  ---------------------------------------


    POTLOK:  cpu time    0.0164: real time    0.0164
    SETDIJ:  cpu time    0.6885: real time    0.6885
atom =   1  type =  1  l = 2
 
 onsite density matrix
 
spin component  1
 
  0.0411  0.0000  0.0254  0.0000  0.0000
  0.0000  0.0367  0.0000  0.0195  0.0000
  0.0254  0.0000  0.0352  0.0000  0.0000
  0.0000  0.0195  0.0000  0.0367  0.0000
  0.0000  0.0000  0.0000  0.0000  0.0142
 
spin component  2
 
  0.9725  0.0000  0.0178  0.0000 -0.0000
  0.0000  0.9640  0.0000  0.0165  0.0000
  0.0178  0.0000  0.9537  0.0000  0.0000
  0.0000  0.0165  0.0000  0.9640  0.0000
 -0.0000  0.0000  0.0000  0.0000  0.9487
 
 occupancies and eigenvectors
 
  o =  0.0126  v = -0.6647  0.0000  0.7472  0.0000 -0.0000  0.0000  0.0000  0.0000  0.0000  0.0000      0.0000  0.0000  0.0000  0.0000  0.0000  0.0000  0.0000  0.0000  0.0000  0.0000
  o =  0.0142  v = -0.0000 -0.0000  0.0000  0.0000  1.0000  0.0000  0.0000  0.0000  0.0000  0.0000      0.0000  0.0000  0.0000  0.0000  0.0000  0.0000  0.0000  0.0000  0.0000  0.0000
  o =  0.0172  v =  0.0000  0.7071  0.0000 -0.7071  0.0000  0.0000  0.0000  0.0000  0.0000  0.0000      0.0000  0.0000  0.0000  0.0000  0.0000  0.0000  0.0000  0.0000  0.0000  0.0000
  o =  0.0562  v =  0.0000 -0.7071  0.0000 -0.7071 -0.0000  0.0000  0.0000  0.0000  0.0000  0.0000      0.0000  0.0000  0.0000  0.0000  0.0000  0.0000  0.0000  0.0000  0.0000  0.0000
  o =  0.0637  v = -0.7472  0.0000 -0.6647  0.0000 -0.0000  0.0000  0.0000  0.0000  0.0000  0.0000      0.0000  0.0000  0.0000  0.0000  0.0000  0.0000  0.0000  0.0000  0.0000  0.0000
  o =  0.9430  v =  0.0000  0.0000  0.0000  0.0000  0.0000 -0.5161 -0.0000  0.8565  0.0000 -0.0000      0.0000  0.0000  0.0000  0.0000  0.0000  0.0000  0.0000  0.0000  0.0000  0.0000
  o =  0.9476  v =  0.0000  0.0000  0.0000  0.0000  0.0000 -0.0000  0.7071  0.0000 -0.7071  0.0000      0.0000  0.0000  0.0000  0.0000  0.0000  0.0000  0.0000  0.0000  0.0000  0.0000
  o =  0.9487  v =  0.0000  0.0000  0.0000  0.0000  0.0000 -0.0000 -0.0000  0.0000  0.0000  1.0000      0.0000  0.0000  0.0000  0.0000  0.0000  0.0000  0.0000  0.0000  0.0000  0.0000
  o =  0.9805  v =  0.0000  0.0000  0.0000  0.0000  0.0000 -0.0000 -0.7071 -0.0000 -0.7071  0.0000      0.0000  0.0000  0.0000  0.0000  0.0000  0.0000  0.0000  0.0000  0.0000  0.0000
  o =  0.9831  v =  0.0000  0.0000  0.0000  0.0000  0.0000 -0.8565  0.0000 -0.5161  0.0000 -0.0000      0.0000  0.0000  0.0000  0.0000  0.0000  0.0000  0.0000  0.0000  0.0000  0.0000
atom =   2  type =  1  l = 2
 
 onsite density matrix
 
spin component  1
 
  0.9725  0.0000 -0.0178  0.0000 -0.0000
  0.0000  0.9640  0.0000 -0.0165  0.0000
 -0.0178  0.0000  0.9537  0.0000 -0.0000
  0.0000 -0.0165  0.0000  0.9640  0.0000
 -0.0000  0.0000 -0.0000  0.0000  0.9487
 
spin component  2
 
  0.0411  0.0000 -0.0254  0.0000  0.0000
  0.0000  0.0367  0.0000 -0.0195  0.0000
 -0.0254  0.0000  0.0352  0.0000  0.0000
  0.0000 -0.0195  0.0000  0.0367  0.0000
  0.0000  0.0000  0.0000  0.0000  0.0142
 
 occupancies and eigenvectors
 
  o =  0.0126  v =  0.0000  0.0000  0.0000  0.0000  0.0000 -0.6647  0.0000 -0.7472  0.0000  0.0000      0.0000  0.0000  0.0000  0.0000  0.0000  0.0000  0.0000  0.0000  0.0000  0.0000
  o =  0.0142  v =  0.0000  0.0000  0.0000  0.0000  0.0000 -0.0000  0.0000 -0.0000  0.0000 -1.0000      0.0000  0.0000  0.0000  0.0000  0.0000  0.0000  0.0000  0.0000  0.0000  0.0000
  o =  0.0172  v =  0.0000  0.0000  0.0000  0.0000  0.0000 -0.0000 -0.7071 -0.0000 -0.7071 -0.0000      0.0000  0.0000  0.0000  0.0000  0.0000  0.0000  0.0000  0.0000  0.0000  0.0000
  o =  0.0562  v =  0.0000  0.0000  0.0000  0.0000  0.0000 -0.0000 -0.7071  0.0000  0.7071 -0.0000      0.0000  0.0000  0.0000  0.0000  0.0000  0.0000  0.0000  0.0000  0.0000  0.0000
  o =  0.0637  v =  0.0000  0.0000  0.0000  0.0000  0.0000 -0.7472  0.0000  0.6647 -0.0000  0.0000      0.0000  0.0000  0.0000  0.0000  0.0000  0.0000  0.0000  0.0000  0.0000  0.0000
  o =  0.9430  v = -0.5161  0.0000 -0.8565  0.0000 -0.0000  0.0000  0.0000  0.0000  0.0000  0.0000      0.0000  0.0000  0.0000  0.0000  0.0000  0.0000  0.0000  0.0000  0.0000  0.0000
  o =  0.9476  v =  0.0000 -0.7071  0.0000 -0.7071  0.0000  0.0000  0.0000  0.0000  0.0000  0.0000      0.0000  0.0000  0.0000  0.0000  0.0000  0.0000  0.0000  0.0000  0.0000  0.0000
  o =  0.9487  v =  0.0000  0.0000 -0.0000  0.0000  1.0000  0.0000  0.0000  0.0000  0.0000  0.0000      0.0000  0.0000  0.0000  0.0000  0.0000  0.0000  0.0000  0.0000  0.0000  0.0000
  o =  0.9805  v =  0.0000  0.7071  0.0000 -0.7071 -0.0000  0.0000  0.0000  0.0000  0.0000  0.0000      0.0000  0.0000  0.0000  0.0000  0.0000  0.0000  0.0000  0.0000  0.0000  0.0000
  o =  0.9831  v = -0.8565  0.0000  0.5161  0.0000  0.0000  0.0000  0.0000  0.0000  0.0000  0.0000      0.0000  0.0000  0.0000  0.0000  0.0000  0.0000  0.0000  0.0000  0.0000  0.0000
     EDDAV:  cpu time    0.0376: real time    0.0376
       DOS:  cpu time    0.0001: real time    0.0001
    CHARGE:  cpu time    0.0232: real time    0.0232
    MIXING:  cpu time    0.0007: real time    0.0007
    --------------------------------------------
      LOOP:  cpu time    0.7666: real time    0.7666

 eigenvalue-minimisations  :   144
 total energy-change (2. order) :-0.2947305E-03  (-0.2791232E-03)
 number of electron      54.0000009 magnetization       0.0000000
 augmentation part       19.9373799 magnetization       0.0000000

 Broyden mixing:
  rms(total) = 0.11599E-01    rms(broyden)= 0.11596E-01
  rms(prec ) = 0.14108E-01
  weight for this iteration     100.00

 eigenvalues of (default mixing * dielectric matrix)
  average eigenvalue GAMMA=   1.1017
  2.5071  1.2291  0.8219  0.8219  0.6388  0.5912

 Free energy of the ion-electron system (eV)
  ---------------------------------------------------
  alpha Z        PSCENC =       196.13658257
  Ewald energy   TEWEN  =     -4178.31221721
  -Hartree energ DENC   =     -2157.93102073
  -exchange      EXHF   =         0.00000000
  -V(xc)+E(xc)   XCENC  =       294.03405543
  PAW double counting   =      6252.34163650    -6360.29455282
  entropy T*S    EENTRO =        -0.00000000
  eigenvalues    EBANDS =      -762.78989302
  atomic energy  EATOM  =      6677.64854832
  Solvation  Ediel_sol  =         0.00000000
  ---------------------------------------------------
  free energy    TOTEN  =       -39.16686097 eV

  energy without entropy =      -39.16686097  energy(sigma->0) =      -39.16686097


--------------------------------------------------------------------------------------------------------




--------------------------------------- Iteration      1(  12)  ---------------------------------------


    POTLOK:  cpu time    0.0160: real time    0.0160
    SETDIJ:  cpu time    0.6885: real time    0.6885
atom =   1  type =  1  l = 2
 
 onsite density matrix
 
spin component  1
 
  0.0421  0.0000  0.0254  0.0000 -0.0000
  0.0000  0.0379  0.0000  0.0196  0.0000
  0.0254  0.0000  0.0363  0.0000  0.0000
  0.0000  0.0196  0.0000  0.0379  0.0000
 -0.0000  0.0000  0.0000  0.0000  0.0153
 
spin component  2
 
  0.9718  0.0000  0.0178  0.0000 -0.0000
[...]

 Free energy of the ion-electron system (eV)
  ---------------------------------------------------
  alpha Z        PSCENC =       196.51679555
  Ewald energy   TEWEN  =     -4164.89494522
  -Hartree energ DENC   =     -2170.71433916
  -exchange      EXHF   =         0.00000000
  -V(xc)+E(xc)   XCENC  =       294.08284890
  PAW double counting   =      6264.11068686    -6372.14978692
  entropy T*S    EENTRO =        -0.00000000
  eigenvalues    EBANDS =      -763.79541233
  atomic energy  EATOM  =      6677.64854832
  Solvation  Ediel_sol  =         0.00000000
  ---------------------------------------------------
  free energy    TOTEN  =       -39.19560401 eV

  energy without entropy =      -39.19560401  energy(sigma->0) =      -39.19560401


--------------------------------------------------------------------------------------------------------




 average (electrostatic) potential at core
  the test charge radii are     0.9577  0.7167
  (the norm of the test charge is              1.0000)
       1 -70.7955       2 -70.7955       3 -77.0103       4 -77.0103       5 -77.0103
       6 -77.0103
 
 
 
 E-fermi :   1.0601     XC(G=0):  -9.9790     alpha+bet : -8.5319


 spin component 1

 k-point     1 :       0.0000    0.0000    0.2500
  band No.  band energies     occupation 
      1     -46.6861      1.00000
      2     -46.6654      1.00000
      3     -46.6565      1.00000
      4     -41.7069      1.00000
      5     -41.7000      1.00000
      6     -41.6888      1.00000
      7     -21.0489      1.00000
      8     -20.6867      1.00000
      9     -20.6779      1.00000
     10     -20.6230      1.00000
     11      -4.5022      1.00000
     12      -3.9969      1.00000
     13      -3.8401      1.00000
     14      -3.3378      1.00000
     15      -3.2108      1.00000
     16      -3.1396      1.00000
     17      -2.7419      1.00000
     18      -2.5412      1.00000
     19      -2.5134      1.00000
     20      -1.8748      1.00000
     21      -1.7537      1.00000
     22      -1.3384      1.00000
     23      -0.3599      1.00000
     24      -0.2374      1.00000
     25      -0.1143      1.00000
     26       0.7920      1.00000
     27       0.9532      1.00000
     28       6.2744      0.00000
     29       7.1299      0.00000
     30       7.2239      0.00000
     31       7.2791      0.00000
     32       8.0503      0.00000
     33       8.1873      0.00000
     34      11.5236      0.00000
     35      11.7036      0.00000
     36      12.0725      0.00000

 spin component 2

 k-point     1 :       0.0000    0.0000    0.2500
  band No.  band energies     occupation 
      1     -46.6861      1.00000
      2     -46.6654      1.00000
      3     -46.6565      1.00000
      4     -41.7069      1.00000
      5     -41.7000      1.00000
      6     -41.6888      1.00000
      7     -21.0489      1.00000
      8     -20.6867      1.00000
      9     -20.6779      1.00000
     10     -20.6230      1.00000
     11      -4.5022      1.00000
     12      -3.9969      1.00000
     13      -3.8401      1.00000
     14      -3.3378      1.00000
     15      -3.2108      1.00000
     16      -3.1396      1.00000
     17      -2.7419      1.00000
     18      -2.5412      1.00000
     19      -2.5134      1.00000
     20      -1.8748      1.00000
     21      -1.7537      1.00000
     22      -1.3384      1.00000
     23      -0.3599      1.00000
     24      -0.2374      1.00000
     25      -0.1143      1.00000
     26       0.7920      1.00000
     27       0.9532      1.00000
     28       6.2744      0.00000
     29       7.1299      0.00000
     30       7.2239      0.00000
     31       7.2791      0.00000
     32       8.0503      0.00000
     33       8.1873      0.00000
     34      11.5236      0.00000
     35      11.7036      0.00000
     36      12.0725      0.00000


--------------------------------------------------------------------------------------------------------


 soft charge-density along one line, spin component           1
         0         1         2         3         4         5         6         7         8         9
 total charge-density along one line
 
 soft charge-density along one line, spin component           2
         0         1         2         3         4         5         6         7         8         9
 total charge-density along one line
 
 pseudopotential strength for first ion, spin component:           1
-42.468  -0.000  -0.002   7.856   0.000   0.001   0.000   0.000
 -0.000 -42.455  -0.000   0.000   7.850   0.000   0.000   0.000
 -0.002  -0.000 -42.468   0.001   0.000   7.856   0.000   0.000
  7.856   0.000   0.001   5.259  -0.000   0.000   0.000  -0.000
  0.000   7.850   0.000  -0.000   5.259  -0.000  -0.000  -0.000
  0.001   0.000   7.856   0.000  -0.000   5.259  -0.000  -0.000
  0.000   0.000   0.000   0.000  -0.000  -0.000  -1.423  -0.000
  0.000   0.000   0.000  -0.000  -0.000  -0.000  -0.000  -1.416
 -0.000   0.000   0.000   0.000  -0.000  -0.000  -0.075   0.000
  0.000   0.000   0.000  -0.000  -0.000  -0.000  -0.000  -0.072
 -0.000   0.000  -0.000   0.000  -0.000   0.000  -0.000   0.000
  0.000   0.000   0.000   0.000  -0.000  -0.000  -1.865  -0.000
  0.000   0.000   0.000  -0.000  -0.000  -0.000  -0.000  -1.857
 -0.000   0.000   0.000   0.000  -0.000  -0.000  -0.078   0.000
  0.000   0.000   0.000  -0.000  -0.000  -0.000  -0.000  -0.075
 -0.000   0.000  -0.000   0.000  -0.000   0.000  -0.000   0.000
 -0.000  -0.000   0.000  -0.000  -0.000   0.000   0.000   0.000
 -0.000  -0.000   0.000  -0.000  -0.000   0.000   0.000   0.000
 pseudopotential strength for first ion, spin component:           2
-45.805  -0.000  -0.010   9.385   0.000   0.004   0.000   0.000
 -0.000 -45.793  -0.000   0.000   9.382   0.000   0.000   0.000
 -0.010  -0.000 -45.805   0.004   0.000   9.385   0.000   0.000
  9.385   0.000   0.004   4.745  -0.000  -0.001   0.000  -0.000
  0.000   9.382   0.000  -0.000   4.746  -0.000  -0.000  -0.000
  0.004   0.000   9.385  -0.001  -0.000   4.745  -0.000  -0.000
  0.000   0.000   0.000   0.000  -0.000  -0.000  -7.737  -0.000
  0.000   0.000   0.000  -0.000  -0.000  -0.000  -0.000  -7.708
 -0.000   0.000   0.000   0.000  -0.000  -0.000  -0.042   0.000
  0.000   0.000   0.000  -0.000  -0.000  -0.000  -0.000  -0.063
 -0.000   0.000  -0.000   0.000  -0.000   0.000   0.000   0.000
  0.000   0.000   0.000   0.000  -0.000  -0.000  -8.233  -0.000
  0.000   0.000   0.000  -0.000  -0.000  -0.000  -0.000  -8.204
 -0.000   0.000   0.000   0.000  -0.000  -0.000  -0.044   0.000
  0.000   0.000   0.000  -0.000  -0.000  -0.000  -0.000  -0.064
 -0.000   0.000  -0.000   0.000  -0.000   0.000   0.000   0.000
 -0.000  -0.000   0.000  -0.000  -0.000   0.000   0.003   0.000
 -0.000  -0.000   0.000  -0.000  -0.000   0.000   0.005   0.000
 total augmentation occupancy for first ion, spin component:           1
  1.998   0.000   0.000  -0.013   0.000   0.000   0.000   0.000   0.000   0.000   0.000   0.000   0.000   0.000   0.000   0.000
  0.000   1.998   0.000   0.000  -0.013   0.000   0.000   0.000   0.000   0.000   0.000   0.000   0.000   0.000   0.000   0.000
  0.000   0.000   1.998   0.000   0.000  -0.013   0.000   0.000   0.000   0.000   0.000   0.000   0.000   0.000   0.000   0.000
 -0.013   0.000   0.000   0.091   0.000  -0.003   0.000   0.000   0.000   0.000   0.000   0.000   0.000   0.000   0.000   0.000
  0.000  -0.013   0.000   0.000   0.100   0.000   0.000   0.000   0.000   0.000   0.000   0.000   0.000   0.000   0.000   0.000
  0.000   0.000  -0.013  -0.003   0.000   0.091   0.000   0.000   0.000   0.000   0.000   0.000   0.000   0.000   0.000   0.000
  0.000   0.000   0.000   0.000   0.000   0.000   7.515   0.000   2.521   0.000   0.000  -5.545   0.000  -2.390   0.000   0.000
  0.000   0.000   0.000   0.000   0.000   0.000   0.000   6.774   0.000   2.805   0.000   0.000  -4.885   0.000  -2.646   0.000
  0.000   0.000   0.000   0.000   0.000   0.000   2.521   0.000   5.564   0.000   0.000  -2.390   0.000  -3.798   0.000  -0.000
  0.000   0.000   0.000   0.000   0.000   0.000   0.000   2.805   0.000   6.774   0.000   0.000  -2.646   0.000  -4.885   0.000
  0.000   0.000   0.000   0.000   0.000   0.000   0.000   0.000   0.000   0.000   3.972  -0.000   0.000   0.000   0.000  -2.199
  0.000   0.000   0.000   0.000   0.000   0.000  -5.545   0.000  -2.390   0.000  -0.000   4.743   0.000   2.293   0.000   0.000
  0.000   0.000   0.000   0.000   0.000   0.000   0.000  -4.885   0.000  -2.646   0.000   0.000   4.155   0.000   2.522   0.000
  0.000   0.000   0.000   0.000   0.000   0.000  -2.390   0.000  -3.798   0.000   0.000   2.293   0.000   3.173   0.000   0.000
  0.000   0.000   0.000   0.000   0.000   0.000   0.000  -2.646   0.000  -4.885   0.000   0.000   2.522   0.000   4.155   0.000
  0.000   0.000   0.000   0.000   0.000   0.000   0.000   0.000  -0.000   0.000  -2.199   0.000   0.000   0.000   0.000   1.551
  0.000   0.000   0.000   0.000   0.000   0.000  -0.077   0.000  -0.315   0.000   0.000   0.067   0.000   0.327   0.000   0.000
  0.000   0.000   0.000   0.000   0.000   0.000  -0.007   0.000   0.022   0.000  -0.000   0.010   0.000  -0.037   0.000   0.000
 total augmentation occupancy for first ion, spin component:           2
  0.003   0.000   0.000   0.011   0.000   0.000   0.000   0.000   0.000   0.000   0.000   0.000   0.000   0.000   0.000   0.000
  0.000   0.003   0.000   0.000   0.012   0.000   0.000   0.000   0.000   0.000   0.000   0.000   0.000   0.000   0.000   0.000
  0.000   0.000   0.003   0.000   0.000   0.011   0.000   0.000   0.000   0.000   0.000   0.000   0.000   0.000   0.000   0.000
  0.011   0.000   0.000  -0.012   0.000  -0.001   0.000   0.000   0.000   0.000   0.000   0.000   0.000   0.000   0.000   0.000
  0.000   0.012   0.000   0.000  -0.008   0.000   0.000   0.000   0.000   0.000   0.000   0.000   0.000   0.000   0.000   0.000
  0.000   0.000   0.011  -0.001   0.000  -0.012   0.000   0.000   0.000   0.000   0.000   0.000   0.000   0.000   0.000   0.000
  0.000   0.000   0.000   0.000   0.000   0.000  -5.322   0.000  -1.369   0.000  -0.000   3.034   0.000   1.067   0.000   0.000
  0.000   0.000   0.000   0.000   0.000   0.000   0.000  -4.857   0.000  -1.563   0.000   0.000   2.669   0.000   1.233   0.000
  0.000   0.000   0.000   0.000   0.000   0.000  -1.369   0.000  -4.033   0.000  -0.000   1.067   0.000   2.014   0.000   0.000
  0.000   0.000   0.000   0.000   0.000   0.000   0.000  -1.563   0.000  -4.857   0.000   0.000   1.233   0.000   2.669   0.000
  0.000   0.000   0.000   0.000   0.000   0.000  -0.000   0.000  -0.000   0.000  -3.364  -0.000   0.000  -0.000   0.000   1.482
  0.000   0.000   0.000   0.000   0.000   0.000   3.034   0.000   1.067   0.000  -0.000  -1.861   0.000  -0.768   0.000   0.000
  0.000   0.000   0.000   0.000   0.000   0.000   0.000   2.669   0.000   1.233   0.000   0.000  -1.587   0.000  -0.910   0.000
  0.000   0.000   0.000   0.000   0.000   0.000   1.067   0.000   2.014   0.000  -0.000  -0.768   0.000  -1.087   0.000  -0.000
  0.000   0.000   0.000   0.000   0.000   0.000   0.000   1.233   0.000   2.669   0.000   0.000  -0.910   0.000  -1.587   0.000
  0.000   0.000   0.000   0.000   0.000   0.000   0.000   0.000   0.000   0.000   1.482   0.000   0.000  -0.000   0.000  -0.706
  0.000   0.000   0.000   0.000   0.000   0.000   0.053   0.000   0.040   0.000  -0.000  -0.027   0.000  -0.010   0.000  -0.000
  0.000   0.000   0.000   0.000   0.000   0.000   0.003   0.000   0.030   0.000   0.000  -0.008   0.000  -0.021   0.000  -0.000


------------------------ aborting loop because EDIFF is reached ----------------------------------------


 


 total charge     
 
# of ion       s       p       d       tot
------------------------------------------
    1        0.166   6.158   4.956  11.280
    2        0.166   6.158   4.956  11.280
    3        1.726   4.363   0.000   6.089
    4        1.726   4.363   0.000   6.089
    5        1.726   4.363   0.000   6.089
    6        1.726   4.363   0.000   6.089
--------------------------------------------------
tot          7.236  29.768   9.913  46.917
 


 magnetization (x)
 
# of ion       s       p       d       tot
------------------------------------------
    1       -0.019  -0.018  -4.619  -4.656
    2        0.019   0.018   4.619   4.656
    3        0.001   0.014   0.000   0.015
    4        0.001   0.014   0.000   0.015
    5       -0.001  -0.014   0.000  -0.015
    6       -0.001  -0.014   0.000  -0.015
--------------------------------------------------
tot          0.000   0.000  -0.000  -0.000
 
    CHARGE:  cpu time    0.0230: real time    0.0230
    FORLOC:  cpu time    0.0008: real time    0.0008
    FORNL :  cpu time    0.0977: real time    0.0977
    STRESS:  cpu time    0.3014: real time    0.3014
    FORCOR:  cpu time    0.0151: real time    0.0151
    FORHAR:  cpu time    0.0021: real time    0.0021
    MIXING:  cpu time    0.0005: real time    0.0005
    OFIELD:  cpu time    0.0000: real time    0.0000

  FORCE on cell =-STRESS in cart. coord.  units (eV):
  Direction    XX          YY          ZZ          XY          YZ          ZX
  --------------------------------------------------------------------------------------
  Alpha Z   196.51680   196.51680   196.51680
  Ewald   -1591.83957 -1591.83957  -981.21915     0.00000    -0.00000     0.00000
  Hartree   586.52002   586.52002   997.67581    -0.00000    -0.00000    -0.00000
  E(xc)    -314.08940  -314.08940  -313.86954    -0.00000    -0.00000    -0.00000
  Local     173.43408   173.43408  -837.03538    -0.00000     0.00000     0.00000
  n-local  -242.64246  -242.64246  -240.64913    -0.00000    -0.00000    -0.00000
  augment   265.95032   265.95032   264.27633     0.00000     0.00000     0.00000
  Kinetic   926.12943   926.12943   914.30752     0.00000     0.00000     0.00000
  Fock        0.00000     0.00000     0.00000     0.00000     0.00000     0.00000
  -------------------------------------------------------------------------------------
  Total      -0.02079    -0.02079     0.00325     0.00000     0.00000     0.00000
  in kB      -0.42399    -0.42399     0.06638     0.00000     0.00000     0.00000
  external pressure =       -0.26 kB  Pullay stress =        0.00 kB


 VOLUME and BASIS-vectors are now :
 -----------------------------------------------------------------------------
  energy-cutoff  :      600.00
  volume of cell :       78.56
      direct lattice vectors                 reciprocal lattice vectors
     4.955064348 -0.000000000  0.000000000     0.201813726  0.000000000  0.000000000
    -0.000000000  4.955064348  0.000000000     0.000000000  0.201813726  0.000000000
     0.000000000  0.000000000  3.199472091     0.000000000  0.000000000  0.312551562

  length of vectors
     4.955064348  4.955064348  3.199472091     0.201813726  0.201813726  0.312551562


 FORCES acting on ions
    electron-ion (+dipol)            ewald-force                    non-local-force                 convergence-correction
 -----------------------------------------------------------------------------------------------
   -.168E-11 0.665E-11 -.287E-13   0.284E-13 0.000E+00 0.189E-13   0.490E-34 0.000E+00 0.000E+00   -.828E-13 -.162E-12 -.944E-13
   -.962E-13 -.589E-13 0.381E-13   0.568E-13 -.568E-13 0.187E-13   0.163E-34 0.000E+00 0.000E+00   0.966E-13 0.365E-13 0.503E-13
   -.451E+02 0.451E+02 -.247E-11   0.478E+02 -.478E+02 -.139E-13   -.267E+01 0.267E+01 0.000E+00   -.673E-03 0.673E-03 0.126E-13
   0.451E+02 -.451E+02 0.148E-10   -.478E+02 0.478E+02 -.142E-13   0.267E+01 -.267E+01 0.000E+00   0.673E-03 -.673E-03 -.231E-12
   0.451E+02 0.451E+02 -.795E-07   -.478E+02 -.478E+02 -.842E-14   0.267E+01 0.267E+01 0.000E+00   0.673E-03 0.673E-03 0.159E-11
   -.451E+02 -.451E+02 0.795E-07   0.478E+02 0.478E+02 -.861E-14   -.267E+01 -.267E+01 -.505E-27   -.673E-03 -.673E-03 -.131E-11
 -----------------------------------------------------------------------------------------------
   -.130E-11 -.511E-11 -.667E-11   0.711E-14 0.711E-14 -.755E-14   -.444E-15 0.444E-15 -.505E-27   0.209E-13 0.242E-13 0.177E-13
 
 
 POSITION                                       TOTAL-FORCE (eV/Angst)
 -----------------------------------------------------------------------------------
      2.47753      2.47753      1.59974         0.000000      0.000000      0.000000
      0.00000     -0.00000     -0.00000        -0.000000      0.000000      0.000000
      0.97413      3.98093      1.59974         0.000881     -0.000881      0.000000
      3.98093      0.97413      1.59974        -0.000881      0.000881      0.000000
      1.50340      1.50340      0.00000        -0.000881     -0.000881     -0.000000
      3.45167      3.45167     -0.00000         0.000881      0.000881      0.000000
 -----------------------------------------------------------------------------------
    total drift:                               -0.000000     -0.000000     -0.000000


--------------------------------------------------------------------------------------------------------



  FREE ENERGIE OF THE ION-ELECTRON SYSTEM (eV)
  ---------------------------------------------------
  free  energy   TOTEN  =       -39.19560401 eV

  energy  without entropy=      -39.19560401  energy(sigma->0) =      -39.19560401
 
 d Force = 0.1599814E-05[-0.195E-05, 0.515E-05]  d Energy = 0.8852385E-05-0.725E-05
 d Force =-0.1058075E+00[-0.106E+00,-0.106E+00]  d Ewald  = 0.3203375E+00-0.426E+00


--------------------------------------------------------------------------------------------------------


    POTLOK:  cpu time    0.3852: real time    0.3852


--------------------------------------------------------------------------------------------------------




--------------------------------------------------------------------------------------------------------


  
 reached required accuracy - stopping structural energy minimisation
     LOOP+:  cpu time    3.8535: real time    3.8535
    4ORBIT:  cpu time    0.0000: real time    0.0000
 


 total charge     
 
# of ion       s       p       d       tot
------------------------------------------
    1        0.166   6.158   4.956  11.280
    2        0.166   6.158   4.956  11.280
    3        1.726   4.363   0.000   6.089
    4        1.726   4.363   0.000   6.089
    5        1.726   4.363   0.000   6.089
    6        1.726   4.363   0.000   6.089
--------------------------------------------------
tot          7.236  29.768   9.913  46.917
 


 magnetization (x)
 
# of ion       s       p       d       tot
------------------------------------------
    1       -0.019  -0.018  -4.619  -4.656
    2        0.019   0.018   4.619   4.656
    3        0.001   0.014   0.000   0.015
    4        0.001   0.014   0.000   0.015
    5       -0.001  -0.014   0.000  -0.015
    6       -0.001  -0.014   0.000  -0.015
--------------------------------------------------
tot          0.000   0.000  -0.000  -0.000
 

 total amount of memory used by VASP MPI-rank0    35790. kBytes
=======================================================================

   base      :      30000. kBytes
   nonl-proj :       1004. kBytes
   fftplans  :       1875. kBytes
   grid      :       2467. kBytes
   one-center:        186. kBytes
   wavefun   :        258. kBytes
 
  
  
 General timing and accounting informations for this job:
 ========================================================
  
                  Total CPU time used (sec):       63.726
                            User time (sec):       38.502
                          System time (sec):       25.224
                         Elapsed time (sec):       63.802
  
                   Maximum memory used (kb):       54968.
                   Average memory used (kb):           0.
  
                          Minor page faults:         9713
                          Major page faults:            6
                 Voluntary context switches:          324
