 vasp.5.4.4.18Apr17-6-g9f103f2a35 (build Apr 27 2017 11:13:10) complex          
  
 executed on           IFC91_ompi date 2020.05.13  11:20:56
 running on   12 total cores
 distrk:  each k-point on   12 cores,    1 groups
 distr:  one band on NCORES_PER_BAND=   1 cores,   12 groups


--------------------------------------------------------------------------------------------------------


 INCAR:
 POTCAR:    PAW_PBE Mn_pv 02Aug2007               
 POTCAR:    PAW_PBE F 08Apr2002                   

 ----------------------------------------------------------------------------- 
|                                                                             |
|           W    W    AA    RRRRR   N    N  II  N    N   GGGG   !!!           |
|           W    W   A  A   R    R  NN   N  II  NN   N  G    G  !!!           |
|           W    W  A    A  R    R  N N  N  II  N N  N  G       !!!           |
|           W WW W  AAAAAA  RRRRR   N  N N  II  N  N N  G  GGG   !            |
|           WW  WW  A    A  R   R   N   NN  II  N   NN  G    G                |
|           W    W  A    A  R    R  N    N  II  N    N   GGGG   !!!           |
|                                                                             |
|      For optimal performance we recommend to set                            |
|        NCORE= 4 - approx SQRT( number of cores)                             |
|      NCORE specifies how many cores store one orbital (NPAR=cpu/NCORE).     |
|      This setting can  greatly improve the performance of VASP for DFT.     |
|      The default,   NCORE=1            might be grossly inefficient         |
|      on modern multi-core architectures or massively parallel machines.     |
|      Do your own testing !!!!                                               |
|      Unfortunately you need to use the default for GW and RPA calculations. |
|      (for HF NCORE is supported but not extensively tested yet)             |
|                                                                             |
 ----------------------------------------------------------------------------- 

 POTCAR:    PAW_PBE Mn_pv 02Aug2007               
   VRHFIN =Mn: 3p4s3d                                                           
   LEXCH  = PE                                                                  
   EATOM  =  2025.2664 eV,  148.8529 Ry                                         
                                                                                
   TITEL  = PAW_PBE Mn_pv 02Aug2007                                             
   LULTRA =        F    use ultrasoft PP ?                                      
   IUNSCR =        1    unscreen: 0-lin 1-nonlin 2-no                           
   RPACOR =    2.080    partial core radius                                     
   POMASS =   54.938; ZVAL   =   13.000    mass and valenz                      
   RCORE  =    2.300    outmost cutoff radius                                   
   RWIGS  =    2.500; RWIGS  =    1.323    wigner-seitz radius (au A)           
   ENMAX  =  269.864; ENMIN  =  202.398 eV                                      
   ICORE  =        3    local potential                                         
   LCOR   =        T    correct aug charges                                     
   LPAW   =        T    paw PP                                                  
   EAUG   =  569.085                                                            
   DEXC   =    0.000                                                            
   RMAX   =    2.343    core radius for proj-oper                               
   RAUG   =    1.300    factor for augmentation sphere                          
   RDEP   =    2.338    radius for radial grids                                 
   RDEPT  =    1.798    core radius for aug-charge                              
                                                                                
   Atomic configuration                                                         
    8 entries                                                                   
     n  l   j            E        occ.                                          
     1  0  0.50     -6424.8287   2.0000                                         
     2  0  0.50      -739.1154   2.0000                                         
     2  1  1.50      -625.3949   6.0000                                         
     3  0  0.50       -81.6100   2.0000                                         
     3  1  1.50       -50.4667   6.0000                                         
     3  2  2.50        -3.3745   6.0000                                         
     4  0  0.50        -4.1331   1.0000                                         
     4  3  2.50        -1.3606   0.0000                                         
   Description                                                                  
     l       E           TYP  RCUT    TYP  RCUT                                 
     1    -50.4666628     23  2.000                                             
     1     -1.3605826     23  2.000                                             
     2     -3.3744729     23  2.300                                             
     2     -4.7350555     23  2.300                                             
     0     -4.1331431     23  2.300                                             
     0      7.6656591     23  2.300                                             
     3      9.5240782     23  2.300                                             
  local pseudopotential read in
  partial core-charges read in
  partial kinetic energy density read in
  atomic valenz-charges read in
  non local Contribution for L=           1  read in
    real space projection operators read in
  non local Contribution for L=           1  read in
    real space projection operators read in
  non local Contribution for L=           2  read in
    real space projection operators read in
  non local Contribution for L=           2  read in
    real space projection operators read in
  non local Contribution for L=           0  read in
    real space projection operators read in
  non local Contribution for L=           0  read in
    real space projection operators read in
    PAW grid and wavefunctions read in
 
   number of l-projection  operators is LMAX  =           6
   number of lm-projection operators is LMMAX =          18
 
 POTCAR:    PAW_PBE F 08Apr2002                   
   VRHFIN =F: s2p5                                                              
   LEXCH  = PE                                                                  
   EATOM  =   659.6475 eV,   48.4827 Ry                                         
                                                                                
   TITEL  = PAW_PBE F 08Apr2002                                                 
   LULTRA =        F    use ultrasoft PP ?                                      
   IUNSCR =        1    unscreen: 0-lin 1-nonlin 2-no                           
   RPACOR =    1.200    partial core radius                                     
   POMASS =   18.998; ZVAL   =    7.000    mass and valenz                      
   RCORE  =    1.520    outmost cutoff radius                                   
   RWIGS  =    1.500; RWIGS  =    0.794    wigner-seitz radius (au A)           
   ENMAX  =  400.000; ENMIN  =  300.000 eV                                      
   ICORE  =        2    local potential                                         
   LCOR   =        T    correct aug charges                                     
   LPAW   =        T    paw PP                                                  
   EAUG   =  613.614                                                            
   RMAX   =    1.555    core radius for proj-oper                               
   RAUG   =    1.300    factor for augmentation sphere                          
   RDEP   =    1.539    radius for radial grids                                 
   RDEPT  =    1.299    core radius for aug-charge                              
                                                                                
   Atomic configuration                                                         
    4 entries                                                                   
     n  l   j            E        occ.                                          
     1  0  0.50      -663.3661   2.0000                                         
     2  0  0.50       -29.8995   2.0000                                         
     2  1  0.50       -11.1114   5.0000                                         
     3  2  1.50       -10.8847   0.0000                                         
   Description                                                                  
     l       E           TYP  RCUT    TYP  RCUT                                 
     0    -29.8995018     23  1.200                                             
     0     -9.5240782     23  1.200                                             
     1    -11.1113914     23  1.520                                             
     1      1.3605826     23  1.520                                             
     2    -10.8846608      7  1.500                                             
  local pseudopotential read in
  partial core-charges read in
  partial kinetic energy density read in
  atomic valenz-charges read in
  non local Contribution for L=           0  read in
    real space projection operators read in
  non local Contribution for L=           0  read in
    real space projection operators read in
  non local Contribution for L=           1  read in
    real space projection operators read in
  non local Contribution for L=           1  read in
    real space projection operators read in
    PAW grid and wavefunctions read in
 
   number of l-projection  operators is LMAX  =           4
   number of lm-projection operators is LMMAX =           8
 

 ----------------------------------------------------------------------------- 
|                                                                             |
|  ADVICE TO THIS USER RUNNING 'VASP/VAMP'   (HEAR YOUR MASTER'S VOICE ...):  |
|                                                                             |
|      You enforced a specific xc-type in the INCAR file,                     |
|      a different type was found on the POTCAR file                          |
|          I HOPE YOU KNOW, WHAT YOU ARE  DOING                               |
|                                                                             |
 ----------------------------------------------------------------------------- 

  PAW_PBE Mn_pv 02Aug2007               :
 energy of atom  1       EATOM=-2025.2664
 kinetic energy error for atom=    0.0062 (will be added to EATOM!!)
  PAW_PBE F 08Apr2002                   :
 energy of atom  2       EATOM= -659.6475
 kinetic energy error for atom=    0.0354 (will be added to EATOM!!)
 
 
 POSCAR: Mn  F                                   
  positions in cartesian coordinates
  No initial velocities read in
 exchange correlation table for  LEXCH =       14
   RHO(1)=    0.500       N(1)  =     2000
   RHO(2)=  100.500       N(2)  =     4000
 


--------------------------------------------------------------------------------------------------------


 ion  position               nearest neighbor table
   1  0.500  0.500  0.500-   3 2.10   4 2.10   5 2.13   6 2.13   5 2.13   6 2.13
   2  0.000  0.000  0.000-   5 2.10   6 2.10   3 2.13   4 2.13   3 2.13   4 2.13
   3  0.195  0.805  0.500-   1 2.10   2 2.13   2 2.13
   4  0.805  0.195  0.500-   1 2.10   2 2.13   2 2.13
   5  0.305  0.305  0.000-   2 2.10   1 2.13   1 2.13
   6  0.695  0.695  0.000-   2 2.10   1 2.13   1 2.13
 
  LATTYP: Found a simple tetragonal cell.
 ALAT       =     4.8808754009
 C/A-ratio  =     0.6760200490
  
  Lattice vectors:
  
 A1 = (   4.8808754009,   0.0000000000,   0.0000000000)
 A2 = (   0.0000000000,   4.8808754009,   0.0000000000)
 A3 = (   0.0000000000,   0.0000000000,   3.2995696277)


Analysis of symmetry for initial positions (statically):
=====================================================================
 Subroutine PRICEL returns:
 Original cell was already a primitive cell.
 

 Routine SETGRP: Setting up the symmetry group for a 
 simple tetragonal supercell.


 Subroutine GETGRP returns: Found 16 space group operations
 (whereof  8 operations were pure point group operations)
 out of a pool of 16 trial point group operations.


The static configuration has the point symmetry D_2h.
 The point group associated with its full space group is D_4h.


Analysis of symmetry for dynamics (positions and initial velocities):
=====================================================================
 Subroutine PRICEL returns:
 Original cell was already a primitive cell.
 

 Routine SETGRP: Setting up the symmetry group for a 
 simple tetragonal supercell.


 Subroutine GETGRP returns: Found 16 space group operations
 (whereof  8 operations were pure point group operations)
 out of a pool of 16 trial point group operations.


The dynamic configuration has the point symmetry D_2h.
 The point group associated with its full space group is D_4h.


Analysis of structural, dynamic, and magnetic symmetry:
=====================================================================
 Subroutine PRICEL returns:
 Original cell was already a primitive cell.
 

 Routine SETGRP: Setting up the symmetry group for a 
 simple tetragonal supercell.


 Subroutine GETGRP returns: Found 16 space group operations
 (whereof  8 operations were pure point group operations)
 out of a pool of 16 trial point group operations.


The magnetic configuration has the point symmetry D_2h.
 The point group associated with its full space group is D_4h.


 Subroutine INISYM returns: Found 16 space group operations
 (whereof  8 operations are pure point group operations),
 and found     1 'primitive' translations

 
 
 KPOINTS: KPOINTS created by Atomic Simulation Env

Automatic generation of k-mesh.
Space group operators:
 irot       det(A)        alpha          n_x          n_y          n_z        tau_x        tau_y        tau_z
    1     1.000000     0.000000     1.000000     0.000000     0.000000     0.000000     0.000000     0.000000
    2    -1.000000     0.000000     1.000000     0.000000     0.000000     0.000000     0.000000     0.000000
    3     1.000000   180.000000     0.000000     0.000000     1.000000     0.000000     0.000000     0.000000
    4    -1.000000   180.000000     0.000000     0.000000     1.000000     0.000000     0.000000     0.000000
    5     1.000000   180.000000     0.707107     0.707107     0.000000     0.000000     0.000000     0.000000
    6    -1.000000   180.000000     0.707107     0.707107     0.000000     0.000000     0.000000     0.000000
    7     1.000000   180.000000     0.707107    -0.707107     0.000000     0.000000     0.000000     0.000000
    8    -1.000000   180.000000     0.707107    -0.707107     0.000000     0.000000     0.000000     0.000000
    9     1.000000    90.000000     0.000000     0.000000    -1.000000     0.500000     0.500000     0.500000
   10    -1.000000    90.000000     0.000000     0.000000    -1.000000     0.500000     0.500000     0.500000
   11     1.000000    90.000000     0.000000     0.000000     1.000000     0.500000     0.500000     0.500000
   12    -1.000000    90.000000     0.000000     0.000000     1.000000     0.500000     0.500000     0.500000
   13     1.000000   180.000000     0.000000     1.000000     0.000000     0.500000     0.500000     0.500000
   14    -1.000000   180.000000     0.000000     1.000000     0.000000     0.500000     0.500000     0.500000
   15     1.000000   180.000000     1.000000     0.000000     0.000000     0.500000     0.500000     0.500000
   16    -1.000000   180.000000     1.000000     0.000000     0.000000     0.500000     0.500000     0.500000
 
 Subroutine IBZKPT returns following result:
 ===========================================
 
 Found      9 irreducible k-points:
 
 Following reciprocal coordinates:
            Coordinates               Weight
  0.125000  0.125000  0.083333      8.000000
  0.375000  0.125000  0.083333     16.000000
  0.375000  0.375000  0.083333      8.000000
  0.125000  0.125000  0.250000      8.000000
  0.375000  0.125000  0.250000     16.000000
  0.375000  0.375000  0.250000      8.000000
  0.125000  0.125000  0.416667      8.000000
  0.375000  0.125000  0.416667     16.000000
  0.375000  0.375000  0.416667      8.000000
 
 Following cartesian coordinates:
            Coordinates               Weight
  0.025610  0.025610  0.025256      8.000000
  0.076830  0.025610  0.025256     16.000000
  0.076830  0.076830  0.025256      8.000000
  0.025610  0.025610  0.075767      8.000000
  0.076830  0.025610  0.075767     16.000000
  0.076830  0.076830  0.075767      8.000000
  0.025610  0.025610  0.126279      8.000000
  0.076830  0.025610  0.126279     16.000000
  0.076830  0.076830  0.126279      8.000000
 
 TETIRR: Found    106 inequivalent tetrahedra from      576


--------------------------------------------------------------------------------------------------------




 Dimension of arrays:
   k-points           NKPTS =      9   k-points in BZ     NKDIM =      9   number of bands    NBANDS=     36
   number of dos      NEDOS =    301   number of ions     NIONS =      6
   non local maximal  LDIM  =      6   non local SUM 2l+1 LMDIM =     18
   total plane-waves  NPLWV =  14112
   max r-space proj   IRMAX =      1   max aug-charges    IRDMAX=  43774
   dimension x,y,z NGX =    28 NGY =   28 NGZ =   18
   dimension x,y,z NGXF=    56 NGYF=   56 NGZF=   36
   support grid    NGXF=   112 NGYF=  112 NGZF=   72
   ions per type =               2   4
   NGX,Y,Z   is equivalent  to a cutoff of   9.54,  9.54,  9.07 a.u.
   NGXF,Y,Z  is equivalent  to a cutoff of  19.07, 19.07, 18.14 a.u.

 SYSTEM =  unknown system                          
 POSCAR =  Mn  F                                   

 Startparameter for this run:
   NWRITE =      2    write-flag & timer
   PREC   = normal    normal or accurate (medium, high low for compatibility)
   ISTART =      0    job   : 0-new  1-cont  2-samecut
   ICHARG =      2    charge: 1-file 2-atom 10-const
   ISPIN  =      2    spin polarized calculation?
   LNONCOLLINEAR =      F non collinear calculations
   LSORBIT =      F    spin-orbit coupling
   INIWAV =      1    electr: 0-lowe 1-rand  2-diag
   LASPH  =      T    aspherical Exc in radial PAW
   METAGGA=      F    non-selfconsistent MetaGGA calc.

 Electronic Relaxation 1
   ENCUT  =  500.0 eV  36.75 Ry    6.06 a.u.   8.90  8.90  6.02*2*pi/ulx,y,z
   ENINI  =  500.0     initial cutoff
   ENAUG  =  613.6 eV  augmentation charge cutoff
   NELM   =     60;   NELMIN=  2; NELMDL= -5     # of ELM steps 
   EDIFF  = 0.1E-05   stopping-criterion for ELM
   LREAL  =      F    real-space projection
   NLSPLINE    = F    spline interpolate recip. space projectors
   LCOMPAT=      F    compatible to vasp.4.4
   GGA_COMPAT  = T    GGA compatible to vasp.4.4-vasp.4.6
   LMAXPAW     = -100 max onsite density
   LMAXMIX     =    4 max onsite mixed and CHGCAR
   VOSKOWN=      0    Vosko Wilk Nusair interpolation
   ROPT   =    0.00000   0.00000
 Ionic relaxation
   EDIFFG = 0.1E-04   stopping-criterion for IOM
   NSW    =      0    number of steps for IOM
   NBLOCK =      1;   KBLOCK =      1    inner block; outer block 
   IBRION =     -1    ionic relax: 0-MD 1-quasi-New 2-CG
   NFREE  =      0    steps in history (QN), initial steepest desc. (CG)
   ISIF   =      2    stress and relaxation
   IWAVPR =     10    prediction:  0-non 1-charg 2-wave 3-comb
   ISYM   =      2    0-nonsym 1-usesym 2-fastsym
   LCORR  =      T    Harris-Foulkes like correction to forces

   POTIM  = 0.5000    time-step for ionic-motion
   TEIN   =    0.0    initial temperature
   TEBEG  =    0.0;   TEEND  =   0.0 temperature during run
   SMASS  =  -3.00    Nose mass-parameter (am)
   estimated Nose-frequenzy (Omega)   =  0.10E-29 period in steps =****** mass=  -0.544E-27a.u.
   SCALEE = 1.0000    scale energy and forces
   NPACO  =    256;   APACO  = 16.0  distance and # of slots for P.C.
   PSTRESS=    0.0 pullay stress

  Mass of Ions in am
   POMASS =  54.94 19.00
  Ionic Valenz
   ZVAL   =  13.00  7.00
  Atomic Wigner-Seitz radii
   RWIGS  =  -1.00 -1.00
  virtual crystal weights 
   VCA    =   1.00  1.00
   NELECT =      54.0000    total number of electrons
   NUPDOWN=      -1.0000    fix difference up-down

 DOS related values:
   EMIN   =  10.00;   EMAX   =-10.00  energy-range for DOS
   EFERMI =   0.00
   ISMEAR =    -5;   SIGMA  =   0.20  broadening in eV -4-tet -1-fermi 0-gaus

 Electronic relaxation 2 (details)
   IALGO  =     38    algorithm
   LDIAG  =      T    sub-space diagonalisation (order eigenvalues)
   LSUBROT=      F    optimize rotation matrix (better conditioning)
   TURBO    =      0    0=normal 1=particle mesh
   IRESTART =      0    0=no restart 2=restart with 2 vectors
   NREBOOT  =      0    no. of reboots
   NMIN     =      0    reboot dimension
   EREF     =   0.00    reference energy to select bands
   IMIX   =      4    mixing-type and parameters
     AMIX     =   0.40;   BMIX     =  1.00
     AMIX_MAG =   1.60;   BMIX_MAG =  1.00
     AMIN     =   0.10
     WC   =   100.;   INIMIX=   1;  MIXPRE=   1;  MAXMIX= -45

 Intra band minimization:
   WEIMIN = 0.0000     energy-eigenvalue tresh-hold
   EBREAK =  0.69E-08  absolut break condition
   DEPER  =   0.30     relativ break condition  

   TIME   =   0.40     timestep for ELM

  volume/ion in A,a.u.               =      13.10        88.41
  Fermi-wavevector in a.u.,A,eV,Ry     =   1.444514  2.729736 28.390209  2.086621
  Thomas-Fermi vector in A             =   2.562801
 
 Write flags
   LWAVE        =      T    write WAVECAR
   LDOWNSAMPLE  =      F    k-point downsampling of WAVECAR
   LCHARG       =      T    write CHGCAR
   LVTOT        =      F    write LOCPOT, total local potential
   LVHAR        =      F    write LOCPOT, Hartree potential only
   LELF         =      F    write electronic localiz. function (ELF)
   LORBIT       =     11    0 simple, 1 ext, 2 COOP (PROOUT), +10 PAW based schemes


 Dipole corrections
   LMONO  =      F    monopole corrections only (constant potential shift)
   LDIPOL =      F    correct potential (dipole corrections)
   IDIPOL =      0    1-x, 2-y, 3-z, 4-all directions 
   EPSILON=  1.0000000 bulk dielectric constant

 LDA+U is selected, type is set to LDAUTYPE =  2
   angular momentum for each species LDAUL =     2   -1
   U (eV)           for each species LDAUU =   4.0  0.0
   J (eV)           for each species LDAUJ =   0.0  0.0
 Exchange correlation treatment:
   GGA     =    PS    GGA type
   LEXCH   =    14    internal setting for exchange type
   VOSKOWN=      0    Vosko Wilk Nusair interpolation
   LHFCALC =     F    Hartree Fock is set to
   LHFONE  =     F    Hartree Fock one center treatment
   AEXX    =    0.0000 exact exchange contribution

 Linear response parameters
   LEPSILON=     F    determine dielectric tensor
   LRPA    =     F    only Hartree local field effects (RPA)
   LNABLA  =     F    use nabla operator in PAW spheres
   LVEL    =     F    velocity operator in full k-point grid
   LINTERFAST=   F  fast interpolation
   KINTER  =     0    interpolate to denser k-point grid
   CSHIFT  =0.1000    complex shift for real part using Kramers Kronig
   OMEGAMAX=  -1.0    maximum frequency
   DEG_THRESHOLD= 0.2000000E-02 threshold for treating states as degnerate
   RTIME   =   -0.100 relaxation time in fs
  (WPLASMAI=    0.000 imaginary part of plasma frequency in eV, 0.658/RTIME)
   DFIELD  = 0.0000000 0.0000000 0.0000000 field for delta impulse in time
 
 Orbital magnetization related:
   ORBITALMAG=     F  switch on orbital magnetization
   LCHIMAG   =     F  perturbation theory with respect to B field
   DQ        =  0.001000  dq finite difference perturbation B field
   LLRAUG    =     F  two centre corrections for induced B field



--------------------------------------------------------------------------------------------------------


 Static calculation
 charge density and potential will be updated during run
 spin polarized calculation
 Variant of blocked Davidson
 Davidson routine will perform the subspace rotation
 perform sub-space diagonalisation
    after iterative eigenvector-optimisation
 modified Broyden-mixing scheme, WC =      100.0
 initial mixing is a Kerker type mixing with AMIX =  0.4000 and BMIX =      1.0000
 Hartree-type preconditioning will be used
 using additional bands            9
 reciprocal scheme for non local part
 use partial core corrections
 calculate Harris-corrections to forces 
   (improved forces if not selfconsistent)
 use gradient corrections 
 use of overlap-Matrix (Vanderbilt PP)
 Fermi weights with tetrahedron method with Bloechl corrections


--------------------------------------------------------------------------------------------------------


  energy-cutoff  :      500.00
  volume of cell :       78.61
      direct lattice vectors                 reciprocal lattice vectors
     4.880875401  0.000000000  0.000000000     0.204881280  0.000000000  0.000000000
     0.000000000  4.880875401  0.000000000     0.000000000  0.204881280  0.000000000
     0.000000000  0.000000000  3.299569628     0.000000000  0.000000000  0.303069828

  length of vectors
     4.880875401  4.880875401  3.299569628     0.204881280  0.204881280  0.303069828


 
 k-points in units of 2pi/SCALE and weight: KPOINTS created by Atomic Simulation Env
   0.02561016  0.02561016  0.02525582       0.083
   0.07683048  0.02561016  0.02525582       0.167
   0.07683048  0.07683048  0.02525582       0.083
   0.02561016  0.02561016  0.07576746       0.083
   0.07683048  0.02561016  0.07576746       0.167
   0.07683048  0.07683048  0.07576746       0.083
   0.02561016  0.02561016  0.12627910       0.083
   0.07683048  0.02561016  0.12627910       0.167
   0.07683048  0.07683048  0.12627910       0.083
 
 k-points in reciprocal lattice and weights: KPOINTS created by Atomic Simulation Env
   0.12500000  0.12500000  0.08333333       0.083
   0.37500000  0.12500000  0.08333333       0.167
   0.37500000  0.37500000  0.08333333       0.083
   0.12500000  0.12500000  0.25000000       0.083
   0.37500000  0.12500000  0.25000000       0.167
   0.37500000  0.37500000  0.25000000       0.083
   0.12500000  0.12500000  0.41666667       0.083
   0.37500000  0.12500000  0.41666667       0.167
   0.37500000  0.37500000  0.41666667       0.083
 
 position of ions in fractional coordinates (direct lattice) 
   0.50000000  0.50000000  0.50000000
   0.00000000  0.00000000  0.00000000
   0.19542762  0.80457238  0.50000000
   0.80457238  0.19542762  0.50000000
   0.30457238  0.30457238  0.00000000
   0.69542762  0.69542762  0.00000000
 
 position of ions in cartesian coordinates  (Angst):
   2.44043770  2.44043770  1.64978481
   0.00000000  0.00000000  0.00000000
   0.95385785  3.92701755  1.64978481
   3.92701755  0.95385785  1.64978481
   1.48657985  1.48657985  0.00000000
   3.39429555  3.39429555  0.00000000
 


--------------------------------------------------------------------------------------------------------


 k-point  1 :   0.1250 0.1250 0.0833  plane waves:    1982
 k-point  2 :   0.3750 0.1250 0.0833  plane waves:    1985
 k-point  3 :   0.3750 0.3750 0.0833  plane waves:    1997
 k-point  4 :   0.1250 0.1250 0.2500  plane waves:    2003
 k-point  5 :   0.3750 0.1250 0.2500  plane waves:    1998
 k-point  6 :   0.3750 0.3750 0.2500  plane waves:    1994
 k-point  7 :   0.1250 0.1250 0.4167  plane waves:    1996
 k-point  8 :   0.3750 0.1250 0.4167  plane waves:    2000
 k-point  9 :   0.3750 0.3750 0.4167  plane waves:    2012

 maximum and minimum number of plane-waves per node :      2012     1982

 maximum number of plane-waves:      2012
 maximum index in each direction: 
   IXMAX=    8   IYMAX=    8   IZMAX=    5
   IXMIN=   -9   IYMIN=   -9   IZMIN=   -6


 serial   3D FFT for wavefunctions
 parallel 3D FFT for charge:
    minimum data exchange during FFTs selected (reduces bandwidth)


 total amount of memory used by VASP MPI-rank0    40956. kBytes
=======================================================================

   base      :      30000. kBytes
   nonl-proj :       5419. kBytes
   fftplans  :       1551. kBytes
   grid      :       1996. kBytes
   one-center:        186. kBytes
   wavefun   :       1804. kBytes
 
     INWAV:  cpu time    0.0000: real time    0.0000
 Broyden mixing: mesh for mixing (old mesh)
   NGX = 17   NGY = 17   NGZ = 13
  (NGX  = 56   NGY  = 56   NGZ  = 36)
  gives a total of   3757 points

 initial charge density was supplied:
 charge density of overlapping atoms calculated
 number of electron      54.0000000 magnetization       0.0000000
 keeping initial charge density in first step


--------------------------------------------------------------------------------------------------------


 Maximum index for augmentation-charges         4532 (set IRDMAX)


--------------------------------------------------------------------------------------------------------


 First call to EWALD:  gamma=   0.414
 Maximum number of real-space cells 2x 2x 3
 Maximum number of reciprocal cells 3x 3x 2

    FEWALD:  cpu time    0.0010: real time    0.0010


--------------------------------------- Iteration      1(   1)  ---------------------------------------


    POTLOK:  cpu time    0.0151: real time    0.0151
    SETDIJ:  cpu time    0.6740: real time    0.6740
atom =   1  type =  1  l = 2
 
 onsite density matrix
 
spin component  1
 
  0.2835  0.0000  0.0000  0.0000  0.0000
  0.0000  0.2835  0.0000  0.0000  0.0000
  0.0000  0.0000  0.2835  0.0000  0.0000
  0.0000  0.0000  0.0000  0.2835  0.0000
  0.0000  0.0000  0.0000  0.0000  0.2835
 
spin component  2
 
  0.7694  0.0000  0.0000  0.0000  0.0000
  0.0000  0.7694  0.0000  0.0000  0.0000
  0.0000  0.0000  0.7694  0.0000  0.0000
  0.0000  0.0000  0.0000  0.7694  0.0000
  0.0000  0.0000  0.0000  0.0000  0.7694
 
 occupancies and eigenvectors
 
  o =  0.2835  v =  1.0000  0.0000  0.0000  0.0000  0.0000  0.0000  0.0000  0.0000  0.0000  0.0000      0.0000  0.0000  0.0000  0.0000  0.0000  0.0000  0.0000  0.0000  0.0000  0.0000
  o =  0.2835  v =  0.0000  1.0000  0.0000  0.0000  0.0000  0.0000  0.0000  0.0000  0.0000  0.0000      0.0000  0.0000  0.0000  0.0000  0.0000  0.0000  0.0000  0.0000  0.0000  0.0000
  o =  0.2835  v =  0.0000  0.0000  1.0000  0.0000  0.0000  0.0000  0.0000  0.0000  0.0000  0.0000      0.0000  0.0000  0.0000  0.0000  0.0000  0.0000  0.0000  0.0000  0.0000  0.0000
  o =  0.2835  v =  0.0000  0.0000  0.0000  1.0000  0.0000  0.0000  0.0000  0.0000  0.0000  0.0000      0.0000  0.0000  0.0000  0.0000  0.0000  0.0000  0.0000  0.0000  0.0000  0.0000
  o =  0.2835  v =  0.0000  0.0000  0.0000  0.0000  1.0000  0.0000  0.0000  0.0000  0.0000  0.0000      0.0000  0.0000  0.0000  0.0000  0.0000  0.0000  0.0000  0.0000  0.0000  0.0000
  o =  0.7694  v =  0.0000  0.0000  0.0000  0.0000  0.0000  1.0000  0.0000  0.0000  0.0000  0.0000      0.0000  0.0000  0.0000  0.0000  0.0000  0.0000  0.0000  0.0000  0.0000  0.0000
  o =  0.7694  v =  0.0000  0.0000  0.0000  0.0000  0.0000  0.0000  1.0000  0.0000  0.0000  0.0000      0.0000  0.0000  0.0000  0.0000  0.0000  0.0000  0.0000  0.0000  0.0000  0.0000
  o =  0.7694  v =  0.0000  0.0000  0.0000  0.0000  0.0000  0.0000  0.0000  1.0000  0.0000  0.0000      0.0000  0.0000  0.0000  0.0000  0.0000  0.0000  0.0000  0.0000  0.0000  0.0000
  o =  0.7694  v =  0.0000  0.0000  0.0000  0.0000  0.0000  0.0000  0.0000  0.0000  1.0000  0.0000      0.0000  0.0000  0.0000  0.0000  0.0000  0.0000  0.0000  0.0000  0.0000  0.0000
  o =  0.7694  v =  0.0000  0.0000  0.0000  0.0000  0.0000  0.0000  0.0000  0.0000  0.0000  1.0000      0.0000  0.0000  0.0000  0.0000  0.0000  0.0000  0.0000  0.0000  0.0000  0.0000
atom =   2  type =  1  l = 2
 
 onsite density matrix
 
spin component  1
 
  0.7694  0.0000  0.0000  0.0000  0.0000
  0.0000  0.7694  0.0000  0.0000  0.0000
  0.0000  0.0000  0.7694  0.0000  0.0000
  0.0000  0.0000  0.0000  0.7694  0.0000
  0.0000  0.0000  0.0000  0.0000  0.7694
 
spin component  2
 
  0.2835  0.0000  0.0000  0.0000  0.0000
  0.0000  0.2835  0.0000  0.0000  0.0000
  0.0000  0.0000  0.2835  0.0000  0.0000
  0.0000  0.0000  0.0000  0.2835  0.0000
  0.0000  0.0000  0.0000  0.0000  0.2835
 
 occupancies and eigenvectors
 
  o =  0.2835  v =  0.0000  0.0000  0.0000  0.0000  0.0000  1.0000  0.0000  0.0000  0.0000  0.0000      0.0000  0.0000  0.0000  0.0000  0.0000  0.0000  0.0000  0.0000  0.0000  0.0000
  o =  0.2835  v =  0.0000  0.0000  0.0000  0.0000  0.0000  0.0000  1.0000  0.0000  0.0000  0.0000      0.0000  0.0000  0.0000  0.0000  0.0000  0.0000  0.0000  0.0000  0.0000  0.0000
  o =  0.2835  v =  0.0000  0.0000  0.0000  0.0000  0.0000  0.0000  0.0000  1.0000  0.0000  0.0000      0.0000  0.0000  0.0000  0.0000  0.0000  0.0000  0.0000  0.0000  0.0000  0.0000
  o =  0.2835  v =  0.0000  0.0000  0.0000  0.0000  0.0000  0.0000  0.0000  0.0000  1.0000  0.0000      0.0000  0.0000  0.0000  0.0000  0.0000  0.0000  0.0000  0.0000  0.0000  0.0000
  o =  0.2835  v =  0.0000  0.0000  0.0000  0.0000  0.0000  0.0000  0.0000  0.0000  0.0000  1.0000      0.0000  0.0000  0.0000  0.0000  0.0000  0.0000  0.0000  0.0000  0.0000  0.0000
  o =  0.7694  v =  1.0000  0.0000  0.0000  0.0000  0.0000  0.0000  0.0000  0.0000  0.0000  0.0000      0.0000  0.0000  0.0000  0.0000  0.0000  0.0000  0.0000  0.0000  0.0000  0.0000
  o =  0.7694  v =  0.0000  1.0000  0.0000  0.0000  0.0000  0.0000  0.0000  0.0000  0.0000  0.0000      0.0000  0.0000  0.0000  0.0000  0.0000  0.0000  0.0000  0.0000  0.0000  0.0000
  o =  0.7694  v =  0.0000  0.0000  1.0000  0.0000  0.0000  0.0000  0.0000  0.0000  0.0000  0.0000      0.0000  0.0000  0.0000  0.0000  0.0000  0.0000  0.0000  0.0000  0.0000  0.0000
  o =  0.7694  v =  0.0000  0.0000  0.0000  1.0000  0.0000  0.0000  0.0000  0.0000  0.0000  0.0000      0.0000  0.0000  0.0000  0.0000  0.0000  0.0000  0.0000  0.0000  0.0000  0.0000
  o =  0.7694  v =  0.0000  0.0000  0.0000  0.0000  1.0000  0.0000  0.0000  0.0000  0.0000  0.0000      0.0000  0.0000  0.0000  0.0000  0.0000  0.0000  0.0000  0.0000  0.0000  0.0000
     EDDAV:  cpu time    0.2812: real time    0.3095
 BZINTS: Fermi energy: 17.596415; 53.993342 electrons
         Band energy:-113.115702;  BLOECHL correction: -0.098680
       DOS:  cpu time    0.0135: real time    0.0135
    --------------------------------------------
      LOOP:  cpu time    0.9838: real time    1.0121

 eigenvalue-minimisations  :  1296
 total energy-change (2. order) : 0.6223940E+03  (-0.3117705E+04)
 number of electron      54.0000000 magnetization       0.0000000
 augmentation part       54.0000000 magnetization       0.0000000

 Free energy of the ion-electron system (eV)
  ---------------------------------------------------
  alpha Z        PSCENC =       196.39202940
  Ewald energy   TEWEN  =     -4180.13765139
  -Hartree energ DENC   =     -2145.29169070
  -exchange      EXHF   =         0.00000000
  -V(xc)+E(xc)   XCENC  =       293.27224095
  PAW double counting   =      5439.83165491    -5546.16339751
  entropy T*S    EENTRO =         0.00000000
  eigenvalues    EBANDS =      -113.11570217
  atomic energy  EATOM  =      6677.60654784
  Solvation  Ediel_sol  =         0.00000000
  ---------------------------------------------------
  free energy    TOTEN  =       622.39403133 eV

  energy without entropy =      622.39403133  energy(sigma->0) =      622.39403133


--------------------------------------------------------------------------------------------------------




--------------------------------------- Iteration      1(   2)  ---------------------------------------


     EDDAV:  cpu time    0.3098: real time    0.3098
 BZINTS: Fermi energy:  4.008041; 54.000000 electrons
         Band energy:-731.821959;  BLOECHL correction:  0.000000
       DOS:  cpu time    0.0018: real time    0.0018
    --------------------------------------------
      LOOP:  cpu time    0.3116: real time    0.3116

 eigenvalue-minimisations  :  1500
 total energy-change (2. order) :-0.6187063E+03  (-0.6025940E+03)
 number of electron      54.0000000 magnetization       0.0000000
 augmentation part       54.0000000 magnetization       0.0000000

 Free energy of the ion-electron system (eV)
  ---------------------------------------------------
  alpha Z        PSCENC =       196.39202940
  Ewald energy   TEWEN  =     -4180.13765139
  -Hartree energ DENC   =     -2145.29169070
  -exchange      EXHF   =         0.00000000
  -V(xc)+E(xc)   XCENC  =       293.27224095
  PAW double counting   =      5439.83165491    -5546.16339751
  entropy T*S    EENTRO =         0.00000000
  eigenvalues    EBANDS =      -731.82195890
  atomic energy  EATOM  =      6677.60654784
  Solvation  Ediel_sol  =         0.00000000
  ---------------------------------------------------
  free energy    TOTEN  =         3.68777460 eV

  energy without entropy =        3.68777460  energy(sigma->0) =        3.68777460


--------------------------------------------------------------------------------------------------------




--------------------------------------- Iteration      1(   3)  ---------------------------------------


     EDDAV:  cpu time    0.3040: real time    0.3040
 BZINTS: Fermi energy:  3.096334; 54.000000 electrons
         Band energy:-775.051780;  BLOECHL correction:  0.000000
       DOS:  cpu time    0.0020: real time    0.0020
    --------------------------------------------
      LOOP:  cpu time    0.3060: real time    0.3061

 eigenvalue-minimisations  :  1488
 total energy-change (2. order) :-0.4322982E+02  (-0.4306984E+02)
 number of electron      54.0000000 magnetization       0.0000000
 augmentation part       54.0000000 magnetization       0.0000000

 Free energy of the ion-electron system (eV)
  ---------------------------------------------------
  alpha Z        PSCENC =       196.39202940
  Ewald energy   TEWEN  =     -4180.13765139
  -Hartree energ DENC   =     -2145.29169070
  -exchange      EXHF   =         0.00000000
  -V(xc)+E(xc)   XCENC  =       293.27224095
  PAW double counting   =      5439.83165491    -5546.16339751
  entropy T*S    EENTRO =         0.00000000
  eigenvalues    EBANDS =      -775.05178046
  atomic energy  EATOM  =      6677.60654784
  Solvation  Ediel_sol  =         0.00000000
  ---------------------------------------------------
  free energy    TOTEN  =       -39.54204696 eV

  energy without entropy =      -39.54204696  energy(sigma->0) =      -39.54204696


--------------------------------------------------------------------------------------------------------




--------------------------------------- Iteration      1(   4)  ---------------------------------------


     EDDAV:  cpu time    0.2995: real time    0.2995
 BZINTS: Fermi energy:  3.092062; 54.000000 electrons
         Band energy:-775.598949;  BLOECHL correction:  0.000000
       DOS:  cpu time    0.0017: real time    0.0017
    --------------------------------------------
      LOOP:  cpu time    0.3012: real time    0.3012

 eigenvalue-minimisations  :  1464
 total energy-change (2. order) :-0.5471687E+00  (-0.5470527E+00)
 number of electron      54.0000000 magnetization       0.0000000
 augmentation part       54.0000000 magnetization       0.0000000

 Free energy of the ion-electron system (eV)
  ---------------------------------------------------
  alpha Z        PSCENC =       196.39202940
  Ewald energy   TEWEN  =     -4180.13765139
  -Hartree energ DENC   =     -2145.29169070
  -exchange      EXHF   =         0.00000000
  -V(xc)+E(xc)   XCENC  =       293.27224095
  PAW double counting   =      5439.83165491    -5546.16339751
  entropy T*S    EENTRO =         0.00000000
  eigenvalues    EBANDS =      -775.59894916
  atomic energy  EATOM  =      6677.60654784
  Solvation  Ediel_sol  =         0.00000000
  ---------------------------------------------------
  free energy    TOTEN  =       -40.08921566 eV

  energy without entropy =      -40.08921566  energy(sigma->0) =      -40.08921566


--------------------------------------------------------------------------------------------------------




--------------------------------------- Iteration      1(   5)  ---------------------------------------


     EDDAV:  cpu time    0.3218: real time    0.3218
 BZINTS: Fermi energy:  3.135942; 54.000000 electrons
         Band energy:-775.607800;  BLOECHL correction:  0.000000
       DOS:  cpu time    0.0020: real time    0.0020
    CHARGE:  cpu time    0.0282: real time    0.0282
    MIXING:  cpu time    0.0004: real time    0.0004
    --------------------------------------------
      LOOP:  cpu time    0.3523: real time    0.3524

 eigenvalue-minimisations  :  1560
 total energy-change (2. order) :-0.8850855E-02  (-0.8850544E-02)
 number of electron      53.9999998 magnetization      -0.0000000
 augmentation part       20.0593367 magnetization      -0.0000000

 Broyden mixing:
  rms(total) = 0.22580E+01    rms(broyden)= 0.22578E+01
  rms(prec ) = 0.30260E+01
  weight for this iteration     100.00

 Free energy of the ion-electron system (eV)
  ---------------------------------------------------
  alpha Z        PSCENC =       196.39202940
  Ewald energy   TEWEN  =     -4180.13765139
  -Hartree energ DENC   =     -2145.29169070
  -exchange      EXHF   =         0.00000000
  -V(xc)+E(xc)   XCENC  =       293.27224095
  PAW double counting   =      5439.83165491    -5546.16339751
  entropy T*S    EENTRO =         0.00000000
  eigenvalues    EBANDS =      -775.60780002
  atomic energy  EATOM  =      6677.60654784
  Solvation  Ediel_sol  =         0.00000000
  ---------------------------------------------------
  free energy    TOTEN  =       -40.09806652 eV

  energy without entropy =      -40.09806652  energy(sigma->0) =      -40.09806652


--------------------------------------------------------------------------------------------------------




--------------------------------------- Iteration      1(   6)  ---------------------------------------


    POTLOK:  cpu time    0.0136: real time    0.0136
    SETDIJ:  cpu time    0.6729: real time    0.6729
atom =   1  type =  1  l = 2
 
 onsite density matrix
 
spin component  1
 
 -0.0781  0.0000  0.0027  0.0000  0.0000
  0.0000 -0.0806  0.0000  0.0020  0.0000
  0.0027  0.0000 -0.0784  0.0000  0.0000
  0.0000  0.0020  0.0000 -0.0806  0.0000
  0.0000  0.0000  0.0000  0.0000 -0.0851
 
spin component  2
 
  1.1020  0.0000  0.0138  0.0000 -0.0000
  0.0000  1.0997  0.0000  0.0123  0.0000
  0.0138  0.0000  1.0934  0.0000 -0.0000
  0.0000  0.0123  0.0000  1.0997  0.0000
 -0.0000  0.0000 -0.0000  0.0000  1.0894
 
 occupancies and eigenvectors
 
  o = -0.0851  v =  0.0000 -0.0000 -0.0000  0.0000  1.0000  0.0000  0.0000  0.0000  0.0000  0.0000      0.0000  0.0000  0.0000  0.0000  0.0000  0.0000  0.0000  0.0000  0.0000  0.0000
  o = -0.0826  v =  0.0000 -0.7071  0.0000  0.7071 -0.0000  0.0000  0.0000  0.0000  0.0000  0.0000      0.0000  0.0000  0.0000  0.0000  0.0000  0.0000  0.0000  0.0000  0.0000  0.0000
  o = -0.0810  v =  0.6860  0.0000 -0.7276  0.0000 -0.0000  0.0000  0.0000  0.0000  0.0000  0.0000      0.0000  0.0000  0.0000  0.0000  0.0000  0.0000  0.0000  0.0000  0.0000  0.0000
  o = -0.0787  v =  0.0000 -0.7071  0.0000 -0.7071 -0.0000  0.0000  0.0000  0.0000  0.0000  0.0000      0.0000  0.0000  0.0000  0.0000  0.0000  0.0000  0.0000  0.0000  0.0000  0.0000
  o = -0.0755  v =  0.7276 -0.0000  0.6860  0.0000  0.0000  0.0000  0.0000  0.0000  0.0000  0.0000      0.0000  0.0000  0.0000  0.0000  0.0000  0.0000  0.0000  0.0000  0.0000  0.0000
  o =  1.0832  v =  0.0000  0.0000  0.0000  0.0000  0.0000 -0.5926 -0.0000  0.8055  0.0000  0.0000      0.0000  0.0000  0.0000  0.0000  0.0000  0.0000  0.0000  0.0000  0.0000  0.0000
  o =  1.0874  v =  0.0000  0.0000  0.0000  0.0000  0.0000 -0.0000  0.7071  0.0000 -0.7071  0.0000      0.0000  0.0000  0.0000  0.0000  0.0000  0.0000  0.0000  0.0000  0.0000  0.0000
  o =  1.0894  v =  0.0000  0.0000  0.0000  0.0000  0.0000  0.0000 -0.0000 -0.0000  0.0000  1.0000      0.0000  0.0000  0.0000  0.0000  0.0000  0.0000  0.0000  0.0000  0.0000  0.0000
  o =  1.1119  v =  0.0000  0.0000  0.0000  0.0000  0.0000 -0.0000  0.7071 -0.0000  0.7071 -0.0000      0.0000  0.0000  0.0000  0.0000  0.0000  0.0000  0.0000  0.0000  0.0000  0.0000
  o =  1.1121  v =  0.0000  0.0000  0.0000  0.0000  0.0000 -0.8055 -0.0000 -0.5926 -0.0000  0.0000      0.0000  0.0000  0.0000  0.0000  0.0000  0.0000  0.0000  0.0000  0.0000  0.0000
atom =   2  type =  1  l = 2
 
 onsite density matrix
 
spin component  1
 
  1.1020  0.0000 -0.0138  0.0000 -0.0000
  0.0000  1.0997  0.0000 -0.0123  0.0000
 -0.0138  0.0000  1.0934  0.0000 -0.0000
  0.0000 -0.0123  0.0000  1.0997  0.0000
 -0.0000  0.0000 -0.0000  0.0000  1.0894
 
spin component  2
 
 -0.0781  0.0000 -0.0027  0.0000  0.0000
  0.0000 -0.0806  0.0000 -0.0020  0.0000
 -0.0027  0.0000 -0.0784  0.0000  0.0000
  0.0000 -0.0020  0.0000 -0.0806  0.0000
  0.0000  0.0000  0.0000  0.0000 -0.0851
 
 occupancies and eigenvectors
 
  o = -0.0851  v =  0.0000  0.0000  0.0000  0.0000  0.0000  0.0000  0.0000  0.0000  0.0000 -1.0000      0.0000  0.0000  0.0000  0.0000  0.0000  0.0000  0.0000  0.0000  0.0000  0.0000
  o = -0.0826  v =  0.0000  0.0000  0.0000  0.0000  0.0000  0.0000 -0.7071  0.0000 -0.7071 -0.0000      0.0000  0.0000  0.0000  0.0000  0.0000  0.0000  0.0000  0.0000  0.0000  0.0000
  o = -0.0810  v =  0.0000  0.0000  0.0000  0.0000  0.0000 -0.6860  0.0000 -0.7276  0.0000 -0.0000      0.0000  0.0000  0.0000  0.0000  0.0000  0.0000  0.0000  0.0000  0.0000  0.0000
  o = -0.0787  v =  0.0000  0.0000  0.0000  0.0000  0.0000  0.0000 -0.7071  0.0000  0.7071 -0.0000      0.0000  0.0000  0.0000  0.0000  0.0000  0.0000  0.0000  0.0000  0.0000  0.0000
  o = -0.0755  v =  0.0000  0.0000  0.0000  0.0000  0.0000  0.7276  0.0000 -0.6860  0.0000 -0.0000      0.0000  0.0000  0.0000  0.0000  0.0000  0.0000  0.0000  0.0000  0.0000  0.0000
  o =  1.0832  v = -0.5926 -0.0000 -0.8055  0.0000 -0.0000  0.0000  0.0000  0.0000  0.0000  0.0000      0.0000  0.0000  0.0000  0.0000  0.0000  0.0000  0.0000  0.0000  0.0000  0.0000
  o =  1.0874  v =  0.0000 -0.7071  0.0000 -0.7071  0.0000  0.0000  0.0000  0.0000  0.0000  0.0000      0.0000  0.0000  0.0000  0.0000  0.0000  0.0000  0.0000  0.0000  0.0000  0.0000
  o =  1.0894  v = -0.0000  0.0000 -0.0000  0.0000  1.0000  0.0000  0.0000  0.0000  0.0000  0.0000      0.0000  0.0000  0.0000  0.0000  0.0000  0.0000  0.0000  0.0000  0.0000  0.0000
  o =  1.1119  v =  0.0000  0.7071  0.0000 -0.7071 -0.0000  0.0000  0.0000  0.0000  0.0000  0.0000      0.0000  0.0000  0.0000  0.0000  0.0000  0.0000  0.0000  0.0000  0.0000  0.0000
  o =  1.1121  v = -0.8055 -0.0000  0.5926  0.0000 -0.0000  0.0000  0.0000  0.0000  0.0000  0.0000      0.0000  0.0000  0.0000  0.0000  0.0000  0.0000  0.0000  0.0000  0.0000  0.0000
     EDDAV:  cpu time    0.3279: real time    0.3279
 BZINTS: Fermi energy:  1.287248; 54.000000 electrons
         Band energy:-762.965707;  BLOECHL correction:  0.000000
       DOS:  cpu time    0.0020: real time    0.0020
    CHARGE:  cpu time    0.0274: real time    0.0274
    MIXING:  cpu time    0.0004: real time    0.0004
    --------------------------------------------
      LOOP:  cpu time    1.0442: real time    1.0443

 eigenvalue-minimisations  :  1608
 total energy-change (2. order) : 0.1899570E+01  (-0.1558209E+01)
 number of electron      53.9999999 magnetization       0.0000000
 augmentation part       19.9308781 magnetization       0.0000000

 Broyden mixing:
  rms(total) = 0.14313E+01    rms(broyden)= 0.14312E+01
  rms(prec ) = 0.14947E+01
  weight for this iteration     100.00

 eigenvalues of (default mixing * dielectric matrix)
  average eigenvalue GAMMA=   0.7893
  0.7893

 Free energy of the ion-electron system (eV)
  ---------------------------------------------------
  alpha Z        PSCENC =       196.39202940
  Ewald energy   TEWEN  =     -4180.13765139
  -Hartree energ DENC   =     -2165.61158925
  -exchange      EXHF   =         0.00000000
  -V(xc)+E(xc)   XCENC  =       293.72381525
  PAW double counting   =      5694.31469432    -5791.52063650
  entropy T*S    EENTRO =         0.00000000
  eigenvalues    EBANDS =      -762.96570652
  atomic energy  EATOM  =      6677.60654784
  Solvation  Ediel_sol  =         0.00000000
  ---------------------------------------------------
  free energy    TOTEN  =       -38.19849685 eV

  energy without entropy =      -38.19849685  energy(sigma->0) =      -38.19849685


--------------------------------------------------------------------------------------------------------




--------------------------------------- Iteration      1(   7)  ---------------------------------------


    POTLOK:  cpu time    0.0134: real time    0.0134
    SETDIJ:  cpu time    0.6733: real time    0.6733
atom =   1  type =  1  l = 2
 
 onsite density matrix
 
spin component  1
 
  0.1159  0.0000  0.0190  0.0000 -0.0000
  0.0000  0.1101  0.0000  0.0162  0.0000
  0.0190  0.0000  0.1053  0.0000 -0.0000
  0.0000  0.0162  0.0000  0.1101  0.0000
 -0.0000  0.0000 -0.0000  0.0000  0.0930
 
spin component  2
 
  0.9010  0.0000  0.0068  0.0000  0.0000
  0.0000  0.8993  0.0000  0.0059  0.0000
  0.0068  0.0000  0.8975  0.0000  0.0000
  0.0000  0.0059  0.0000  0.8993  0.0000
  0.0000  0.0000  0.0000  0.0000  0.8931
 
 occupancies and eigenvectors
 
  o =  0.0909  v = -0.6048  0.0000  0.7964  0.0000 -0.0000  0.0000  0.0000  0.0000  0.0000  0.0000      0.0000  0.0000  0.0000  0.0000  0.0000  0.0000  0.0000  0.0000  0.0000  0.0000
  o =  0.0930  v =  0.0000 -0.0000 -0.0000  0.0000 -1.0000  0.0000  0.0000  0.0000  0.0000  0.0000      0.0000  0.0000  0.0000  0.0000  0.0000  0.0000  0.0000  0.0000  0.0000  0.0000
  o =  0.0939  v =  0.0000  0.7071 -0.0000 -0.7071 -0.0000  0.0000  0.0000  0.0000  0.0000  0.0000      0.0000  0.0000  0.0000  0.0000  0.0000  0.0000  0.0000  0.0000  0.0000  0.0000
  o =  0.1263  v =  0.0000 -0.7071  0.0000 -0.7071  0.0000  0.0000  0.0000  0.0000  0.0000  0.0000      0.0000  0.0000  0.0000  0.0000  0.0000  0.0000  0.0000  0.0000  0.0000  0.0000
  o =  0.1304  v = -0.7964  0.0000 -0.6048  0.0000  0.0000  0.0000  0.0000  0.0000  0.0000  0.0000      0.0000  0.0000  0.0000  0.0000  0.0000  0.0000  0.0000  0.0000  0.0000  0.0000
  o =  0.8923  v =  0.0000  0.0000  0.0000  0.0000  0.0000 -0.6120  0.0000  0.7909  0.0000  0.0000      0.0000  0.0000  0.0000  0.0000  0.0000  0.0000  0.0000  0.0000  0.0000  0.0000
  o =  0.8931  v =  0.0000  0.0000  0.0000  0.0000  0.0000  0.0000 -0.0000 -0.0000  0.0000  1.0000      0.0000  0.0000  0.0000  0.0000  0.0000  0.0000  0.0000  0.0000  0.0000  0.0000
  o =  0.8933  v =  0.0000  0.0000  0.0000  0.0000  0.0000  0.0000  0.7071 -0.0000 -0.7071  0.0000      0.0000  0.0000  0.0000  0.0000  0.0000  0.0000  0.0000  0.0000  0.0000  0.0000
  o =  0.9052  v =  0.0000  0.0000  0.0000  0.0000  0.0000  0.0000  0.7071 -0.0000  0.7071  0.0000      0.0000  0.0000  0.0000  0.0000  0.0000  0.0000  0.0000  0.0000  0.0000  0.0000
  o =  0.9062  v =  0.0000  0.0000  0.0000  0.0000  0.0000 -0.7909  0.0000 -0.6120  0.0000 -0.0000      0.0000  0.0000  0.0000  0.0000  0.0000  0.0000  0.0000  0.0000  0.0000  0.0000
atom =   2  type =  1  l = 2
 
 onsite density matrix
 
spin component  1
 
  0.9010  0.0000 -0.0068  0.0000 -0.0000
  0.0000  0.8993  0.0000 -0.0059  0.0000
 -0.0068  0.0000  0.8975  0.0000  0.0000
  0.0000 -0.0059  0.0000  0.8993  0.0000
 -0.0000  0.0000  0.0000  0.0000  0.8931
 
spin component  2
 
  0.1159  0.0000 -0.0190  0.0000 -0.0000
  0.0000  0.1101  0.0000 -0.0162  0.0000
 -0.0190  0.0000  0.1053  0.0000 -0.0000
  0.0000 -0.0162  0.0000  0.1101  0.0000
 -0.0000  0.0000 -0.0000  0.0000  0.0930
 
 occupancies and eigenvectors
 
  o =  0.0909  v =  0.0000  0.0000  0.0000  0.0000  0.0000 -0.6048  0.0000 -0.7964  0.0000 -0.0000      0.0000  0.0000  0.0000  0.0000  0.0000  0.0000  0.0000  0.0000  0.0000  0.0000
  o =  0.0930  v =  0.0000  0.0000  0.0000  0.0000  0.0000 -0.0000 -0.0000 -0.0000 -0.0000  1.0000      0.0000  0.0000  0.0000  0.0000  0.0000  0.0000  0.0000  0.0000  0.0000  0.0000
  o =  0.0939  v =  0.0000  0.0000  0.0000  0.0000  0.0000  0.0000  0.7071  0.0000  0.7071  0.0000      0.0000  0.0000  0.0000  0.0000  0.0000  0.0000  0.0000  0.0000  0.0000  0.0000
  o =  0.1263  v =  0.0000  0.0000  0.0000  0.0000  0.0000 -0.0000 -0.7071  0.0000  0.7071 -0.0000      0.0000  0.0000  0.0000  0.0000  0.0000  0.0000  0.0000  0.0000  0.0000  0.0000
  o =  0.1304  v =  0.0000  0.0000  0.0000  0.0000  0.0000 -0.7964  0.0000  0.6048 -0.0000 -0.0000      0.0000  0.0000  0.0000  0.0000  0.0000  0.0000  0.0000  0.0000  0.0000  0.0000
  o =  0.8923  v = -0.6120 -0.0000 -0.7909  0.0000  0.0000  0.0000  0.0000  0.0000  0.0000  0.0000      0.0000  0.0000  0.0000  0.0000  0.0000  0.0000  0.0000  0.0000  0.0000  0.0000
  o =  0.8931  v = -0.0000  0.0000 -0.0000  0.0000 -1.0000  0.0000  0.0000  0.0000  0.0000  0.0000      0.0000  0.0000  0.0000  0.0000  0.0000  0.0000  0.0000  0.0000  0.0000  0.0000
  o =  0.8933  v =  0.0000  0.7071 -0.0000  0.7071  0.0000  0.0000  0.0000  0.0000  0.0000  0.0000      0.0000  0.0000  0.0000  0.0000  0.0000  0.0000  0.0000  0.0000  0.0000  0.0000
  o =  0.9052  v =  0.0000  0.7071 -0.0000 -0.7071  0.0000  0.0000  0.0000  0.0000  0.0000  0.0000      0.0000  0.0000  0.0000  0.0000  0.0000  0.0000  0.0000  0.0000  0.0000  0.0000
  o =  0.9062  v = -0.7909  0.0000  0.6120  0.0000  0.0000  0.0000  0.0000  0.0000  0.0000  0.0000      0.0000  0.0000  0.0000  0.0000  0.0000  0.0000  0.0000  0.0000  0.0000  0.0000
     EDDAV:  cpu time    0.3177: real time    0.3177
 BZINTS: Fermi energy:  1.604090; 54.000000 electrons
         Band energy:-758.723538;  BLOECHL correction:  0.000000
       DOS:  cpu time    0.0017: real time    0.0017
    CHARGE:  cpu time    0.0274: real time    0.0274
    MIXING:  cpu time    0.0005: real time    0.0005
    --------------------------------------------
      LOOP:  cpu time    1.0340: real time    1.0340

 eigenvalue-minimisations  :  1548
 total energy-change (2. order) :-0.7276728E+00  (-0.1819948E+00)
 number of electron      53.9999999 magnetization      -0.0000000
 augmentation part       19.9244462 magnetization      -0.0000000

 Broyden mixing:
  rms(total) = 0.11274E+01    rms(broyden)= 0.11274E+01
  rms(prec ) = 0.11613E+01
  weight for this iteration     100.00

 eigenvalues of (default mixing * dielectric matrix)
  average eigenvalue GAMMA=   1.4018
  0.6951  2.1086

 Free energy of the ion-electron system (eV)
  ---------------------------------------------------
  alpha Z        PSCENC =       196.39202940
  Ewald energy   TEWEN  =     -4180.13765139
  -Hartree energ DENC   =     -2161.30867287
  -exchange      EXHF   =         0.00000000
  -V(xc)+E(xc)   XCENC  =       294.28404775
  PAW double counting   =      5917.27149447    -6024.31042675
  entropy T*S    EENTRO =         0.00000000
  eigenvalues    EBANDS =      -758.72353808
  atomic energy  EATOM  =      6677.60654784
  Solvation  Ediel_sol  =         0.00000000
  ---------------------------------------------------
  free energy    TOTEN  =       -38.92616963 eV

  energy without entropy =      -38.92616963  energy(sigma->0) =      -38.92616963


--------------------------------------------------------------------------------------------------------




--------------------------------------- Iteration      1(   8)  ---------------------------------------


    POTLOK:  cpu time    0.0135: real time    0.0135
    SETDIJ:  cpu time    0.6717: real time    0.6717
atom =   1  type =  1  l = 2
 
 onsite density matrix
 
spin component  1
 
 -0.0146  0.0000  0.0197  0.0000 -0.0000
  0.0000 -0.0208  0.0000  0.0161  0.0000
  0.0197  0.0000 -0.0240  0.0000  0.0000
  0.0000  0.0161  0.0000 -0.0208  0.0000
 -0.0000  0.0000  0.0000  0.0000 -0.0400
 
spin component  2
 
  1.0307  0.0000  0.0172  0.0000  0.0000
  0.0000  1.0259  0.0000  0.0158  0.0000
  0.0172  0.0000  1.0195  0.0000 -0.0000
  0.0000  0.0158  0.0000  1.0259  0.0000
  0.0000  0.0000 -0.0000  0.0000  1.0114
 
 occupancies and eigenvectors
 
  o = -0.0400  v =  0.0000  0.0000 -0.0000  0.0000  1.0000  0.0000  0.0000  0.0000  0.0000  0.0000      0.0000  0.0000  0.0000  0.0000  0.0000  0.0000  0.0000  0.0000  0.0000  0.0000
  o = -0.0395  v = -0.6193  0.0000  0.7851  0.0000  0.0000  0.0000  0.0000  0.0000  0.0000  0.0000      0.0000  0.0000  0.0000  0.0000  0.0000  0.0000  0.0000  0.0000  0.0000  0.0000
  o = -0.0369  v =  0.0000 -0.7071  0.0000  0.7071  0.0000  0.0000  0.0000  0.0000  0.0000  0.0000      0.0000  0.0000  0.0000  0.0000  0.0000  0.0000  0.0000  0.0000  0.0000  0.0000
  o = -0.0048  v =  0.0000 -0.7071  0.0000 -0.7071  0.0000  0.0000  0.0000  0.0000  0.0000  0.0000      0.0000  0.0000  0.0000  0.0000  0.0000  0.0000  0.0000  0.0000  0.0000  0.0000
  o =  0.0009  v =  0.7851  0.0000  0.6193  0.0000  0.0000  0.0000  0.0000  0.0000  0.0000  0.0000      0.0000  0.0000  0.0000  0.0000  0.0000  0.0000  0.0000  0.0000  0.0000  0.0000
  o =  1.0070  v =  0.0000  0.0000  0.0000  0.0000  0.0000 -0.5884 -0.0000  0.8085  0.0000  0.0000      0.0000  0.0000  0.0000  0.0000  0.0000  0.0000  0.0000  0.0000  0.0000  0.0000
  o =  1.0101  v =  0.0000  0.0000  0.0000  0.0000  0.0000  0.0000 -0.7071 -0.0000  0.7071 -0.0000      0.0000  0.0000  0.0000  0.0000  0.0000  0.0000  0.0000  0.0000  0.0000  0.0000
  o =  1.0114  v =  0.0000  0.0000  0.0000  0.0000  0.0000  0.0000 -0.0000 -0.0000  0.0000  1.0000      0.0000  0.0000  0.0000  0.0000  0.0000  0.0000  0.0000  0.0000  0.0000  0.0000
  o =  1.0416  v =  0.0000  0.0000  0.0000  0.0000  0.0000 -0.0000  0.7071 -0.0000  0.7071 -0.0000      0.0000  0.0000  0.0000  0.0000  0.0000  0.0000  0.0000  0.0000  0.0000  0.0000
  o =  1.0432  v =  0.0000  0.0000  0.0000  0.0000  0.0000 -0.8085 -0.0000 -0.5884 -0.0000  0.0000      0.0000  0.0000  0.0000  0.0000  0.0000  0.0000  0.0000  0.0000  0.0000  0.0000
atom =   2  type =  1  l = 2
 
 onsite density matrix
 
spin component  1
 
  1.0307  0.0000 -0.0172  0.0000 -0.0000
  0.0000  1.0259  0.0000 -0.0158  0.0000
 -0.0172  0.0000  1.0195  0.0000 -0.0000
  0.0000 -0.0158  0.0000  1.0259  0.0000
 -0.0000  0.0000 -0.0000  0.0000  1.0114
 
spin component  2
 
 -0.0146  0.0000 -0.0197  0.0000 -0.0000
  0.0000 -0.0208  0.0000 -0.0161  0.0000
 -0.0197  0.0000 -0.0240  0.0000  0.0000
  0.0000 -0.0161  0.0000 -0.0208  0.0000
 -0.0000  0.0000  0.0000  0.0000 -0.0400
 
 occupancies and eigenvectors
 
  o = -0.0400  v =  0.0000  0.0000  0.0000  0.0000  0.0000  0.0000 -0.0000  0.0000  0.0000 -1.0000      0.0000  0.0000  0.0000  0.0000  0.0000  0.0000  0.0000  0.0000  0.0000  0.0000
  o = -0.0395  v =  0.0000  0.0000  0.0000  0.0000  0.0000 -0.6193 -0.0000 -0.7851  0.0000 -0.0000      0.0000  0.0000  0.0000  0.0000  0.0000  0.0000  0.0000  0.0000  0.0000  0.0000
  o = -0.0369  v =  0.0000  0.0000  0.0000  0.0000  0.0000  0.0000 -0.7071  0.0000 -0.7071  0.0000      0.0000  0.0000  0.0000  0.0000  0.0000  0.0000  0.0000  0.0000  0.0000  0.0000
  o = -0.0048  v =  0.0000  0.0000  0.0000  0.0000  0.0000  0.0000  0.7071  0.0000 -0.7071 -0.0000      0.0000  0.0000  0.0000  0.0000  0.0000  0.0000  0.0000  0.0000  0.0000  0.0000
  o =  0.0009  v =  0.0000  0.0000  0.0000  0.0000  0.0000  0.7851 -0.0000 -0.6193  0.0000 -0.0000      0.0000  0.0000  0.0000  0.0000  0.0000  0.0000  0.0000  0.0000  0.0000  0.0000
  o =  1.0070  v = -0.5884  0.0000 -0.8085  0.0000 -0.0000  0.0000  0.0000  0.0000  0.0000  0.0000      0.0000  0.0000  0.0000  0.0000  0.0000  0.0000  0.0000  0.0000  0.0000  0.0000
  o =  1.0101  v = -0.0000 -0.7071 -0.0000 -0.7071  0.0000  0.0000  0.0000  0.0000  0.0000  0.0000      0.0000  0.0000  0.0000  0.0000  0.0000  0.0000  0.0000  0.0000  0.0000  0.0000
  o =  1.0114  v =  0.0000 -0.0000  0.0000 -0.0000 -1.0000  0.0000  0.0000  0.0000  0.0000  0.0000      0.0000  0.0000  0.0000  0.0000  0.0000  0.0000  0.0000  0.0000  0.0000  0.0000
  o =  1.0416  v = -0.0000 -0.7071  0.0000  0.7071  0.0000  0.0000  0.0000  0.0000  0.0000  0.0000      0.0000  0.0000  0.0000  0.0000  0.0000  0.0000  0.0000  0.0000  0.0000  0.0000
  o =  1.0432  v = -0.8085  0.0000  0.5884 -0.0000 -0.0000  0.0000  0.0000  0.0000  0.0000  0.0000      0.0000  0.0000  0.0000  0.0000  0.0000  0.0000  0.0000  0.0000  0.0000  0.0000
     EDDAV:  cpu time    0.3086: real time    0.3086
 BZINTS: Fermi energy:  1.222967; 54.000000 electrons
         Band energy:-765.791920;  BLOECHL correction:  0.000000
       DOS:  cpu time    0.0020: real time    0.0020
    CHARGE:  cpu time    0.0282: real time    0.0282
    MIXING:  cpu time    0.0005: real time    0.0005
    --------------------------------------------
      LOOP:  cpu time    1.0245: real time    1.0245

 eigenvalue-minimisations  :  1500
 total energy-change (2. order) :-0.6168798E-01  (-0.4175530E-01)
 number of electron      53.9999999 magnetization      -0.0000000
 augmentation part       19.9557081 magnetization      -0.0000000

 Broyden mixing:
  rms(total) = 0.52080E+00    rms(broyden)= 0.52079E+00
  rms(prec ) = 0.54512E+00
  weight for this iteration     100.00

 eigenvalues of (default mixing * dielectric matrix)
  average eigenvalue GAMMA=   1.1926
  2.0786  0.8960  0.6032

 Free energy of the ion-electron system (eV)
  ---------------------------------------------------
  alpha Z        PSCENC =       196.39202940
  Ewald energy   TEWEN  =     -4180.13765139
  -Hartree energ DENC   =     -2156.55751819
  -exchange      EXHF   =         0.00000000
  -V(xc)+E(xc)   XCENC  =       293.78072548
  PAW double counting   =      6129.81554321    -6234.09561399
  entropy T*S    EENTRO =         0.00000000
  eigenvalues    EBANDS =      -765.79191997
  atomic energy  EATOM  =      6677.60654784
  Solvation  Ediel_sol  =         0.00000000
  ---------------------------------------------------
  free energy    TOTEN  =       -38.98785761 eV

  energy without entropy =      -38.98785761  energy(sigma->0) =      -38.98785761


--------------------------------------------------------------------------------------------------------




--------------------------------------- Iteration      1(   9)  ---------------------------------------


    POTLOK:  cpu time    0.0136: real time    0.0136
    SETDIJ:  cpu time    0.6729: real time    0.6729
atom =   1  type =  1  l = 2
 
 onsite density matrix
 
spin component  1
 
  0.0384  0.0000  0.0233  0.0000 -0.0000
  0.0000  0.0307  0.0000  0.0202  0.0000
  0.0233  0.0000  0.0256  0.0000 -0.0000
  0.0000  0.0202  0.0000  0.0307  0.0000
 -0.0000  0.0000 -0.0000  0.0000  0.0085
 
spin component  2
 
  0.9757  0.0000  0.0214  0.0000  0.0000
  0.0000  0.9697  0.0000  0.0186  0.0000
  0.0214  0.0000  0.9633  0.0000  0.0000
  0.0000  0.0186  0.0000  0.9697  0.0000
  0.0000  0.0000  0.0000  0.0000  0.9510
 
 occupancies and eigenvectors
 
  o =  0.0078  v = -0.6059  0.0000  0.7955  0.0000  0.0000  0.0000  0.0000  0.0000  0.0000  0.0000      0.0000  0.0000  0.0000  0.0000  0.0000  0.0000  0.0000  0.0000  0.0000  0.0000
  o =  0.0085  v = -0.0000 -0.0000  0.0000  0.0000 -1.0000  0.0000  0.0000  0.0000  0.0000  0.0000      0.0000  0.0000  0.0000  0.0000  0.0000  0.0000  0.0000  0.0000  0.0000  0.0000
  o =  0.0105  v =  0.0000 -0.7071  0.0000  0.7071  0.0000  0.0000  0.0000  0.0000  0.0000  0.0000      0.0000  0.0000  0.0000  0.0000  0.0000  0.0000  0.0000  0.0000  0.0000  0.0000
  o =  0.0509  v =  0.0000 -0.7071  0.0000 -0.7071  0.0000  0.0000  0.0000  0.0000  0.0000  0.0000      0.0000  0.0000  0.0000  0.0000  0.0000  0.0000  0.0000  0.0000  0.0000  0.0000
  o =  0.0562  v = -0.7955  0.0000 -0.6059  0.0000  0.0000  0.0000  0.0000  0.0000  0.0000  0.0000      0.0000  0.0000  0.0000  0.0000  0.0000  0.0000  0.0000  0.0000  0.0000  0.0000
  o =  0.9472  v =  0.0000  0.0000  0.0000  0.0000  0.0000 -0.6012  0.0000  0.7991  0.0000  0.0000      0.0000  0.0000  0.0000  0.0000  0.0000  0.0000  0.0000  0.0000  0.0000  0.0000
  o =  0.9510  v =  0.0000  0.0000  0.0000  0.0000  0.0000  0.0000 -0.0000 -0.0000  0.0000  1.0000      0.0000  0.0000  0.0000  0.0000  0.0000  0.0000  0.0000  0.0000  0.0000  0.0000
  o =  0.9511  v =  0.0000  0.0000  0.0000  0.0000  0.0000  0.0000 -0.7071  0.0000  0.7071  0.0000      0.0000  0.0000  0.0000  0.0000  0.0000  0.0000  0.0000  0.0000  0.0000  0.0000
  o =  0.9883  v =  0.0000  0.0000  0.0000  0.0000  0.0000  0.0000 -0.7071  0.0000 -0.7071  0.0000      0.0000  0.0000  0.0000  0.0000  0.0000  0.0000  0.0000  0.0000  0.0000  0.0000
  o =  0.9917  v =  0.0000  0.0000  0.0000  0.0000  0.0000 -0.7991  0.0000 -0.6012  0.0000 -0.0000      0.0000  0.0000  0.0000  0.0000  0.0000  0.0000  0.0000  0.0000  0.0000  0.0000
atom =   2  type =  1  l = 2
 
 onsite density matrix
 
spin component  1
 
  0.9757  0.0000 -0.0214  0.0000 -0.0000
  0.0000  0.9697  0.0000 -0.0186  0.0000
 -0.0214  0.0000  0.9633  0.0000 -0.0000
  0.0000 -0.0186  0.0000  0.9697  0.0000
 -0.0000  0.0000 -0.0000  0.0000  0.9510
 
spin component  2
 
  0.0384  0.0000 -0.0233  0.0000  0.0000
  0.0000  0.0307  0.0000 -0.0202  0.0000
 -0.0233  0.0000  0.0256  0.0000  0.0000
  0.0000 -0.0202  0.0000  0.0307  0.0000
  0.0000  0.0000  0.0000  0.0000  0.0085
 
 occupancies and eigenvectors
 
  o =  0.0078  v =  0.0000  0.0000  0.0000  0.0000  0.0000 -0.6059 -0.0000 -0.7955  0.0000  0.0000      0.0000  0.0000  0.0000  0.0000  0.0000  0.0000  0.0000  0.0000  0.0000  0.0000
  o =  0.0085  v =  0.0000  0.0000  0.0000  0.0000  0.0000 -0.0000  0.0000 -0.0000  0.0000 -1.0000      0.0000  0.0000  0.0000  0.0000  0.0000  0.0000  0.0000  0.0000  0.0000  0.0000
  o =  0.0105  v =  0.0000  0.0000  0.0000  0.0000  0.0000  0.0000  0.7071  0.0000  0.7071  0.0000      0.0000  0.0000  0.0000  0.0000  0.0000  0.0000  0.0000  0.0000  0.0000  0.0000
  o =  0.0509  v =  0.0000  0.0000  0.0000  0.0000  0.0000  0.0000  0.7071  0.0000 -0.7071  0.0000      0.0000  0.0000  0.0000  0.0000  0.0000  0.0000  0.0000  0.0000  0.0000  0.0000
  o =  0.0562  v =  0.0000  0.0000  0.0000  0.0000  0.0000 -0.7955 -0.0000  0.6059  0.0000  0.0000      0.0000  0.0000  0.0000  0.0000  0.0000  0.0000  0.0000  0.0000  0.0000  0.0000
  o =  0.9472  v = -0.6012  0.0000 -0.7991  0.0000 -0.0000  0.0000  0.0000  0.0000  0.0000  0.0000      0.0000  0.0000  0.0000  0.0000  0.0000  0.0000  0.0000  0.0000  0.0000  0.0000
  o =  0.9510  v =  0.0000  0.0000 -0.0000  0.0000  1.0000  0.0000  0.0000  0.0000  0.0000  0.0000      0.0000  0.0000  0.0000  0.0000  0.0000  0.0000  0.0000  0.0000  0.0000  0.0000
  o =  0.9511  v =  0.0000 -0.7071  0.0000 -0.7071  0.0000  0.0000  0.0000  0.0000  0.0000  0.0000      0.0000  0.0000  0.0000  0.0000  0.0000  0.0000  0.0000  0.0000  0.0000  0.0000
  o =  0.9883  v =  0.0000  0.7071  0.0000 -0.7071 -0.0000  0.0000  0.0000  0.0000  0.0000  0.0000      0.0000  0.0000  0.0000  0.0000  0.0000  0.0000  0.0000  0.0000  0.0000  0.0000
  o =  0.9917  v = -0.7991  0.0000  0.6012  0.0000  0.0000  0.0000  0.0000  0.0000  0.0000  0.0000      0.0000  0.0000  0.0000  0.0000  0.0000  0.0000  0.0000  0.0000  0.0000  0.0000
     EDDAV:  cpu time    0.2750: real time    0.2750
 BZINTS: Fermi energy:  1.286503; 54.000000 electrons
         Band energy:-762.778926;  BLOECHL correction:  0.000000
       DOS:  cpu time    0.0017: real time    0.0017
    CHARGE:  cpu time    0.0273: real time    0.0273
    MIXING:  cpu time    0.0006: real time    0.0006
    --------------------------------------------
      LOOP:  cpu time    0.9911: real time    0.9911

 eigenvalue-minimisations  :  1332
 total energy-change (2. order) :-0.1636345E+00  (-0.4785923E-02)
 number of electron      53.9999999 magnetization       0.0000000
 augmentation part       19.9486853 magnetization       0.0000000

 Broyden mixing:
  rms(total) = 0.12893E+00    rms(broyden)= 0.12892E+00
  rms(prec ) = 0.14400E+00
  weight for this iteration     100.00

 eigenvalues of (default mixing * dielectric matrix)
  average eigenvalue GAMMA=   1.2246
  2.6195  0.8274  0.8274  0.6242

 Free energy of the ion-electron system (eV)
  ---------------------------------------------------
  alpha Z        PSCENC =       196.39202940
  Ewald energy   TEWEN  =     -4180.13765139
  -Hartree energ DENC   =     -2156.15722528
  -exchange      EXHF   =         0.00000000
  -V(xc)+E(xc)   XCENC  =       293.96004133
  PAW double counting   =      6285.32122885    -6393.35753643
  entropy T*S    EENTRO =         0.00000000
  eigenvalues    EBANDS =      -762.77892643
  atomic energy  EATOM  =      6677.60654784
  Solvation  Ediel_sol  =         0.00000000
  ---------------------------------------------------
  free energy    TOTEN  =       -39.15149212 eV

  energy without entropy =      -39.15149212  energy(sigma->0) =      -39.15149212


--------------------------------------------------------------------------------------------------------




--------------------------------------- Iteration      1(  10)  ---------------------------------------


    POTLOK:  cpu time    0.0135: real time    0.0135
    SETDIJ:  cpu time    0.6729: real time    0.6730
atom =   1  type =  1  l = 2
 
 onsite density matrix
 
spin component  1
 
  0.0462  0.0000  0.0256  0.0000  0.0000
  0.0000  0.0380  0.0000  0.0218  0.0000
  0.0256  0.0000  0.0324  0.0000  0.0000
  0.0000  0.0218  0.0000  0.0380  0.0000
  0.0000  0.0000  0.0000  0.0000  0.0140
 
spin component  2
 
  0.9680  0.0000  0.0191  0.0000 -0.0000
  0.0000  0.9625  0.0000  0.0170  0.0000
  0.0191  0.0000  0.9566  0.0000  0.0000
  0.0000  0.0170  0.0000  0.9625  0.0000
 -0.0000  0.0000  0.0000  0.0000  0.9457
 
 occupancies and eigenvectors
 
  o =  0.0128  v = -0.6079  0.0000  0.7940 -0.0000 -0.0000  0.0000  0.0000  0.0000  0.0000  0.0000      0.0000  0.0000  0.0000  0.0000  0.0000  0.0000  0.0000  0.0000  0.0000  0.0000
  o =  0.0140  v = -0.0000 -0.0000  0.0000  0.0000  1.0000  0.0000  0.0000  0.0000  0.0000  0.0000      0.0000  0.0000  0.0000  0.0000  0.0000  0.0000  0.0000  0.0000  0.0000  0.0000
  o =  0.0163  v =  0.0000  0.7071 -0.0000 -0.7071  0.0000  0.0000  0.0000  0.0000  0.0000  0.0000      0.0000  0.0000  0.0000  0.0000  0.0000  0.0000  0.0000  0.0000  0.0000  0.0000
  o =  0.0598  v = -0.0000 -0.7071 -0.0000 -0.7071 -0.0000  0.0000  0.0000  0.0000  0.0000  0.0000      0.0000  0.0000  0.0000  0.0000  0.0000  0.0000  0.0000  0.0000  0.0000  0.0000
  o =  0.0658  v = -0.7940  0.0000 -0.6079  0.0000 -0.0000  0.0000  0.0000  0.0000  0.0000  0.0000      0.0000  0.0000  0.0000  0.0000  0.0000  0.0000  0.0000  0.0000  0.0000  0.0000
  o =  0.9424  v =  0.0000  0.0000  0.0000  0.0000  0.0000 -0.5973  0.0000  0.8020  0.0000 -0.0000      0.0000  0.0000  0.0000  0.0000  0.0000  0.0000  0.0000  0.0000  0.0000  0.0000
  o =  0.9455  v =  0.0000  0.0000  0.0000  0.0000  0.0000  0.0000 -0.7071 -0.0000  0.7071 -0.0000      0.0000  0.0000  0.0000  0.0000  0.0000  0.0000  0.0000  0.0000  0.0000  0.0000
  o =  0.9457  v =  0.0000  0.0000  0.0000  0.0000  0.0000  0.0000 -0.0000  0.0000  0.0000  1.0000      0.0000  0.0000  0.0000  0.0000  0.0000  0.0000  0.0000  0.0000  0.0000  0.0000
  o =  0.9795  v =  0.0000  0.0000  0.0000  0.0000  0.0000  0.0000 -0.7071  0.0000 -0.7071  0.0000      0.0000  0.0000  0.0000  0.0000  0.0000  0.0000  0.0000  0.0000  0.0000  0.0000
  o =  0.9823  v =  0.0000  0.0000  0.0000  0.0000  0.0000 -0.8020  0.0000 -0.5973  0.0000  0.0000      0.0000  0.0000  0.0000  0.0000  0.0000  0.0000  0.0000  0.0000  0.0000  0.0000
atom =   2  type =  1  l = 2
 
 onsite density matrix
 
spin component  1
 
  0.9680  0.0000 -0.0191  0.0000  0.0000
  0.0000  0.9625  0.0000 -0.0170  0.0000
 -0.0191  0.0000  0.9566  0.0000  0.0000
  0.0000 -0.0170  0.0000  0.9625  0.0000
  0.0000  0.0000  0.0000  0.0000  0.9457
 
spin component  2
 
  0.0462  0.0000 -0.0256  0.0000 -0.0000
  0.0000  0.0380  0.0000 -0.0218  0.0000
 -0.0256  0.0000  0.0324  0.0000  0.0000
  0.0000 -0.0218  0.0000  0.0380  0.0000
 -0.0000  0.0000  0.0000  0.0000  0.0140
 
 occupancies and eigenvectors
 
  o =  0.0128  v =  0.0000  0.0000  0.0000  0.0000  0.0000 -0.6079  0.0000 -0.7940  0.0000  0.0000      0.0000  0.0000  0.0000  0.0000  0.0000  0.0000  0.0000  0.0000  0.0000  0.0000
  o =  0.0140  v =  0.0000  0.0000  0.0000  0.0000  0.0000 -0.0000 -0.0000 -0.0000  0.0000 -1.0000      0.0000  0.0000  0.0000  0.0000  0.0000  0.0000  0.0000  0.0000  0.0000  0.0000
  o =  0.0163  v =  0.0000  0.0000  0.0000  0.0000  0.0000  0.0000  0.7071  0.0000  0.7071 -0.0000      0.0000  0.0000  0.0000  0.0000  0.0000  0.0000  0.0000  0.0000  0.0000  0.0000
  o =  0.0598  v =  0.0000  0.0000  0.0000  0.0000  0.0000  0.0000  0.7071  0.0000 -0.7071 -0.0000      0.0000  0.0000  0.0000  0.0000  0.0000  0.0000  0.0000  0.0000  0.0000  0.0000
  o =  0.0658  v =  0.0000  0.0000  0.0000  0.0000  0.0000 -0.7940  0.0000  0.6079  0.0000  0.0000      0.0000  0.0000  0.0000  0.0000  0.0000  0.0000  0.0000  0.0000  0.0000  0.0000
  o =  0.9424  v = -0.5973 -0.0000 -0.8020  0.0000  0.0000  0.0000  0.0000  0.0000  0.0000  0.0000      0.0000  0.0000  0.0000  0.0000  0.0000  0.0000  0.0000  0.0000  0.0000  0.0000
  o =  0.9455  v =  0.0000  0.7071  0.0000  0.7071  0.0000  0.0000  0.0000  0.0000  0.0000  0.0000      0.0000  0.0000  0.0000  0.0000  0.0000  0.0000  0.0000  0.0000  0.0000  0.0000
  o =  0.9457  v =  0.0000 -0.0000  0.0000 -0.0000  1.0000  0.0000  0.0000  0.0000  0.0000  0.0000      0.0000  0.0000  0.0000  0.0000  0.0000  0.0000  0.0000  0.0000  0.0000  0.0000
  o =  0.9795  v =  0.0000 -0.7071  0.0000  0.7071  0.0000  0.0000  0.0000  0.0000  0.0000  0.0000      0.0000  0.0000  0.0000  0.0000  0.0000  0.0000  0.0000  0.0000  0.0000  0.0000
  o =  0.9823  v = -0.8020 -0.0000  0.5973  0.0000  0.0000  0.0000  0.0000  0.0000  0.0000  0.0000      0.0000  0.0000  0.0000  0.0000  0.0000  0.0000  0.0000  0.0000  0.0000  0.0000
     EDDAV:  cpu time    0.3246: real time    0.3246
 BZINTS: Fermi energy:  1.277235; 54.000000 electrons
         Band energy:-761.910287;  BLOECHL correction:  0.000000
       DOS:  cpu time    0.0018: real time    0.0018
    CHARGE:  cpu time    0.0276: real time    0.0276
    MIXING:  cpu time    0.0006: real time    0.0006
    --------------------------------------------
      LOOP:  cpu time    1.0410: real time    1.0410

 eigenvalue-minimisations  :  1584
 total energy-change (2. order) :-0.1058661E-02  (-0.1967851E-02)
 number of electron      53.9999999 magnetization      -0.0000000
 augmentation part       19.9471896 magnetization      -0.0000000

 Broyden mixing:
  rms(total) = 0.28103E-01    rms(broyden)= 0.28096E-01
  rms(prec ) = 0.31071E-01
  weight for this iteration     100.00

 eigenvalues of (default mixing * dielectric matrix)
  average eigenvalue GAMMA=   1.1570
  2.5238  0.9534  0.9534  0.7430  0.6114

 Free energy of the ion-electron system (eV)
  ---------------------------------------------------
  alpha Z        PSCENC =       196.39202940
  Ewald energy   TEWEN  =     -4180.13765139
  -Hartree energ DENC   =     -2156.94043858
  -exchange      EXHF   =         0.00000000
  -V(xc)+E(xc)   XCENC  =       294.07357299
  PAW double counting   =      6277.79226019    -6386.02858391
  entropy T*S    EENTRO =         0.00000000
  eigenvalues    EBANDS =      -761.91028732
  atomic energy  EATOM  =      6677.60654784
  Solvation  Ediel_sol  =         0.00000000
  ---------------------------------------------------
  free energy    TOTEN  =       -39.15255078 eV

  energy without entropy =      -39.15255078  energy(sigma->0) =      -39.15255078


--------------------------------------------------------------------------------------------------------




--------------------------------------- Iteration      1(  11)  ---------------------------------------


    POTLOK:  cpu time    0.0135: real time    0.0135
    SETDIJ:  cpu time    0.6720: real time    0.6720
atom =   1  type =  1  l = 2
 
 onsite density matrix
 
spin component  1
 
  0.0447  0.0000  0.0253  0.0000 -0.0000
  0.0000  0.0364  0.0000  0.0216  0.0000
  0.0253  0.0000  0.0309  0.0000 -0.0000
  0.0000  0.0216  0.0000  0.0364  0.0000
 -0.0000  0.0000 -0.0000  0.0000  0.0127
 
spin component  2
 
  0.9705  0.0000  0.0192  0.0000 -0.0000
  0.0000  0.9650  0.0000  0.0170  0.0000
  0.0192  0.0000  0.9591  0.0000  0.0000
  0.0000  0.0170  0.0000  0.9650  0.0000
 -0.0000  0.0000  0.0000  0.0000  0.9482
 
 occupancies and eigenvectors
 
  o =  0.0116  v = -0.6070  0.0000  0.7947  0.0000  0.0000  0.0000  0.0000  0.0000  0.0000  0.0000      0.0000  0.0000  0.0000  0.0000  0.0000  0.0000  0.0000  0.0000  0.0000  0.0000
  o =  0.0127  v = -0.0000 -0.0000  0.0000  0.0000 -1.0000  0.0000  0.0000  0.0000  0.0000  0.0000      0.0000  0.0000  0.0000  0.0000  0.0000  0.0000  0.0000  0.0000  0.0000  0.0000
  o =  0.0149  v =  0.0000  0.7071  0.0000 -0.7071 -0.0000  0.0000  0.0000  0.0000  0.0000  0.0000      0.0000  0.0000  0.0000  0.0000  0.0000  0.0000  0.0000  0.0000  0.0000  0.0000
  o =  0.0580  v =  0.0000  0.7071  0.0000  0.7071 -0.0000  0.0000  0.0000  0.0000  0.0000  0.0000      0.0000  0.0000  0.0000  0.0000  0.0000  0.0000  0.0000  0.0000  0.0000  0.0000
  o =  0.0640  v = -0.7947  0.0000 -0.6070  0.0000  0.0000  0.0000  0.0000  0.0000  0.0000  0.0000      0.0000  0.0000  0.0000  0.0000  0.0000  0.0000  0.0000  0.0000  0.0000  0.0000
  o =  0.9448  v =  0.0000  0.0000  0.0000  0.0000  0.0000 -0.5977  0.0000  0.8017  0.0000 -0.0000      0.0000  0.0000  0.0000  0.0000  0.0000  0.0000  0.0000  0.0000  0.0000  0.0000
  o =  0.9480  v =  0.0000  0.0000  0.0000  0.0000  0.0000  0.0000  0.7071  0.0000 -0.7071 -0.0000      0.0000  0.0000  0.0000  0.0000  0.0000  0.0000  0.0000  0.0000  0.0000  0.0000
  o =  0.9482  v =  0.0000  0.0000  0.0000  0.0000  0.0000  0.0000  0.0000  0.0000  0.0000  1.0000      0.0000  0.0000  0.0000  0.0000  0.0000  0.0000  0.0000  0.0000  0.0000  0.0000
  o =  0.9820  v =  0.0000  0.0000  0.0000  0.0000  0.0000  0.0000 -0.7071  0.0000 -0.7071  0.0000      0.0000  0.0000  0.0000  0.0000  0.0000  0.0000  0.0000  0.0000  0.0000  0.0000
  o =  0.9848  v =  0.0000  0.0000  0.0000  0.0000  0.0000 -0.8017  0.0000 -0.5977  0.0000  0.0000      0.0000  0.0000  0.0000  0.0000  0.0000  0.0000  0.0000  0.0000  0.0000  0.0000
atom =   2  type =  1  l = 2
 
 onsite density matrix
 
spin component  1
 
  0.9705  0.0000 -0.0192  0.0000 -0.0000
  0.0000  0.9650  0.0000 -0.0170  0.0000
 -0.0192  0.0000  0.9591  0.0000 -0.0000
  0.0000 -0.0170  0.0000  0.9650  0.0000
 -0.0000  0.0000 -0.0000  0.0000  0.9482
 
spin component  2
 
  0.0447  0.0000 -0.0253  0.0000 -0.0000
  0.0000  0.0364  0.0000 -0.0216  0.0000
 -0.0253  0.0000  0.0309  0.0000  0.0000
  0.0000 -0.0216  0.0000  0.0364  0.0000
 -0.0000  0.0000  0.0000  0.0000  0.0127
 
 occupancies and eigenvectors
 
  o =  0.0116  v =  0.0000  0.0000  0.0000  0.0000  0.0000 -0.6070  0.0000 -0.7947  0.0000  0.0000      0.0000  0.0000  0.0000  0.0000  0.0000  0.0000  0.0000  0.0000  0.0000  0.0000
  o =  0.0127  v =  0.0000  0.0000  0.0000  0.0000  0.0000 -0.0000 -0.0000 -0.0000  0.0000 -1.0000      0.0000  0.0000  0.0000  0.0000  0.0000  0.0000  0.0000  0.0000  0.0000  0.0000
  o =  0.0149  v =  0.0000  0.0000  0.0000  0.0000  0.0000  0.0000 -0.7071 -0.0000 -0.7071  0.0000      0.0000  0.0000  0.0000  0.0000  0.0000  0.0000  0.0000  0.0000  0.0000  0.0000
  o =  0.0580  v =  0.0000  0.0000  0.0000  0.0000  0.0000  0.0000 -0.7071 -0.0000  0.7071  0.0000      0.0000  0.0000  0.0000  0.0000  0.0000  0.0000  0.0000  0.0000  0.0000  0.0000
[...]
     33       8.7172      0.00000
     34       9.7889      0.00000
     35      10.2856      0.00000
     36      11.2559      0.00000

 k-point     7 :       0.1250    0.1250    0.4167
  band No.  band energies     occupation 
      1     -46.6911      1.00000
      2     -46.6524      1.00000
      3     -46.6359      1.00000
      4     -41.7104      1.00000
      5     -41.6774      1.00000
      6     -41.6544      1.00000
      7     -20.8095      1.00000
      8     -20.6819      1.00000
      9     -20.6325      1.00000
     10     -20.5443      1.00000
     11      -4.2199      1.00000
     12      -3.9182      1.00000
     13      -3.5605      1.00000
     14      -3.4978      1.00000
     15      -3.3832      1.00000
     16      -3.1336      1.00000
     17      -2.6665      1.00000
     18      -2.4618      1.00000
     19      -2.4339      1.00000
     20      -1.9670      1.00000
     21      -1.7939      1.00000
     22      -1.7316      1.00000
     23      -0.4891      1.00000
     24      -0.2534      1.00000
     25       0.0853      1.00000
     26       0.6077      1.00000
     27       0.9236      1.00000
     28       7.1440      0.00000
     29       7.1738      0.00000
     30       7.2686      0.00000
     31       7.9519      0.00000
     32       8.0956      0.00000
     33       8.6008      0.00000
     34      10.7642      0.00000
     35      12.0526      0.00000
     36      12.5146      0.00000

 k-point     8 :       0.3750    0.1250    0.4167
  band No.  band energies     occupation 
      1     -46.6911      1.00000
      2     -46.6524      1.00000
      3     -46.6359      1.00000
      4     -41.7104      1.00000
      5     -41.6774      1.00000
      6     -41.6545      1.00000
      7     -20.7525      1.00000
      8     -20.6956      1.00000
      9     -20.6472      1.00000
     10     -20.5726      1.00000
     11      -4.0901      1.00000
     12      -3.9754      1.00000
     13      -3.8718      1.00000
     14      -3.5806      1.00000
     15      -3.3910      1.00000
     16      -2.9487      1.00000
     17      -2.7949      1.00000
     18      -2.6230      1.00000
     19      -2.2224      1.00000
     20      -1.9214      1.00000
     21      -1.6825      1.00000
     22      -1.5641      1.00000
     23      -0.4803      1.00000
     24      -0.3156      1.00000
     25      -0.0191      1.00000
     26       0.5596      1.00000
     27       1.1333      1.00000
     28       7.1414      0.00000
     29       7.1684      0.00000
     30       7.3970      0.00000
     31       7.8597      0.00000
     32       8.3580      0.00000
     33       9.1001      0.00000
     34      10.5631      0.00000
     35      11.0629      0.00000
     36      12.2544      0.00000

 k-point     9 :       0.3750    0.3750    0.4167
  band No.  band energies     occupation 
      1     -46.6911      1.00000
      2     -46.6524      1.00000
      3     -46.6359      1.00000
      4     -41.7104      1.00000
      5     -41.6774      1.00000
      6     -41.6545      1.00000
      7     -20.7312      1.00000
      8     -20.7213      1.00000
      9     -20.6487      1.00000
     10     -20.5638      1.00000
     11      -4.3525      1.00000
     12      -4.1005      1.00000
     13      -3.8469      1.00000
     14      -3.7693      1.00000
     15      -3.4451      1.00000
     16      -2.9603      1.00000
     17      -2.6488      1.00000
     18      -2.4120      1.00000
     19      -2.0285      1.00000
     20      -1.7393      1.00000
     21      -1.6195      1.00000
     22      -1.5167      1.00000
     23      -0.4813      1.00000
     24      -0.3071      1.00000
     25      -0.0646      1.00000
     26       0.6089      1.00000
     27       1.0814      1.00000
     28       7.1476      0.00000
     29       7.1928      0.00000
     30       7.4264      0.00000
     31       7.8510      0.00000
     32       8.2312      0.00000
     33       9.5252      0.00000
     34      11.0466      0.00000
     35      11.2436      0.00000
     36      11.2879      0.00000


--------------------------------------------------------------------------------------------------------


 soft charge-density along one line, spin component           1
         0         1         2         3         4         5         6         7         8         9
 total charge-density along one line
 
 soft charge-density along one line, spin component           2
         0         1         2         3         4         5         6         7         8         9
 total charge-density along one line
 
 pseudopotential strength for first ion, spin component:           1
-42.460  -0.000  -0.028   7.852   0.000   0.012   0.000   0.000
 -0.000 -42.432  -0.000   0.000   7.840   0.000  -0.000   0.000
 -0.028  -0.000 -42.460   0.012   0.000   7.852   0.000  -0.000
  7.852   0.000   0.012   5.261  -0.000  -0.002  -0.000  -0.000
  0.000   7.840   0.000  -0.000   5.263  -0.000   0.000  -0.000
  0.012   0.000   7.852  -0.002  -0.000   5.261  -0.000   0.000
  0.000  -0.000   0.000  -0.000   0.000  -0.000  -1.436  -0.000
  0.000   0.000  -0.000  -0.000  -0.000   0.000  -0.000  -1.394
 -0.000   0.000  -0.000   0.000  -0.000   0.000  -0.065   0.000
 -0.000   0.000   0.000   0.000  -0.000  -0.000  -0.000  -0.083
 -0.000  -0.000   0.000   0.000   0.000  -0.000  -0.000   0.000
  0.000  -0.000   0.000  -0.000   0.000  -0.000  -1.878  -0.000
  0.000   0.000  -0.000  -0.000  -0.000   0.000  -0.000  -1.836
 -0.000   0.000  -0.000   0.000  -0.000   0.000  -0.069   0.000
 -0.000   0.000   0.000   0.000  -0.000  -0.000  -0.000  -0.085
 -0.000  -0.000   0.000   0.000   0.000  -0.000  -0.000   0.000
 -0.000  -0.000  -0.000  -0.000  -0.000  -0.000   0.007   0.000
 -0.000  -0.000  -0.000  -0.000  -0.000  -0.000   0.013   0.000
 pseudopotential strength for first ion, spin component:           2
-45.801  -0.000  -0.020   9.383   0.000   0.007   0.000   0.000
 -0.000 -45.781  -0.000   0.000   9.377   0.000  -0.000   0.000
 -0.020  -0.000 -45.801   0.007   0.000   9.383   0.000  -0.000
  9.383   0.000   0.007   4.746  -0.000  -0.001  -0.000  -0.000
  0.000   9.377   0.000  -0.000   4.748  -0.000   0.000  -0.000
  0.007   0.000   9.383  -0.001  -0.000   4.746  -0.000   0.000
  0.000  -0.000   0.000  -0.000   0.000  -0.000  -7.727  -0.000
  0.000   0.000  -0.000  -0.000  -0.000   0.000  -0.000  -7.698
 -0.000   0.000  -0.000   0.000  -0.000   0.000  -0.046   0.000
 -0.000   0.000   0.000   0.000  -0.000  -0.000  -0.000  -0.065
 -0.000  -0.000   0.000   0.000   0.000  -0.000   0.000   0.000
  0.000  -0.000   0.000  -0.000   0.000  -0.000  -8.223  -0.000
  0.000   0.000  -0.000  -0.000  -0.000   0.000  -0.000  -8.194
 -0.000   0.000  -0.000   0.000  -0.000   0.000  -0.048   0.000
 -0.000   0.000   0.000   0.000  -0.000  -0.000  -0.000  -0.067
 -0.000  -0.000   0.000   0.000   0.000  -0.000   0.000   0.000
 -0.000  -0.000  -0.000  -0.000  -0.000  -0.000   0.003   0.000
 -0.000  -0.000  -0.000  -0.000  -0.000  -0.000   0.005   0.000
 total augmentation occupancy for first ion, spin component:           1
  1.998   0.000   0.000  -0.013   0.000   0.000   0.000   0.000   0.000   0.000   0.000   0.000   0.000   0.000   0.000   0.000
  0.000   1.998   0.000   0.000  -0.013   0.000   0.000   0.000   0.000   0.000   0.000   0.000   0.000   0.000   0.000   0.000
  0.000   0.000   1.998   0.000   0.000  -0.013   0.000   0.000   0.000   0.000   0.000   0.000   0.000   0.000   0.000   0.000
 -0.013   0.000   0.000   0.086   0.000  -0.008   0.000   0.000   0.000   0.000   0.000   0.000   0.000   0.000   0.000   0.000
  0.000  -0.013   0.000   0.000   0.098   0.000   0.000   0.000   0.000   0.000   0.000   0.000   0.000   0.000   0.000   0.000
  0.000   0.000  -0.013  -0.008   0.000   0.086   0.000   0.000   0.000   0.000   0.000   0.000   0.000   0.000   0.000   0.000
  0.000   0.000   0.000   0.000   0.000   0.000   7.634   0.000   2.916   0.000   0.000  -5.685   0.000  -2.754   0.000   0.000
  0.000   0.000   0.000   0.000   0.000   0.000   0.000   6.532   0.000   2.567   0.000   0.000  -4.638   0.000  -2.419   0.000
  0.000   0.000   0.000   0.000   0.000   0.000   2.916   0.000   5.907   0.000  -0.000  -2.755   0.000  -4.071   0.000  -0.000
  0.000   0.000   0.000   0.000   0.000   0.000   0.000   2.567   0.000   6.532   0.000   0.000  -2.419   0.000  -4.638   0.000
  0.000   0.000   0.000   0.000   0.000   0.000   0.000   0.000   0.000   0.000   3.848  -0.000   0.000  -0.000   0.000  -2.085
  0.000   0.000   0.000   0.000   0.000   0.000  -5.685   0.000  -2.755   0.000   0.000   4.906   0.000   2.633   0.000  -0.000
  0.000   0.000   0.000   0.000   0.000   0.000   0.000  -4.638   0.000  -2.419   0.000   0.000   3.901   0.000   2.306   0.000
  0.000   0.000   0.000   0.000   0.000   0.000  -2.754   0.000  -4.071   0.000   0.000   2.633   0.000   3.381   0.000   0.000
  0.000   0.000   0.000   0.000   0.000   0.000   0.000  -2.419   0.000  -4.638   0.000   0.000   2.306   0.000   3.901   0.000
  0.000   0.000   0.000   0.000   0.000   0.000   0.000   0.000  -0.000   0.000  -2.085  -0.000   0.000   0.000   0.000   1.446
  0.000   0.000   0.000   0.000   0.000   0.000   0.200   0.000  -0.215   0.000   0.000  -0.232   0.000   0.231   0.000  -0.000
  0.000   0.000   0.000   0.000   0.000   0.000   0.003   0.000   0.015   0.000  -0.000   0.023   0.000  -0.031   0.000   0.000
 total augmentation occupancy for first ion, spin component:           2
  0.003   0.000  -0.000   0.011   0.000  -0.000   0.000   0.000   0.000   0.000   0.000   0.000   0.000   0.000   0.000   0.000
  0.000   0.003   0.000   0.000   0.012   0.000   0.000   0.000   0.000   0.000   0.000   0.000   0.000   0.000   0.000   0.000
 -0.000   0.000   0.003  -0.000   0.000   0.011   0.000   0.000   0.000   0.000   0.000   0.000   0.000   0.000   0.000   0.000
  0.011   0.000  -0.000  -0.011   0.000  -0.000   0.000   0.000   0.000   0.000   0.000   0.000   0.000   0.000   0.000   0.000
  0.000   0.012   0.000   0.000  -0.011   0.000   0.000   0.000   0.000   0.000   0.000   0.000   0.000   0.000   0.000   0.000
 -0.000   0.000   0.011  -0.000   0.000  -0.011   0.000   0.000   0.000   0.000   0.000   0.000   0.000   0.000   0.000   0.000
  0.000   0.000   0.000   0.000   0.000   0.000  -5.383   0.000  -1.640   0.000  -0.000   3.093   0.000   1.291   0.000   0.000
  0.000   0.000   0.000   0.000   0.000   0.000   0.000  -4.772   0.000  -1.459   0.000   0.000   2.598   0.000   1.149   0.000
  0.000   0.000   0.000   0.000   0.000   0.000  -1.640   0.000  -4.337   0.000  -0.000   1.291   0.000   2.263   0.000  -0.000
  0.000   0.000   0.000   0.000   0.000   0.000   0.000  -1.459   0.000  -4.772   0.000   0.000   1.149   0.000   2.598   0.000
  0.000   0.000   0.000   0.000   0.000   0.000   0.000   0.000  -0.000   0.000  -3.302   0.000   0.000  -0.000   0.000   1.439
  0.000   0.000   0.000   0.000   0.000   0.000   3.093   0.000   1.291   0.000  -0.000  -1.912   0.000  -0.947   0.000  -0.000
  0.000   0.000   0.000   0.000   0.000   0.000   0.000   2.598   0.000   1.149   0.000   0.000  -1.534   0.000  -0.845   0.000
  0.000   0.000   0.000   0.000   0.000   0.000   1.291   0.000   2.263   0.000   0.000  -0.947   0.000  -1.293   0.000   0.000
  0.000   0.000   0.000   0.000   0.000   0.000   0.000   1.149   0.000   2.598   0.000   0.000  -0.845   0.000  -1.534   0.000
  0.000   0.000   0.000   0.000   0.000   0.000  -0.000   0.000   0.000   0.000   1.439   0.000   0.000  -0.000   0.000  -0.681
  0.000   0.000   0.000   0.000   0.000   0.000   0.024   0.000   0.008   0.000   0.000  -0.025   0.000   0.004   0.000   0.000
  0.000   0.000   0.000   0.000   0.000   0.000  -0.048   0.000   0.025   0.000   0.000   0.029   0.000  -0.014   0.000   0.000


------------------------ aborting loop because EDIFF is reached ----------------------------------------


 


 total charge     
 
# of ion       s       p       d       tot
------------------------------------------
    1        0.164   6.154   4.951  11.269
    2        0.169   6.149   4.957  11.275
    3        1.734   4.365   0.000   6.099
    4        1.734   4.365   0.000   6.099
    5        1.733   4.360   0.000   6.094
    6        1.733   4.360   0.000   6.094
--------------------------------------------------
tot          7.268  29.753   9.908  46.928
 


 magnetization (x)
 
# of ion       s       p       d       tot
------------------------------------------
    1       -0.018  -0.019  -4.629  -4.666
    2        0.018   0.018   4.626   4.663
    3        0.002   0.017   0.000   0.019
    4        0.002   0.017   0.000   0.019
    5       -0.002  -0.013   0.000  -0.015
    6       -0.002  -0.013   0.000  -0.015
--------------------------------------------------
tot         -0.001   0.006  -0.002   0.003
 
    CHARGE:  cpu time    0.0273: real time    0.0273
    FORLOC:  cpu time    0.0008: real time    0.0008
    FORNL :  cpu time    0.1319: real time    0.1319
    STRESS:  cpu time    0.3828: real time    0.3828
    FORCOR:  cpu time    0.0130: real time    0.0130
    FORHAR:  cpu time    0.0017: real time    0.0017
    MIXING:  cpu time    0.0007: real time    0.0007
    OFIELD:  cpu time    0.0000: real time    0.0000

  FORCE on cell =-STRESS in cart. coord.  units (eV):
  Direction    XX          YY          ZZ          XY          YZ          ZX
  --------------------------------------------------------------------------------------
  Alpha Z   196.39203   196.39203   196.39203
  Ewald   -1583.05472 -1583.05472 -1014.03134    -0.00000    -0.00000    -0.00000
  Hartree   590.98807   590.98807   975.57709    -0.00000    -0.00000    -0.00000
  E(xc)    -314.11353  -314.11353  -313.89429    -0.00000    -0.00000    -0.00000
  Local     162.10134   162.10134  -784.53550    -0.00000    -0.00000     0.00000
  n-local  -242.43997  -242.78490  -241.56318     0.02045     0.11646     0.11965
  augment   265.59515   265.59515   265.08132     0.00000     0.00000     0.00000
  Kinetic   924.27985   925.11441   916.99027    -0.47070    -0.87931    -0.93711
  Fock        0.00000     0.00000     0.00000     0.00000     0.00000     0.00000
  -------------------------------------------------------------------------------------
  Total      -0.00696    -0.00696     0.01639     0.00000     0.00000     0.00000
  in kB      -0.14183    -0.14183     0.33413     0.00000     0.00000     0.00000
  external pressure =        0.02 kB  Pullay stress =        0.00 kB


 VOLUME and BASIS-vectors are now :
 -----------------------------------------------------------------------------
  energy-cutoff  :      500.00
  volume of cell :       78.61
      direct lattice vectors                 reciprocal lattice vectors
     4.880875401  0.000000000  0.000000000     0.204881280  0.000000000  0.000000000
     0.000000000  4.880875401  0.000000000     0.000000000  0.204881280  0.000000000
     0.000000000  0.000000000  3.299569628     0.000000000  0.000000000  0.303069828

  length of vectors
     4.880875401  4.880875401  3.299569628     0.204881280  0.204881280  0.303069828


 FORCES acting on ions
    electron-ion (+dipol)            ewald-force                    non-local-force                 convergence-correction
 -----------------------------------------------------------------------------------------------
   0.216E-11 0.522E-11 0.445E-11   -.568E-13 0.114E-12 0.874E-14   0.000E+00 0.000E+00 0.000E+00   -.520E-13 -.598E-13 0.827E-14
   -.436E-13 -.395E-13 0.415E-13   -.284E-13 -.568E-13 0.860E-14   0.000E+00 0.000E+00 0.000E+00   0.680E-13 0.496E-13 -.250E-13
   -.344E+02 0.344E+02 0.345E-12   0.358E+02 -.358E+02 -.522E-14   -.140E+01 0.140E+01 0.000E+00   -.280E-03 0.280E-03 0.194E-13
   0.344E+02 -.344E+02 -.182E-11   -.358E+02 0.358E+02 -.480E-14   0.140E+01 -.140E+01 0.000E+00   0.280E-03 -.280E-03 -.153E-14
   0.344E+02 0.344E+02 -.358E-07   -.358E+02 -.358E+02 -.386E-14   0.140E+01 0.140E+01 0.000E+00   0.280E-03 0.280E-03 -.128E-09
   -.344E+02 -.344E+02 0.358E-07   0.358E+02 0.358E+02 -.347E-14   -.140E+01 -.140E+01 0.000E+00   -.280E-03 -.280E-03 0.128E-09
 -----------------------------------------------------------------------------------------------
   0.250E-11 0.114E-10 0.293E-11   0.000E+00 0.142E-13 -.148E-16   0.000E+00 0.000E+00 0.000E+00   0.151E-13 0.379E-13 -.725E-14
 
 
 POSITION                                       TOTAL-FORCE (eV/Angst)
 -----------------------------------------------------------------------------------
      2.44044      2.44044      1.64978        -0.000000      0.000000      0.000000
      0.00000      0.00000      0.00000        -0.000000      0.000000      0.000000
      0.95386      3.92702      1.64978        -0.000372      0.000372      0.000000
      3.92702      0.95386      1.64978         0.000372     -0.000372      0.000000
      1.48658      1.48658      0.00000         0.000372      0.000372     -0.000000
      3.39430      3.39430      0.00000        -0.000372     -0.000372      0.000000
 -----------------------------------------------------------------------------------
    total drift:                                0.000000      0.000000      0.000000


--------------------------------------------------------------------------------------------------------



  FREE ENERGIE OF THE ION-ELECTRON SYSTEM (eV)
  ---------------------------------------------------
  free  energy   TOTEN  =       -39.15300810 eV

  energy  without entropy=      -39.15300810  energy(sigma->0) =      -39.15300810
 


--------------------------------------------------------------------------------------------------------


    POTLOK:  cpu time    0.4227: real time    0.4228


--------------------------------------------------------------------------------------------------------


 writing wavefunctions
     LOOP+:  cpu time   14.2106: real time   14.2391
    4ORBIT:  cpu time    0.0000: real time    0.0000
 


 total charge     
 
# of ion       s       p       d       tot
------------------------------------------
    1        0.164   6.154   4.951  11.269
    2        0.169   6.149   4.957  11.275
    3        1.734   4.365   0.000   6.099
    4        1.734   4.365   0.000   6.099
    5        1.733   4.360   0.000   6.094
    6        1.733   4.360   0.000   6.094
--------------------------------------------------
tot          7.268  29.753   9.908  46.928
 


 magnetization (x)
 
# of ion       s       p       d       tot
------------------------------------------
    1       -0.018  -0.019  -4.629  -4.666
    2        0.018   0.018   4.626   4.663
    3        0.002   0.017   0.000   0.019
    4        0.002   0.017   0.000   0.019
    5       -0.002  -0.013   0.000  -0.015
    6       -0.002  -0.013   0.000  -0.015
--------------------------------------------------
tot         -0.001   0.006  -0.002   0.003
 
 BZINTS: Fermi energy:  1.292319; 54.000000 electrons
         Band energy:-761.509695;  BLOECHL correction:  0.000000

 total amount of memory used by VASP MPI-rank0    40956. kBytes
=======================================================================

   base      :      30000. kBytes
   nonl-proj :       5419. kBytes
   fftplans  :       1551. kBytes
   grid      :       1996. kBytes
   one-center:        186. kBytes
   wavefun   :       1804. kBytes
 
  
  
 General timing and accounting informations for this job:
 ========================================================
  
                  Total CPU time used (sec):       15.443
                            User time (sec):       10.622
                          System time (sec):        4.821
                         Elapsed time (sec):       15.524
  
                   Maximum memory used (kb):       54720.
                   Average memory used (kb):           0.
  
                          Minor page faults:         8108
                          Major page faults:            7
                 Voluntary context switches:          332
