       N       E                     dE             d eps       ncg     rms          rms(c)
DAV:   1     0.975786739540E+03    0.97579E+03   -0.38346E+04   144   0.201E+03
DAV:   2     0.409740013436E+03   -0.56605E+03   -0.53947E+03   168   0.515E+02
DAV:   3     0.374071860912E+03   -0.35668E+02   -0.35424E+02   144   0.139E+02
DAV:   4     0.373598937185E+03   -0.47292E+00   -0.47249E+00   192   0.175E+01
DAV:   5     0.373590973878E+03   -0.79633E-02   -0.79633E-02   144   0.208E+00    0.592E+01
DAV:   6    -0.684509605456E+02   -0.44204E+03   -0.28905E+02   168   0.219E+02    0.630E+01
DAV:   7    -0.714931588959E+02   -0.30422E+01   -0.56774E+01   192   0.468E+01    0.179E+01
DAV:   8    -0.686817384653E+02    0.28114E+01   -0.89080E+00   180   0.228E+01    0.685E+00
DAV:   9    -0.682276616227E+02    0.45408E+00   -0.50492E+00   180   0.186E+01    0.847E+00
DAV:  10    -0.682149735418E+02    0.12688E-01   -0.38401E-01   168   0.478E+00    0.700E+00
DAV:  11    -0.681487200651E+02    0.66253E-01   -0.12874E+00   180   0.830E+00    0.218E+00
DAV:  12    -0.681112842164E+02    0.37436E-01   -0.13318E-01   168   0.309E+00    0.151E+00
DAV:  13    -0.680873233950E+02    0.23961E-01   -0.67954E-02   192   0.160E+00    0.106E+00
DAV:  14    -0.680790602543E+02    0.82631E-02   -0.70935E-02   144   0.246E+00    0.357E-01
DAV:  15    -0.680809431219E+02   -0.18829E-02   -0.79172E-03   168   0.794E-01    0.414E-01
DAV:  16    -0.680806869287E+02    0.25619E-03   -0.28595E-03   144   0.346E-01    0.220E-01
DAV:  17    -0.680806240639E+02    0.62865E-04   -0.28544E-03   144   0.431E-01    0.969E-02
DAV:  18    -0.680803054040E+02    0.31866E-03   -0.30829E-04   192   0.111E-01    0.411E-02
DAV:  19    -0.680803007803E+02    0.46237E-05   -0.16689E-04   168   0.817E-02    0.108E-02
DAV:  20    -0.680803223445E+02   -0.21564E-04   -0.14812E-05   144   0.223E-02    0.146E-02
DAV:  21    -0.680803214528E+02    0.89168E-06   -0.61003E-06   168   0.177E-02    0.645E-03
DAV:  22    -0.680803247424E+02   -0.32896E-05   -0.44481E-06   192   0.116E-02    0.206E-03
DAV:  23    -0.680803283816E+02   -0.36392E-05   -0.21028E-07   120   0.333E-03    0.140E-03
DAV:  24    -0.680803291672E+02   -0.78561E-06   -0.29245E-08    72   0.131E-03    0.406E-04
DAV:  25    -0.680803291248E+02    0.42385E-07   -0.10685E-08    72   0.910E-04
   1 F= -.68080329E+02 E0= -.68080329E+02  d E =-.680803E+02  mag=     0.0000
