       N       E                     dE             d eps       ncg     rms          rms(c)
DAV:   1     0.568271438345E+03    0.56827E+03   -0.27964E+04  1296   0.146E+03
DAV:   2    -0.389094143233E+01   -0.57216E+03   -0.55881E+03  1488   0.449E+02
DAV:   3    -0.405787244099E+02   -0.36688E+02   -0.36575E+02  1476   0.131E+02
DAV:   4    -0.410009935470E+02   -0.42227E+00   -0.42218E+00  1512   0.154E+01
DAV:   5    -0.410074042905E+02   -0.64107E-02   -0.64107E-02  1476   0.181E+00    0.280E+01
DAV:   6    -0.392557831997E+02    0.17516E+01   -0.13299E+01  1632   0.304E+01    0.179E+01
DAV:   7    -0.397799140924E+02   -0.52413E+00   -0.15878E+00  1512   0.104E+01    0.129E+01
DAV:   8    -0.397845409219E+02   -0.46268E-02   -0.55524E-01  1500   0.620E+00    0.479E+00
DAV:   9    -0.400789173620E+02   -0.29438E+00   -0.72478E-02  1404   0.259E+00    0.148E+00
DAV:  10    -0.400827803929E+02   -0.38630E-02   -0.16995E-02  1596   0.104E+00    0.214E-01
DAV:  11    -0.400827858993E+02   -0.55064E-05   -0.10555E-03  1356   0.229E-01    0.101E-01
DAV:  12    -0.400828354257E+02   -0.49526E-04   -0.30287E-05  1548   0.713E-02    0.473E-02
DAV:  13    -0.400828433038E+02   -0.78782E-05   -0.15813E-05  1440   0.244E-02    0.165E-02
DAV:  14    -0.400828433755E+02   -0.71658E-07   -0.11569E-06   900   0.105E-02
   1 F= -.40082843E+02 E0= -.40082843E+02  d E =0.000000E+00  mag=    -0.0000
