 vasp.5.4.4.18Apr17-6-g9f103f2a35 (build Apr 27 2017 11:13:10) complex          
  
 executed on           IFC91_ompi date 2020.05.13  11:10:03
 running on   12 total cores
 distrk:  each k-point on   12 cores,    1 groups
 distr:  one band on NCORES_PER_BAND=   1 cores,   12 groups


--------------------------------------------------------------------------------------------------------


 INCAR:
 POTCAR:    PAW Mn_pv 02Aug2007                   
 POTCAR:    PAW F 31May2000                       

 ----------------------------------------------------------------------------- 
|                                                                             |
|           W    W    AA    RRRRR   N    N  II  N    N   GGGG   !!!           |
|           W    W   A  A   R    R  NN   N  II  NN   N  G    G  !!!           |
|           W    W  A    A  R    R  N N  N  II  N N  N  G       !!!           |
|           W WW W  AAAAAA  RRRRR   N  N N  II  N  N N  G  GGG   !            |
|           WW  WW  A    A  R   R   N   NN  II  N   NN  G    G                |
|           W    W  A    A  R    R  N    N  II  N    N   GGGG   !!!           |
|                                                                             |
|      For optimal performance we recommend to set                            |
|        NCORE= 4 - approx SQRT( number of cores)                             |
|      NCORE specifies how many cores store one orbital (NPAR=cpu/NCORE).     |
|      This setting can  greatly improve the performance of VASP for DFT.     |
|      The default,   NCORE=1            might be grossly inefficient         |
|      on modern multi-core architectures or massively parallel machines.     |
|      Do your own testing !!!!                                               |
|      Unfortunately you need to use the default for GW and RPA calculations. |
|      (for HF NCORE is supported but not extensively tested yet)             |
|                                                                             |
 ----------------------------------------------------------------------------- 

 POTCAR:    PAW Mn_pv 02Aug2007                   
   VRHFIN =Mn: 3p4s3d                                                           
   LEXCH  = CA                                                                  
   EATOM  =  2028.0466 eV,  149.0572 Ry                                         
                                                                                
   TITEL  = PAW Mn_pv 02Aug2007                                                 
   LULTRA =        F    use ultrasoft PP ?                                      
   IUNSCR =        1    unscreen: 0-lin 1-nonlin 2-no                           
   RPACOR =    2.080    partial core radius                                     
   POMASS =   54.938; ZVAL   =   13.000    mass and valenz                      
   RCORE  =    2.300    outmost cutoff radius                                   
   RWIGS  =    2.500; RWIGS  =    1.323    wigner-seitz radius (au A)           
   ENMAX  =  269.944; ENMIN  =  202.458 eV                                      
   ICORE  =        3    local potential                                         
   LCOR   =        T    correct aug charges                                     
   LPAW   =        T    paw PP                                                  
   EAUG   =  569.085                                                            
   DEXC   =    0.000                                                            
   RMAX   =    2.343    core radius for proj-oper                               
   RAUG   =    1.300    factor for augmentation sphere                          
   RDEP   =    2.338    radius for radial grids                                 
   RDEPT  =    1.798    core radius for aug-charge                              
                                                                                
   Atomic configuration                                                         
    8 entries                                                                   
     n  l   j            E        occ.                                          
     1  0  0.50     -6393.6057   2.0000                                         
     2  0  0.50      -735.9993   2.0000                                         
     2  1  1.50      -624.3417   6.0000                                         
     3  0  0.50       -80.9782   2.0000                                         
     3  1  1.50       -50.3144   6.0000                                         
     3  2  2.50        -3.6171   6.0000                                         
     4  0  0.50        -4.3304   1.0000                                         
     4  3  2.50        -1.3606   0.0000                                         
   Description                                                                  
     l       E           TYP  RCUT    TYP  RCUT                                 
     1    -50.3143634     23  2.000                                             
     1     -1.3605826     23  2.000                                             
     2     -3.6171470     23  2.300                                             
     2     -4.9777296     23  2.300                                             
     0     -4.3303688     23  2.300                                             
     0      7.3408788     23  2.300                                             
     3      9.5240782     23  2.300                                             
  local pseudopotential read in
  partial core-charges read in
  partial kinetic energy density read in
  atomic valenz-charges read in
  non local Contribution for L=           1  read in
    real space projection operators read in
  non local Contribution for L=           1  read in
    real space projection operators read in
  non local Contribution for L=           2  read in
    real space projection operators read in
  non local Contribution for L=           2  read in
    real space projection operators read in
  non local Contribution for L=           0  read in
    real space projection operators read in
  non local Contribution for L=           0  read in
    real space projection operators read in
    PAW grid and wavefunctions read in
 
   number of l-projection  operators is LMAX  =           6
   number of lm-projection operators is LMMAX =          18
 
 POTCAR:    PAW F 31May2000                       
   VRHFIN =F: s2p5                                                              
   LEXCH  = CA                                                                  
   EATOM  =   658.3685 eV,   48.3887 Ry                                         
                                                                                
   TITEL  = PAW F 31May2000                                                     
   LULTRA =        F    use ultrasoft PP ?                                      
   IUNSCR =        1    unscreen: 0-lin 1-nonlin 2-no                           
   RPACOR =    1.200    partial core radius                                     
   POMASS =   18.998; ZVAL   =    7.000    mass and valenz                      
   RCORE  =    1.520    outmost cutoff radius                                   
   RWIGS  =    1.500; RWIGS  =    0.794    wigner-seitz radius (au A)           
   ENMAX  =  400.000; ENMIN  =  300.000 eV                                      
   ICORE  =        2    local potential                                         
   LCOR   =        T    correct aug charges                                     
   LPAW   =        T    paw PP                                                  
   EAUG   =  613.614                                                            
   DEXC   =    0.000                                                            
   RMAX   =    1.555    core radius for proj-oper                               
   RAUG   =    1.300    factor for augmentation sphere                          
   RDEP   =    1.539    radius for radial grids                                 
   RDEPT  =    1.299    core radius for aug-charge                              
                                                                                
   Atomic configuration                                                         
    4 entries                                                                   
     n  l   j            E        occ.                                          
     1  0  0.50      -658.3386   2.0000                                         
     2  0  0.50       -29.6221   2.0000                                         
     2  1  0.50       -11.2952   5.0000                                         
     3  2  1.50       -12.2452   0.0000                                         
   Description                                                                  
     l       E           TYP  RCUT    TYP  RCUT                                 
     0    -29.6221019     23  1.200                                             
     0     -9.5240782     23  1.200                                             
     1    -11.2951545     23  1.520                                             
     1      1.3605826     23  1.520                                             
     2    -12.2452434      7  1.500                                             
  local pseudopotential read in
  partial core-charges read in
  partial kinetic energy density read in
  kinetic energy density of atom read in
  atomic valenz-charges read in
  non local Contribution for L=           0  read in
    real space projection operators read in
  non local Contribution for L=           0  read in
    real space projection operators read in
  non local Contribution for L=           1  read in
    real space projection operators read in
  non local Contribution for L=           1  read in
    real space projection operators read in
    PAW grid and wavefunctions read in
 
   number of l-projection  operators is LMAX  =           4
   number of lm-projection operators is LMMAX =           8
 
  PAW Mn_pv 02Aug2007                   :
 energy of atom  1       EATOM=-2028.0466
 kinetic energy error for atom=    0.0284 (will be added to EATOM!!)
  PAW F 31May2000                       :
 energy of atom  2       EATOM= -658.3685
 kinetic energy error for atom=    0.1928 (will be added to EATOM!!)
 
 
 POSCAR: Mn  F                                   
  positions in cartesian coordinates
  No initial velocities read in
 exchange correlation table for  LEXCH =        2
   RHO(1)=    0.500       N(1)  =     2000
   RHO(2)=  100.500       N(2)  =     4000
 


--------------------------------------------------------------------------------------------------------


 ion  position               nearest neighbor table
   1  0.500  0.500  0.500-   3 2.00   4 2.00   5 2.06   6 2.06   5 2.06   6 2.06
   2  0.000  0.000  0.000-   5 2.00   6 2.00   3 2.06   4 2.06   3 2.06   4 2.06
   3  0.196  0.804  0.500-   1 2.00   2 2.06   2 2.06
   4  0.804  0.196  0.500-   1 2.00   2 2.06   2 2.06
   5  0.304  0.304  0.000-   2 2.00   1 2.06   1 2.06
   6  0.696  0.696  0.000-   2 2.00   1 2.06   1 2.06
 
  LATTYP: Found a simple tetragonal cell.
 ALAT       =     4.6588118670
 C/A-ratio  =     0.6869205311
  
  Lattice vectors:
  
 A1 = (   4.6588118670,   0.0000000000,   0.0000000000)
 A2 = (   0.0000000000,   4.6588118670,   0.0000000000)
 A3 = (   0.0000000000,   0.0000000000,   3.2002335221)


Analysis of symmetry for initial positions (statically):
=====================================================================
 Subroutine PRICEL returns:
 Original cell was already a primitive cell.
 

 Routine SETGRP: Setting up the symmetry group for a 
 simple tetragonal supercell.


 Subroutine GETGRP returns: Found 16 space group operations
 (whereof  8 operations were pure point group operations)
 out of a pool of 16 trial point group operations.


The static configuration has the point symmetry D_2h.
 The point group associated with its full space group is D_4h.


Analysis of symmetry for dynamics (positions and initial velocities):
=====================================================================
 Subroutine PRICEL returns:
 Original cell was already a primitive cell.
 

 Routine SETGRP: Setting up the symmetry group for a 
 simple tetragonal supercell.


 Subroutine GETGRP returns: Found 16 space group operations
 (whereof  8 operations were pure point group operations)
 out of a pool of 16 trial point group operations.


The dynamic configuration has the point symmetry D_2h.
 The point group associated with its full space group is D_4h.


Analysis of structural, dynamic, and magnetic symmetry:
=====================================================================
 Subroutine PRICEL returns:
 Original cell was already a primitive cell.
 

 Routine SETGRP: Setting up the symmetry group for a 
 simple tetragonal supercell.


 Subroutine GETGRP returns: Found 16 space group operations
 (whereof  8 operations were pure point group operations)
 out of a pool of 16 trial point group operations.


The magnetic configuration has the point symmetry D_2h.
 The point group associated with its full space group is D_4h.


 Subroutine INISYM returns: Found 16 space group operations
 (whereof  8 operations are pure point group operations),
 and found     1 'primitive' translations

 
 
 KPOINTS: KPOINTS created by Atomic Simulation Env

Automatic generation of k-mesh.
Space group operators:
 irot       det(A)        alpha          n_x          n_y          n_z        tau_x        tau_y        tau_z
    1     1.000000     0.000000     1.000000     0.000000     0.000000     0.000000     0.000000     0.000000
    2    -1.000000     0.000000     1.000000     0.000000     0.000000     0.000000     0.000000     0.000000
    3     1.000000   180.000000     0.000000     0.000000     1.000000     0.000000     0.000000     0.000000
    4    -1.000000   180.000000     0.000000     0.000000     1.000000     0.000000     0.000000     0.000000
    5     1.000000   180.000000     0.707107     0.707107     0.000000     0.000000     0.000000     0.000000
    6    -1.000000   180.000000     0.707107     0.707107     0.000000     0.000000     0.000000     0.000000
    7     1.000000   180.000000     0.707107    -0.707107     0.000000     0.000000     0.000000     0.000000
    8    -1.000000   180.000000     0.707107    -0.707107     0.000000     0.000000     0.000000     0.000000
    9     1.000000    90.000000     0.000000     0.000000    -1.000000     0.500000     0.500000     0.500000
   10    -1.000000    90.000000     0.000000     0.000000    -1.000000     0.500000     0.500000     0.500000
   11     1.000000    90.000000     0.000000     0.000000     1.000000     0.500000     0.500000     0.500000
   12    -1.000000    90.000000     0.000000     0.000000     1.000000     0.500000     0.500000     0.500000
   13     1.000000   180.000000     0.000000     1.000000     0.000000     0.500000     0.500000     0.500000
   14    -1.000000   180.000000     0.000000     1.000000     0.000000     0.500000     0.500000     0.500000
   15     1.000000   180.000000     1.000000     0.000000     0.000000     0.500000     0.500000     0.500000
   16    -1.000000   180.000000     1.000000     0.000000     0.000000     0.500000     0.500000     0.500000
 
 Subroutine IBZKPT returns following result:
 ===========================================
 
 Found      9 irreducible k-points:
 
 Following reciprocal coordinates:
            Coordinates               Weight
  0.125000  0.125000  0.083333      8.000000
  0.375000  0.125000  0.083333     16.000000
  0.375000  0.375000  0.083333      8.000000
  0.125000  0.125000  0.250000      8.000000
  0.375000  0.125000  0.250000     16.000000
  0.375000  0.375000  0.250000      8.000000
  0.125000  0.125000  0.416667      8.000000
  0.375000  0.125000  0.416667     16.000000
  0.375000  0.375000  0.416667      8.000000
 
 Following cartesian coordinates:
            Coordinates               Weight
  0.026831  0.026831  0.026040      8.000000
  0.080493  0.026831  0.026040     16.000000
  0.080493  0.080493  0.026040      8.000000
  0.026831  0.026831  0.078119      8.000000
  0.080493  0.026831  0.078119     16.000000
  0.080493  0.080493  0.078119      8.000000
  0.026831  0.026831  0.130199      8.000000
  0.080493  0.026831  0.130199     16.000000
  0.080493  0.080493  0.130199      8.000000
 
 TETIRR: Found    106 inequivalent tetrahedra from      576


--------------------------------------------------------------------------------------------------------




 Dimension of arrays:
   k-points           NKPTS =      9   k-points in BZ     NKDIM =      9   number of bands    NBANDS=     36
   number of dos      NEDOS =    301   number of ions     NIONS =      6
   non local maximal  LDIM  =      6   non local SUM 2l+1 LMDIM =     18
   total plane-waves  NPLWV =   9216
   max r-space proj   IRMAX =      1   max aug-charges    IRDMAX=  32403
   dimension x,y,z NGX =    24 NGY =   24 NGZ =   16
   dimension x,y,z NGXF=    48 NGYF=   48 NGZF=   32
   support grid    NGXF=    96 NGYF=   96 NGZF=   64
   ions per type =               2   4
   NGX,Y,Z   is equivalent  to a cutoff of   8.56,  8.56,  8.31 a.u.
   NGXF,Y,Z  is equivalent  to a cutoff of  17.13, 17.13, 16.62 a.u.

 SYSTEM =  unknown system                          
 POSCAR =  Mn  F                                   

 Startparameter for this run:
   NWRITE =      2    write-flag & timer
   PREC   = normal    normal or accurate (medium, high low for compatibility)
   ISTART =      0    job   : 0-new  1-cont  2-samecut
   ICHARG =      2    charge: 1-file 2-atom 10-const
   ISPIN  =      2    spin polarized calculation?
   LNONCOLLINEAR =      F non collinear calculations
   LSORBIT =      F    spin-orbit coupling
   INIWAV =      1    electr: 0-lowe 1-rand  2-diag
   LASPH  =      T    aspherical Exc in radial PAW
   METAGGA=      F    non-selfconsistent MetaGGA calc.

 Electronic Relaxation 1
   ENCUT  =  400.0 eV  29.40 Ry    5.42 a.u.   7.60  7.60  5.22*2*pi/ulx,y,z
   ENINI  =  400.0     initial cutoff
   ENAUG  =  613.6 eV  augmentation charge cutoff
   NELM   =     60;   NELMIN=  2; NELMDL= -5     # of ELM steps 
   EDIFF  = 0.1E-05   stopping-criterion for ELM
   LREAL  =      F    real-space projection
   NLSPLINE    = F    spline interpolate recip. space projectors
   LCOMPAT=      F    compatible to vasp.4.4
   GGA_COMPAT  = T    GGA compatible to vasp.4.4-vasp.4.6
   LMAXPAW     = -100 max onsite density
   LMAXMIX     =    4 max onsite mixed and CHGCAR
   VOSKOWN=      0    Vosko Wilk Nusair interpolation
   ROPT   =    0.00000   0.00000
 Ionic relaxation
   EDIFFG = 0.1E-04   stopping-criterion for IOM
   NSW    =      0    number of steps for IOM
   NBLOCK =      1;   KBLOCK =      1    inner block; outer block 
   IBRION =     -1    ionic relax: 0-MD 1-quasi-New 2-CG
   NFREE  =      0    steps in history (QN), initial steepest desc. (CG)
   ISIF   =      2    stress and relaxation
   IWAVPR =     10    prediction:  0-non 1-charg 2-wave 3-comb
   ISYM   =      2    0-nonsym 1-usesym 2-fastsym
   LCORR  =      T    Harris-Foulkes like correction to forces

   POTIM  = 0.5000    time-step for ionic-motion
   TEIN   =    0.0    initial temperature
   TEBEG  =    0.0;   TEEND  =   0.0 temperature during run
   SMASS  =  -3.00    Nose mass-parameter (am)
   estimated Nose-frequenzy (Omega)   =  0.10E-29 period in steps =****** mass=  -0.496E-27a.u.
   SCALEE = 1.0000    scale energy and forces
   NPACO  =    256;   APACO  = 16.0  distance and # of slots for P.C.
   PSTRESS=    0.0 pullay stress

  Mass of Ions in am
   POMASS =  54.94 19.00
  Ionic Valenz
   ZVAL   =  13.00  7.00
  Atomic Wigner-Seitz radii
   RWIGS  =  -1.00 -1.00
  virtual crystal weights 
   VCA    =   1.00  1.00
   NELECT =      54.0000    total number of electrons
   NUPDOWN=      -1.0000    fix difference up-down

 DOS related values:
   EMIN   =  10.00;   EMAX   =-10.00  energy-range for DOS
   EFERMI =   0.00
   ISMEAR =    -5;   SIGMA  =   0.20  broadening in eV -4-tet -1-fermi 0-gaus

 Electronic relaxation 2 (details)
   IALGO  =     38    algorithm
   LDIAG  =      T    sub-space diagonalisation (order eigenvalues)
   LSUBROT=      F    optimize rotation matrix (better conditioning)
   TURBO    =      0    0=normal 1=particle mesh
   IRESTART =      0    0=no restart 2=restart with 2 vectors
   NREBOOT  =      0    no. of reboots
   NMIN     =      0    reboot dimension
   EREF     =   0.00    reference energy to select bands
   IMIX   =      4    mixing-type and parameters
     AMIX     =   0.40;   BMIX     =  1.00
     AMIX_MAG =   1.60;   BMIX_MAG =  1.00
     AMIN     =   0.10
     WC   =   100.;   INIMIX=   1;  MIXPRE=   1;  MAXMIX= -45

 Intra band minimization:
   WEIMIN = 0.0000     energy-eigenvalue tresh-hold
   EBREAK =  0.69E-08  absolut break condition
   DEPER  =   0.30     relativ break condition  

   TIME   =   0.40     timestep for ELM

  volume/ion in A,a.u.               =      11.58        78.12
  Fermi-wavevector in a.u.,A,eV,Ry     =   1.505320  2.844642 30.830630  2.265987
  Thomas-Fermi vector in A             =   2.616184
 
 Write flags
   LWAVE        =      T    write WAVECAR
   LDOWNSAMPLE  =      F    k-point downsampling of WAVECAR
   LCHARG       =      T    write CHGCAR
   LVTOT        =      F    write LOCPOT, total local potential
   LVHAR        =      F    write LOCPOT, Hartree potential only
   LELF         =      F    write electronic localiz. function (ELF)
   LORBIT       =     11    0 simple, 1 ext, 2 COOP (PROOUT), +10 PAW based schemes


 Dipole corrections
   LMONO  =      F    monopole corrections only (constant potential shift)
   LDIPOL =      F    correct potential (dipole corrections)
   IDIPOL =      0    1-x, 2-y, 3-z, 4-all directions 
   EPSILON=  1.0000000 bulk dielectric constant

 LDA+U is selected, type is set to LDAUTYPE =  2
   angular momentum for each species LDAUL =     2   -1
   U (eV)           for each species LDAUU =   4.0  0.0
   J (eV)           for each species LDAUJ =   0.0  0.0
 Exchange correlation treatment:
   GGA     =    --    GGA type
   LEXCH   =     2    internal setting for exchange type
   VOSKOWN=      0    Vosko Wilk Nusair interpolation
   LHFCALC =     F    Hartree Fock is set to
   LHFONE  =     F    Hartree Fock one center treatment
   AEXX    =    0.0000 exact exchange contribution

 Linear response parameters
   LEPSILON=     F    determine dielectric tensor
   LRPA    =     F    only Hartree local field effects (RPA)
   LNABLA  =     F    use nabla operator in PAW spheres
   LVEL    =     F    velocity operator in full k-point grid
   LINTERFAST=   F  fast interpolation
   KINTER  =     0    interpolate to denser k-point grid
   CSHIFT  =0.1000    complex shift for real part using Kramers Kronig
   OMEGAMAX=  -1.0    maximum frequency
   DEG_THRESHOLD= 0.2000000E-02 threshold for treating states as degnerate
   RTIME   =   -0.100 relaxation time in fs
  (WPLASMAI=    0.000 imaginary part of plasma frequency in eV, 0.658/RTIME)
   DFIELD  = 0.0000000 0.0000000 0.0000000 field for delta impulse in time
 
 Orbital magnetization related:
   ORBITALMAG=     F  switch on orbital magnetization
   LCHIMAG   =     F  perturbation theory with respect to B field
   DQ        =  0.001000  dq finite difference perturbation B field
   LLRAUG    =     F  two centre corrections for induced B field



--------------------------------------------------------------------------------------------------------


 Static calculation
 charge density and potential will be updated during run
 spin polarized calculation
 Variant of blocked Davidson
 Davidson routine will perform the subspace rotation
 perform sub-space diagonalisation
    after iterative eigenvector-optimisation
 modified Broyden-mixing scheme, WC =      100.0
 initial mixing is a Kerker type mixing with AMIX =  0.4000 and BMIX =      1.0000
 Hartree-type preconditioning will be used
 using additional bands            9
 reciprocal scheme for non local part
 use partial core corrections
 calculate Harris-corrections to forces 
   (improved forces if not selfconsistent)
 use of overlap-Matrix (Vanderbilt PP)
 Fermi weights with tetrahedron method with Bloechl corrections


--------------------------------------------------------------------------------------------------------


  energy-cutoff  :      400.00
  volume of cell :       69.46
      direct lattice vectors                 reciprocal lattice vectors
     4.658811867  0.000000000  0.000000000     0.214647002  0.000000000  0.000000000
     0.000000000  4.658811867  0.000000000     0.000000000  0.214647002  0.000000000
     0.000000000  0.000000000  3.200233522     0.000000000  0.000000000  0.312477197

  length of vectors
     4.658811867  4.658811867  3.200233522     0.214647002  0.214647002  0.312477197


 
 k-points in units of 2pi/SCALE and weight: KPOINTS created by Atomic Simulation Env
   0.02683088  0.02683088  0.02603977       0.083
   0.08049263  0.02683088  0.02603977       0.167
   0.08049263  0.08049263  0.02603977       0.083
   0.02683088  0.02683088  0.07811930       0.083
   0.08049263  0.02683088  0.07811930       0.167
   0.08049263  0.08049263  0.07811930       0.083
   0.02683088  0.02683088  0.13019883       0.083
   0.08049263  0.02683088  0.13019883       0.167
   0.08049263  0.08049263  0.13019883       0.083
 
 k-points in reciprocal lattice and weights: KPOINTS created by Atomic Simulation Env
   0.12500000  0.12500000  0.08333333       0.083
   0.37500000  0.12500000  0.08333333       0.167
   0.37500000  0.37500000  0.08333333       0.083
   0.12500000  0.12500000  0.25000000       0.083
   0.37500000  0.12500000  0.25000000       0.167
   0.37500000  0.37500000  0.25000000       0.083
   0.12500000  0.12500000  0.41666667       0.083
   0.37500000  0.12500000  0.41666667       0.167
   0.37500000  0.37500000  0.41666667       0.083
 
 position of ions in fractional coordinates (direct lattice) 
   0.50000000  0.50000000  0.50000000
   0.00000000  0.00000000  0.00000000
   0.19617232  0.80382768  0.50000000
   0.80382768  0.19617232  0.50000000
   0.30382768  0.30382768  0.00000000
   0.69617232  0.69617232  0.00000000
 
 position of ions in cartesian coordinates  (Angst):
   2.32940593  2.32940593  1.60011676
   0.00000000  0.00000000  0.00000000
   0.91392991  3.74488196  1.60011676
   3.74488196  0.91392991  1.60011676
   1.41547602  1.41547602  0.00000000
   3.24333584  3.24333584  0.00000000
 


--------------------------------------------------------------------------------------------------------


 k-point  1 :   0.1250 0.1250 0.0833  plane waves:    1261
 k-point  2 :   0.3750 0.1250 0.0833  plane waves:    1264
 k-point  3 :   0.3750 0.3750 0.0833  plane waves:    1258
 k-point  4 :   0.1250 0.1250 0.2500  plane waves:    1266
 k-point  5 :   0.3750 0.1250 0.2500  plane waves:    1255
 k-point  6 :   0.3750 0.3750 0.2500  plane waves:    1257
 k-point  7 :   0.1250 0.1250 0.4167  plane waves:    1269
 k-point  8 :   0.3750 0.1250 0.4167  plane waves:    1260
 k-point  9 :   0.3750 0.3750 0.4167  plane waves:    1257

 maximum and minimum number of plane-waves per node :      1269     1255

 maximum number of plane-waves:      1269
 maximum index in each direction: 
   IXMAX=    7   IYMAX=    7   IZMAX=    5
   IXMIN=   -7   IYMIN=   -7   IZMIN=   -5


 serial   3D FFT for wavefunctions
 parallel 3D FFT for charge:
    minimum data exchange during FFTs selected (reduces bandwidth)


 total amount of memory used by VASP MPI-rank0    37003. kBytes
=======================================================================

   base      :      30000. kBytes
   nonl-proj :       3419. kBytes
   fftplans  :        966. kBytes
   grid      :       1271. kBytes
   one-center:        186. kBytes
   wavefun   :       1161. kBytes
 
     INWAV:  cpu time    0.0000: real time    0.0000
 Broyden mixing: mesh for mixing (old mesh)
   NGX = 15   NGY = 15   NGZ = 11
  (NGX  = 48   NGY  = 48   NGZ  = 32)
  gives a total of   2475 points

 initial charge density was supplied:
 charge density of overlapping atoms calculated
 number of electron      54.0000000 magnetization       0.0000000
 keeping initial charge density in first step


--------------------------------------------------------------------------------------------------------


 Maximum index for augmentation-charges         2687 (set IRDMAX)


--------------------------------------------------------------------------------------------------------


 First call to EWALD:  gamma=   0.431
 Maximum number of real-space cells 2x 2x 3
 Maximum number of reciprocal cells 3x 3x 2

    FEWALD:  cpu time    0.0010: real time    0.0010


--------------------------------------- Iteration      1(   1)  ---------------------------------------


    POTLOK:  cpu time    0.0039: real time    0.0039
    SETDIJ:  cpu time    0.2215: real time    0.2215
atom =   1  type =  1  l = 2
 
 onsite density matrix
 
spin component  1
 
  0.2837  0.0000  0.0000  0.0000  0.0000
  0.0000  0.2837  0.0000  0.0000  0.0000
  0.0000  0.0000  0.2837  0.0000  0.0000
  0.0000  0.0000  0.0000  0.2837  0.0000
  0.0000  0.0000  0.0000  0.0000  0.2837
 
spin component  2
 
  0.7701  0.0000  0.0000  0.0000  0.0000
  0.0000  0.7701  0.0000  0.0000  0.0000
  0.0000  0.0000  0.7701  0.0000  0.0000
  0.0000  0.0000  0.0000  0.7701  0.0000
  0.0000  0.0000  0.0000  0.0000  0.7701
 
 occupancies and eigenvectors
 
  o =  0.2837  v =  1.0000  0.0000  0.0000  0.0000  0.0000  0.0000  0.0000  0.0000  0.0000  0.0000      0.0000  0.0000  0.0000  0.0000  0.0000  0.0000  0.0000  0.0000  0.0000  0.0000
  o =  0.2837  v =  0.0000  1.0000  0.0000  0.0000  0.0000  0.0000  0.0000  0.0000  0.0000  0.0000      0.0000  0.0000  0.0000  0.0000  0.0000  0.0000  0.0000  0.0000  0.0000  0.0000
  o =  0.2837  v =  0.0000  0.0000  1.0000  0.0000  0.0000  0.0000  0.0000  0.0000  0.0000  0.0000      0.0000  0.0000  0.0000  0.0000  0.0000  0.0000  0.0000  0.0000  0.0000  0.0000
  o =  0.2837  v =  0.0000  0.0000  0.0000  1.0000  0.0000  0.0000  0.0000  0.0000  0.0000  0.0000      0.0000  0.0000  0.0000  0.0000  0.0000  0.0000  0.0000  0.0000  0.0000  0.0000
  o =  0.2837  v =  0.0000  0.0000  0.0000  0.0000  1.0000  0.0000  0.0000  0.0000  0.0000  0.0000      0.0000  0.0000  0.0000  0.0000  0.0000  0.0000  0.0000  0.0000  0.0000  0.0000
  o =  0.7701  v =  0.0000  0.0000  0.0000  0.0000  0.0000  1.0000  0.0000  0.0000  0.0000  0.0000      0.0000  0.0000  0.0000  0.0000  0.0000  0.0000  0.0000  0.0000  0.0000  0.0000
  o =  0.7701  v =  0.0000  0.0000  0.0000  0.0000  0.0000  0.0000  1.0000  0.0000  0.0000  0.0000      0.0000  0.0000  0.0000  0.0000  0.0000  0.0000  0.0000  0.0000  0.0000  0.0000
  o =  0.7701  v =  0.0000  0.0000  0.0000  0.0000  0.0000  0.0000  0.0000  1.0000  0.0000  0.0000      0.0000  0.0000  0.0000  0.0000  0.0000  0.0000  0.0000  0.0000  0.0000  0.0000
  o =  0.7701  v =  0.0000  0.0000  0.0000  0.0000  0.0000  0.0000  0.0000  0.0000  1.0000  0.0000      0.0000  0.0000  0.0000  0.0000  0.0000  0.0000  0.0000  0.0000  0.0000  0.0000
  o =  0.7701  v =  0.0000  0.0000  0.0000  0.0000  0.0000  0.0000  0.0000  0.0000  0.0000  1.0000      0.0000  0.0000  0.0000  0.0000  0.0000  0.0000  0.0000  0.0000  0.0000  0.0000
atom =   2  type =  1  l = 2
 
 onsite density matrix
 
spin component  1
 
  0.7701  0.0000  0.0000  0.0000  0.0000
  0.0000  0.7701  0.0000  0.0000  0.0000
  0.0000  0.0000  0.7701  0.0000  0.0000
  0.0000  0.0000  0.0000  0.7701  0.0000
  0.0000  0.0000  0.0000  0.0000  0.7701
 
spin component  2
 
  0.2837  0.0000  0.0000  0.0000  0.0000
  0.0000  0.2837  0.0000  0.0000  0.0000
  0.0000  0.0000  0.2837  0.0000  0.0000
  0.0000  0.0000  0.0000  0.2837  0.0000
  0.0000  0.0000  0.0000  0.0000  0.2837
 
 occupancies and eigenvectors
 
  o =  0.2837  v =  0.0000  0.0000  0.0000  0.0000  0.0000  1.0000  0.0000  0.0000  0.0000  0.0000      0.0000  0.0000  0.0000  0.0000  0.0000  0.0000  0.0000  0.0000  0.0000  0.0000
  o =  0.2837  v =  0.0000  0.0000  0.0000  0.0000  0.0000  0.0000  1.0000  0.0000  0.0000  0.0000      0.0000  0.0000  0.0000  0.0000  0.0000  0.0000  0.0000  0.0000  0.0000  0.0000
  o =  0.2837  v =  0.0000  0.0000  0.0000  0.0000  0.0000  0.0000  0.0000  1.0000  0.0000  0.0000      0.0000  0.0000  0.0000  0.0000  0.0000  0.0000  0.0000  0.0000  0.0000  0.0000
  o =  0.2837  v =  0.0000  0.0000  0.0000  0.0000  0.0000  0.0000  0.0000  0.0000  1.0000  0.0000      0.0000  0.0000  0.0000  0.0000  0.0000  0.0000  0.0000  0.0000  0.0000  0.0000
  o =  0.2837  v =  0.0000  0.0000  0.0000  0.0000  0.0000  0.0000  0.0000  0.0000  0.0000  1.0000      0.0000  0.0000  0.0000  0.0000  0.0000  0.0000  0.0000  0.0000  0.0000  0.0000
  o =  0.7701  v =  1.0000  0.0000  0.0000  0.0000  0.0000  0.0000  0.0000  0.0000  0.0000  0.0000      0.0000  0.0000  0.0000  0.0000  0.0000  0.0000  0.0000  0.0000  0.0000  0.0000
  o =  0.7701  v =  0.0000  1.0000  0.0000  0.0000  0.0000  0.0000  0.0000  0.0000  0.0000  0.0000      0.0000  0.0000  0.0000  0.0000  0.0000  0.0000  0.0000  0.0000  0.0000  0.0000
  o =  0.7701  v =  0.0000  0.0000  1.0000  0.0000  0.0000  0.0000  0.0000  0.0000  0.0000  0.0000      0.0000  0.0000  0.0000  0.0000  0.0000  0.0000  0.0000  0.0000  0.0000  0.0000
  o =  0.7701  v =  0.0000  0.0000  0.0000  1.0000  0.0000  0.0000  0.0000  0.0000  0.0000  0.0000      0.0000  0.0000  0.0000  0.0000  0.0000  0.0000  0.0000  0.0000  0.0000  0.0000
  o =  0.7701  v =  0.0000  0.0000  0.0000  0.0000  1.0000  0.0000  0.0000  0.0000  0.0000  0.0000      0.0000  0.0000  0.0000  0.0000  0.0000  0.0000  0.0000  0.0000  0.0000  0.0000
     EDDAV:  cpu time    0.1751: real time    0.1942
 BZINTS: Fermi energy: 17.458477; 54.000000 electrons
         Band energy:-130.503334;  BLOECHL correction: -0.021955
       DOS:  cpu time    0.0067: real time    0.0067
    --------------------------------------------
      LOOP:  cpu time    0.4072: real time    0.4262

 eigenvalue-minimisations  :  1296
 total energy-change (2. order) : 0.5682714E+03  (-0.2796432E+04)
 number of electron      54.0000000 magnetization      -0.0000000
 augmentation part       54.0000000 magnetization      -0.0000000

 Free energy of the ion-electron system (eV)
  ---------------------------------------------------
  alpha Z        PSCENC =       219.34825259
  Ewald energy   TEWEN  =     -4363.18743259
  -Hartree energ DENC   =     -2023.96389101
  -exchange      EXHF   =         0.00000000
  -V(xc)+E(xc)   XCENC  =       295.91586607
  PAW double counting   =      5431.03059579    -5549.10764102
  entropy T*S    EENTRO =         0.00000000
  eigenvalues    EBANDS =      -130.50333374
  atomic energy  EATOM  =      6688.73902225
  Solvation  Ediel_sol  =         0.00000000
  ---------------------------------------------------
  free energy    TOTEN  =       568.27143835 eV

  energy without entropy =      568.27143835  energy(sigma->0) =      568.27143835


--------------------------------------------------------------------------------------------------------




--------------------------------------- Iteration      1(   2)  ---------------------------------------


     EDDAV:  cpu time    0.1948: real time    0.1948
 BZINTS: Fermi energy:  5.236534; 54.000000 electrons
         Band energy:-702.665714;  BLOECHL correction:  0.000000
       DOS:  cpu time    0.0014: real time    0.0014
    --------------------------------------------
      LOOP:  cpu time    0.1962: real time    0.1962

 eigenvalue-minimisations  :  1488
 total energy-change (2. order) :-0.5721624E+03  (-0.5588145E+03)
 number of electron      54.0000000 magnetization      -0.0000000
 augmentation part       54.0000000 magnetization      -0.0000000

 Free energy of the ion-electron system (eV)
  ---------------------------------------------------
  alpha Z        PSCENC =       219.34825259
  Ewald energy   TEWEN  =     -4363.18743259
  -Hartree energ DENC   =     -2023.96389101
  -exchange      EXHF   =         0.00000000
  -V(xc)+E(xc)   XCENC  =       295.91586607
  PAW double counting   =      5431.03059579    -5549.10764102
  entropy T*S    EENTRO =         0.00000000
  eigenvalues    EBANDS =      -702.66571352
  atomic energy  EATOM  =      6688.73902225
  Solvation  Ediel_sol  =         0.00000000
  ---------------------------------------------------
  free energy    TOTEN  =        -3.89094143 eV

  energy without entropy =       -3.89094143  energy(sigma->0) =       -3.89094143


--------------------------------------------------------------------------------------------------------




--------------------------------------- Iteration      1(   3)  ---------------------------------------


     EDDAV:  cpu time    0.1931: real time    0.1931
 BZINTS: Fermi energy:  4.328147; 54.000000 electrons
         Band energy:-739.353496;  BLOECHL correction:  0.000000
       DOS:  cpu time    0.0012: real time    0.0012
    --------------------------------------------
      LOOP:  cpu time    0.1943: real time    0.1943

 eigenvalue-minimisations  :  1476
 total energy-change (2. order) :-0.3668778E+02  (-0.3657479E+02)
 number of electron      54.0000000 magnetization      -0.0000000
 augmentation part       54.0000000 magnetization      -0.0000000

 Free energy of the ion-electron system (eV)
  ---------------------------------------------------
  alpha Z        PSCENC =       219.34825259
  Ewald energy   TEWEN  =     -4363.18743259
  -Hartree energ DENC   =     -2023.96389101
  -exchange      EXHF   =         0.00000000
  -V(xc)+E(xc)   XCENC  =       295.91586607
  PAW double counting   =      5431.03059579    -5549.10764102
  entropy T*S    EENTRO =         0.00000000
  eigenvalues    EBANDS =      -739.35349650
  atomic energy  EATOM  =      6688.73902225
  Solvation  Ediel_sol  =         0.00000000
  ---------------------------------------------------
  free energy    TOTEN  =       -40.57872441 eV

  energy without entropy =      -40.57872441  energy(sigma->0) =      -40.57872441


--------------------------------------------------------------------------------------------------------




--------------------------------------- Iteration      1(   4)  ---------------------------------------


     EDDAV:  cpu time    0.1979: real time    0.1979
 BZINTS: Fermi energy:  4.392958; 54.000000 electrons
         Band energy:-739.775766;  BLOECHL correction:  0.000000
       DOS:  cpu time    0.0014: real time    0.0014
    --------------------------------------------
      LOOP:  cpu time    0.1992: real time    0.1992

 eigenvalue-minimisations  :  1512
 total energy-change (2. order) :-0.4222691E+00  (-0.4221826E+00)
 number of electron      54.0000000 magnetization      -0.0000000
 augmentation part       54.0000000 magnetization      -0.0000000

 Free energy of the ion-electron system (eV)
  ---------------------------------------------------
  alpha Z        PSCENC =       219.34825259
  Ewald energy   TEWEN  =     -4363.18743259
  -Hartree energ DENC   =     -2023.96389101
  -exchange      EXHF   =         0.00000000
  -V(xc)+E(xc)   XCENC  =       295.91586607
  PAW double counting   =      5431.03059579    -5549.10764102
  entropy T*S    EENTRO =         0.00000000
  eigenvalues    EBANDS =      -739.77576563
  atomic energy  EATOM  =      6688.73902225
  Solvation  Ediel_sol  =         0.00000000
  ---------------------------------------------------
  free energy    TOTEN  =       -41.00099355 eV

  energy without entropy =      -41.00099355  energy(sigma->0) =      -41.00099355


--------------------------------------------------------------------------------------------------------




--------------------------------------- Iteration      1(   5)  ---------------------------------------


     EDDAV:  cpu time    0.1925: real time    0.1925
 BZINTS: Fermi energy:  4.357594; 54.000000 electrons
         Band energy:-739.782176;  BLOECHL correction:  0.000000
       DOS:  cpu time    0.0014: real time    0.0014
    CHARGE:  cpu time    0.0146: real time    0.0146
    MIXING:  cpu time    0.0004: real time    0.0004
    --------------------------------------------
      LOOP:  cpu time    0.2089: real time    0.2089

 eigenvalue-minimisations  :  1476
 total energy-change (2. order) :-0.6410743E-02  (-0.6410710E-02)
 number of electron      53.9999996 magnetization      -0.0000000
 augmentation part       20.1252018 magnetization      -0.0000000

 Broyden mixing:
  rms(total) = 0.28025E+01    rms(broyden)= 0.28022E+01
  rms(prec ) = 0.34395E+01
  weight for this iteration     100.00

 Free energy of the ion-electron system (eV)
  ---------------------------------------------------
  alpha Z        PSCENC =       219.34825259
  Ewald energy   TEWEN  =     -4363.18743259
  -Hartree energ DENC   =     -2023.96389101
  -exchange      EXHF   =         0.00000000
  -V(xc)+E(xc)   XCENC  =       295.91586607
  PAW double counting   =      5431.03059579    -5549.10764102
  entropy T*S    EENTRO =         0.00000000
  eigenvalues    EBANDS =      -739.78217638
  atomic energy  EATOM  =      6688.73902225
  Solvation  Ediel_sol  =         0.00000000
  ---------------------------------------------------
  free energy    TOTEN  =       -41.00740429 eV

  energy without entropy =      -41.00740429  energy(sigma->0) =      -41.00740429


--------------------------------------------------------------------------------------------------------




--------------------------------------- Iteration      1(   6)  ---------------------------------------


    POTLOK:  cpu time    0.0025: real time    0.0025
    SETDIJ:  cpu time    0.2209: real time    0.2209
atom =   1  type =  1  l = 2
 
 onsite density matrix
 
spin component  1
 
 -0.0665  0.0000  0.0077  0.0000 -0.0000
  0.0000 -0.0728  0.0000  0.0047  0.0000
  0.0077  0.0000 -0.0699  0.0000  0.0000
  0.0000  0.0047  0.0000 -0.0728  0.0000
 -0.0000  0.0000  0.0000  0.0000 -0.0814
 
spin component  2
 
  1.0999  0.0000  0.0146  0.0000  0.0000
  0.0000  1.0989  0.0000  0.0125  0.0000
  0.0146  0.0000  1.0921  0.0000 -0.0000
  0.0000  0.0125  0.0000  1.0989  0.0000
  0.0000  0.0000 -0.0000  0.0000  1.0891
 
 occupancies and eigenvectors
 
  o = -0.0814  v =  0.0000  0.0000 -0.0000  0.0000  1.0000  0.0000  0.0000  0.0000  0.0000  0.0000      0.0000  0.0000  0.0000  0.0000  0.0000  0.0000  0.0000  0.0000  0.0000  0.0000
  o = -0.0774  v =  0.0000  0.7071  0.0000 -0.7071 -0.0000  0.0000  0.0000  0.0000  0.0000  0.0000      0.0000  0.0000  0.0000  0.0000  0.0000  0.0000  0.0000  0.0000  0.0000  0.0000
  o = -0.0761  v = -0.6270  0.0000  0.7791  0.0000  0.0000  0.0000  0.0000  0.0000  0.0000  0.0000      0.0000  0.0000  0.0000  0.0000  0.0000  0.0000  0.0000  0.0000  0.0000  0.0000
  o = -0.0681  v =  0.0000  0.7071  0.0000  0.7071 -0.0000  0.0000  0.0000  0.0000  0.0000  0.0000      0.0000  0.0000  0.0000  0.0000  0.0000  0.0000  0.0000  0.0000  0.0000  0.0000
  o = -0.0603  v =  0.7791  0.0000  0.6270  0.0000  0.0000  0.0000  0.0000  0.0000  0.0000  0.0000      0.0000  0.0000  0.0000  0.0000  0.0000  0.0000  0.0000  0.0000  0.0000  0.0000
  o =  1.0809  v =  0.0000  0.0000  0.0000  0.0000  0.0000 -0.6091  0.0000  0.7931 -0.0000  0.0000      0.0000  0.0000  0.0000  0.0000  0.0000  0.0000  0.0000  0.0000  0.0000  0.0000
  o =  1.0864  v =  0.0000  0.0000  0.0000  0.0000  0.0000 -0.0000 -0.7071  0.0000  0.7071 -0.0000      0.0000  0.0000  0.0000  0.0000  0.0000  0.0000  0.0000  0.0000  0.0000  0.0000
  o =  1.0891  v =  0.0000  0.0000  0.0000  0.0000  0.0000  0.0000 -0.0000 -0.0000  0.0000  1.0000      0.0000  0.0000  0.0000  0.0000  0.0000  0.0000  0.0000  0.0000  0.0000  0.0000
  o =  1.1111  v =  0.0000  0.0000  0.0000  0.0000  0.0000 -0.7931 -0.0000 -0.6091 -0.0000  0.0000      0.0000  0.0000  0.0000  0.0000  0.0000  0.0000  0.0000  0.0000  0.0000  0.0000
  o =  1.1113  v =  0.0000  0.0000  0.0000  0.0000  0.0000  0.0000 -0.7071  0.0000 -0.7071 -0.0000      0.0000  0.0000  0.0000  0.0000  0.0000  0.0000  0.0000  0.0000  0.0000  0.0000
atom =   2  type =  1  l = 2
 
 onsite density matrix
 
spin component  1
 
  1.0999  0.0000 -0.0146  0.0000  0.0000
  0.0000  1.0989  0.0000 -0.0125  0.0000
 -0.0146  0.0000  1.0921  0.0000 -0.0000
  0.0000 -0.0125  0.0000  1.0989  0.0000
  0.0000  0.0000 -0.0000  0.0000  1.0891
 
spin component  2
 
 -0.0665  0.0000 -0.0077  0.0000 -0.0000
  0.0000 -0.0728  0.0000 -0.0047  0.0000
 -0.0077  0.0000 -0.0699  0.0000  0.0000
  0.0000 -0.0047  0.0000 -0.0728  0.0000
 -0.0000  0.0000  0.0000  0.0000 -0.0814
 
 occupancies and eigenvectors
 
  o = -0.0814  v =  0.0000  0.0000  0.0000  0.0000  0.0000  0.0000 -0.0000  0.0000 -0.0000 -1.0000      0.0000  0.0000  0.0000  0.0000  0.0000  0.0000  0.0000  0.0000  0.0000  0.0000
  o = -0.0774  v =  0.0000  0.0000  0.0000  0.0000  0.0000 -0.0000 -0.7071 -0.0000 -0.7071  0.0000      0.0000  0.0000  0.0000  0.0000  0.0000  0.0000  0.0000  0.0000  0.0000  0.0000
  o = -0.0761  v =  0.0000  0.0000  0.0000  0.0000  0.0000  0.6270 -0.0000  0.7791 -0.0000  0.0000      0.0000  0.0000  0.0000  0.0000  0.0000  0.0000  0.0000  0.0000  0.0000  0.0000
  o = -0.0681  v =  0.0000  0.0000  0.0000  0.0000  0.0000 -0.0000  0.7071 -0.0000 -0.7071 -0.0000      0.0000  0.0000  0.0000  0.0000  0.0000  0.0000  0.0000  0.0000  0.0000  0.0000
  o = -0.0603  v =  0.0000  0.0000  0.0000  0.0000  0.0000  0.7791  0.0000 -0.6270 -0.0000 -0.0000      0.0000  0.0000  0.0000  0.0000  0.0000  0.0000  0.0000  0.0000  0.0000  0.0000
  o =  1.0809  v = -0.6091  0.0000 -0.7931  0.0000 -0.0000  0.0000  0.0000  0.0000  0.0000  0.0000      0.0000  0.0000  0.0000  0.0000  0.0000  0.0000  0.0000  0.0000  0.0000  0.0000
  o =  1.0864  v = -0.0000 -0.7071 -0.0000 -0.7071  0.0000  0.0000  0.0000  0.0000  0.0000  0.0000      0.0000  0.0000  0.0000  0.0000  0.0000  0.0000  0.0000  0.0000  0.0000  0.0000
  o =  1.0891  v = -0.0000  0.0000 -0.0000  0.0000  1.0000  0.0000  0.0000  0.0000  0.0000  0.0000      0.0000  0.0000  0.0000  0.0000  0.0000  0.0000  0.0000  0.0000  0.0000  0.0000
  o =  1.1111  v = -0.7931 -0.0000  0.6091  0.0000 -0.0000  0.0000  0.0000  0.0000  0.0000  0.0000      0.0000  0.0000  0.0000  0.0000  0.0000  0.0000  0.0000  0.0000  0.0000  0.0000
  o =  1.1113  v =  0.0000 -0.7071 -0.0000  0.7071 -0.0000  0.0000  0.0000  0.0000  0.0000  0.0000      0.0000  0.0000  0.0000  0.0000  0.0000  0.0000  0.0000  0.0000  0.0000  0.0000
     EDDAV:  cpu time    0.2056: real time    0.2056
 BZINTS: Fermi energy:  2.717730; 54.000000 electrons
         Band energy:-724.098034;  BLOECHL correction:  0.000000
       DOS:  cpu time    0.0014: real time    0.0014
    CHARGE:  cpu time    0.0147: real time    0.0147
    MIXING:  cpu time    0.0004: real time    0.0004
    --------------------------------------------
      LOOP:  cpu time    0.4455: real time    0.4455

 eigenvalue-minimisations  :  1632
 total energy-change (2. order) : 0.1751621E+01  (-0.1329910E+01)
 number of electron      53.9999996 magnetization      -0.0000000
 augmentation part       20.0048182 magnetization      -0.0000000

 Broyden mixing:
  rms(total) = 0.17935E+01    rms(broyden)= 0.17934E+01
  rms(prec ) = 0.18363E+01
  weight for this iteration     100.00

 eigenvalues of (default mixing * dielectric matrix)
  average eigenvalue GAMMA=   0.8543
  0.8543

 Free energy of the ion-electron system (eV)
  ---------------------------------------------------
  alpha Z        PSCENC =       219.34825259
  Ewald energy   TEWEN  =     -4363.18743259
  -Hartree energ DENC   =     -2046.66027984
  -exchange      EXHF   =         0.00000000
  -V(xc)+E(xc)   XCENC  =       296.43375274
  PAW double counting   =      5812.25518079    -5922.08624532
  entropy T*S    EENTRO =         0.00000000
  eigenvalues    EBANDS =      -724.09803381
  atomic energy  EATOM  =      6688.73902225
  Solvation  Ediel_sol  =         0.00000000
  ---------------------------------------------------
  free energy    TOTEN  =       -39.25578320 eV

  energy without entropy =      -39.25578320  energy(sigma->0) =      -39.25578320


--------------------------------------------------------------------------------------------------------




--------------------------------------- Iteration      1(   7)  ---------------------------------------


    POTLOK:  cpu time    0.0025: real time    0.0025
    SETDIJ:  cpu time    0.2207: real time    0.2207
atom =   1  type =  1  l = 2
 
 onsite density matrix
 
spin component  1
 
  0.1433  0.0000  0.0266  0.0000  0.0000
  0.0000  0.1343  0.0000  0.0202  0.0000
  0.0266  0.0000  0.1288  0.0000 -0.0000
  0.0000  0.0202  0.0000  0.1343  0.0000
  0.0000  0.0000 -0.0000  0.0000  0.1126
 
spin component  2
 
  0.8884  0.0000  0.0098  0.0000 -0.0000
  0.0000  0.8851  0.0000  0.0076  0.0000
  0.0098  0.0000  0.8840  0.0000  0.0000
  0.0000  0.0076  0.0000  0.8851  0.0000
 -0.0000  0.0000  0.0000  0.0000  0.8766
 
 occupancies and eigenvectors
 
  o =  0.1085  v = -0.6071  0.0000  0.7946  0.0000  0.0000  0.0000  0.0000  0.0000  0.0000  0.0000      0.0000  0.0000  0.0000  0.0000  0.0000  0.0000  0.0000  0.0000  0.0000  0.0000
  o =  0.1126  v = -0.0000 -0.0000  0.0000  0.0000 -1.0000  0.0000  0.0000  0.0000  0.0000  0.0000      0.0000  0.0000  0.0000  0.0000  0.0000  0.0000  0.0000  0.0000  0.0000  0.0000
  o =  0.1140  v =  0.0000 -0.7071  0.0000  0.7071  0.0000  0.0000  0.0000  0.0000  0.0000  0.0000      0.0000  0.0000  0.0000  0.0000  0.0000  0.0000  0.0000  0.0000  0.0000  0.0000
  o =  0.1545  v =  0.0000 -0.7071  0.0000 -0.7071  0.0000  0.0000  0.0000  0.0000  0.0000  0.0000      0.0000  0.0000  0.0000  0.0000  0.0000  0.0000  0.0000  0.0000  0.0000  0.0000
  o =  0.1636  v = -0.7946 -0.0000 -0.6071  0.0000  0.0000  0.0000  0.0000  0.0000  0.0000  0.0000      0.0000  0.0000  0.0000  0.0000  0.0000  0.0000  0.0000  0.0000  0.0000  0.0000
  o =  0.8761  v =  0.0000  0.0000  0.0000  0.0000  0.0000 -0.6249 -0.0000  0.7807  0.0000 -0.0000      0.0000  0.0000  0.0000  0.0000  0.0000  0.0000  0.0000  0.0000  0.0000  0.0000
  o =  0.8766  v =  0.0000  0.0000  0.0000  0.0000  0.0000 -0.0000  0.0000  0.0000 -0.0000  1.0000      0.0000  0.0000  0.0000  0.0000  0.0000  0.0000  0.0000  0.0000  0.0000  0.0000
  o =  0.8775  v =  0.0000  0.0000  0.0000  0.0000  0.0000  0.0000  0.7071 -0.0000 -0.7071 -0.0000      0.0000  0.0000  0.0000  0.0000  0.0000  0.0000  0.0000  0.0000  0.0000  0.0000
  o =  0.8927  v =  0.0000  0.0000  0.0000  0.0000  0.0000 -0.0000 -0.7071 -0.0000 -0.7071  0.0000      0.0000  0.0000  0.0000  0.0000  0.0000  0.0000  0.0000  0.0000  0.0000  0.0000
  o =  0.8962  v =  0.0000  0.0000  0.0000  0.0000  0.0000 -0.7807  0.0000 -0.6249 -0.0000 -0.0000      0.0000  0.0000  0.0000  0.0000  0.0000  0.0000  0.0000  0.0000  0.0000  0.0000
atom =   2  type =  1  l = 2
 
 onsite density matrix
 
spin component  1
 
  0.8884  0.0000 -0.0098  0.0000 -0.0000
  0.0000  0.8851  0.0000 -0.0076  0.0000
 -0.0098  0.0000  0.8840  0.0000 -0.0000
  0.0000 -0.0076  0.0000  0.8851  0.0000
 -0.0000  0.0000 -0.0000  0.0000  0.8766
 
spin component  2
 
  0.1433  0.0000 -0.0266  0.0000  0.0000
  0.0000  0.1343  0.0000 -0.0202  0.0000
 -0.0266  0.0000  0.1288  0.0000 -0.0000
  0.0000 -0.0202  0.0000  0.1343  0.0000
  0.0000  0.0000 -0.0000  0.0000  0.1126
 
 occupancies and eigenvectors
 
  o =  0.1085  v =  0.0000  0.0000  0.0000  0.0000  0.0000 -0.6071 -0.0000 -0.7946  0.0000 -0.0000      0.0000  0.0000  0.0000  0.0000  0.0000  0.0000  0.0000  0.0000  0.0000  0.0000
  o =  0.1126  v =  0.0000  0.0000  0.0000  0.0000  0.0000 -0.0000  0.0000 -0.0000  0.0000  1.0000      0.0000  0.0000  0.0000  0.0000  0.0000  0.0000  0.0000  0.0000  0.0000  0.0000
  o =  0.1140  v =  0.0000  0.0000  0.0000  0.0000  0.0000 -0.0000 -0.7071  0.0000 -0.7071  0.0000      0.0000  0.0000  0.0000  0.0000  0.0000  0.0000  0.0000  0.0000  0.0000  0.0000
  o =  0.1545  v =  0.0000  0.0000  0.0000  0.0000  0.0000 -0.0000 -0.7071  0.0000  0.7071  0.0000      0.0000  0.0000  0.0000  0.0000  0.0000  0.0000  0.0000  0.0000  0.0000  0.0000
  o =  0.1636  v =  0.0000  0.0000  0.0000  0.0000  0.0000 -0.7946  0.0000  0.6071  0.0000 -0.0000      0.0000  0.0000  0.0000  0.0000  0.0000  0.0000  0.0000  0.0000  0.0000  0.0000
  o =  0.8761  v = -0.6249  0.0000 -0.7807  0.0000 -0.0000  0.0000  0.0000  0.0000  0.0000  0.0000      0.0000  0.0000  0.0000  0.0000  0.0000  0.0000  0.0000  0.0000  0.0000  0.0000
  o =  0.8766  v =  0.0000  0.0000 -0.0000  0.0000  1.0000  0.0000  0.0000  0.0000  0.0000  0.0000      0.0000  0.0000  0.0000  0.0000  0.0000  0.0000  0.0000  0.0000  0.0000  0.0000
  o =  0.8775  v =  0.0000 -0.7071  0.0000 -0.7071  0.0000  0.0000  0.0000  0.0000  0.0000  0.0000      0.0000  0.0000  0.0000  0.0000  0.0000  0.0000  0.0000  0.0000  0.0000  0.0000
  o =  0.8927  v =  0.0000  0.7071  0.0000 -0.7071 -0.0000  0.0000  0.0000  0.0000  0.0000  0.0000      0.0000  0.0000  0.0000  0.0000  0.0000  0.0000  0.0000  0.0000  0.0000  0.0000
  o =  0.8962  v = -0.7807  0.0000  0.6249  0.0000  0.0000  0.0000  0.0000  0.0000  0.0000  0.0000      0.0000  0.0000  0.0000  0.0000  0.0000  0.0000  0.0000  0.0000  0.0000  0.0000
     EDDAV:  cpu time    0.1930: real time    0.1930
 BZINTS: Fermi energy:  3.229937; 54.000000 electrons
         Band energy:-716.124600;  BLOECHL correction:  0.000000
       DOS:  cpu time    0.0014: real time    0.0014
    CHARGE:  cpu time    0.0149: real time    0.0149
    MIXING:  cpu time    0.0004: real time    0.0004
    --------------------------------------------
      LOOP:  cpu time    0.4329: real time    0.4329

 eigenvalue-minimisations  :  1512
 total energy-change (2. order) :-0.5241309E+00  (-0.1587782E+00)
 number of electron      53.9999996 magnetization       0.0000000
 augmentation part       19.9658465 magnetization       0.0000000

 Broyden mixing:
  rms(total) = 0.12885E+01    rms(broyden)= 0.12885E+01
  rms(prec ) = 0.13121E+01
  weight for this iteration     100.00

 eigenvalues of (default mixing * dielectric matrix)
  average eigenvalue GAMMA=   1.5550
  0.7005  2.4095

 Free energy of the ion-electron system (eV)
  ---------------------------------------------------
  alpha Z        PSCENC =       219.34825259
  Ewald energy   TEWEN  =     -4363.18743259
  -Hartree energ DENC   =     -2045.51910424
  -exchange      EXHF   =         0.00000000
  -V(xc)+E(xc)   XCENC  =       297.28266056
  PAW double counting   =      6137.66621620    -6257.98492935
  entropy T*S    EENTRO =         0.00000000
  eigenvalues    EBANDS =      -716.12459950
  atomic energy  EATOM  =      6688.73902225
  Solvation  Ediel_sol  =         0.00000000
  ---------------------------------------------------
  free energy    TOTEN  =       -39.77991409 eV

  energy without entropy =      -39.77991409  energy(sigma->0) =      -39.77991409


--------------------------------------------------------------------------------------------------------




--------------------------------------- Iteration      1(   8)  ---------------------------------------


    POTLOK:  cpu time    0.0025: real time    0.0025
    SETDIJ:  cpu time    0.2208: real time    0.2208
atom =   1  type =  1  l = 2
 
 onsite density matrix
 
spin component  1
 
 -0.0179  0.0000  0.0304  0.0000 -0.0000
  0.0000 -0.0299  0.0000  0.0212  0.0000
  0.0304  0.0000 -0.0319  0.0000 -0.0000
  0.0000  0.0212  0.0000 -0.0299  0.0000
 -0.0000  0.0000 -0.0000  0.0000 -0.0573
 
spin component  2
 
  1.0548  0.0000  0.0243  0.0000  0.0000
  0.0000  1.0481  0.0000  0.0210  0.0000
  0.0243  0.0000  1.0395  0.0000  0.0000
  0.0000  0.0210  0.0000  1.0481  0.0000
  0.0000  0.0000  0.0000  0.0000  1.0297
 
 occupancies and eigenvectors
 
  o = -0.0573  v =  0.0000  0.0000 -0.0000 -0.0000 -1.0000  0.0000  0.0000  0.0000  0.0000  0.0000      0.0000  0.0000  0.0000  0.0000  0.0000  0.0000  0.0000  0.0000  0.0000  0.0000
  o = -0.0561  v =  0.6224  0.0000 -0.7827 -0.0000  0.0000  0.0000  0.0000  0.0000  0.0000  0.0000      0.0000  0.0000  0.0000  0.0000  0.0000  0.0000  0.0000  0.0000  0.0000  0.0000
  o = -0.0511  v = -0.0000  0.7071  0.0000 -0.7071  0.0000  0.0000  0.0000  0.0000  0.0000  0.0000      0.0000  0.0000  0.0000  0.0000  0.0000  0.0000  0.0000  0.0000  0.0000  0.0000
  o = -0.0087  v = -0.0000  0.7071 -0.0000  0.7071  0.0000  0.0000  0.0000  0.0000  0.0000  0.0000      0.0000  0.0000  0.0000  0.0000  0.0000  0.0000  0.0000  0.0000  0.0000  0.0000
  o =  0.0063  v =  0.7827  0.0000  0.6224  0.0000 -0.0000  0.0000  0.0000  0.0000  0.0000  0.0000      0.0000  0.0000  0.0000  0.0000  0.0000  0.0000  0.0000  0.0000  0.0000  0.0000
  o =  1.0217  v =  0.0000  0.0000  0.0000  0.0000  0.0000 -0.5917  0.0000  0.8062  0.0000  0.0000      0.0000  0.0000  0.0000  0.0000  0.0000  0.0000  0.0000  0.0000  0.0000  0.0000
  o =  1.0271  v =  0.0000  0.0000  0.0000  0.0000  0.0000  0.0000 -0.7071  0.0000  0.7071  0.0000      0.0000  0.0000  0.0000  0.0000  0.0000  0.0000  0.0000  0.0000  0.0000  0.0000
  o =  1.0297  v =  0.0000  0.0000  0.0000  0.0000  0.0000  0.0000 -0.0000 -0.0000  0.0000  1.0000      0.0000  0.0000  0.0000  0.0000  0.0000  0.0000  0.0000  0.0000  0.0000  0.0000
  o =  1.0690  v =  0.0000  0.0000  0.0000  0.0000  0.0000  0.0000 -0.7071  0.0000 -0.7071  0.0000      0.0000  0.0000  0.0000  0.0000  0.0000  0.0000  0.0000  0.0000  0.0000  0.0000
  o =  1.0727  v =  0.0000  0.0000  0.0000  0.0000  0.0000 -0.8062  0.0000 -0.5917  0.0000 -0.0000      0.0000  0.0000  0.0000  0.0000  0.0000  0.0000  0.0000  0.0000  0.0000  0.0000
atom =   2  type =  1  l = 2
 
 onsite density matrix
 
spin component  1
 
  1.0548  0.0000 -0.0243  0.0000  0.0000
  0.0000  1.0481  0.0000 -0.0210  0.0000
 -0.0243  0.0000  1.0395  0.0000 -0.0000
  0.0000 -0.0210  0.0000  1.0481  0.0000
  0.0000  0.0000 -0.0000  0.0000  1.0297
 
spin component  2
 
 -0.0179  0.0000 -0.0304  0.0000 -0.0000
  0.0000 -0.0299  0.0000 -0.0212  0.0000
 -0.0304  0.0000 -0.0319  0.0000 -0.0000
  0.0000 -0.0212  0.0000 -0.0299  0.0000
 -0.0000  0.0000 -0.0000  0.0000 -0.0573
 
 occupancies and eigenvectors
 
  o = -0.0573  v =  0.0000  0.0000  0.0000  0.0000  0.0000  0.0000  0.0000  0.0000  0.0000  1.0000      0.0000  0.0000  0.0000  0.0000  0.0000  0.0000  0.0000  0.0000  0.0000  0.0000
  o = -0.0561  v =  0.0000  0.0000  0.0000  0.0000  0.0000 -0.6224  0.0000 -0.7827  0.0000  0.0000      0.0000  0.0000  0.0000  0.0000  0.0000  0.0000  0.0000  0.0000  0.0000  0.0000
  o = -0.0511  v =  0.0000  0.0000  0.0000  0.0000  0.0000  0.0000 -0.7071  0.0000 -0.7071  0.0000      0.0000  0.0000  0.0000  0.0000  0.0000  0.0000  0.0000  0.0000  0.0000  0.0000
  o = -0.0087  v =  0.0000  0.0000  0.0000  0.0000  0.0000  0.0000  0.7071  0.0000 -0.7071 -0.0000      0.0000  0.0000  0.0000  0.0000  0.0000  0.0000  0.0000  0.0000  0.0000  0.0000
  o =  0.0063  v =  0.0000  0.0000  0.0000  0.0000  0.0000  0.7827  0.0000 -0.6224  0.0000  0.0000      0.0000  0.0000  0.0000  0.0000  0.0000  0.0000  0.0000  0.0000  0.0000  0.0000
  o =  1.0217  v = -0.5917  0.0000 -0.8062  0.0000 -0.0000  0.0000  0.0000  0.0000  0.0000  0.0000      0.0000  0.0000  0.0000  0.0000  0.0000  0.0000  0.0000  0.0000  0.0000  0.0000
  o =  1.0271  v = -0.0000 -0.7071 -0.0000 -0.7071  0.0000  0.0000  0.0000  0.0000  0.0000  0.0000      0.0000  0.0000  0.0000  0.0000  0.0000  0.0000  0.0000  0.0000  0.0000  0.0000
  o =  1.0297  v = -0.0000  0.0000 -0.0000  0.0000  1.0000  0.0000  0.0000  0.0000  0.0000  0.0000      0.0000  0.0000  0.0000  0.0000  0.0000  0.0000  0.0000  0.0000  0.0000  0.0000
  o =  1.0690  v = -0.0000  0.7071  0.0000 -0.7071  0.0000  0.0000  0.0000  0.0000  0.0000  0.0000      0.0000  0.0000  0.0000  0.0000  0.0000  0.0000  0.0000  0.0000  0.0000  0.0000
  o =  1.0727  v = -0.8062 -0.0000  0.5917  0.0000 -0.0000  0.0000  0.0000  0.0000  0.0000  0.0000      0.0000  0.0000  0.0000  0.0000  0.0000  0.0000  0.0000  0.0000  0.0000  0.0000
     EDDAV:  cpu time    0.1916: real time    0.1916
 BZINTS: Fermi energy:  2.729467; 54.000000 electrons
         Band energy:-723.351755;  BLOECHL correction:  0.000000
       DOS:  cpu time    0.0012: real time    0.0012
    CHARGE:  cpu time    0.0145: real time    0.0145
    MIXING:  cpu time    0.0005: real time    0.0005
    --------------------------------------------
      LOOP:  cpu time    0.4311: real time    0.4312

 eigenvalue-minimisations  :  1500
 total energy-change (2. order) :-0.4626829E-02  (-0.5552357E-01)
 number of electron      53.9999996 magnetization       0.0000000
 augmentation part       19.9836059 magnetization       0.0000000

 Broyden mixing:
  rms(total) = 0.47910E+00    rms(broyden)= 0.47909E+00
  rms(prec ) = 0.50665E+00
  weight for this iteration     100.00

 eigenvalues of (default mixing * dielectric matrix)
  average eigenvalue GAMMA=   1.2998
  2.2683  1.0112  0.6199

 Free energy of the ion-electron system (eV)
  ---------------------------------------------------
  alpha Z        PSCENC =       219.34825259
  Ewald energy   TEWEN  =     -4363.18743259
  -Hartree energ DENC   =     -2041.24136087
  -exchange      EXHF   =         0.00000000
  -V(xc)+E(xc)   XCENC  =       296.58449033
  PAW double counting   =      6489.86508647    -6606.54084447
  entropy T*S    EENTRO =         0.00000000
  eigenvalues    EBANDS =      -723.35175462
  atomic energy  EATOM  =      6688.73902225
  Solvation  Ediel_sol  =         0.00000000
  ---------------------------------------------------
  free energy    TOTEN  =       -39.78454092 eV

  energy without entropy =      -39.78454092  energy(sigma->0) =      -39.78454092


--------------------------------------------------------------------------------------------------------




--------------------------------------- Iteration      1(   9)  ---------------------------------------


    POTLOK:  cpu time    0.0025: real time    0.0025
    SETDIJ:  cpu time    0.2206: real time    0.2206
atom =   1  type =  1  l = 2
 
 onsite density matrix
 
spin component  1
 
  0.0549  0.0000  0.0328  0.0000 -0.0000
  0.0000  0.0419  0.0000  0.0249  0.0000
  0.0328  0.0000  0.0369  0.0000  0.0000
  0.0000  0.0249  0.0000  0.0419  0.0000
 -0.0000  0.0000  0.0000  0.0000  0.0138
 
spin component  2
 
  0.9829  0.0000  0.0289  0.0000 -0.0000
  0.0000  0.9744  0.0000  0.0228  0.0000
  0.0289  0.0000  0.9674  0.0000 -0.0000
  0.0000  0.0228  0.0000  0.9744  0.0000
 -0.0000  0.0000 -0.0000  0.0000  0.9510
 
 occupancies and eigenvectors
 
  o =  0.0120  v = -0.6062 -0.0000  0.7953  0.0000 -0.0000  0.0000  0.0000  0.0000  0.0000  0.0000      0.0000  0.0000  0.0000  0.0000  0.0000  0.0000  0.0000  0.0000  0.0000  0.0000
  o =  0.0138  v = -0.0000  0.0000  0.0000  0.0000  1.0000  0.0000  0.0000  0.0000  0.0000  0.0000      0.0000  0.0000  0.0000  0.0000  0.0000  0.0000  0.0000  0.0000  0.0000  0.0000
  o =  0.0170  v =  0.0000  0.7071  0.0000 -0.7071 -0.0000  0.0000  0.0000  0.0000  0.0000  0.0000      0.0000  0.0000  0.0000  0.0000  0.0000  0.0000  0.0000  0.0000  0.0000  0.0000
  o =  0.0668  v =  0.0000 -0.7071  0.0000 -0.7071  0.0000  0.0000  0.0000  0.0000  0.0000  0.0000      0.0000  0.0000  0.0000  0.0000  0.0000  0.0000  0.0000  0.0000  0.0000  0.0000
  o =  0.0799  v = -0.7953 -0.0000 -0.6062  0.0000 -0.0000  0.0000  0.0000  0.0000  0.0000  0.0000      0.0000  0.0000  0.0000  0.0000  0.0000  0.0000  0.0000  0.0000  0.0000  0.0000
  o =  0.9453  v =  0.0000  0.0000  0.0000  0.0000  0.0000 -0.6089  0.0000  0.7933 -0.0000  0.0000      0.0000  0.0000  0.0000  0.0000  0.0000  0.0000  0.0000  0.0000  0.0000  0.0000
  o =  0.9510  v =  0.0000  0.0000  0.0000  0.0000  0.0000  0.0000  0.0000 -0.0000 -0.0000  1.0000      0.0000  0.0000  0.0000  0.0000  0.0000  0.0000  0.0000  0.0000  0.0000  0.0000
  o =  0.9516  v =  0.0000  0.0000  0.0000  0.0000  0.0000  0.0000  0.7071 -0.0000 -0.7071 -0.0000      0.0000  0.0000  0.0000  0.0000  0.0000  0.0000  0.0000  0.0000  0.0000  0.0000
  o =  0.9971  v =  0.0000  0.0000  0.0000  0.0000  0.0000  0.0000  0.7071  0.0000  0.7071 -0.0000      0.0000  0.0000  0.0000  0.0000  0.0000  0.0000  0.0000  0.0000  0.0000  0.0000
  o =  1.0051  v =  0.0000  0.0000  0.0000  0.0000  0.0000 -0.7933  0.0000 -0.6089  0.0000  0.0000      0.0000  0.0000  0.0000  0.0000  0.0000  0.0000  0.0000  0.0000  0.0000  0.0000
atom =   2  type =  1  l = 2
 
 onsite density matrix
 
spin component  1
 
  0.9829  0.0000 -0.0289  0.0000 -0.0000
  0.0000  0.9744  0.0000 -0.0228  0.0000
 -0.0289  0.0000  0.9674  0.0000 -0.0000
  0.0000 -0.0228  0.0000  0.9744  0.0000
 -0.0000  0.0000 -0.0000  0.0000  0.9510
 
spin component  2
 
  0.0549  0.0000 -0.0328  0.0000  0.0000
  0.0000  0.0419  0.0000 -0.0249  0.0000
 -0.0328  0.0000  0.0369  0.0000 -0.0000
  0.0000 -0.0249  0.0000  0.0419  0.0000
  0.0000  0.0000 -0.0000  0.0000  0.0138
 
 occupancies and eigenvectors
 
  o =  0.0120  v =  0.0000  0.0000  0.0000  0.0000  0.0000 -0.6062  0.0000 -0.7953  0.0000 -0.0000      0.0000  0.0000  0.0000  0.0000  0.0000  0.0000  0.0000  0.0000  0.0000  0.0000
  o =  0.0138  v =  0.0000  0.0000  0.0000  0.0000  0.0000 -0.0000 -0.0000 -0.0000  0.0000  1.0000      0.0000  0.0000  0.0000  0.0000  0.0000  0.0000  0.0000  0.0000  0.0000  0.0000
  o =  0.0170  v =  0.0000  0.0000  0.0000  0.0000  0.0000  0.0000 -0.7071  0.0000 -0.7071 -0.0000      0.0000  0.0000  0.0000  0.0000  0.0000  0.0000  0.0000  0.0000  0.0000  0.0000
  o =  0.0668  v =  0.0000  0.0000  0.0000  0.0000  0.0000  0.0000  0.7071  0.0000 -0.7071  0.0000      0.0000  0.0000  0.0000  0.0000  0.0000  0.0000  0.0000  0.0000  0.0000  0.0000
  o =  0.0799  v =  0.0000  0.0000  0.0000  0.0000  0.0000 -0.7953  0.0000  0.6062  0.0000 -0.0000      0.0000  0.0000  0.0000  0.0000  0.0000  0.0000  0.0000  0.0000  0.0000  0.0000
  o =  0.9453  v = -0.6089 -0.0000 -0.7933  0.0000 -0.0000  0.0000  0.0000  0.0000  0.0000  0.0000      0.0000  0.0000  0.0000  0.0000  0.0000  0.0000  0.0000  0.0000  0.0000  0.0000
  o =  0.9510  v = -0.0000  0.0000 -0.0000  0.0000  1.0000  0.0000  0.0000  0.0000  0.0000  0.0000      0.0000  0.0000  0.0000  0.0000  0.0000  0.0000  0.0000  0.0000  0.0000  0.0000
  o =  0.9516  v =  0.0000 -0.7071  0.0000 -0.7071  0.0000  0.0000  0.0000  0.0000  0.0000  0.0000      0.0000  0.0000  0.0000  0.0000  0.0000  0.0000  0.0000  0.0000  0.0000  0.0000
  o =  0.9971  v =  0.0000  0.7071  0.0000 -0.7071 -0.0000  0.0000  0.0000  0.0000  0.0000  0.0000      0.0000  0.0000  0.0000  0.0000  0.0000  0.0000  0.0000  0.0000  0.0000  0.0000
  o =  1.0051  v = -0.7933 -0.0000  0.6089  0.0000 -0.0000  0.0000  0.0000  0.0000  0.0000  0.0000      0.0000  0.0000  0.0000  0.0000  0.0000  0.0000  0.0000  0.0000  0.0000  0.0000
     EDDAV:  cpu time    0.1808: real time    0.1808
 BZINTS: Fermi energy:  2.890387; 54.000000 electrons
         Band energy:-719.939947;  BLOECHL correction:  0.000000
       DOS:  cpu time    0.0012: real time    0.0012
    CHARGE:  cpu time    0.0146: real time    0.0146
    MIXING:  cpu time    0.0005: real time    0.0005
    --------------------------------------------
      LOOP:  cpu time    0.4202: real time    0.4202

 eigenvalue-minimisations  :  1404
 total energy-change (2. order) :-0.2943764E+00  (-0.7247839E-02)
 number of electron      53.9999996 magnetization       0.0000000
 augmentation part       19.9777273 magnetization       0.0000000

 Broyden mixing:
  rms(total) = 0.14779E+00    rms(broyden)= 0.14778E+00
  rms(prec ) = 0.15653E+00
  weight for this iteration     100.00

 eigenvalues of (default mixing * dielectric matrix)
  average eigenvalue GAMMA=   1.2082
  2.6083  0.8039  0.8039  0.6165

 Free energy of the ion-electron system (eV)
  ---------------------------------------------------
  alpha Z        PSCENC =       219.34825259
  Ewald energy   TEWEN  =     -4363.18743259
  -Hartree energ DENC   =     -2041.39534854
  -exchange      EXHF   =         0.00000000
  -V(xc)+E(xc)   XCENC  =       296.83499311
  PAW double counting   =      6621.69226821    -6742.17072497
  entropy T*S    EENTRO =         0.00000000
  eigenvalues    EBANDS =      -719.93994741
  atomic energy  EATOM  =      6688.73902225
  Solvation  Ediel_sol  =         0.00000000
  ---------------------------------------------------
  free energy    TOTEN  =       -40.07891736 eV

  energy without entropy =      -40.07891736  energy(sigma->0) =      -40.07891736


--------------------------------------------------------------------------------------------------------




--------------------------------------- Iteration      1(  10)  ---------------------------------------


    POTLOK:  cpu time    0.0025: real time    0.0025
    SETDIJ:  cpu time    0.2206: real time    0.2206
atom =   1  type =  1  l = 2
 
 onsite density matrix
 
spin component  1
 
  0.0642  0.0000  0.0352  0.0000  0.0000
  0.0000  0.0508  0.0000  0.0263  0.0000
  0.0352  0.0000  0.0454  0.0000  0.0000
  0.0000  0.0263  0.0000  0.0508  0.0000
  0.0000  0.0000  0.0000  0.0000  0.0207
 
spin component  2
 
  0.9738  0.0000  0.0261  0.0000 -0.0000
  0.0000  0.9657  0.0000  0.0211  0.0000
  0.0261  0.0000  0.9592  0.0000 -0.0000
  0.0000  0.0211  0.0000  0.9657  0.0000
 -0.0000  0.0000 -0.0000  0.0000  0.9446
 
 occupancies and eigenvectors
 
  o =  0.0184  v = -0.6093  0.0000  0.7929  0.0000 -0.0000  0.0000  0.0000  0.0000  0.0000  0.0000      0.0000  0.0000  0.0000  0.0000  0.0000  0.0000  0.0000  0.0000  0.0000  0.0000
  o =  0.0207  v = -0.0000 -0.0000  0.0000  0.0000  1.0000  0.0000  0.0000  0.0000  0.0000  0.0000      0.0000  0.0000  0.0000  0.0000  0.0000  0.0000  0.0000  0.0000  0.0000  0.0000
  o =  0.0245  v =  0.0000  0.7071  0.0000 -0.7071  0.0000  0.0000  0.0000  0.0000  0.0000  0.0000      0.0000  0.0000  0.0000  0.0000  0.0000  0.0000  0.0000  0.0000  0.0000  0.0000
  o =  0.0772  v =  0.0000 -0.7071  0.0000 -0.7071 -0.0000  0.0000  0.0000  0.0000  0.0000  0.0000      0.0000  0.0000  0.0000  0.0000  0.0000  0.0000  0.0000  0.0000  0.0000  0.0000
  o =  0.0913  v = -0.7929  0.0000 -0.6093  0.0000 -0.0000  0.0000  0.0000  0.0000  0.0000  0.0000      0.0000  0.0000  0.0000  0.0000  0.0000  0.0000  0.0000  0.0000  0.0000  0.0000
  o =  0.9394  v =  0.0000  0.0000  0.0000  0.0000  0.0000 -0.6044  0.0000  0.7967  0.0000 -0.0000      0.0000  0.0000  0.0000  0.0000  0.0000  0.0000  0.0000  0.0000  0.0000  0.0000
  o =  0.9446  v =  0.0000  0.0000  0.0000  0.0000  0.0000  0.0000 -0.0000 -0.0000  0.0000 -1.0000      0.0000  0.0000  0.0000  0.0000  0.0000  0.0000  0.0000  0.0000  0.0000  0.0000
  o =  0.9447  v =  0.0000  0.0000  0.0000  0.0000  0.0000  0.0000  0.7071  0.0000 -0.7071 -0.0000      0.0000  0.0000  0.0000  0.0000  0.0000  0.0000  0.0000  0.0000  0.0000  0.0000
  o =  0.9868  v =  0.0000  0.0000  0.0000  0.0000  0.0000  0.0000  0.7071  0.0000  0.7071 -0.0000      0.0000  0.0000  0.0000  0.0000  0.0000  0.0000  0.0000  0.0000  0.0000  0.0000
  o =  0.9936  v =  0.0000  0.0000  0.0000  0.0000  0.0000 -0.7967  0.0000 -0.6044  0.0000  0.0000      0.0000  0.0000  0.0000  0.0000  0.0000  0.0000  0.0000  0.0000  0.0000  0.0000
atom =   2  type =  1  l = 2
 
 onsite density matrix
 
spin component  1
 
  0.9738  0.0000 -0.0261  0.0000 -0.0000
  0.0000  0.9657  0.0000 -0.0211  0.0000
 -0.0261  0.0000  0.9592  0.0000  0.0000
  0.0000 -0.0211  0.0000  0.9657  0.0000
 -0.0000  0.0000  0.0000  0.0000  0.9446
 
spin component  2
 
  0.0642  0.0000 -0.0352  0.0000  0.0000
  0.0000  0.0508  0.0000 -0.0263  0.0000
 -0.0352  0.0000  0.0454  0.0000 -0.0000
  0.0000 -0.0263  0.0000  0.0508  0.0000
  0.0000  0.0000 -0.0000  0.0000  0.0207
 
 occupancies and eigenvectors
 
  o =  0.0184  v =  0.0000  0.0000  0.0000  0.0000  0.0000 -0.6093  0.0000 -0.7929  0.0000 -0.0000      0.0000  0.0000  0.0000  0.0000  0.0000  0.0000  0.0000  0.0000  0.0000  0.0000
  o =  0.0207  v =  0.0000  0.0000  0.0000  0.0000  0.0000 -0.0000 -0.0000 -0.0000  0.0000  1.0000      0.0000  0.0000  0.0000  0.0000  0.0000  0.0000  0.0000  0.0000  0.0000  0.0000
  o =  0.0245  v =  0.0000  0.0000  0.0000  0.0000  0.0000  0.0000 -0.7071  0.0000 -0.7071 -0.0000      0.0000  0.0000  0.0000  0.0000  0.0000  0.0000  0.0000  0.0000  0.0000  0.0000
  o =  0.0772  v =  0.0000  0.0000  0.0000  0.0000  0.0000  0.0000  0.7071  0.0000 -0.7071  0.0000      0.0000  0.0000  0.0000  0.0000  0.0000  0.0000  0.0000  0.0000  0.0000  0.0000
  o =  0.0913  v =  0.0000  0.0000  0.0000  0.0000  0.0000 -0.7929  0.0000  0.6093  0.0000 -0.0000      0.0000  0.0000  0.0000  0.0000  0.0000  0.0000  0.0000  0.0000  0.0000  0.0000
  o =  0.9394  v = -0.6044  0.0000 -0.7967  0.0000 -0.0000  0.0000  0.0000  0.0000  0.0000  0.0000      0.0000  0.0000  0.0000  0.0000  0.0000  0.0000  0.0000  0.0000  0.0000  0.0000
  o =  0.9446  v =  0.0000 -0.0000  0.0000  0.0000 -1.0000  0.0000  0.0000  0.0000  0.0000  0.0000      0.0000  0.0000  0.0000  0.0000  0.0000  0.0000  0.0000  0.0000  0.0000  0.0000
  o =  0.9447  v =  0.0000 -0.7071  0.0000 -0.7071  0.0000  0.0000  0.0000  0.0000  0.0000  0.0000      0.0000  0.0000  0.0000  0.0000  0.0000  0.0000  0.0000  0.0000  0.0000  0.0000
  o =  0.9868  v =  0.0000 -0.7071  0.0000  0.7071  0.0000  0.0000  0.0000  0.0000  0.0000  0.0000      0.0000  0.0000  0.0000  0.0000  0.0000  0.0000  0.0000  0.0000  0.0000  0.0000
  o =  0.9936  v = -0.7967  0.0000  0.6044  0.0000  0.0000  0.0000  0.0000  0.0000  0.0000  0.0000      0.0000  0.0000  0.0000  0.0000  0.0000  0.0000  0.0000  0.0000  0.0000  0.0000
     EDDAV:  cpu time    0.2026: real time    0.2026
 BZINTS: Fermi energy:  2.878229; 54.000000 electrons
         Band energy:-719.350681;  BLOECHL correction:  0.000000
       DOS:  cpu time    0.0012: real time    0.0012
    CHARGE:  cpu time    0.0147: real time    0.0147
    MIXING:  cpu time    0.0006: real time    0.0006
    --------------------------------------------
      LOOP:  cpu time    0.4421: real time    0.4421

 eigenvalue-minimisations  :  1596
 total energy-change (2. order) :-0.3863031E-02  (-0.1699451E-02)
 number of electron      53.9999996 magnetization      -0.0000000
 augmentation part       19.9778225 magnetization      -0.0000000

 Broyden mixing:
  rms(total) = 0.21364E-01    rms(broyden)= 0.21349E-01
  rms(prec ) = 0.23693E-01
  weight for this iteration     100.00

 eigenvalues of (default mixing * dielectric matrix)
  average eigenvalue GAMMA=   1.1406
  2.5561  0.9105  0.9105  0.7271  0.5989

 Free energy of the ion-electron system (eV)
  ---------------------------------------------------
  alpha Z        PSCENC =       219.34825259
  Ewald energy   TEWEN  =     -4363.18743259
  -Hartree energ DENC   =     -2041.88002971
  -exchange      EXHF   =         0.00000000
  -V(xc)+E(xc)   XCENC  =       296.93268798
  PAW double counting   =      6605.33877914    -6726.02337883
  entropy T*S    EENTRO =         0.00000000
  eigenvalues    EBANDS =      -719.35068123
  atomic energy  EATOM  =      6688.73902225
  Solvation  Ediel_sol  =         0.00000000
  ---------------------------------------------------
  free energy    TOTEN  =       -40.08278039 eV

  energy without entropy =      -40.08278039  energy(sigma->0) =      -40.08278039


--------------------------------------------------------------------------------------------------------




--------------------------------------- Iteration      1(  11)  ---------------------------------------


    POTLOK:  cpu time    0.0024: real time    0.0024
    SETDIJ:  cpu time    0.2207: real time    0.2207
atom =   1  type =  1  l = 2
 
 onsite density matrix
 
spin component  1
 
  0.0627  0.0000  0.0352  0.0000  0.0000
  0.0000  0.0492  0.0000  0.0264  0.0000
  0.0352  0.0000  0.0438  0.0000 -0.0000
  0.0000  0.0264  0.0000  0.0492  0.0000
  0.0000  0.0000 -0.0000  0.0000  0.0192
 
spin component  2
 
  0.9760  0.0000  0.0260  0.0000 -0.0000
  0.0000  0.9680  0.0000  0.0210  0.0000
  0.0260  0.0000  0.9615  0.0000  0.0000
  0.0000  0.0210  0.0000  0.9680  0.0000
 -0.0000  0.0000  0.0000  0.0000  0.9470
 
 occupancies and eigenvectors
 
  o =  0.0168  v = -0.6087 -0.0000  0.7934  0.0000  0.0000  0.0000  0.0000  0.0000  0.0000  0.0000      0.0000  0.0000  0.0000  0.0000  0.0000  0.0000  0.0000  0.0000  0.0000  0.0000
  o =  0.0192  v = -0.0000  0.0000  0.0000  0.0000 -1.0000  0.0000  0.0000  0.0000  0.0000  0.0000      0.0000  0.0000  0.0000  0.0000  0.0000  0.0000  0.0000  0.0000  0.0000  0.0000
  o =  0.0229  v =  0.0000  0.7071  0.0000 -0.7071  0.0000  0.0000  0.0000  0.0000  0.0000  0.0000      0.0000  0.0000  0.0000  0.0000  0.0000  0.0000  0.0000  0.0000  0.0000  0.0000
  o =  0.0756  v =  0.0000 -0.7071  0.0000 -0.7071 -0.0000  0.0000  0.0000  0.0000  0.0000  0.0000      0.0000  0.0000  0.0000  0.0000  0.0000  0.0000  0.0000  0.0000  0.0000  0.0000
  o =  0.0897  v = -0.7934 -0.0000 -0.6087  0.0000  0.0000  0.0000  0.0000  0.0000  0.0000  0.0000      0.0000  0.0000  0.0000  0.0000  0.0000  0.0000  0.0000  0.0000  0.0000  0.0000
  o =  0.9417  v =  0.0000  0.0000  0.0000  0.0000  0.0000 -0.6044  0.0000  0.7967 -0.0000 -0.0000      0.0000  0.0000  0.0000  0.0000  0.0000  0.0000  0.0000  0.0000  0.0000  0.0000
  o =  0.9470  v =  0.0000  0.0000  0.0000  0.0000  0.0000 -0.0000 -0.0000  0.0000  0.0000  1.0000      0.0000  0.0000  0.0000  0.0000  0.0000  0.0000  0.0000  0.0000  0.0000  0.0000
  o =  0.9470  v =  0.0000  0.0000  0.0000  0.0000  0.0000  0.0000  0.7071 -0.0000 -0.7071  0.0000      0.0000  0.0000  0.0000  0.0000  0.0000  0.0000  0.0000  0.0000  0.0000  0.0000
  o =  0.9889  v =  0.0000  0.0000  0.0000  0.0000  0.0000 -0.0000 -0.7071 -0.0000 -0.7071  0.0000      0.0000  0.0000  0.0000  0.0000  0.0000  0.0000  0.0000  0.0000  0.0000  0.0000
  o =  0.9957  v =  0.0000  0.0000  0.0000  0.0000  0.0000 -0.7967  0.0000 -0.6044  0.0000 -0.0000      0.0000  0.0000  0.0000  0.0000  0.0000  0.0000  0.0000  0.0000  0.0000  0.0000
atom =   2  type =  1  l = 2
 
 onsite density matrix
 
spin component  1
 
  0.9760  0.0000 -0.0260  0.0000  0.0000
  0.0000  0.9680  0.0000 -0.0210  0.0000
 -0.0260  0.0000  0.9615  0.0000 -0.0000
  0.0000 -0.0210  0.0000  0.9680  0.0000
  0.0000  0.0000 -0.0000  0.0000  0.9470
 
spin component  2
 
  0.0627  0.0000 -0.0352  0.0000  0.0000
  0.0000  0.0492  0.0000 -0.0264  0.0000
 -0.0352  0.0000  0.0438  0.0000 -0.0000
  0.0000 -0.0264  0.0000  0.0492  0.0000
  0.0000  0.0000 -0.0000  0.0000  0.0192
 
 occupancies and eigenvectors
 
  o =  0.0168  v =  0.0000  0.0000  0.0000  0.0000  0.0000 -0.6087  0.0000 -0.7934  0.0000 -0.0000      0.0000  0.0000  0.0000  0.0000  0.0000  0.0000  0.0000  0.0000  0.0000  0.0000
  o =  0.0192  v =  0.0000  0.0000  0.0000  0.0000  0.0000 -0.0000 -0.0000 -0.0000  0.0000  1.0000      0.0000  0.0000  0.0000  0.0000  0.0000  0.0000  0.0000  0.0000  0.0000  0.0000
  o =  0.0229  v =  0.0000  0.0000  0.0000  0.0000  0.0000  0.0000 -0.7071  0.0000 -0.7071 -0.0000      0.0000  0.0000  0.0000  0.0000  0.0000  0.0000  0.0000  0.0000  0.0000  0.0000
  o =  0.0756  v =  0.0000  0.0000  0.0000  0.0000  0.0000  0.0000  0.7071  0.0000 -0.7071  0.0000      0.0000  0.0000  0.0000  0.0000  0.0000  0.0000  0.0000  0.0000  0.0000  0.0000
  o =  0.0897  v =  0.0000  0.0000  0.0000  0.0000  0.0000 -0.7934  0.0000  0.6087  0.0000 -0.0000      0.0000  0.0000  0.0000  0.0000  0.0000  0.0000  0.0000  0.0000  0.0000  0.0000
  o =  0.9417  v = -0.6044  0.0000 -0.7967  0.0000 -0.0000  0.0000  0.0000  0.0000  0.0000  0.0000      0.0000  0.0000  0.0000  0.0000  0.0000  0.0000  0.0000  0.0000  0.0000  0.0000
  o =  0.9470  v =  0.0000  0.0000  0.0000  0.0000 -1.0000  0.0000  0.0000  0.0000  0.0000  0.0000      0.0000  0.0000  0.0000  0.0000  0.0000  0.0000  0.0000  0.0000  0.0000  0.0000
  o =  0.9470  v =  0.0000  0.7071  0.0000  0.7071  0.0000  0.0000  0.0000  0.0000  0.0000  0.0000      0.0000  0.0000  0.0000  0.0000  0.0000  0.0000  0.0000  0.0000  0.0000  0.0000
[...]
     33      10.0641      0.00000
     34      11.4373      0.00000
     35      11.4486      0.00000
     36      12.8038      0.00000

 k-point     7 :       0.1250    0.1250    0.4167
  band No.  band energies     occupation 
      1     -45.0923      1.00000
      2     -45.0610      1.00000
      3     -45.0253      1.00000
      4     -40.5285      1.00000
      5     -40.5092      1.00000
      6     -40.4641      1.00000
      7     -20.2620      1.00000
      8     -20.0807      1.00000
      9     -20.0155      1.00000
     10     -19.8901      1.00000
     11      -4.0773      1.00000
     12      -3.7387      1.00000
     13      -3.3657      1.00000
     14      -3.2343      1.00000
     15      -3.1956      1.00000
     16      -2.8500      1.00000
     17      -2.3164      1.00000
     18      -2.1866      1.00000
     19      -2.0493      1.00000
     20      -1.5228      1.00000
     21      -1.4154      1.00000
     22      -1.3849      1.00000
     23       0.8275      1.00000
     24       1.0525      1.00000
     25       1.3878      1.00000
     26       2.0037      1.00000
     27       2.4634      1.00000
     28       7.9010      0.00000
     29       7.9101      0.00000
     30       7.9730      0.00000
     31       8.9312      0.00000
     32       9.2510      0.00000
     33       9.9547      0.00000
     34      12.1685      0.00000
     35      13.7099      0.00000
     36      13.7582      0.00000

 k-point     8 :       0.3750    0.1250    0.4167
  band No.  band energies     occupation 
      1     -45.0923      1.00000
      2     -45.0610      1.00000
      3     -45.0252      1.00000
      4     -40.5283      1.00000
      5     -40.5092      1.00000
      6     -40.4640      1.00000
      7     -20.1748      1.00000
      8     -20.0896      1.00000
      9     -20.0432      1.00000
     10     -19.9344      1.00000
     11      -3.9568      1.00000
     12      -3.8108      1.00000
     13      -3.7410      1.00000
     14      -3.3900      1.00000
     15      -3.0893      1.00000
     16      -2.6758      1.00000
     17      -2.4600      1.00000
     18      -2.2892      1.00000
     19      -1.8384      1.00000
     20      -1.4819      1.00000
     21      -1.2814      1.00000
     22      -1.1473      1.00000
     23       0.8383      1.00000
     24       0.9720      1.00000
     25       1.2691      1.00000
     26       1.9466      1.00000
     27       2.6783      1.00000
     28       7.8791      0.00000
     29       7.9075      0.00000
     30       8.1061      0.00000
     31       8.8576      0.00000
     32       9.4845      0.00000
     33      10.5436      0.00000
     34      11.8821      0.00000
     35      12.6481      0.00000
     36      13.6728      0.00000

 k-point     9 :       0.3750    0.3750    0.4167
  band No.  band energies     occupation 
      1     -45.0922      1.00000
      2     -45.0609      1.00000
      3     -45.0253      1.00000
      4     -40.5284      1.00000
      5     -40.5091      1.00000
      6     -40.4639      1.00000
      7     -20.1394      1.00000
      8     -20.1321      1.00000
      9     -20.0413      1.00000
     10     -19.9196      1.00000
     11      -4.2581      1.00000
     12      -3.9895      1.00000
     13      -3.7171      1.00000
     14      -3.6893      1.00000
     15      -3.1278      1.00000
     16      -2.6023      1.00000
     17      -2.3356      1.00000
     18      -2.0180      1.00000
     19      -1.5928      1.00000
     20      -1.2925      1.00000
     21      -1.1744      1.00000
     22      -1.0632      1.00000
     23       0.8414      1.00000
     24       0.9615      1.00000
     25       1.2304      1.00000
     26       2.0003      1.00000
     27       2.6280      1.00000
     28       7.8971      0.00000
     29       7.9052      0.00000
     30       8.1437      0.00000
     31       8.8189      0.00000
     32       9.3605      0.00000
     33      11.1131      0.00000
     34      12.3594      0.00000
     35      12.6769      0.00000
     36      12.7118      0.00000


--------------------------------------------------------------------------------------------------------


 soft charge-density along one line, spin component           1
         0         1         2         3         4         5         6         7         8         9
 total charge-density along one line
 
 soft charge-density along one line, spin component           2
         0         1         2         3         4         5         6         7         8         9
 total charge-density along one line
 
 pseudopotential strength for first ion, spin component:           1
-41.288  -0.000  -0.042   7.624   0.000   0.017   0.000  -0.000
 -0.000 -41.262  -0.000   0.000   7.614   0.000  -0.000  -0.000
 -0.042  -0.000 -41.288   0.017   0.000   7.624  -0.000  -0.000
  7.624   0.000   0.017   5.429  -0.000  -0.006  -0.000   0.000
  0.000   7.614   0.000  -0.000   5.433  -0.000   0.000  -0.000
  0.017   0.000   7.624  -0.006  -0.000   5.429  -0.000   0.000
  0.000  -0.000  -0.000  -0.000   0.000  -0.000  -0.905  -0.000
 -0.000  -0.000  -0.000   0.000  -0.000   0.000  -0.000  -0.846
  0.000  -0.000   0.000   0.000   0.000   0.000  -0.088   0.000
 -0.000   0.000  -0.000   0.000   0.000   0.000  -0.000  -0.102
  0.000   0.000  -0.000   0.000  -0.000   0.000   0.000   0.000
  0.000  -0.000  -0.000  -0.000   0.000  -0.000  -1.357   0.000
 -0.000  -0.000  -0.000   0.000  -0.000   0.000   0.000  -1.297
  0.000  -0.000   0.000   0.000   0.000   0.000  -0.092   0.000
 -0.000   0.000  -0.000   0.000   0.000   0.000   0.000  -0.104
  0.000   0.000  -0.000   0.000  -0.000   0.000   0.000   0.000
 -0.000   0.000  -0.000  -0.000   0.000  -0.000   0.008   0.000
 -0.000   0.000  -0.000  -0.000   0.000  -0.000   0.016   0.000
 pseudopotential strength for first ion, spin component:           2
-44.346  -0.000  -0.031   9.105   0.000   0.011   0.000  -0.000
 -0.000 -44.327  -0.000   0.000   9.099   0.000  -0.000  -0.000
 -0.031  -0.000 -44.346   0.011   0.000   9.105  -0.000  -0.000
  9.105   0.000   0.011   4.936  -0.000  -0.004   0.000   0.000
  0.000   9.099   0.000  -0.000   4.938  -0.000   0.000  -0.000
  0.011   0.000   9.105  -0.004  -0.000   4.936  -0.000   0.000
  0.000  -0.000  -0.000   0.000   0.000  -0.000  -6.878   0.000
 -0.000  -0.000  -0.000   0.000  -0.000   0.000   0.000  -6.841
  0.000  -0.000   0.000   0.000   0.000   0.000  -0.063   0.000
 -0.000   0.000  -0.000   0.000   0.000   0.000   0.000  -0.085
  0.000   0.000  -0.000   0.000  -0.000  -0.000   0.000   0.000
  0.000  -0.000  -0.000   0.000   0.000  -0.000  -7.380   0.000
 -0.000  -0.000  -0.000   0.000  -0.000   0.000   0.000  -7.342
  0.000  -0.000   0.000   0.000   0.000   0.000  -0.066   0.000
 -0.000   0.000  -0.000   0.000   0.000   0.000   0.000  -0.087
  0.000   0.000  -0.000   0.000  -0.000  -0.000   0.000   0.000
 -0.000   0.000  -0.000  -0.000   0.000  -0.000   0.005   0.000
 -0.000   0.000  -0.000  -0.000   0.000  -0.000   0.009   0.000
 total augmentation occupancy for first ion, spin component:           1
  1.999   0.000  -0.000  -0.010   0.000   0.000   0.000   0.000   0.000   0.000   0.000   0.000   0.000   0.000   0.000   0.000
  0.000   1.999   0.000   0.000  -0.009   0.000   0.000   0.000   0.000   0.000   0.000   0.000   0.000   0.000   0.000   0.000
 -0.000   0.000   1.999   0.000   0.000  -0.010   0.000   0.000   0.000   0.000   0.000   0.000   0.000   0.000   0.000   0.000
 -0.010   0.000   0.000   0.111   0.000  -0.015   0.000   0.000   0.000   0.000   0.000   0.000   0.000   0.000   0.000   0.000
  0.000  -0.009   0.000   0.000   0.121   0.000   0.000   0.000   0.000   0.000   0.000   0.000   0.000   0.000   0.000   0.000
  0.000   0.000  -0.010  -0.015   0.000   0.111   0.000   0.000   0.000   0.000   0.000   0.000   0.000   0.000   0.000   0.000
  0.000   0.000   0.000   0.000   0.000   0.000   9.580   0.000   4.257   0.000  -0.000  -7.674   0.000  -4.052   0.000   0.000
  0.000   0.000   0.000   0.000   0.000   0.000   0.000   7.627   0.000   3.367   0.000   0.000  -5.794   0.000  -3.184   0.000
  0.000   0.000   0.000   0.000   0.000   0.000   4.257   0.000   7.028   0.000   0.000  -4.054   0.000  -5.258   0.000   0.000
  0.000   0.000   0.000   0.000   0.000   0.000   0.000   3.367   0.000   7.627   0.000   0.000  -3.184   0.000  -5.794   0.000
  0.000   0.000   0.000   0.000   0.000   0.000  -0.000   0.000  -0.000   0.000   4.106   0.000   0.000  -0.000   0.000  -2.432
  0.000   0.000   0.000   0.000   0.000   0.000  -7.674   0.000  -4.054   0.000   0.000   6.943   0.000   3.900   0.000  -0.000
  0.000   0.000   0.000   0.000   0.000   0.000   0.000  -5.794   0.000  -3.184   0.000   0.000   5.122   0.000   3.042   0.000
  0.000   0.000   0.000   0.000   0.000   0.000  -4.052   0.000  -5.258   0.000   0.000   3.900   0.000   4.635   0.000  -0.000
  0.000   0.000   0.000   0.000   0.000   0.000   0.000  -3.184   0.000  -5.794   0.000   0.000   3.042   0.000   5.122   0.000
  0.000   0.000   0.000   0.000   0.000   0.000   0.000   0.000   0.000   0.000  -2.432   0.000   0.000  -0.000   0.000   1.877
  0.000   0.000   0.000   0.000   0.000   0.000   0.420   0.000  -0.215   0.000  -0.000  -0.458   0.000   0.221   0.000  -0.000
  0.000   0.000   0.000   0.000   0.000   0.000  -0.021   0.000   0.032   0.000   0.000   0.055   0.000  -0.041   0.000   0.000
 total augmentation occupancy for first ion, spin component:           2
  0.004   0.000  -0.000   0.017   0.000  -0.000   0.000   0.000   0.000   0.000   0.000   0.000   0.000   0.000   0.000   0.000
  0.000   0.004   0.000   0.000   0.017   0.000   0.000   0.000   0.000   0.000   0.000   0.000   0.000   0.000   0.000   0.000
 -0.000   0.000   0.004  -0.000   0.000   0.017   0.000   0.000   0.000   0.000   0.000   0.000   0.000   0.000   0.000   0.000
  0.017   0.000  -0.000  -0.010   0.000  -0.000   0.000   0.000   0.000   0.000   0.000   0.000   0.000   0.000   0.000   0.000
  0.000   0.017   0.000   0.000  -0.009   0.000   0.000   0.000   0.000   0.000   0.000   0.000   0.000   0.000   0.000   0.000
 -0.000   0.000   0.017  -0.000   0.000  -0.010   0.000   0.000   0.000   0.000   0.000   0.000   0.000   0.000   0.000   0.000
  0.000   0.000   0.000   0.000   0.000   0.000  -6.125   0.000  -2.294   0.000   0.000   3.731   0.000   1.821   0.000   0.000
  0.000   0.000   0.000   0.000   0.000   0.000   0.000  -5.087   0.000  -1.859   0.000   0.000   2.875   0.000   1.471   0.000
  0.000   0.000   0.000   0.000   0.000   0.000  -2.294   0.000  -4.668   0.000   0.000   1.822   0.000   2.560   0.000  -0.000
  0.000   0.000   0.000   0.000   0.000   0.000   0.000  -1.859   0.000  -5.087   0.000   0.000   1.471   0.000   2.875   0.000
  0.000   0.000   0.000   0.000   0.000   0.000  -0.000   0.000  -0.000   0.000  -3.234  -0.000   0.000  -0.000   0.000   1.408
  0.000   0.000   0.000   0.000   0.000   0.000   3.731   0.000   1.822   0.000   0.000  -2.434   0.000  -1.356   0.000  -0.000
  0.000   0.000   0.000   0.000   0.000   0.000   0.000   2.875   0.000   1.471   0.000   0.000  -1.759   0.000  -1.091   0.000
  0.000   0.000   0.000   0.000   0.000   0.000   1.821   0.000   2.560   0.000  -0.000  -1.356   0.000  -1.544   0.000   0.000
  0.000   0.000   0.000   0.000   0.000   0.000   0.000   1.471   0.000   2.875   0.000   0.000  -1.091   0.000  -1.759   0.000
  0.000   0.000   0.000   0.000   0.000   0.000  -0.000   0.000   0.000   0.000   1.408  -0.000   0.000   0.000   0.000  -0.674
  0.000   0.000   0.000   0.000   0.000   0.000  -0.009   0.000   0.016   0.000  -0.000  -0.008   0.000   0.002   0.000   0.000
  0.000   0.000   0.000   0.000   0.000   0.000  -0.063   0.000   0.006   0.000   0.000   0.039   0.000  -0.000   0.000  -0.000


------------------------ aborting loop because EDIFF is reached ----------------------------------------


 


 total charge     
 
# of ion       s       p       d       tot
------------------------------------------
    1        0.194   6.201   5.022  11.417
    2        0.200   6.195   5.029  11.424
    3        1.761   4.399   0.000   6.159
    4        1.761   4.399   0.000   6.159
    5        1.760   4.395   0.000   6.155
    6        1.760   4.395   0.000   6.155
--------------------------------------------------
tot          7.436  29.983  10.051  47.470
 


 magnetization (x)
 
# of ion       s       p       d       tot
------------------------------------------
    1       -0.014  -0.016  -4.580  -4.609
    2        0.015   0.014   4.576   4.605
    3        0.002   0.022   0.000   0.024
    4        0.002   0.022   0.000   0.024
    5       -0.003  -0.018   0.000  -0.021
    6       -0.003  -0.018   0.000  -0.021
--------------------------------------------------
tot         -0.001   0.007  -0.003   0.002
 
    CHARGE:  cpu time    0.0146: real time    0.0146
    FORLOC:  cpu time    0.0005: real time    0.0005
    FORNL :  cpu time    0.0792: real time    0.0792
    STRESS:  cpu time    0.2207: real time    0.2207
    FORCOR:  cpu time    0.0024: real time    0.0024
    FORHAR:  cpu time    0.0011: real time    0.0011
    MIXING:  cpu time    0.0005: real time    0.0005
    OFIELD:  cpu time    0.0000: real time    0.0000

  FORCE on cell =-STRESS in cart. coord.  units (eV):
  Direction    XX          YY          ZZ          XY          YZ          ZX
  --------------------------------------------------------------------------------------
  Alpha Z   219.34825   219.34825   219.34825
  Ewald   -1639.08507 -1639.08507 -1085.02095    -0.00000     0.00000     0.00000
  Hartree   558.16986   558.16986   925.84147    -0.00000    -0.00000    -0.00000
  E(xc)    -310.32327  -310.32327  -310.36759     0.00000     0.00000     0.00000
  Local     218.20536   218.20536  -696.14291     0.00000     0.00000    -0.00000
  n-local  -239.48293  -239.78301  -238.61430     0.03305     0.11198     0.12235
  augment   266.67285   266.67285   266.08818     0.00000    -0.00000    -0.00000
  Kinetic   925.73018   926.46009   918.50139    -0.56612    -1.02353    -1.07885
  Fock        0.00000     0.00000     0.00000     0.00000     0.00000     0.00000
  -------------------------------------------------------------------------------------
  Total      -0.54986    -0.54986    -0.36645    -0.00000     0.00000     0.00000
  in kB     -12.68327   -12.68327    -8.45273    -0.00000     0.00000     0.00000
  external pressure =      -11.27 kB  Pullay stress =        0.00 kB


 VOLUME and BASIS-vectors are now :
 -----------------------------------------------------------------------------
  energy-cutoff  :      400.00
  volume of cell :       69.46
      direct lattice vectors                 reciprocal lattice vectors
     4.658811867  0.000000000  0.000000000     0.214647002  0.000000000  0.000000000
     0.000000000  4.658811867  0.000000000     0.000000000  0.214647002  0.000000000
     0.000000000  0.000000000  3.200233522     0.000000000  0.000000000  0.312477197

  length of vectors
     4.658811867  4.658811867  3.200233522     0.214647002  0.214647002  0.312477197


 FORCES acting on ions
    electron-ion (+dipol)            ewald-force                    non-local-force                 convergence-correction
 -----------------------------------------------------------------------------------------------
   0.367E-11 -.122E-11 -.292E-11   0.284E-13 0.000E+00 -.906E-14   0.000E+00 0.000E+00 0.000E+00   0.115E-12 -.557E-13 0.201E-13
   -.349E-13 -.307E-13 0.144E-12   -.284E-13 0.000E+00 -.112E-13   0.000E+00 0.000E+00 0.000E+00   -.733E-13 0.863E-14 0.102E-14
   -.304E+02 0.304E+02 0.307E-11   0.312E+02 -.312E+02 0.551E-14   -.777E+00 0.777E+00 0.000E+00   -.161E-03 0.161E-03 0.329E-13
   0.304E+02 -.304E+02 -.746E-12   -.312E+02 0.312E+02 0.517E-14   0.777E+00 -.777E+00 0.000E+00   0.161E-03 -.161E-03 -.281E-13
   0.304E+02 0.304E+02 0.761E-08   -.312E+02 -.312E+02 0.336E-14   0.777E+00 0.777E+00 0.000E+00   0.161E-03 0.161E-03 0.161E-09
   -.304E+02 -.304E+02 -.761E-08   0.312E+02 0.312E+02 0.297E-14   -.777E+00 -.777E+00 0.000E+00   -.161E-03 -.161E-03 -.161E-09
 -----------------------------------------------------------------------------------------------
   0.386E-11 0.733E-12 -.110E-11   0.355E-14 0.000E+00 -.321E-14   -.222E-15 0.000E+00 0.000E+00   0.913E-13 -.389E-13 0.712E-13
 
 
 POSITION                                       TOTAL-FORCE (eV/Angst)
 -----------------------------------------------------------------------------------
      2.32941      2.32941      1.60012         0.000000     -0.000000     -0.000000
      0.00000      0.00000      0.00000         0.000000     -0.000000     -0.000000
      0.91393      3.74488      1.60012         0.000624     -0.000624     -0.000000
      3.74488      0.91393      1.60012        -0.000624      0.000624      0.000000
      1.41548      1.41548      0.00000        -0.000624     -0.000624     -0.000000
      3.24334      3.24334      0.00000         0.000624      0.000624      0.000000
 -----------------------------------------------------------------------------------
    total drift:                                0.000000      0.000000     -0.000000


--------------------------------------------------------------------------------------------------------



  FREE ENERGIE OF THE ION-ELECTRON SYSTEM (eV)
  ---------------------------------------------------
  free  energy   TOTEN  =       -40.08284338 eV

  energy  without entropy=      -40.08284338  energy(sigma->0) =      -40.08284338
 


--------------------------------------------------------------------------------------------------------


    POTLOK:  cpu time    0.2237: real time    0.2237


--------------------------------------------------------------------------------------------------------


 writing wavefunctions
     LOOP+:  cpu time    5.9067: real time    5.9259
    4ORBIT:  cpu time    0.0000: real time    0.0000
 


 total charge     
 
# of ion       s       p       d       tot
------------------------------------------
    1        0.194   6.201   5.022  11.417
    2        0.200   6.195   5.029  11.424
    3        1.761   4.399   0.000   6.159
    4        1.761   4.399   0.000   6.159
    5        1.760   4.395   0.000   6.155
    6        1.760   4.395   0.000   6.155
--------------------------------------------------
tot          7.436  29.983  10.051  47.470
 


 magnetization (x)
 
# of ion       s       p       d       tot
------------------------------------------
    1       -0.014  -0.016  -4.580  -4.609
    2        0.015   0.014   4.576   4.605
    3        0.002   0.022   0.000   0.024
    4        0.002   0.022   0.000   0.024
    5       -0.003  -0.018   0.000  -0.021
    6       -0.003  -0.018   0.000  -0.021
--------------------------------------------------
tot         -0.001   0.007  -0.003   0.002
 
 BZINTS: Fermi energy:  2.884345; 54.000000 electrons
         Band energy:-719.206201;  BLOECHL correction:  0.000000

 total amount of memory used by VASP MPI-rank0    37003. kBytes
=======================================================================

   base      :      30000. kBytes
   nonl-proj :       3419. kBytes
   fftplans  :        966. kBytes
   grid      :       1271. kBytes
   one-center:        186. kBytes
   wavefun   :       1161. kBytes
 
  
  
 General timing and accounting informations for this job:
 ========================================================
  
                  Total CPU time used (sec):        6.884
                            User time (sec):        4.754
                          System time (sec):        2.130
                         Elapsed time (sec):        6.955
  
                   Maximum memory used (kb):       49684.
                   Average memory used (kb):           0.
  
                          Minor page faults:         6639
                          Major page faults:            9
                 Voluntary context switches:          280
