 vasp.5.4.4.18Apr17-6-g9f103f2a35 (build Apr 27 2017 11:13:10) complex          
  
 executed on           IFC91_ompi date 2020.05.13  10:41:43
 running on   12 total cores
 distrk:  each k-point on   12 cores,    1 groups
 distr:  one band on NCORES_PER_BAND=   1 cores,   12 groups


--------------------------------------------------------------------------------------------------------


 INCAR:
 POTCAR:    PAW_PBE Mn_pv 02Aug2007               
 POTCAR:    PAW_PBE F 08Apr2002                   

 ----------------------------------------------------------------------------- 
|                                                                             |
|           W    W    AA    RRRRR   N    N  II  N    N   GGGG   !!!           |
|           W    W   A  A   R    R  NN   N  II  NN   N  G    G  !!!           |
|           W    W  A    A  R    R  N N  N  II  N N  N  G       !!!           |
|           W WW W  AAAAAA  RRRRR   N  N N  II  N  N N  G  GGG   !            |
|           WW  WW  A    A  R   R   N   NN  II  N   NN  G    G                |
|           W    W  A    A  R    R  N    N  II  N    N   GGGG   !!!           |
|                                                                             |
|      For optimal performance we recommend to set                            |
|        NCORE= 4 - approx SQRT( number of cores)                             |
|      NCORE specifies how many cores store one orbital (NPAR=cpu/NCORE).     |
|      This setting can  greatly improve the performance of VASP for DFT.     |
|      The default,   NCORE=1            might be grossly inefficient         |
|      on modern multi-core architectures or massively parallel machines.     |
|      Do your own testing !!!!                                               |
|      Unfortunately you need to use the default for GW and RPA calculations. |
|      (for HF NCORE is supported but not extensively tested yet)             |
|                                                                             |
 ----------------------------------------------------------------------------- 

 POTCAR:    PAW_PBE Mn_pv 02Aug2007               
   VRHFIN =Mn: 3p4s3d                                                           
   LEXCH  = PE                                                                  
   EATOM  =  2025.2664 eV,  148.8529 Ry                                         
                                                                                
   TITEL  = PAW_PBE Mn_pv 02Aug2007                                             
   LULTRA =        F    use ultrasoft PP ?                                      
   IUNSCR =        1    unscreen: 0-lin 1-nonlin 2-no                           
   RPACOR =    2.080    partial core radius                                     
   POMASS =   54.938; ZVAL   =   13.000    mass and valenz                      
   RCORE  =    2.300    outmost cutoff radius                                   
   RWIGS  =    2.500; RWIGS  =    1.323    wigner-seitz radius (au A)           
   ENMAX  =  269.864; ENMIN  =  202.398 eV                                      
   ICORE  =        3    local potential                                         
   LCOR   =        T    correct aug charges                                     
   LPAW   =        T    paw PP                                                  
   EAUG   =  569.085                                                            
   DEXC   =    0.000                                                            
   RMAX   =    2.343    core radius for proj-oper                               
   RAUG   =    1.300    factor for augmentation sphere                          
   RDEP   =    2.338    radius for radial grids                                 
   RDEPT  =    1.798    core radius for aug-charge                              
                                                                                
   Atomic configuration                                                         
    8 entries                                                                   
     n  l   j            E        occ.                                          
     1  0  0.50     -6424.8287   2.0000                                         
     2  0  0.50      -739.1154   2.0000                                         
     2  1  1.50      -625.3949   6.0000                                         
     3  0  0.50       -81.6100   2.0000                                         
     3  1  1.50       -50.4667   6.0000                                         
     3  2  2.50        -3.3745   6.0000                                         
     4  0  0.50        -4.1331   1.0000                                         
     4  3  2.50        -1.3606   0.0000                                         
   Description                                                                  
     l       E           TYP  RCUT    TYP  RCUT                                 
     1    -50.4666628     23  2.000                                             
     1     -1.3605826     23  2.000                                             
     2     -3.3744729     23  2.300                                             
     2     -4.7350555     23  2.300                                             
     0     -4.1331431     23  2.300                                             
     0      7.6656591     23  2.300                                             
     3      9.5240782     23  2.300                                             
  local pseudopotential read in
  partial core-charges read in
  partial kinetic energy density read in
  atomic valenz-charges read in
  non local Contribution for L=           1  read in
    real space projection operators read in
  non local Contribution for L=           1  read in
    real space projection operators read in
  non local Contribution for L=           2  read in
    real space projection operators read in
  non local Contribution for L=           2  read in
    real space projection operators read in
  non local Contribution for L=           0  read in
    real space projection operators read in
  non local Contribution for L=           0  read in
    real space projection operators read in
    PAW grid and wavefunctions read in
 
   number of l-projection  operators is LMAX  =           6
   number of lm-projection operators is LMMAX =          18
 
 POTCAR:    PAW_PBE F 08Apr2002                   
   VRHFIN =F: s2p5                                                              
   LEXCH  = PE                                                                  
   EATOM  =   659.6475 eV,   48.4827 Ry                                         
                                                                                
   TITEL  = PAW_PBE F 08Apr2002                                                 
   LULTRA =        F    use ultrasoft PP ?                                      
   IUNSCR =        1    unscreen: 0-lin 1-nonlin 2-no                           
   RPACOR =    1.200    partial core radius                                     
   POMASS =   18.998; ZVAL   =    7.000    mass and valenz                      
   RCORE  =    1.520    outmost cutoff radius                                   
   RWIGS  =    1.500; RWIGS  =    0.794    wigner-seitz radius (au A)           
   ENMAX  =  400.000; ENMIN  =  300.000 eV                                      
   ICORE  =        2    local potential                                         
   LCOR   =        T    correct aug charges                                     
   LPAW   =        T    paw PP                                                  
   EAUG   =  613.614                                                            
   RMAX   =    1.555    core radius for proj-oper                               
   RAUG   =    1.300    factor for augmentation sphere                          
   RDEP   =    1.539    radius for radial grids                                 
   RDEPT  =    1.299    core radius for aug-charge                              
                                                                                
   Atomic configuration                                                         
    4 entries                                                                   
     n  l   j            E        occ.                                          
     1  0  0.50      -663.3661   2.0000                                         
     2  0  0.50       -29.8995   2.0000                                         
     2  1  0.50       -11.1114   5.0000                                         
     3  2  1.50       -10.8847   0.0000                                         
   Description                                                                  
     l       E           TYP  RCUT    TYP  RCUT                                 
     0    -29.8995018     23  1.200                                             
     0     -9.5240782     23  1.200                                             
     1    -11.1113914     23  1.520                                             
     1      1.3605826     23  1.520                                             
     2    -10.8846608      7  1.500                                             
  local pseudopotential read in
  partial core-charges read in
  partial kinetic energy density read in
  atomic valenz-charges read in
  non local Contribution for L=           0  read in
    real space projection operators read in
  non local Contribution for L=           0  read in
    real space projection operators read in
  non local Contribution for L=           1  read in
    real space projection operators read in
  non local Contribution for L=           1  read in
    real space projection operators read in
    PAW grid and wavefunctions read in
 
   number of l-projection  operators is LMAX  =           4
   number of lm-projection operators is LMMAX =           8
 
  PAW_PBE Mn_pv 02Aug2007               :
 energy of atom  1       EATOM=-2025.2664
 kinetic energy error for atom=    0.0047 (will be added to EATOM!!)
  PAW_PBE F 08Apr2002                   :
 energy of atom  2       EATOM= -659.6475
 kinetic energy error for atom=    0.0256 (will be added to EATOM!!)
 
 
 POSCAR: Mn  F                                   
  positions in cartesian coordinates
  No initial velocities read in

 METAGGA = SCAN     LMAXTAU =  6    LMIXTAU =  F

 exchange correlation table for  LEXCH =        8
   RHO(1)=    0.500       N(1)  =     2000
   RHO(2)=  100.500       N(2)  =     4000
 


--------------------------------------------------------------------------------------------------------


 ion  position               nearest neighbor table
   1  0.500  0.500  0.500-   3 2.10   4 2.10   5 2.13   6 2.13   5 2.13   6 2.13
   2  0.000  0.000  0.000-   5 2.10   6 2.10   3 2.13   4 2.13   3 2.13   4 2.13
   3  0.195  0.805  0.500-   1 2.10   2 2.13   2 2.13
   4  0.805  0.195  0.500-   1 2.10   2 2.13   2 2.13
   5  0.305  0.305  0.000-   2 2.10   1 2.13   1 2.13
   6  0.695  0.695  0.000-   2 2.10   1 2.13   1 2.13
 
  LATTYP: Found a simple tetragonal cell.
 ALAT       =     4.8776199575
 C/A-ratio  =     0.6776779982
  
  Lattice vectors:
  
 A1 = (   4.8776199575,   0.0000000000,   0.0000000000)
 A2 = (   0.0000000000,   4.8776199575,   0.0000000000)
 A3 = (   0.0000000000,   0.0000000000,   3.3054557286)


Analysis of symmetry for initial positions (statically):
=====================================================================
 Subroutine PRICEL returns:
 Original cell was already a primitive cell.
 

 Routine SETGRP: Setting up the symmetry group for a 
 simple tetragonal supercell.


 Subroutine GETGRP returns: Found 16 space group operations
 (whereof  8 operations were pure point group operations)
 out of a pool of 16 trial point group operations.


The static configuration has the point symmetry D_2h.
 The point group associated with its full space group is D_4h.


Analysis of symmetry for dynamics (positions and initial velocities):
=====================================================================
 Subroutine PRICEL returns:
 Original cell was already a primitive cell.
 

 Routine SETGRP: Setting up the symmetry group for a 
 simple tetragonal supercell.


 Subroutine GETGRP returns: Found 16 space group operations
 (whereof  8 operations were pure point group operations)
 out of a pool of 16 trial point group operations.


The dynamic configuration has the point symmetry D_2h.
 The point group associated with its full space group is D_4h.


Analysis of structural, dynamic, and magnetic symmetry:
=====================================================================
 Subroutine PRICEL returns:
 Original cell was already a primitive cell.
 

 Routine SETGRP: Setting up the symmetry group for a 
 simple tetragonal supercell.


 Subroutine GETGRP returns: Found 16 space group operations
 (whereof  8 operations were pure point group operations)
 out of a pool of 16 trial point group operations.


The magnetic configuration has the point symmetry D_2h.
 The point group associated with its full space group is D_4h.


 Subroutine INISYM returns: Found 16 space group operations
 (whereof  8 operations are pure point group operations),
 and found     1 'primitive' translations

 
 
 KPOINTS: KPOINTS created by Atomic Simulation Env

Automatic generation of k-mesh.
Space group operators:
 irot       det(A)        alpha          n_x          n_y          n_z        tau_x        tau_y        tau_z
    1     1.000000     0.000000     1.000000     0.000000     0.000000     0.000000     0.000000     0.000000
    2    -1.000000     0.000000     1.000000     0.000000     0.000000     0.000000     0.000000     0.000000
    3     1.000000   180.000000     0.000000     0.000000     1.000000     0.000000     0.000000     0.000000
    4    -1.000000   180.000000     0.000000     0.000000     1.000000     0.000000     0.000000     0.000000
    5     1.000000   180.000000     0.707107     0.707107     0.000000     0.000000     0.000000     0.000000
    6    -1.000000   180.000000     0.707107     0.707107     0.000000     0.000000     0.000000     0.000000
    7     1.000000   180.000000     0.707107    -0.707107     0.000000     0.000000     0.000000     0.000000
    8    -1.000000   180.000000     0.707107    -0.707107     0.000000     0.000000     0.000000     0.000000
    9     1.000000    90.000000     0.000000     0.000000    -1.000000     0.500000     0.500000     0.500000
   10    -1.000000    90.000000     0.000000     0.000000    -1.000000     0.500000     0.500000     0.500000
   11     1.000000    90.000000     0.000000     0.000000     1.000000     0.500000     0.500000     0.500000
   12    -1.000000    90.000000     0.000000     0.000000     1.000000     0.500000     0.500000     0.500000
   13     1.000000   180.000000     0.000000     1.000000     0.000000     0.500000     0.500000     0.500000
   14    -1.000000   180.000000     0.000000     1.000000     0.000000     0.500000     0.500000     0.500000
   15     1.000000   180.000000     1.000000     0.000000     0.000000     0.500000     0.500000     0.500000
   16    -1.000000   180.000000     1.000000     0.000000     0.000000     0.500000     0.500000     0.500000
 
 Subroutine IBZKPT returns following result:
 ===========================================
 
 Found      9 irreducible k-points:
 
 Following reciprocal coordinates:
            Coordinates               Weight
  0.125000  0.125000  0.083333      8.000000
  0.375000  0.125000  0.083333     16.000000
  0.375000  0.375000  0.083333      8.000000
  0.125000  0.125000  0.250000      8.000000
  0.375000  0.125000  0.250000     16.000000
  0.375000  0.375000  0.250000      8.000000
  0.125000  0.125000  0.416667      8.000000
  0.375000  0.125000  0.416667     16.000000
  0.375000  0.375000  0.416667      8.000000
 
 Following cartesian coordinates:
            Coordinates               Weight
  0.025627  0.025627  0.025211      8.000000
  0.076882  0.025627  0.025211     16.000000
  0.076882  0.076882  0.025211      8.000000
  0.025627  0.025627  0.075633      8.000000
  0.076882  0.025627  0.075633     16.000000
  0.076882  0.076882  0.075633      8.000000
  0.025627  0.025627  0.126054      8.000000
  0.076882  0.025627  0.126054     16.000000
  0.076882  0.076882  0.126054      8.000000
 
 TETIRR: Found    106 inequivalent tetrahedra from      576


--------------------------------------------------------------------------------------------------------




 Dimension of arrays:
   k-points           NKPTS =      9   k-points in BZ     NKDIM =      9   number of bands    NBANDS=     36
   number of dos      NEDOS =    301   number of ions     NIONS =      6
   non local maximal  LDIM  =      6   non local SUM 2l+1 LMDIM =     18
   total plane-waves  NPLWV =  18000
   max r-space proj   IRMAX =      1   max aug-charges    IRDMAX=  55754
   dimension x,y,z NGX =    30 NGY =   30 NGZ =   20
   dimension x,y,z NGXF=    60 NGYF=   60 NGZF=   40
   support grid    NGXF=   120 NGYF=  120 NGZF=   80
   ions per type =               2   4
   NGX,Y,Z   is equivalent  to a cutoff of  10.23, 10.23, 10.06 a.u.
   NGXF,Y,Z  is equivalent  to a cutoff of  20.45, 20.45, 20.12 a.u.

 SYSTEM =  unknown system                          
 POSCAR =  Mn  F                                   

 Startparameter for this run:
   NWRITE =      2    write-flag & timer
   PREC   = normal    normal or accurate (medium, high low for compatibility)
   ISTART =      0    job   : 0-new  1-cont  2-samecut
   ICHARG =      2    charge: 1-file 2-atom 10-const
   ISPIN  =      2    spin polarized calculation?
   LNONCOLLINEAR =      F non collinear calculations
   LSORBIT =      F    spin-orbit coupling
   INIWAV =      1    electr: 0-lowe 1-rand  2-diag
   LASPH  =      T    aspherical Exc in radial PAW
   METAGGA=      F    non-selfconsistent MetaGGA calc.

 Electronic Relaxation 1
   ENCUT  =  600.0 eV  44.10 Ry    6.64 a.u.   9.74  9.74  6.60*2*pi/ulx,y,z
   ENINI  =  600.0     initial cutoff
   ENAUG  =  613.6 eV  augmentation charge cutoff
   NELM   =     60;   NELMIN=  2; NELMDL= -5     # of ELM steps 
   EDIFF  = 0.1E-05   stopping-criterion for ELM
   LREAL  =      F    real-space projection
   NLSPLINE    = F    spline interpolate recip. space projectors
   LCOMPAT=      F    compatible to vasp.4.4
   GGA_COMPAT  = T    GGA compatible to vasp.4.4-vasp.4.6
   LMAXPAW     = -100 max onsite density
   LMAXMIX     =    4 max onsite mixed and CHGCAR
   VOSKOWN=      0    Vosko Wilk Nusair interpolation
   ROPT   =    0.00000   0.00000
 Ionic relaxation
   EDIFFG = 0.1E-04   stopping-criterion for IOM
   NSW    =      0    number of steps for IOM
   NBLOCK =      1;   KBLOCK =      1    inner block; outer block 
   IBRION =     -1    ionic relax: 0-MD 1-quasi-New 2-CG
   NFREE  =      0    steps in history (QN), initial steepest desc. (CG)
   ISIF   =      2    stress and relaxation
   IWAVPR =     10    prediction:  0-non 1-charg 2-wave 3-comb
   ISYM   =      2    0-nonsym 1-usesym 2-fastsym
   LCORR  =      T    Harris-Foulkes like correction to forces

   POTIM  = 0.5000    time-step for ionic-motion
   TEIN   =    0.0    initial temperature
   TEBEG  =    0.0;   TEEND  =   0.0 temperature during run
   SMASS  =  -3.00    Nose mass-parameter (am)
   estimated Nose-frequenzy (Omega)   =  0.10E-29 period in steps =****** mass=  -0.544E-27a.u.
   SCALEE = 1.0000    scale energy and forces
   NPACO  =    256;   APACO  = 16.0  distance and # of slots for P.C.
   PSTRESS=    0.0 pullay stress

  Mass of Ions in am
   POMASS =  54.94 19.00
  Ionic Valenz
   ZVAL   =  13.00  7.00
  Atomic Wigner-Seitz radii
   RWIGS  =  -1.00 -1.00
  virtual crystal weights 
   VCA    =   1.00  1.00
   NELECT =      54.0000    total number of electrons
   NUPDOWN=      -1.0000    fix difference up-down

 DOS related values:
   EMIN   =  10.00;   EMAX   =-10.00  energy-range for DOS
   EFERMI =   0.00
   ISMEAR =    -5;   SIGMA  =   0.20  broadening in eV -4-tet -1-fermi 0-gaus

 Electronic relaxation 2 (details)
   IALGO  =     38    algorithm
   LDIAG  =      T    sub-space diagonalisation (order eigenvalues)
   LSUBROT=      F    optimize rotation matrix (better conditioning)
   TURBO    =      0    0=normal 1=particle mesh
   IRESTART =      0    0=no restart 2=restart with 2 vectors
   NREBOOT  =      0    no. of reboots
   NMIN     =      0    reboot dimension
   EREF     =   0.00    reference energy to select bands
   IMIX   =      4    mixing-type and parameters
     AMIX     =   0.40;   BMIX     =  1.00
     AMIX_MAG =   1.60;   BMIX_MAG =  1.00
     AMIN     =   0.10
     WC   =   100.;   INIMIX=   1;  MIXPRE=   1;  MAXMIX= -45

 Intra band minimization:
   WEIMIN = 0.0000     energy-eigenvalue tresh-hold
   EBREAK =  0.69E-08  absolut break condition
   DEPER  =   0.30     relativ break condition  

   TIME   =   0.40     timestep for ELM

  volume/ion in A,a.u.               =      13.11        88.45
  Fermi-wavevector in a.u.,A,eV,Ry     =   1.444299  2.729329 28.381733  2.085999
  Thomas-Fermi vector in A             =   2.562609
 
 Write flags
   LWAVE        =      T    write WAVECAR
   LDOWNSAMPLE  =      F    k-point downsampling of WAVECAR
   LCHARG       =      T    write CHGCAR
   LVTOT        =      F    write LOCPOT, total local potential
   LVHAR        =      F    write LOCPOT, Hartree potential only
   LELF         =      F    write electronic localiz. function (ELF)
   LORBIT       =     11    0 simple, 1 ext, 2 COOP (PROOUT), +10 PAW based schemes


 Dipole corrections
   LMONO  =      F    monopole corrections only (constant potential shift)
   LDIPOL =      F    correct potential (dipole corrections)
   IDIPOL =      0    1-x, 2-y, 3-z, 4-all directions 
   EPSILON=  1.0000000 bulk dielectric constant

 LDA+U is selected, type is set to LDAUTYPE =  2
   angular momentum for each species LDAUL =     2   -1
   U (eV)           for each species LDAUU =   4.0  0.0
   J (eV)           for each species LDAUJ =   0.0  0.0
 Exchange correlation treatment:
   GGA     =    --    GGA type
   LEXCH   =     8    internal setting for exchange type
   VOSKOWN=      0    Vosko Wilk Nusair interpolation
   LHFCALC =     F    Hartree Fock is set to
   LHFONE  =     F    Hartree Fock one center treatment
   AEXX    =    0.0000 exact exchange contribution

 Linear response parameters
   LEPSILON=     F    determine dielectric tensor
   LRPA    =     F    only Hartree local field effects (RPA)
   LNABLA  =     F    use nabla operator in PAW spheres
   LVEL    =     F    velocity operator in full k-point grid
   LINTERFAST=   F  fast interpolation
   KINTER  =     0    interpolate to denser k-point grid
   CSHIFT  =0.1000    complex shift for real part using Kramers Kronig
   OMEGAMAX=  -1.0    maximum frequency
   DEG_THRESHOLD= 0.2000000E-02 threshold for treating states as degnerate
   RTIME   =   -0.100 relaxation time in fs
  (WPLASMAI=    0.000 imaginary part of plasma frequency in eV, 0.658/RTIME)
   DFIELD  = 0.0000000 0.0000000 0.0000000 field for delta impulse in time
 
 Orbital magnetization related:
   ORBITALMAG=     F  switch on orbital magnetization
   LCHIMAG   =     F  perturbation theory with respect to B field
   DQ        =  0.001000  dq finite difference perturbation B field
   LLRAUG    =     F  two centre corrections for induced B field



--------------------------------------------------------------------------------------------------------


 Static calculation
 charge density and potential will be updated during run
 spin polarized calculation
 Variant of blocked Davidson
 Davidson routine will perform the subspace rotation
 perform sub-space diagonalisation
    after iterative eigenvector-optimisation
 modified Broyden-mixing scheme, WC =      100.0
 initial mixing is a Kerker type mixing with AMIX =  0.4000 and BMIX =      1.0000
 Hartree-type preconditioning will be used
 using additional bands            9
 reciprocal scheme for non local part
 use partial core corrections
 calculate Harris-corrections to forces 
   (improved forces if not selfconsistent)
 use gradient corrections 
 use of overlap-Matrix (Vanderbilt PP)
 Fermi weights with tetrahedron method with Bloechl corrections


--------------------------------------------------------------------------------------------------------


  energy-cutoff  :      600.00
  volume of cell :       78.64
      direct lattice vectors                 reciprocal lattice vectors
     4.877619957  0.000000000  0.000000000     0.205018023  0.000000000  0.000000000
     0.000000000  4.877619957  0.000000000     0.000000000  0.205018023  0.000000000
     0.000000000  0.000000000  3.305455729     0.000000000  0.000000000  0.302530145

  length of vectors
     4.877619957  4.877619957  3.305455729     0.205018023  0.205018023  0.302530145


 
 k-points in units of 2pi/SCALE and weight: KPOINTS created by Atomic Simulation Env
   0.02562725  0.02562725  0.02521085       0.083
   0.07688176  0.02562725  0.02521085       0.167
   0.07688176  0.07688176  0.02521085       0.083
   0.02562725  0.02562725  0.07563254       0.083
   0.07688176  0.02562725  0.07563254       0.167
   0.07688176  0.07688176  0.07563254       0.083
   0.02562725  0.02562725  0.12605423       0.083
   0.07688176  0.02562725  0.12605423       0.167
   0.07688176  0.07688176  0.12605423       0.083
 
 k-points in reciprocal lattice and weights: KPOINTS created by Atomic Simulation Env
   0.12500000  0.12500000  0.08333333       0.083
   0.37500000  0.12500000  0.08333333       0.167
   0.37500000  0.37500000  0.08333333       0.083
   0.12500000  0.12500000  0.25000000       0.083
   0.37500000  0.12500000  0.25000000       0.167
   0.37500000  0.37500000  0.25000000       0.083
   0.12500000  0.12500000  0.41666667       0.083
   0.37500000  0.12500000  0.41666667       0.167
   0.37500000  0.37500000  0.41666667       0.083
 
 position of ions in fractional coordinates (direct lattice) 
   0.50000000  0.50000000  0.50000000
   0.00000000  0.00000000  0.00000000
   0.19538542  0.80461458  0.50000000
   0.80461458  0.19538542  0.50000000
   0.30461458  0.30461458  0.00000000
   0.69538542  0.69538542  0.00000000
 
 position of ions in cartesian coordinates  (Angst):
   2.43880998  2.43880998  1.65272786
   0.00000000  0.00000000  0.00000000
   0.95301584  3.92460412  1.65272786
   3.92460412  0.95301584  1.65272786
   1.48579414  1.48579414  0.00000000
   3.39182582  3.39182582  0.00000000
 


--------------------------------------------------------------------------------------------------------


 k-point  1 :   0.1250 0.1250 0.0833  plane waves:    2634
 k-point  2 :   0.3750 0.1250 0.0833  plane waves:    2629
 k-point  3 :   0.3750 0.3750 0.0833  plane waves:    2628
 k-point  4 :   0.1250 0.1250 0.2500  plane waves:    2623
 k-point  5 :   0.3750 0.1250 0.2500  plane waves:    2626
 k-point  6 :   0.3750 0.3750 0.2500  plane waves:    2632
 k-point  7 :   0.1250 0.1250 0.4167  plane waves:    2620
 k-point  8 :   0.3750 0.1250 0.4167  plane waves:    2622
 k-point  9 :   0.3750 0.3750 0.4167  plane waves:    2607

 maximum and minimum number of plane-waves per node :      2634     2607

 maximum number of plane-waves:      2634
 maximum index in each direction: 
   IXMAX=    9   IYMAX=    9   IZMAX=    6
   IXMIN=  -10   IYMIN=  -10   IZMIN=   -7


 serial   3D FFT for wavefunctions
 parallel 3D FFT for charge:
    minimum data exchange during FFTs selected (reduces bandwidth)


 total amount of memory used by VASP MPI-rank0    45320. kBytes
=======================================================================

   base      :      30000. kBytes
   nonl-proj :       7096. kBytes
   fftplans  :       1875. kBytes
   grid      :       3820. kBytes
   one-center:        186. kBytes
   wavefun   :       2343. kBytes
 
     INWAV:  cpu time    0.0000: real time    0.0000
 Broyden mixing: mesh for mixing (old mesh)
   NGX = 19   NGY = 19   NGZ = 13
  (NGX  = 60   NGY  = 60   NGZ  = 40)
  gives a total of   4693 points

 initial charge density was supplied:
 charge density of overlapping atoms calculated
 number of electron      54.0000000 magnetization       0.0000000
 keeping initial charge density in first step


--------------------------------------------------------------------------------------------------------


 Maximum index for augmentation-charges         4259 (set IRDMAX)


--------------------------------------------------------------------------------------------------------


 First call to EWALD:  gamma=   0.414
 Maximum number of real-space cells 2x 2x 3
 Maximum number of reciprocal cells 3x 3x 2

    FEWALD:  cpu time    0.0010: real time    0.0010


--------------------------------------- Iteration      1(   1)  ---------------------------------------


    POTLOK:  cpu time    0.0350: real time    0.0350
    SETDIJ:  cpu time    0.7795: real time    0.7795
atom =   1  type =  1  l = 2
 
 onsite density matrix
 
spin component  1
 
  0.2835  0.0000  0.0000  0.0000  0.0000
  0.0000  0.2835  0.0000  0.0000  0.0000
  0.0000  0.0000  0.2835  0.0000  0.0000
  0.0000  0.0000  0.0000  0.2835  0.0000
  0.0000  0.0000  0.0000  0.0000  0.2835
 
spin component  2
 
  0.7694  0.0000  0.0000  0.0000  0.0000
  0.0000  0.7694  0.0000  0.0000  0.0000
  0.0000  0.0000  0.7694  0.0000  0.0000
  0.0000  0.0000  0.0000  0.7694  0.0000
  0.0000  0.0000  0.0000  0.0000  0.7694
 
 occupancies and eigenvectors
 
  o =  0.2835  v =  1.0000  0.0000  0.0000  0.0000  0.0000  0.0000  0.0000  0.0000  0.0000  0.0000      0.0000  0.0000  0.0000  0.0000  0.0000  0.0000  0.0000  0.0000  0.0000  0.0000
  o =  0.2835  v =  0.0000  1.0000  0.0000  0.0000  0.0000  0.0000  0.0000  0.0000  0.0000  0.0000      0.0000  0.0000  0.0000  0.0000  0.0000  0.0000  0.0000  0.0000  0.0000  0.0000
  o =  0.2835  v =  0.0000  0.0000  1.0000  0.0000  0.0000  0.0000  0.0000  0.0000  0.0000  0.0000      0.0000  0.0000  0.0000  0.0000  0.0000  0.0000  0.0000  0.0000  0.0000  0.0000
  o =  0.2835  v =  0.0000  0.0000  0.0000  1.0000  0.0000  0.0000  0.0000  0.0000  0.0000  0.0000      0.0000  0.0000  0.0000  0.0000  0.0000  0.0000  0.0000  0.0000  0.0000  0.0000
  o =  0.2835  v =  0.0000  0.0000  0.0000  0.0000  1.0000  0.0000  0.0000  0.0000  0.0000  0.0000      0.0000  0.0000  0.0000  0.0000  0.0000  0.0000  0.0000  0.0000  0.0000  0.0000
  o =  0.7694  v =  0.0000  0.0000  0.0000  0.0000  0.0000  1.0000  0.0000  0.0000  0.0000  0.0000      0.0000  0.0000  0.0000  0.0000  0.0000  0.0000  0.0000  0.0000  0.0000  0.0000
  o =  0.7694  v =  0.0000  0.0000  0.0000  0.0000  0.0000  0.0000  1.0000  0.0000  0.0000  0.0000      0.0000  0.0000  0.0000  0.0000  0.0000  0.0000  0.0000  0.0000  0.0000  0.0000
  o =  0.7694  v =  0.0000  0.0000  0.0000  0.0000  0.0000  0.0000  0.0000  1.0000  0.0000  0.0000      0.0000  0.0000  0.0000  0.0000  0.0000  0.0000  0.0000  0.0000  0.0000  0.0000
  o =  0.7694  v =  0.0000  0.0000  0.0000  0.0000  0.0000  0.0000  0.0000  0.0000  1.0000  0.0000      0.0000  0.0000  0.0000  0.0000  0.0000  0.0000  0.0000  0.0000  0.0000  0.0000
  o =  0.7694  v =  0.0000  0.0000  0.0000  0.0000  0.0000  0.0000  0.0000  0.0000  0.0000  1.0000      0.0000  0.0000  0.0000  0.0000  0.0000  0.0000  0.0000  0.0000  0.0000  0.0000
atom =   2  type =  1  l = 2
 
 onsite density matrix
 
spin component  1
 
  0.7694  0.0000  0.0000  0.0000  0.0000
  0.0000  0.7694  0.0000  0.0000  0.0000
  0.0000  0.0000  0.7694  0.0000  0.0000
  0.0000  0.0000  0.0000  0.7694  0.0000
  0.0000  0.0000  0.0000  0.0000  0.7694
 
spin component  2
 
  0.2835  0.0000  0.0000  0.0000  0.0000
  0.0000  0.2835  0.0000  0.0000  0.0000
  0.0000  0.0000  0.2835  0.0000  0.0000
  0.0000  0.0000  0.0000  0.2835  0.0000
  0.0000  0.0000  0.0000  0.0000  0.2835
 
 occupancies and eigenvectors
 
  o =  0.2835  v =  0.0000  0.0000  0.0000  0.0000  0.0000  1.0000  0.0000  0.0000  0.0000  0.0000      0.0000  0.0000  0.0000  0.0000  0.0000  0.0000  0.0000  0.0000  0.0000  0.0000
  o =  0.2835  v =  0.0000  0.0000  0.0000  0.0000  0.0000  0.0000  1.0000  0.0000  0.0000  0.0000      0.0000  0.0000  0.0000  0.0000  0.0000  0.0000  0.0000  0.0000  0.0000  0.0000
  o =  0.2835  v =  0.0000  0.0000  0.0000  0.0000  0.0000  0.0000  0.0000  1.0000  0.0000  0.0000      0.0000  0.0000  0.0000  0.0000  0.0000  0.0000  0.0000  0.0000  0.0000  0.0000
  o =  0.2835  v =  0.0000  0.0000  0.0000  0.0000  0.0000  0.0000  0.0000  0.0000  1.0000  0.0000      0.0000  0.0000  0.0000  0.0000  0.0000  0.0000  0.0000  0.0000  0.0000  0.0000
  o =  0.2835  v =  0.0000  0.0000  0.0000  0.0000  0.0000  0.0000  0.0000  0.0000  0.0000  1.0000      0.0000  0.0000  0.0000  0.0000  0.0000  0.0000  0.0000  0.0000  0.0000  0.0000
  o =  0.7694  v =  1.0000  0.0000  0.0000  0.0000  0.0000  0.0000  0.0000  0.0000  0.0000  0.0000      0.0000  0.0000  0.0000  0.0000  0.0000  0.0000  0.0000  0.0000  0.0000  0.0000
  o =  0.7694  v =  0.0000  1.0000  0.0000  0.0000  0.0000  0.0000  0.0000  0.0000  0.0000  0.0000      0.0000  0.0000  0.0000  0.0000  0.0000  0.0000  0.0000  0.0000  0.0000  0.0000
  o =  0.7694  v =  0.0000  0.0000  1.0000  0.0000  0.0000  0.0000  0.0000  0.0000  0.0000  0.0000      0.0000  0.0000  0.0000  0.0000  0.0000  0.0000  0.0000  0.0000  0.0000  0.0000
  o =  0.7694  v =  0.0000  0.0000  0.0000  1.0000  0.0000  0.0000  0.0000  0.0000  0.0000  0.0000      0.0000  0.0000  0.0000  0.0000  0.0000  0.0000  0.0000  0.0000  0.0000  0.0000
  o =  0.7694  v =  0.0000  0.0000  0.0000  0.0000  1.0000  0.0000  0.0000  0.0000  0.0000  0.0000      0.0000  0.0000  0.0000  0.0000  0.0000  0.0000  0.0000  0.0000  0.0000  0.0000
     EDDAV:  cpu time    0.7235: real time    0.7413
 BZINTS: Fermi energy: 25.166664; 54.000000 electrons
         Band energy: 358.427715;  BLOECHL correction: -0.063573
       DOS:  cpu time    0.0105: real time    0.0105
    --------------------------------------------
      LOOP:  cpu time    1.5485: real time    1.5663

 eigenvalue-minimisations  :  1308
 total energy-change (2. order) : 0.9662864E+03  (-0.3786770E+04)
 number of electron      54.0000000 magnetization       0.0000000
 augmentation part       54.0000000 magnetization       0.0000000

 Free energy of the ion-electron system (eV)
  ---------------------------------------------------
  alpha Z        PSCENC =       196.30408385
  Ewald energy   TEWEN  =     -4180.38209777
  -Hartree energ DENC   =     -2144.86402746
  -exchange      EXHF   =         0.00000000
  -V(xc)+E(xc)   XCENC  =        -3.96111844
  PAW double counting   =      5566.43601843    -5514.68496781
  entropy T*S    EENTRO =         0.00000000
  eigenvalues    EBANDS =       358.42771481
  atomic energy  EATOM  =      6689.01075358
  Solvation  Ediel_sol  =         0.00000000
  ---------------------------------------------------
  free energy    TOTEN  =       966.28635918 eV

  energy without entropy =      966.28635918  energy(sigma->0) =      966.28635918


--------------------------------------------------------------------------------------------------------




--------------------------------------- Iteration      1(   2)  ---------------------------------------


     EDDAV:  cpu time    0.7690: real time    0.7690
 BZINTS: Fermi energy: 12.617488; 54.000000 electrons
         Band energy:-196.259495;  BLOECHL correction: -0.027539
       DOS:  cpu time    0.0098: real time    0.0098
    --------------------------------------------
      LOOP:  cpu time    0.7788: real time    0.7788

 eigenvalue-minimisations  :  1464
 total energy-change (2. order) :-0.5546872E+03  (-0.5310998E+03)
 number of electron      54.0000000 magnetization       0.0000000
 augmentation part       54.0000000 magnetization       0.0000000

 Free energy of the ion-electron system (eV)
  ---------------------------------------------------
  alpha Z        PSCENC =       196.30408385
  Ewald energy   TEWEN  =     -4180.38209777
  -Hartree energ DENC   =     -2144.86402746
  -exchange      EXHF   =         0.00000000
  -V(xc)+E(xc)   XCENC  =        -3.96111844
  PAW double counting   =      5566.43601843    -5514.68496781
  entropy T*S    EENTRO =         0.00000000
  eigenvalues    EBANDS =      -196.25949524
  atomic energy  EATOM  =      6689.01075358
  Solvation  Ediel_sol  =         0.00000000
  ---------------------------------------------------
  free energy    TOTEN  =       411.59914914 eV

  energy without entropy =      411.59914914  energy(sigma->0) =      411.59914914


--------------------------------------------------------------------------------------------------------




--------------------------------------- Iteration      1(   3)  ---------------------------------------


     EDDAV:  cpu time    0.7709: real time    0.7709
 BZINTS: Fermi energy:  9.833690; 54.000000 electrons
         Band energy:-233.055649;  BLOECHL correction:  0.000000
       DOS:  cpu time    0.0017: real time    0.0017
    --------------------------------------------
      LOOP:  cpu time    0.7726: real time    0.7726

 eigenvalue-minimisations  :  1464
 total energy-change (2. order) :-0.3679615E+02  (-0.3645876E+02)
 number of electron      54.0000000 magnetization       0.0000000
 augmentation part       54.0000000 magnetization       0.0000000

 Free energy of the ion-electron system (eV)
  ---------------------------------------------------
  alpha Z        PSCENC =       196.30408385
  Ewald energy   TEWEN  =     -4180.38209777
  -Hartree energ DENC   =     -2144.86402746
  -exchange      EXHF   =         0.00000000
  -V(xc)+E(xc)   XCENC  =        -3.96111844
  PAW double counting   =      5566.43601843    -5514.68496781
  entropy T*S    EENTRO =         0.00000000
  eigenvalues    EBANDS =      -233.05564937
  atomic energy  EATOM  =      6689.01075358
  Solvation  Ediel_sol  =         0.00000000
  ---------------------------------------------------
  free energy    TOTEN  =       374.80299501 eV

  energy without entropy =      374.80299501  energy(sigma->0) =      374.80299501


--------------------------------------------------------------------------------------------------------




--------------------------------------- Iteration      1(   4)  ---------------------------------------


     EDDAV:  cpu time    0.8025: real time    0.8025
 BZINTS: Fermi energy:  9.726073; 54.000000 electrons
         Band energy:-233.597357;  BLOECHL correction:  0.000000
       DOS:  cpu time    0.0017: real time    0.0017
    --------------------------------------------
      LOOP:  cpu time    0.8041: real time    0.8041

 eigenvalue-minimisations  :  1548
 total energy-change (2. order) :-0.5417072E+00  (-0.5410889E+00)
 number of electron      54.0000000 magnetization       0.0000000
 augmentation part       54.0000000 magnetization       0.0000000

 Free energy of the ion-electron system (eV)
  ---------------------------------------------------
  alpha Z        PSCENC =       196.30408385
  Ewald energy   TEWEN  =     -4180.38209777
  -Hartree energ DENC   =     -2144.86402746
  -exchange      EXHF   =         0.00000000
  -V(xc)+E(xc)   XCENC  =        -3.96111844
  PAW double counting   =      5566.43601843    -5514.68496781
  entropy T*S    EENTRO =         0.00000000
  eigenvalues    EBANDS =      -233.59735661
  atomic energy  EATOM  =      6689.01075358
  Solvation  Ediel_sol  =         0.00000000
  ---------------------------------------------------
  free energy    TOTEN  =       374.26128777 eV

  energy without entropy =      374.26128777  energy(sigma->0) =      374.26128777


--------------------------------------------------------------------------------------------------------




--------------------------------------- Iteration      1(   5)  ---------------------------------------


     EDDAV:  cpu time    0.7848: real time    0.7848
 BZINTS: Fermi energy:  9.715679; 54.000000 electrons
         Band energy:-233.605183;  BLOECHL correction:  0.000000
       DOS:  cpu time    0.0017: real time    0.0017
    CHARGE:  cpu time    0.1500: real time    0.1500
    MIXING:  cpu time    0.0005: real time    0.0005
    --------------------------------------------
      LOOP:  cpu time    0.9370: real time    0.9370

 eigenvalue-minimisations  :  1500
 total energy-change (2. order) :-0.7826562E-02  (-0.7825973E-02)
 number of electron      54.0000011 magnetization      -0.0000000
 augmentation part       22.5939303 magnetization      -0.0000000

 Broyden mixing:
  rms(total) = 0.59106E+01    rms(broyden)= 0.59101E+01
  rms(prec ) = 0.61078E+01
  weight for this iteration     100.00

 Free energy of the ion-electron system (eV)
  ---------------------------------------------------
  alpha Z        PSCENC =       196.30408385
  Ewald energy   TEWEN  =     -4180.38209777
  -Hartree energ DENC   =     -2144.86402746
  -exchange      EXHF   =         0.00000000
  -V(xc)+E(xc)   XCENC  =        -3.96111844
  PAW double counting   =      5566.43601843    -5514.68496781
  entropy T*S    EENTRO =         0.00000000
  eigenvalues    EBANDS =      -233.60518317
  atomic energy  EATOM  =      6689.01075358
  Solvation  Ediel_sol  =         0.00000000
  ---------------------------------------------------
  free energy    TOTEN  =       374.25346120 eV

  energy without entropy =      374.25346120  energy(sigma->0) =      374.25346120


--------------------------------------------------------------------------------------------------------




--------------------------------------- Iteration      1(   6)  ---------------------------------------


    POTLOK:  cpu time    0.0332: real time    0.0332
    SETDIJ:  cpu time    0.7930: real time    0.7930
atom =   1  type =  1  l = 2
 
 onsite density matrix
 
spin component  1
 
 -0.0069  0.0000  0.0535  0.0000 -0.0000
  0.0000 -0.0297  0.0000  0.0505  0.0000
  0.0535  0.0000 -0.0376  0.0000  0.0000
  0.0000  0.0505  0.0000 -0.0297  0.0000
 -0.0000  0.0000  0.0000  0.0000 -0.0894
 
spin component  2
 
  1.0841  0.0000 -0.0238  0.0000  0.0000
  0.0000  1.0951  0.0000 -0.0229  0.0000
 -0.0238  0.0000  1.0976  0.0000  0.0000
  0.0000 -0.0229  0.0000  1.0951  0.0000
  0.0000  0.0000  0.0000  0.0000  1.1222
 
 occupancies and eigenvectors
 
  o = -0.0894  v =  0.0000  0.0000 -0.0000  0.0000  1.0000  0.0000  0.0000  0.0000  0.0000  0.0000      0.0000  0.0000  0.0000  0.0000  0.0000  0.0000  0.0000  0.0000  0.0000  0.0000
  o = -0.0802  v =  0.0000 -0.7071  0.0000  0.7071  0.0000  0.0000  0.0000  0.0000  0.0000  0.0000      0.0000  0.0000  0.0000  0.0000  0.0000  0.0000  0.0000  0.0000  0.0000  0.0000
  o = -0.0779  v = -0.6015  0.0000  0.7988  0.0000  0.0000  0.0000  0.0000  0.0000  0.0000  0.0000      0.0000  0.0000  0.0000  0.0000  0.0000  0.0000  0.0000  0.0000  0.0000  0.0000
  o =  0.0208  v =  0.0000 -0.7071  0.0000 -0.7071  0.0000  0.0000  0.0000  0.0000  0.0000  0.0000      0.0000  0.0000  0.0000  0.0000  0.0000  0.0000  0.0000  0.0000  0.0000  0.0000
  o =  0.0334  v =  0.7988  0.0000  0.6015  0.0000  0.0000  0.0000  0.0000  0.0000  0.0000  0.0000      0.0000  0.0000  0.0000  0.0000  0.0000  0.0000  0.0000  0.0000  0.0000  0.0000
  o =  1.0661  v =  0.0000  0.0000  0.0000  0.0000  0.0000  0.7982  0.0000  0.6024  0.0000 -0.0000      0.0000  0.0000  0.0000  0.0000  0.0000  0.0000  0.0000  0.0000  0.0000  0.0000
  o =  1.0722  v =  0.0000  0.0000  0.0000  0.0000  0.0000  0.0000 -0.7071  0.0000 -0.7071 -0.0000      0.0000  0.0000  0.0000  0.0000  0.0000  0.0000  0.0000  0.0000  0.0000  0.0000
  o =  1.1156  v =  0.0000  0.0000  0.0000  0.0000  0.0000 -0.6024  0.0000  0.7982  0.0000 -0.0000      0.0000  0.0000  0.0000  0.0000  0.0000  0.0000  0.0000  0.0000  0.0000  0.0000
  o =  1.1180  v =  0.0000  0.0000  0.0000  0.0000  0.0000  0.0000 -0.7071  0.0000  0.7071 -0.0000      0.0000  0.0000  0.0000  0.0000  0.0000  0.0000  0.0000  0.0000  0.0000  0.0000
  o =  1.1222  v =  0.0000  0.0000  0.0000  0.0000  0.0000  0.0000  0.0000 -0.0000  0.0000 -1.0000      0.0000  0.0000  0.0000  0.0000  0.0000  0.0000  0.0000  0.0000  0.0000  0.0000
atom =   2  type =  1  l = 2
 
 onsite density matrix
 
spin component  1
 
  1.0841  0.0000  0.0238  0.0000 -0.0000
  0.0000  1.0951  0.0000  0.0229  0.0000
  0.0238  0.0000  1.0976  0.0000 -0.0000
  0.0000  0.0229  0.0000  1.0951  0.0000
 -0.0000  0.0000 -0.0000  0.0000  1.1222
 
spin component  2
 
 -0.0069  0.0000 -0.0535  0.0000  0.0000
  0.0000 -0.0297  0.0000 -0.0505  0.0000
 -0.0535  0.0000 -0.0376  0.0000 -0.0000
  0.0000 -0.0505  0.0000 -0.0297  0.0000
  0.0000  0.0000 -0.0000  0.0000 -0.0894
 
 occupancies and eigenvectors
 
  o = -0.0894  v =  0.0000  0.0000  0.0000  0.0000  0.0000  0.0000 -0.0000  0.0000  0.0000  1.0000      0.0000  0.0000  0.0000  0.0000  0.0000  0.0000  0.0000  0.0000  0.0000  0.0000
  o = -0.0802  v =  0.0000  0.0000  0.0000  0.0000  0.0000  0.0000 -0.7071  0.0000 -0.7071 -0.0000      0.0000  0.0000  0.0000  0.0000  0.0000  0.0000  0.0000  0.0000  0.0000  0.0000
  o = -0.0779  v =  0.0000  0.0000  0.0000  0.0000  0.0000 -0.6015 -0.0000 -0.7988  0.0000  0.0000      0.0000  0.0000  0.0000  0.0000  0.0000  0.0000  0.0000  0.0000  0.0000  0.0000
  o =  0.0208  v =  0.0000  0.0000  0.0000  0.0000  0.0000  0.0000 -0.7071  0.0000  0.7071 -0.0000      0.0000  0.0000  0.0000  0.0000  0.0000  0.0000  0.0000  0.0000  0.0000  0.0000
  o =  0.0334  v =  0.0000  0.0000  0.0000  0.0000  0.0000  0.7988 -0.0000 -0.6015  0.0000  0.0000      0.0000  0.0000  0.0000  0.0000  0.0000  0.0000  0.0000  0.0000  0.0000  0.0000
  o =  1.0661  v = -0.7982  0.0000  0.6024  0.0000 -0.0000  0.0000  0.0000  0.0000  0.0000  0.0000      0.0000  0.0000  0.0000  0.0000  0.0000  0.0000  0.0000  0.0000  0.0000  0.0000
  o =  1.0722  v =  0.0000  0.7071  0.0000 -0.7071 -0.0000  0.0000  0.0000  0.0000  0.0000  0.0000      0.0000  0.0000  0.0000  0.0000  0.0000  0.0000  0.0000  0.0000  0.0000  0.0000
  o =  1.1156  v = -0.6024  0.0000 -0.7982  0.0000  0.0000  0.0000  0.0000  0.0000  0.0000  0.0000      0.0000  0.0000  0.0000  0.0000  0.0000  0.0000  0.0000  0.0000  0.0000  0.0000
  o =  1.1180  v =  0.0000  0.7071  0.0000  0.7071 -0.0000  0.0000  0.0000  0.0000  0.0000  0.0000      0.0000  0.0000  0.0000  0.0000  0.0000  0.0000  0.0000  0.0000  0.0000  0.0000
  o =  1.1222  v =  0.0000 -0.0000 -0.0000  0.0000 -1.0000  0.0000  0.0000  0.0000  0.0000  0.0000      0.0000  0.0000  0.0000  0.0000  0.0000  0.0000  0.0000  0.0000  0.0000  0.0000
     EDDAV:  cpu time    0.8377: real time    0.8377
 BZINTS: Fermi energy:  4.211690; 54.000000 electrons
         Band energy:-762.890250;  BLOECHL correction:  0.000000
       DOS:  cpu time    0.0018: real time    0.0018
    CHARGE:  cpu time    0.1500: real time    0.1500
    MIXING:  cpu time    0.0005: real time    0.0005
    --------------------------------------------
      LOOP:  cpu time    1.8163: real time    1.8163

 eigenvalue-minimisations  :  1632
 total energy-change (2. order) :-0.4390645E+03  (-0.2635728E+02)
 number of electron      54.0000010 magnetization      -0.0000000
 augmentation part       20.0210320 magnetization      -0.0000000

 Broyden mixing:
  rms(total) = 0.59745E+01    rms(broyden)= 0.59743E+01
  rms(prec ) = 0.62717E+01
  weight for this iteration     100.00

 eigenvalues of (default mixing * dielectric matrix)
  average eigenvalue GAMMA=   0.4291
  0.4291

 Free energy of the ion-electron system (eV)
  ---------------------------------------------------
  alpha Z        PSCENC =       196.30408385
  Ewald energy   TEWEN  =     -4180.38209777
  -Hartree energ DENC   =     -2210.37015349
  -exchange      EXHF   =         0.00000000
  -V(xc)+E(xc)   XCENC  =       145.31647386
  PAW double counting   =      6408.73007803    -6350.52989046
  entropy T*S    EENTRO =         0.00000000
  eigenvalues    EBANDS =      -762.89024994
  atomic energy  EATOM  =      6689.01075358
  Solvation  Ediel_sol  =         0.00000000
  ---------------------------------------------------
  free energy    TOTEN  =       -64.81100235 eV

  energy without entropy =      -64.81100235  energy(sigma->0) =      -64.81100235


--------------------------------------------------------------------------------------------------------




--------------------------------------- Iteration      1(   7)  ---------------------------------------


    POTLOK:  cpu time    0.0341: real time    0.0341
    SETDIJ:  cpu time    0.7789: real time    0.7789
atom =   1  type =  1  l = 2
 
 onsite density matrix
 
spin component  1
 
  0.0421  0.0000  0.0187  0.0000  0.0000
  0.0000  0.0345  0.0000  0.0173  0.0000
  0.0187  0.0000  0.0315  0.0000  0.0000
  0.0000  0.0173  0.0000  0.0345  0.0000
  0.0000  0.0000  0.0000  0.0000  0.0113
 
spin component  2
 
  1.0209  0.0000  0.0140  0.0000  0.0000
  0.0000  1.0153  0.0000  0.0131  0.0000
  0.0140  0.0000  1.0132  0.0000  0.0000
  0.0000  0.0131  0.0000  1.0153  0.0000
  0.0000  0.0000  0.0000  0.0000  1.0049
 
 occupancies and eigenvectors
 
  o =  0.0113  v =  0.0000  0.0000 -0.0000 -0.0000  1.0000  0.0000  0.0000  0.0000  0.0000  0.0000      0.0000  0.0000  0.0000  0.0000  0.0000  0.0000  0.0000  0.0000  0.0000  0.0000
  o =  0.0173  v = -0.0000  0.7071  0.0000 -0.7071 -0.0000  0.0000  0.0000  0.0000  0.0000  0.0000      0.0000  0.0000  0.0000  0.0000  0.0000  0.0000  0.0000  0.0000  0.0000  0.0000
  o =  0.0174  v =  0.6022  0.0000 -0.7984 -0.0000 -0.0000  0.0000  0.0000  0.0000  0.0000  0.0000      0.0000  0.0000  0.0000  0.0000  0.0000  0.0000  0.0000  0.0000  0.0000  0.0000
  o =  0.0518  v = -0.0000 -0.7071 -0.0000 -0.7071  0.0000  0.0000  0.0000  0.0000  0.0000  0.0000      0.0000  0.0000  0.0000  0.0000  0.0000  0.0000  0.0000  0.0000  0.0000  0.0000
  o =  0.0562  v =  0.7984 -0.0000  0.6022 -0.0000  0.0000  0.0000  0.0000  0.0000  0.0000  0.0000      0.0000  0.0000  0.0000  0.0000  0.0000  0.0000  0.0000  0.0000  0.0000  0.0000
  o =  1.0023  v =  0.0000  0.0000  0.0000  0.0000  0.0000  0.0000  0.7071  0.0000 -0.7071 -0.0000      0.0000  0.0000  0.0000  0.0000  0.0000  0.0000  0.0000  0.0000  0.0000  0.0000
  o =  1.0025  v =  0.0000  0.0000  0.0000  0.0000  0.0000 -0.6056  0.0000  0.7958  0.0000  0.0000      0.0000  0.0000  0.0000  0.0000  0.0000  0.0000  0.0000  0.0000  0.0000  0.0000
  o =  1.0049  v =  0.0000  0.0000  0.0000  0.0000  0.0000  0.0000  0.0000 -0.0000 -0.0000  1.0000      0.0000  0.0000  0.0000  0.0000  0.0000  0.0000  0.0000  0.0000  0.0000  0.0000
  o =  1.0284  v =  0.0000  0.0000  0.0000  0.0000  0.0000  0.0000  0.7071 -0.0000  0.7071  0.0000      0.0000  0.0000  0.0000  0.0000  0.0000  0.0000  0.0000  0.0000  0.0000  0.0000
  o =  1.0316  v =  0.0000  0.0000  0.0000  0.0000  0.0000 -0.7958  0.0000 -0.6056  0.0000 -0.0000      0.0000  0.0000  0.0000  0.0000  0.0000  0.0000  0.0000  0.0000  0.0000  0.0000
atom =   2  type =  1  l = 2
 
 onsite density matrix
 
spin component  1
 
  1.0209  0.0000 -0.0140  0.0000  0.0000
  0.0000  1.0153  0.0000 -0.0131  0.0000
 -0.0140  0.0000  1.0132  0.0000 -0.0000
  0.0000 -0.0131  0.0000  1.0153  0.0000
  0.0000  0.0000 -0.0000  0.0000  1.0049
 
spin component  2
 
  0.0421  0.0000 -0.0187  0.0000 -0.0000
  0.0000  0.0345  0.0000 -0.0173  0.0000
 -0.0187  0.0000  0.0315  0.0000 -0.0000
  0.0000 -0.0173  0.0000  0.0345  0.0000
 -0.0000  0.0000 -0.0000  0.0000  0.0113
 
 occupancies and eigenvectors
 
  o =  0.0113  v =  0.0000  0.0000  0.0000  0.0000  0.0000 -0.0000  0.0000 -0.0000  0.0000 -1.0000      0.0000  0.0000  0.0000  0.0000  0.0000  0.0000  0.0000  0.0000  0.0000  0.0000
  o =  0.0173  v =  0.0000  0.0000  0.0000  0.0000  0.0000 -0.0000  0.7071 -0.0000  0.7071  0.0000      0.0000  0.0000  0.0000  0.0000  0.0000  0.0000  0.0000  0.0000  0.0000  0.0000
  o =  0.0174  v =  0.0000  0.0000  0.0000  0.0000  0.0000 -0.6022 -0.0000 -0.7984 -0.0000  0.0000      0.0000  0.0000  0.0000  0.0000  0.0000  0.0000  0.0000  0.0000  0.0000  0.0000
  o =  0.0518  v =  0.0000  0.0000  0.0000  0.0000  0.0000  0.0000  0.7071 -0.0000 -0.7071 -0.0000      0.0000  0.0000  0.0000  0.0000  0.0000  0.0000  0.0000  0.0000  0.0000  0.0000
  o =  0.0562  v =  0.0000  0.0000  0.0000  0.0000  0.0000 -0.7984  0.0000  0.6022 -0.0000 -0.0000      0.0000  0.0000  0.0000  0.0000  0.0000  0.0000  0.0000  0.0000  0.0000  0.0000
  o =  1.0023  v =  0.0000 -0.7071  0.0000 -0.7071 -0.0000  0.0000  0.0000  0.0000  0.0000  0.0000      0.0000  0.0000  0.0000  0.0000  0.0000  0.0000  0.0000  0.0000  0.0000  0.0000
  o =  1.0025  v = -0.6056  0.0000 -0.7958  0.0000  0.0000  0.0000  0.0000  0.0000  0.0000  0.0000      0.0000  0.0000  0.0000  0.0000  0.0000  0.0000  0.0000  0.0000  0.0000  0.0000
  o =  1.0049  v =  0.0000 -0.0000  0.0000  0.0000  1.0000  0.0000  0.0000  0.0000  0.0000  0.0000      0.0000  0.0000  0.0000  0.0000  0.0000  0.0000  0.0000  0.0000  0.0000  0.0000
  o =  1.0284  v =  0.0000  0.7071  0.0000 -0.7071  0.0000  0.0000  0.0000  0.0000  0.0000  0.0000      0.0000  0.0000  0.0000  0.0000  0.0000  0.0000  0.0000  0.0000  0.0000  0.0000
  o =  1.0316  v = -0.7958  0.0000  0.6056  0.0000 -0.0000  0.0000  0.0000  0.0000  0.0000  0.0000      0.0000  0.0000  0.0000  0.0000  0.0000  0.0000  0.0000  0.0000  0.0000  0.0000
     EDDAV:  cpu time    0.7354: real time    0.7354
 BZINTS: Fermi energy:  2.678787; 54.000000 electrons
         Band energy:-796.157881;  BLOECHL correction:  0.000000
       DOS:  cpu time    0.0020: real time    0.0020
    CHARGE:  cpu time    0.1495: real time    0.1495
    MIXING:  cpu time    0.0006: real time    0.0006
    --------------------------------------------
      LOOP:  cpu time    1.7005: real time    1.7005

 eigenvalue-minimisations  :  1356
 total energy-change (2. order) :-0.4782000E+01  (-0.4968219E+01)
 number of electron      54.0000010 magnetization      -0.0000000
 augmentation part       19.8054411 magnetization      -0.0000000

 Broyden mixing:
  rms(total) = 0.15352E+01    rms(broyden)= 0.15350E+01
  rms(prec ) = 0.22184E+01
  weight for this iteration     100.00

 eigenvalues of (default mixing * dielectric matrix)
  average eigenvalue GAMMA=   0.7166
  0.7166  0.7166

 Free energy of the ion-electron system (eV)
  ---------------------------------------------------
  alpha Z        PSCENC =       196.30408385
  Ewald energy   TEWEN  =     -4180.38209777
  -Hartree energ DENC   =     -2198.86600214
  -exchange      EXHF   =         0.00000000
  -V(xc)+E(xc)   XCENC  =       166.07430091
  PAW double counting   =      6487.51010482    -6433.08626457
  entropy T*S    EENTRO =         0.00000000
  eigenvalues    EBANDS =      -796.15788120
  atomic energy  EATOM  =      6689.01075358
  Solvation  Ediel_sol  =         0.00000000
  ---------------------------------------------------
  free energy    TOTEN  =       -69.59300252 eV

  energy without entropy =      -69.59300252  energy(sigma->0) =      -69.59300252


--------------------------------------------------------------------------------------------------------




--------------------------------------- Iteration      1(   8)  ---------------------------------------


    POTLOK:  cpu time    0.0333: real time    0.0333
    SETDIJ:  cpu time    0.7791: real time    0.7791
atom =   1  type =  1  l = 2
 
 onsite density matrix
 
spin component  1
 
  0.0480  0.0000  0.0211  0.0000 -0.0000
  0.0000  0.0379  0.0000  0.0196  0.0000
  0.0211  0.0000  0.0361  0.0000  0.0000
  0.0000  0.0196  0.0000  0.0379  0.0000
 -0.0000  0.0000  0.0000  0.0000  0.0166
 
spin component  2
 
  0.9924  0.0000  0.0125  0.0000  0.0000
  0.0000  0.9905  0.0000  0.0105  0.0000
  0.0125  0.0000  0.9858  0.0000  0.0000
  0.0000  0.0105  0.0000  0.9905  0.0000
  0.0000  0.0000  0.0000  0.0000  0.9787
 
 occupancies and eigenvectors
 
  o =  0.0166  v =  0.0000  0.0000 -0.0000 -0.0000  1.0000  0.0000  0.0000  0.0000  0.0000  0.0000      0.0000  0.0000  0.0000  0.0000  0.0000  0.0000  0.0000  0.0000  0.0000  0.0000
  o =  0.0183  v = -0.0000  0.7071  0.0000 -0.7071 -0.0000  0.0000  0.0000  0.0000  0.0000  0.0000      0.0000  0.0000  0.0000  0.0000  0.0000  0.0000  0.0000  0.0000  0.0000  0.0000
  o =  0.0201  v =  0.6032  0.0000 -0.7976 -0.0000 -0.0000  0.0000  0.0000  0.0000  0.0000  0.0000      0.0000  0.0000  0.0000  0.0000  0.0000  0.0000  0.0000  0.0000  0.0000  0.0000
  o =  0.0575  v = -0.0000 -0.7071 -0.0000 -0.7071  0.0000  0.0000  0.0000  0.0000  0.0000  0.0000      0.0000  0.0000  0.0000  0.0000  0.0000  0.0000  0.0000  0.0000  0.0000  0.0000
  o =  0.0640  v =  0.7976 -0.0000  0.6032 -0.0000  0.0000  0.0000  0.0000  0.0000  0.0000  0.0000      0.0000  0.0000  0.0000  0.0000  0.0000  0.0000  0.0000  0.0000  0.0000  0.0000
  o =  0.9762  v =  0.0000  0.0000  0.0000  0.0000  0.0000 -0.6104  0.0000  0.7921  0.0000  0.0000      0.0000  0.0000  0.0000  0.0000  0.0000  0.0000  0.0000  0.0000  0.0000  0.0000
  o =  0.9787  v =  0.0000  0.0000  0.0000  0.0000  0.0000  0.0000 -0.0000 -0.0000  0.0000  1.0000      0.0000  0.0000  0.0000  0.0000  0.0000  0.0000  0.0000  0.0000  0.0000  0.0000
  o =  0.9799  v =  0.0000  0.0000  0.0000  0.0000  0.0000  0.0000  0.7071  0.0000 -0.7071  0.0000      0.0000  0.0000  0.0000  0.0000  0.0000  0.0000  0.0000  0.0000  0.0000  0.0000
  o =  1.0010  v =  0.0000  0.0000  0.0000  0.0000  0.0000  0.0000 -0.7071  0.0000 -0.7071 -0.0000      0.0000  0.0000  0.0000  0.0000  0.0000  0.0000  0.0000  0.0000  0.0000  0.0000
  o =  1.0021  v =  0.0000  0.0000  0.0000  0.0000  0.0000 -0.7921  0.0000 -0.6104  0.0000 -0.0000      0.0000  0.0000  0.0000  0.0000  0.0000  0.0000  0.0000  0.0000  0.0000  0.0000
atom =   2  type =  1  l = 2
 
 onsite density matrix
 
spin component  1
 
  0.9924  0.0000 -0.0125  0.0000  0.0000
  0.0000  0.9905  0.0000 -0.0105  0.0000
 -0.0125  0.0000  0.9858  0.0000 -0.0000
  0.0000 -0.0105  0.0000  0.9905  0.0000
  0.0000  0.0000 -0.0000  0.0000  0.9787
 
spin component  2
 
  0.0480  0.0000 -0.0211  0.0000 -0.0000
  0.0000  0.0379  0.0000 -0.0196  0.0000
 -0.0211  0.0000  0.0361  0.0000 -0.0000
  0.0000 -0.0196  0.0000  0.0379  0.0000
 -0.0000  0.0000 -0.0000  0.0000  0.0166
 
 occupancies and eigenvectors
 
  o =  0.0166  v =  0.0000  0.0000  0.0000  0.0000  0.0000  0.0000  0.0000  0.0000  0.0000  1.0000      0.0000  0.0000  0.0000  0.0000  0.0000  0.0000  0.0000  0.0000  0.0000  0.0000
  o =  0.0183  v =  0.0000  0.0000  0.0000  0.0000  0.0000  0.0000 -0.7071  0.0000 -0.7071  0.0000      0.0000  0.0000  0.0000  0.0000  0.0000  0.0000  0.0000  0.0000  0.0000  0.0000
  o =  0.0201  v =  0.0000  0.0000  0.0000  0.0000  0.0000 -0.6032  0.0000 -0.7976  0.0000  0.0000      0.0000  0.0000  0.0000  0.0000  0.0000  0.0000  0.0000  0.0000  0.0000  0.0000
  o =  0.0575  v =  0.0000  0.0000  0.0000  0.0000  0.0000  0.0000  0.7071  0.0000 -0.7071 -0.0000      0.0000  0.0000  0.0000  0.0000  0.0000  0.0000  0.0000  0.0000  0.0000  0.0000
  o =  0.0640  v =  0.0000  0.0000  0.0000  0.0000  0.0000 -0.7976 -0.0000  0.6032  0.0000 -0.0000      0.0000  0.0000  0.0000  0.0000  0.0000  0.0000  0.0000  0.0000  0.0000  0.0000
  o =  0.9762  v = -0.6104  0.0000 -0.7921  0.0000 -0.0000  0.0000  0.0000  0.0000  0.0000  0.0000      0.0000  0.0000  0.0000  0.0000  0.0000  0.0000  0.0000  0.0000  0.0000  0.0000
  o =  0.9787  v = -0.0000  0.0000 -0.0000  0.0000  1.0000  0.0000  0.0000  0.0000  0.0000  0.0000      0.0000  0.0000  0.0000  0.0000  0.0000  0.0000  0.0000  0.0000  0.0000  0.0000
  o =  0.9799  v = -0.0000 -0.7071 -0.0000 -0.7071  0.0000  0.0000  0.0000  0.0000  0.0000  0.0000      0.0000  0.0000  0.0000  0.0000  0.0000  0.0000  0.0000  0.0000  0.0000  0.0000
  o =  1.0010  v = -0.0000 -0.7071  0.0000  0.7071  0.0000  0.0000  0.0000  0.0000  0.0000  0.0000      0.0000  0.0000  0.0000  0.0000  0.0000  0.0000  0.0000  0.0000  0.0000  0.0000
  o =  1.0021  v = -0.7921  0.0000  0.6104 -0.0000 -0.0000  0.0000  0.0000  0.0000  0.0000  0.0000      0.0000  0.0000  0.0000  0.0000  0.0000  0.0000  0.0000  0.0000  0.0000  0.0000
     EDDAV:  cpu time    0.8547: real time    0.8547
 BZINTS: Fermi energy:  1.652137; 54.000000 electrons
         Band energy:-806.185811;  BLOECHL correction:  0.000000
       DOS:  cpu time    0.0020: real time    0.0020
    CHARGE:  cpu time    0.1489: real time    0.1489
    MIXING:  cpu time    0.0006: real time    0.0006
    --------------------------------------------
      LOOP:  cpu time    1.8186: real time    1.8186

 eigenvalue-minimisations  :  1692
 total energy-change (2. order) : 0.2349757E+01  (-0.5264319E+00)
 number of electron      54.0000010 magnetization      -0.0000000
 augmentation part       19.9039268 magnetization      -0.0000000

 Broyden mixing:
  rms(total) = 0.55471E+00    rms(broyden)= 0.55453E+00
  rms(prec ) = 0.87149E+00
  weight for this iteration     100.00

 eigenvalues of (default mixing * dielectric matrix)
  average eigenvalue GAMMA=   0.7629
  1.0079  0.6404  0.6404

 Free energy of the ion-electron system (eV)
  ---------------------------------------------------
  alpha Z        PSCENC =       196.30408385
  Ewald energy   TEWEN  =     -4180.38209777
  -Hartree energ DENC   =     -2190.82335292
  -exchange      EXHF   =         0.00000000
  -V(xc)+E(xc)   XCENC  =       169.86450626
  PAW double counting   =      6429.08016194    -6374.11148963
  entropy T*S    EENTRO =         0.00000000
  eigenvalues    EBANDS =      -806.18581063
  atomic energy  EATOM  =      6689.01075358
  Solvation  Ediel_sol  =         0.00000000
  ---------------------------------------------------
  free energy    TOTEN  =       -67.24324531 eV

  energy without entropy =      -67.24324531  energy(sigma->0) =      -67.24324531


--------------------------------------------------------------------------------------------------------




--------------------------------------- Iteration      1(   9)  ---------------------------------------


    POTLOK:  cpu time    0.0333: real time    0.0333
    SETDIJ:  cpu time    0.7793: real time    0.7793
atom =   1  type =  1  l = 2
 
 onsite density matrix
 
spin component  1
 
  0.0436  0.0000  0.0157  0.0000  0.0000
  0.0000  0.0399  0.0000  0.0129  0.0000
  0.0157  0.0000  0.0356  0.0000 -0.0000
  0.0000  0.0129  0.0000  0.0399  0.0000
  0.0000  0.0000 -0.0000  0.0000  0.0239
 
spin component  2
 
  0.9735  0.0000  0.0205  0.0000 -0.0000
  0.0000  0.9657  0.0000  0.0183  0.0000
  0.0205  0.0000  0.9619  0.0000  0.0000
  0.0000  0.0183  0.0000  0.9657  0.0000
 -0.0000  0.0000  0.0000  0.0000  0.9482
 
 occupancies and eigenvectors
 
  o =  0.0234  v = -0.6139 -0.0000  0.7894  0.0000  0.0000  0.0000  0.0000  0.0000  0.0000  0.0000      0.0000  0.0000  0.0000  0.0000  0.0000  0.0000  0.0000  0.0000  0.0000  0.0000
  o =  0.0239  v = -0.0000  0.0000  0.0000  0.0000 -1.0000  0.0000  0.0000  0.0000  0.0000  0.0000      0.0000  0.0000  0.0000  0.0000  0.0000  0.0000  0.0000  0.0000  0.0000  0.0000
  o =  0.0270  v =  0.0000  0.7071  0.0000 -0.7071  0.0000  0.0000  0.0000  0.0000  0.0000  0.0000      0.0000  0.0000  0.0000  0.0000  0.0000  0.0000  0.0000  0.0000  0.0000  0.0000
  o =  0.0527  v =  0.0000  0.7071  0.0000  0.7071  0.0000  0.0000  0.0000  0.0000  0.0000  0.0000      0.0000  0.0000  0.0000  0.0000  0.0000  0.0000  0.0000  0.0000  0.0000  0.0000
  o =  0.0558  v = -0.7894 -0.0000 -0.6139  0.0000  0.0000  0.0000  0.0000  0.0000  0.0000  0.0000      0.0000  0.0000  0.0000  0.0000  0.0000  0.0000  0.0000  0.0000  0.0000  0.0000
  o =  0.9464  v =  0.0000  0.0000  0.0000  0.0000  0.0000 -0.6025 -0.0000  0.7981  0.0000 -0.0000      0.0000  0.0000  0.0000  0.0000  0.0000  0.0000  0.0000  0.0000  0.0000  0.0000
  o =  0.9475  v =  0.0000  0.0000  0.0000  0.0000  0.0000 -0.0000  0.7071  0.0000 -0.7071  0.0000      0.0000  0.0000  0.0000  0.0000  0.0000  0.0000  0.0000  0.0000  0.0000  0.0000
  o =  0.9482  v =  0.0000  0.0000  0.0000  0.0000  0.0000 -0.0000 -0.0000  0.0000  0.0000  1.0000      0.0000  0.0000  0.0000  0.0000  0.0000  0.0000  0.0000  0.0000  0.0000  0.0000
  o =  0.9840  v =  0.0000  0.0000  0.0000  0.0000  0.0000  0.0000  0.7071  0.0000  0.7071 -0.0000      0.0000  0.0000  0.0000  0.0000  0.0000  0.0000  0.0000  0.0000  0.0000  0.0000
  o =  0.9890  v =  0.0000  0.0000  0.0000  0.0000  0.0000 -0.7981  0.0000 -0.6025  0.0000 -0.0000      0.0000  0.0000  0.0000  0.0000  0.0000  0.0000  0.0000  0.0000  0.0000  0.0000
atom =   2  type =  1  l = 2
 
 onsite density matrix
 
spin component  1
 
  0.9735  0.0000 -0.0205  0.0000 -0.0000
  0.0000  0.9657  0.0000 -0.0183  0.0000
 -0.0205  0.0000  0.9619  0.0000  0.0000
  0.0000 -0.0183  0.0000  0.9657  0.0000
 -0.0000  0.0000  0.0000  0.0000  0.9482
 
spin component  2
 
  0.0436  0.0000 -0.0157  0.0000  0.0000
  0.0000  0.0399  0.0000 -0.0129  0.0000
 -0.0157  0.0000  0.0356  0.0000 -0.0000
  0.0000 -0.0129  0.0000  0.0399  0.0000
  0.0000  0.0000 -0.0000  0.0000  0.0239
 
 occupancies and eigenvectors
 
  o =  0.0234  v =  0.0000  0.0000  0.0000  0.0000  0.0000 -0.6139  0.0000 -0.7894  0.0000 -0.0000      0.0000  0.0000  0.0000  0.0000  0.0000  0.0000  0.0000  0.0000  0.0000  0.0000
  o =  0.0239  v =  0.0000  0.0000  0.0000  0.0000  0.0000 -0.0000 -0.0000 -0.0000  0.0000  1.0000      0.0000  0.0000  0.0000  0.0000  0.0000  0.0000  0.0000  0.0000  0.0000  0.0000
  o =  0.0270  v =  0.0000  0.0000  0.0000  0.0000  0.0000  0.0000 -0.7071  0.0000 -0.7071 -0.0000      0.0000  0.0000  0.0000  0.0000  0.0000  0.0000  0.0000  0.0000  0.0000  0.0000
  o =  0.0527  v =  0.0000  0.0000  0.0000  0.0000  0.0000  0.0000  0.7071  0.0000 -0.7071  0.0000      0.0000  0.0000  0.0000  0.0000  0.0000  0.0000  0.0000  0.0000  0.0000  0.0000
  o =  0.0558  v =  0.0000  0.0000  0.0000  0.0000  0.0000 -0.7894  0.0000  0.6139  0.0000 -0.0000      0.0000  0.0000  0.0000  0.0000  0.0000  0.0000  0.0000  0.0000  0.0000  0.0000
  o =  0.9464  v = -0.6025  0.0000 -0.7981  0.0000 -0.0000  0.0000  0.0000  0.0000  0.0000  0.0000      0.0000  0.0000  0.0000  0.0000  0.0000  0.0000  0.0000  0.0000  0.0000  0.0000
  o =  0.9475  v =  0.0000 -0.7071  0.0000 -0.7071  0.0000  0.0000  0.0000  0.0000  0.0000  0.0000      0.0000  0.0000  0.0000  0.0000  0.0000  0.0000  0.0000  0.0000  0.0000  0.0000
  o =  0.9482  v =  0.0000 -0.0000  0.0000  0.0000 -1.0000  0.0000  0.0000  0.0000  0.0000  0.0000      0.0000  0.0000  0.0000  0.0000  0.0000  0.0000  0.0000  0.0000  0.0000  0.0000
  o =  0.9840  v =  0.0000 -0.7071  0.0000  0.7071  0.0000  0.0000  0.0000  0.0000  0.0000  0.0000      0.0000  0.0000  0.0000  0.0000  0.0000  0.0000  0.0000  0.0000  0.0000  0.0000
  o =  0.9890  v = -0.7981  0.0000  0.6025  0.0000  0.0000  0.0000  0.0000  0.0000  0.0000  0.0000      0.0000  0.0000  0.0000  0.0000  0.0000  0.0000  0.0000  0.0000  0.0000  0.0000
     EDDAV:  cpu time    0.8081: real time    0.8081
 BZINTS: Fermi energy:  0.731827; 54.000000 electrons
         Band energy:-814.272546;  BLOECHL correction:  0.000000
       DOS:  cpu time    0.0020: real time    0.0020
    CHARGE:  cpu time    0.1488: real time    0.1488
    MIXING:  cpu time    0.0007: real time    0.0007
    --------------------------------------------
      LOOP:  cpu time    1.7721: real time    1.7722

 eigenvalue-minimisations  :  1572
 total energy-change (2. order) : 0.4579477E+00  (-0.3976717E+00)
 number of electron      54.0000009 magnetization       0.0000000
 augmentation part       20.0170434 magnetization       0.0000000

 Broyden mixing:
  rms(total) = 0.80016E+00    rms(broyden)= 0.80013E+00
  rms(prec ) = 0.85467E+00
  weight for this iteration     100.00

 eigenvalues of (default mixing * dielectric matrix)
  average eigenvalue GAMMA=   0.9632
  1.7819  0.5772  0.7468  0.7468

 Free energy of the ion-electron system (eV)
  ---------------------------------------------------
  alpha Z        PSCENC =       196.30408385
  Ewald energy   TEWEN  =     -4180.38209777
  -Hartree energ DENC   =     -2181.02830800
  -exchange      EXHF   =         0.00000000
  -V(xc)+E(xc)   XCENC  =       168.34860772
  PAW double counting   =      6452.41415643    -6397.17994756
  entropy T*S    EENTRO =         0.00000000
  eigenvalues    EBANDS =      -814.27254586
  atomic energy  EATOM  =      6689.01075358
  Solvation  Ediel_sol  =         0.00000000
  ---------------------------------------------------
  free energy    TOTEN  =       -66.78529761 eV

  energy without entropy =      -66.78529761  energy(sigma->0) =      -66.78529761


--------------------------------------------------------------------------------------------------------




--------------------------------------- Iteration      1(  10)  ---------------------------------------


    POTLOK:  cpu time    0.0338: real time    0.0338
    SETDIJ:  cpu time    1.0121: real time    1.0121
atom =   1  type =  1  l = 2
 
 onsite density matrix
 
spin component  1
 
  0.0484  0.0000  0.0217  0.0000  0.0000
  0.0000  0.0395  0.0000  0.0188  0.0000
  0.0217  0.0000  0.0361  0.0000  0.0000
  0.0000  0.0188  0.0000  0.0395  0.0000
  0.0000  0.0000  0.0000  0.0000  0.0208
 
spin component  2
 
  0.9652  0.0000  0.0165  0.0000 -0.0000
  0.0000  0.9619  0.0000  0.0139  0.0000
  0.0165  0.0000  0.9567  0.0000 -0.0000
  0.0000  0.0139  0.0000  0.9619  0.0000
 -0.0000  0.0000 -0.0000  0.0000  0.9459
 
 occupancies and eigenvectors
 
  o =  0.0197  v = -0.6036  0.0000  0.7973  0.0000 -0.0000  0.0000  0.0000  0.0000  0.0000  0.0000      0.0000  0.0000  0.0000  0.0000  0.0000  0.0000  0.0000  0.0000  0.0000  0.0000
  o =  0.0208  v =  0.0000  0.7071  0.0000 -0.7071  0.0000  0.0000  0.0000  0.0000  0.0000  0.0000      0.0000  0.0000  0.0000  0.0000  0.0000  0.0000  0.0000  0.0000  0.0000  0.0000
  o =  0.0208  v = -0.0000 -0.0000  0.0000  0.0000  1.0000  0.0000  0.0000  0.0000  0.0000  0.0000      0.0000  0.0000  0.0000  0.0000  0.0000  0.0000  0.0000  0.0000  0.0000  0.0000
  o =  0.0583  v =  0.0000 -0.7071  0.0000 -0.7071 -0.0000  0.0000  0.0000  0.0000  0.0000  0.0000      0.0000  0.0000  0.0000  0.0000  0.0000  0.0000  0.0000  0.0000  0.0000  0.0000
  o =  0.0648  v = -0.7973  0.0000 -0.6036  0.0000 -0.0000  0.0000  0.0000  0.0000  0.0000  0.0000      0.0000  0.0000  0.0000  0.0000  0.0000  0.0000  0.0000  0.0000  0.0000  0.0000
  o =  0.9439  v =  0.0000  0.0000  0.0000  0.0000  0.0000 -0.6122 -0.0000  0.7907  0.0000  0.0000      0.0000  0.0000  0.0000  0.0000  0.0000  0.0000  0.0000  0.0000  0.0000  0.0000
  o =  0.9459  v =  0.0000  0.0000  0.0000  0.0000  0.0000 -0.0000  0.0000  0.0000 -0.0000 -1.0000      0.0000  0.0000  0.0000  0.0000  0.0000  0.0000  0.0000  0.0000  0.0000  0.0000
  o =  0.9481  v =  0.0000  0.0000  0.0000  0.0000  0.0000 -0.0000 -0.7071  0.0000  0.7071 -0.0000      0.0000  0.0000  0.0000  0.0000  0.0000  0.0000  0.0000  0.0000  0.0000  0.0000
  o =  0.9758  v =  0.0000  0.0000  0.0000  0.0000  0.0000  0.0000  0.7071  0.0000  0.7071  0.0000      0.0000  0.0000  0.0000  0.0000  0.0000  0.0000  0.0000  0.0000  0.0000  0.0000
  o =  0.9780  v =  0.0000  0.0000  0.0000  0.0000  0.0000 -0.7907  0.0000 -0.6122  0.0000  0.0000      0.0000  0.0000  0.0000  0.0000  0.0000  0.0000  0.0000  0.0000  0.0000  0.0000
atom =   2  type =  1  l = 2
 
 onsite density matrix
 
spin component  1
 
  0.9652  0.0000 -0.0165  0.0000 -0.0000
  0.0000  0.9619  0.0000 -0.0139  0.0000
 -0.0165  0.0000  0.9567  0.0000  0.0000
  0.0000 -0.0139  0.0000  0.9619  0.0000
 -0.0000  0.0000  0.0000  0.0000  0.9459
 
spin component  2
 
  0.0484  0.0000 -0.0217  0.0000 -0.0000
  0.0000  0.0395  0.0000 -0.0188  0.0000
 -0.0217  0.0000  0.0361  0.0000  0.0000
  0.0000 -0.0188  0.0000  0.0395  0.0000
 -0.0000  0.0000  0.0000  0.0000  0.0208
 
 occupancies and eigenvectors
 
  o =  0.0197  v =  0.0000  0.0000  0.0000  0.0000  0.0000 -0.6036  0.0000 -0.7973  0.0000  0.0000      0.0000  0.0000  0.0000  0.0000  0.0000  0.0000  0.0000  0.0000  0.0000  0.0000
  o =  0.0208  v =  0.0000  0.0000  0.0000  0.0000  0.0000  0.0000 -0.7071  0.0000 -0.7071  0.0000      0.0000  0.0000  0.0000  0.0000  0.0000  0.0000  0.0000  0.0000  0.0000  0.0000
  o =  0.0208  v =  0.0000  0.0000  0.0000  0.0000  0.0000 -0.0000 -0.0000 -0.0000  0.0000 -1.0000      0.0000  0.0000  0.0000  0.0000  0.0000  0.0000  0.0000  0.0000  0.0000  0.0000
  o =  0.0583  v =  0.0000  0.0000  0.0000  0.0000  0.0000  0.0000 -0.7071  0.0000  0.7071  0.0000      0.0000  0.0000  0.0000  0.0000  0.0000  0.0000  0.0000  0.0000  0.0000  0.0000
  o =  0.0648  v =  0.0000  0.0000  0.0000  0.0000  0.0000 -0.7973  0.0000  0.6036  0.0000  0.0000      0.0000  0.0000  0.0000  0.0000  0.0000  0.0000  0.0000  0.0000  0.0000  0.0000
  o =  0.9439  v = -0.6122  0.0000 -0.7907  0.0000 -0.0000  0.0000  0.0000  0.0000  0.0000  0.0000      0.0000  0.0000  0.0000  0.0000  0.0000  0.0000  0.0000  0.0000  0.0000  0.0000
  o =  0.9459  v =  0.0000 -0.0000  0.0000  0.0000 -1.0000  0.0000  0.0000  0.0000  0.0000  0.0000      0.0000  0.0000  0.0000  0.0000  0.0000  0.0000  0.0000  0.0000  0.0000  0.0000
  o =  0.9481  v =  0.0000  0.7071  0.0000  0.7071 -0.0000  0.0000  0.0000  0.0000  0.0000  0.0000      0.0000  0.0000  0.0000  0.0000  0.0000  0.0000  0.0000  0.0000  0.0000  0.0000
  o =  0.9758  v =  0.0000  0.7071  0.0000 -0.7071 -0.0000  0.0000  0.0000  0.0000  0.0000  0.0000      0.0000  0.0000  0.0000  0.0000  0.0000  0.0000  0.0000  0.0000  0.0000  0.0000
  o =  0.9780  v = -0.7907  0.0000  0.6122  0.0000  0.0000  0.0000  0.0000  0.0000  0.0000  0.0000      0.0000  0.0000  0.0000  0.0000  0.0000  0.0000  0.0000  0.0000  0.0000  0.0000
     EDDAV:  cpu time    0.7349: real time    0.7349
 BZINTS: Fermi energy:  0.735387; 54.000000 electrons
         Band energy:-815.889401;  BLOECHL correction:  0.000000
       DOS:  cpu time    0.0017: real time    0.0017
    CHARGE:  cpu time    0.1529: real time    0.1529
    MIXING:  cpu time    0.0007: real time    0.0007
    --------------------------------------------
      LOOP:  cpu time    1.9361: real time    1.9361

 eigenvalue-minimisations  :  1332
 total energy-change (2. order) : 0.3254226E-01  (-0.4882465E-01)
 number of electron      54.0000009 magnetization       0.0000000
 augmentation part       19.9969594 magnetization       0.0000000

 Broyden mixing:
  rms(total) = 0.53096E+00    rms(broyden)= 0.53096E+00
  rms(prec ) = 0.58859E+00
  weight for this iteration     100.00

 eigenvalues of (default mixing * dielectric matrix)
  average eigenvalue GAMMA=   1.1755
  2.5534  1.0239  1.0239  0.6382  0.6382

 Free energy of the ion-electron system (eV)
  ---------------------------------------------------
  alpha Z        PSCENC =       196.30408385
  Ewald energy   TEWEN  =     -4180.38209777
  -Hartree energ DENC   =     -2175.54345890
  -exchange      EXHF   =         0.00000000
  -V(xc)+E(xc)   XCENC  =       165.96680830
  PAW double counting   =      6520.63092474    -6466.85036857
  entropy T*S    EENTRO =         0.00000000
  eigenvalues    EBANDS =      -815.88940057
  atomic energy  EATOM  =      6689.01075358
  Solvation  Ediel_sol  =         0.00000000
  ---------------------------------------------------
  free energy    TOTEN  =       -66.75275534 eV

  energy without entropy =      -66.75275534  energy(sigma->0) =      -66.75275534


--------------------------------------------------------------------------------------------------------




--------------------------------------- Iteration      1(  11)  ---------------------------------------


    POTLOK:  cpu time    0.0334: real time    0.0334
    SETDIJ:  cpu time    0.7814: real time    0.7815
atom =   1  type =  1  l = 2
 
 onsite density matrix
 
spin component  1
 
  0.0363  0.0000  0.0227  0.0000 -0.0000
  0.0000  0.0289  0.0000  0.0193  0.0000
  0.0227  0.0000  0.0242  0.0000  0.0000
  0.0000  0.0193  0.0000  0.0289  0.0000
 -0.0000  0.0000  0.0000  0.0000  0.0070
 
spin component  2
 
  0.9791  0.0000  0.0191  0.0000  0.0000
  0.0000  0.9730  0.0000  0.0167  0.0000
  0.0191  0.0000  0.9678  0.0000 -0.0000
  0.0000  0.0167  0.0000  0.9730  0.0000
  0.0000  0.0000 -0.0000  0.0000  0.9570
 
 occupancies and eigenvectors
 
  o =  0.0067  v = -0.6097 -0.0000  0.7926  0.0000 -0.0000  0.0000  0.0000  0.0000  0.0000  0.0000      0.0000  0.0000  0.0000  0.0000  0.0000  0.0000  0.0000  0.0000  0.0000  0.0000
  o =  0.0070  v = -0.0000  0.0000  0.0000 -0.0000  1.0000  0.0000  0.0000  0.0000  0.0000  0.0000      0.0000  0.0000  0.0000  0.0000  0.0000  0.0000  0.0000  0.0000  0.0000  0.0000
  o =  0.0096  v = -0.0000 -0.7071  0.0000  0.7071  0.0000  0.0000  0.0000  0.0000  0.0000  0.0000      0.0000  0.0000  0.0000  0.0000  0.0000  0.0000  0.0000  0.0000  0.0000  0.0000
  o =  0.0483  v =  0.0000 -0.7071  0.0000 -0.7071 -0.0000  0.0000  0.0000  0.0000  0.0000  0.0000      0.0000  0.0000  0.0000  0.0000  0.0000  0.0000  0.0000  0.0000  0.0000  0.0000
  o =  0.0538  v = -0.7926 -0.0000 -0.6097 -0.0000 -0.0000  0.0000  0.0000  0.0000  0.0000  0.0000      0.0000  0.0000  0.0000  0.0000  0.0000  0.0000  0.0000  0.0000  0.0000  0.0000
  o =  0.9535  v =  0.0000  0.0000  0.0000  0.0000  0.0000 -0.5985  0.0000  0.8012 -0.0000  0.0000      0.0000  0.0000  0.0000  0.0000  0.0000  0.0000  0.0000  0.0000  0.0000  0.0000
  o =  0.9563  v =  0.0000  0.0000  0.0000  0.0000  0.0000  0.0000  0.7071 -0.0000 -0.7071 -0.0000      0.0000  0.0000  0.0000  0.0000  0.0000  0.0000  0.0000  0.0000  0.0000  0.0000
  o =  0.9570  v =  0.0000  0.0000  0.0000  0.0000  0.0000  0.0000  0.0000 -0.0000 -0.0000  1.0000      0.0000  0.0000  0.0000  0.0000  0.0000  0.0000  0.0000  0.0000  0.0000  0.0000
  o =  0.9897  v =  0.0000  0.0000  0.0000  0.0000  0.0000 -0.0000 -0.7071 -0.0000 -0.7071  0.0000      0.0000  0.0000  0.0000  0.0000  0.0000  0.0000  0.0000  0.0000  0.0000  0.0000
  o =  0.9933  v =  0.0000  0.0000  0.0000  0.0000  0.0000 -0.8012  0.0000 -0.5985  0.0000  0.0000      0.0000  0.0000  0.0000  0.0000  0.0000  0.0000  0.0000  0.0000  0.0000  0.0000
atom =   2  type =  1  l = 2
 
 onsite density matrix
 
spin component  1
 
  0.9791  0.0000 -0.0191  0.0000  0.0000
  0.0000  0.9730  0.0000 -0.0167  0.0000
 -0.0191  0.0000  0.9678  0.0000 -0.0000
  0.0000 -0.0167  0.0000  0.9730  0.0000
  0.0000  0.0000 -0.0000  0.0000  0.9570
 
spin component  2
 
  0.0363  0.0000 -0.0227  0.0000  0.0000
  0.0000  0.0289  0.0000 -0.0193  0.0000
 -0.0227  0.0000  0.0242  0.0000  0.0000
  0.0000 -0.0193  0.0000  0.0289  0.0000
  0.0000  0.0000  0.0000  0.0000  0.0070
 
 occupancies and eigenvectors
 
  o =  0.0067  v =  0.0000  0.0000  0.0000  0.0000  0.0000 -0.6097 -0.0000 -0.7926  0.0000  0.0000      0.0000  0.0000  0.0000  0.0000  0.0000  0.0000  0.0000  0.0000  0.0000  0.0000
  o =  0.0070  v =  0.0000  0.0000  0.0000  0.0000  0.0000 -0.0000  0.0000 -0.0000  0.0000 -1.0000      0.0000  0.0000  0.0000  0.0000  0.0000  0.0000  0.0000  0.0000  0.0000  0.0000
  o =  0.0096  v =  0.0000  0.0000  0.0000  0.0000  0.0000  0.0000  0.7071  0.0000  0.7071  0.0000      0.0000  0.0000  0.0000  0.0000  0.0000  0.0000  0.0000  0.0000  0.0000  0.0000
  o =  0.0483  v =  0.0000  0.0000  0.0000  0.0000  0.0000  0.0000  0.7071  0.0000 -0.7071  0.0000      0.0000  0.0000  0.0000  0.0000  0.0000  0.0000  0.0000  0.0000  0.0000  0.0000
  o =  0.0538  v =  0.0000  0.0000  0.0000  0.0000  0.0000 -0.7926 -0.0000  0.6097  0.0000  0.0000      0.0000  0.0000  0.0000  0.0000  0.0000  0.0000  0.0000  0.0000  0.0000  0.0000
  o =  0.9535  v = -0.5985  0.0000 -0.8012  0.0000 -0.0000  0.0000  0.0000  0.0000  0.0000  0.0000      0.0000  0.0000  0.0000  0.0000  0.0000  0.0000  0.0000  0.0000  0.0000  0.0000
  o =  0.9563  v =  0.0000 -0.7071  0.0000 -0.7071 -0.0000  0.0000  0.0000  0.0000  0.0000  0.0000      0.0000  0.0000  0.0000  0.0000  0.0000  0.0000  0.0000  0.0000  0.0000  0.0000
  o =  0.9570  v = -0.0000 -0.0000 -0.0000  0.0000  1.0000  0.0000  0.0000  0.0000  0.0000  0.0000      0.0000  0.0000  0.0000  0.0000  0.0000  0.0000  0.0000  0.0000  0.0000  0.0000
[...]
     33       9.3881      0.00000
     34      10.2992      0.00000
     35      10.6850      0.00000
     36      11.7995      0.00000

 k-point     7 :       0.1250    0.1250    0.4167
  band No.  band energies     occupation 
      1     -49.4063      1.00000
      2     -49.3676      1.00000
      3     -49.3509      1.00000
      4     -42.7908      1.00000
      5     -42.7442      1.00000
      6     -42.7208      1.00000
      7     -22.6567      1.00000
      8     -22.5384      1.00000
      9     -22.4946      1.00000
     10     -22.4048      1.00000
     11      -4.7132      1.00000
     12      -4.3538      1.00000
     13      -4.0204      1.00000
     14      -3.9702      1.00000
     15      -3.8802      1.00000
     16      -3.6103      1.00000
     17      -3.1405      1.00000
     18      -2.9931      1.00000
     19      -2.8821      1.00000
     20      -2.4905      1.00000
     21      -2.3146      1.00000
     22      -2.2747      1.00000
     23      -1.0791      1.00000
     24      -0.8291      1.00000
     25      -0.4878      1.00000
     26       0.0267      1.00000
     27       0.3685      1.00000
     28       7.9377      0.00000
     29       7.9611      0.00000
     30       7.9685      0.00000
     31       8.7890      0.00000
     32       8.9083      0.00000
     33       9.2964      0.00000
     34      11.2627      0.00000
     35      12.5630      0.00000
     36      12.9029      0.00000

 k-point     8 :       0.3750    0.1250    0.4167
  band No.  band energies     occupation 
      1     -49.4063      1.00000
      2     -49.3676      1.00000
      3     -49.3509      1.00000
      4     -42.7908      1.00000
      5     -42.7442      1.00000
      6     -42.7208      1.00000
      7     -22.6040      1.00000
      8     -22.5530      1.00000
      9     -22.5063      1.00000
     10     -22.4310      1.00000
     11      -4.5352      1.00000
     12      -4.4486      1.00000
     13      -4.3460      1.00000
     14      -4.0497      1.00000
     15      -3.8892      1.00000
     16      -3.4261      1.00000
     17      -3.2644      1.00000
     18      -3.0942      1.00000
     19      -2.7528      1.00000
     20      -2.4395      1.00000
     21      -2.2111      1.00000
     22      -2.1077      1.00000
     23      -1.0710      1.00000
     24      -0.8854      1.00000
     25      -0.5883      1.00000
     26      -0.0154      1.00000
     27       0.5818      1.00000
     28       7.9463      0.00000
     29       7.9693      0.00000
     30       8.1775      0.00000
     31       8.7343      0.00000
     32       9.3423      0.00000
     33       9.5370      0.00000
     34      11.0010      0.00000
     35      11.5041      0.00000
     36      12.7973      0.00000

 k-point     9 :       0.3750    0.3750    0.4167
  band No.  band energies     occupation 
      1     -49.4063      1.00000
      2     -49.3676      1.00000
      3     -49.3509      1.00000
      4     -42.7908      1.00000
      5     -42.7442      1.00000
      6     -42.7209      1.00000
      7     -22.5870      1.00000
      8     -22.5735      1.00000
      9     -22.5083      1.00000
     10     -22.4224      1.00000
     11      -4.7877      1.00000
     12      -4.5446      1.00000
     13      -4.3306      1.00000
     14      -4.2672      1.00000
     15      -3.9514      1.00000
     16      -3.4474      1.00000
     17      -3.1214      1.00000
     18      -2.8575      1.00000
     19      -2.5726      1.00000
     20      -2.2681      1.00000
     21      -2.1396      1.00000
     22      -2.0585      1.00000
     23      -1.0723      1.00000
     24      -0.8766      1.00000
     25      -0.6356      1.00000
     26       0.0294      1.00000
     27       0.5252      1.00000
     28       7.9555      0.00000
     29       8.0139      0.00000
     30       8.2237      0.00000
     31       8.7631      0.00000
     32       9.1773      0.00000
     33       9.9672      0.00000
     34      11.5179      0.00000
     35      11.6229      0.00000
     36      11.8182      0.00000


--------------------------------------------------------------------------------------------------------


 soft charge-density along one line, spin component           1
         0         1         2         3         4         5         6         7         8         9
 total charge-density along one line
 
 soft charge-density along one line, spin component           2
         0         1         2         3         4         5         6         7         8         9
 total charge-density along one line
 
 pseudopotential strength for first ion, spin component:           1
-45.246  -0.000  -0.033   7.822   0.000   0.013  -0.000  -0.000
 -0.000 -45.212  -0.000   0.000   7.808   0.000  -0.000   0.000
 -0.033  -0.000 -45.246   0.013   0.000   7.822   0.000  -0.000
  7.822   0.000   0.013   5.610  -0.000   0.008   0.000   0.000
  0.000   7.808   0.000  -0.000   5.600  -0.000   0.000   0.000
  0.013   0.000   7.822   0.008  -0.000   5.610   0.000   0.000
 -0.000  -0.000   0.000   0.000   0.000   0.000  -1.390  -0.000
 -0.000   0.000  -0.000   0.000   0.000   0.000  -0.000  -1.346
 -0.000  -0.000   0.000   0.000   0.000   0.000  -0.056  -0.000
 -0.000   0.000  -0.000   0.000   0.000   0.000  -0.000  -0.078
 -0.000   0.000  -0.000   0.000  -0.000  -0.000  -0.000   0.000
 -0.000  -0.000   0.000   0.000   0.000   0.000  -1.856  -0.000
 -0.000   0.000  -0.000   0.000   0.000   0.000  -0.000  -1.812
 -0.000  -0.000   0.000   0.000   0.000  -0.000  -0.060  -0.000
 -0.000   0.000  -0.000   0.000   0.000   0.000  -0.000  -0.080
 -0.000   0.000  -0.000   0.000  -0.000  -0.000  -0.000   0.000
  0.000   0.000  -0.000  -0.000   0.000   0.000   0.010   0.000
  0.000   0.000  -0.000   0.000   0.000   0.000   0.019   0.000
 pseudopotential strength for first ion, spin component:           2
-51.093  -0.000  -0.006   9.846   0.000   0.013   0.000  -0.000
 -0.000 -51.092  -0.000   0.000   9.833   0.000  -0.000   0.000
 -0.006  -0.000 -51.093   0.013   0.000   9.846  -0.000  -0.000
  9.846   0.000   0.013   4.695  -0.000   0.000  -0.000   0.000
  0.000   9.833   0.000  -0.000   4.694  -0.000   0.000  -0.000
  0.013   0.000   9.846   0.000  -0.000   4.695  -0.000   0.000
  0.000  -0.000  -0.000  -0.000   0.000  -0.000  -9.105  -0.000
 -0.000   0.000  -0.000   0.000  -0.000   0.000  -0.000  -9.075
  0.000  -0.000  -0.000  -0.000   0.000   0.000  -0.073  -0.000
 -0.000  -0.000  -0.000   0.000   0.000   0.000  -0.000  -0.083
 -0.000   0.000  -0.000  -0.000  -0.000  -0.000   0.000   0.000
  0.000  -0.000  -0.000  -0.000   0.000  -0.000  -9.625  -0.000
 -0.000   0.000  -0.000   0.000  -0.000   0.000  -0.000  -9.594
  0.000  -0.000  -0.000  -0.000   0.000   0.000  -0.075  -0.000
 -0.000  -0.000  -0.000   0.000  -0.000   0.000  -0.000  -0.084
 -0.000   0.000  -0.000  -0.000  -0.000  -0.000   0.000   0.000
  0.000   0.000  -0.000  -0.000   0.000  -0.000   0.008   0.000
  0.000   0.000  -0.000  -0.000   0.000  -0.000   0.018   0.000
 total augmentation occupancy for first ion, spin component:           1
  2.001   0.000   0.000  -0.012   0.000   0.001   0.000   0.000   0.000   0.000   0.000   0.000   0.000   0.000   0.000   0.000
  0.000   2.001   0.000   0.000  -0.013   0.000   0.000   0.000   0.000   0.000   0.000   0.000   0.000   0.000   0.000   0.000
  0.000   0.000   2.001   0.001   0.000  -0.012   0.000   0.000   0.000   0.000   0.000   0.000   0.000   0.000   0.000   0.000
 -0.012   0.000   0.001   0.078   0.000  -0.008   0.000   0.000   0.000   0.000   0.000   0.000   0.000   0.000   0.000   0.000
  0.000  -0.013   0.000   0.000   0.089   0.000   0.000   0.000   0.000   0.000   0.000   0.000   0.000   0.000   0.000   0.000
  0.001   0.000  -0.012  -0.008   0.000   0.078   0.000   0.000   0.000   0.000   0.000   0.000   0.000   0.000   0.000   0.000
  0.000   0.000   0.000   0.000   0.000   0.000   7.797   0.000   2.997   0.000   0.000  -5.775   0.000  -2.810   0.000  -0.000
  0.000   0.000   0.000   0.000   0.000   0.000   0.000   6.662   0.000   2.579   0.000   0.000  -4.693   0.000  -2.420   0.000
  0.000   0.000   0.000   0.000   0.000   0.000   2.997   0.000   6.057   0.000  -0.000  -2.811   0.000  -4.150   0.000  -0.000
  0.000   0.000   0.000   0.000   0.000   0.000   0.000   2.579   0.000   6.662   0.000   0.000  -2.420   0.000  -4.693   0.000
  0.000   0.000   0.000   0.000   0.000   0.000   0.000   0.000   0.000   0.000   3.931  -0.000   0.000   0.000   0.000  -2.119
  0.000   0.000   0.000   0.000   0.000   0.000  -5.775   0.000  -2.811   0.000   0.000   4.926   0.000   2.661   0.000   0.000
  0.000   0.000   0.000   0.000   0.000   0.000   0.000  -4.693   0.000  -2.420   0.000   0.000   3.887   0.000   2.292   0.000
  0.000   0.000   0.000   0.000   0.000   0.000  -2.810   0.000  -4.150   0.000  -0.000   2.661   0.000   3.394   0.000  -0.000
  0.000   0.000   0.000   0.000   0.000   0.000   0.000  -2.420   0.000  -4.693   0.000   0.000   2.292   0.000   3.887   0.000
  0.000   0.000   0.000   0.000   0.000   0.000  -0.000   0.000   0.000   0.000  -2.119   0.000   0.000  -0.000   0.000   1.438
  0.000   0.000   0.000   0.000   0.000   0.000   0.381   0.000  -0.322   0.000   0.000  -0.364   0.000   0.303   0.000  -0.000
  0.000   0.000   0.000   0.000   0.000   0.000  -0.081   0.000   0.074   0.000  -0.000   0.085   0.000  -0.074   0.000  -0.000
 total augmentation occupancy for first ion, spin component:           2
  0.004   0.000  -0.000   0.017   0.000  -0.000   0.000   0.000   0.000   0.000   0.000   0.000   0.000   0.000   0.000   0.000
  0.000   0.004   0.000   0.000   0.017   0.000   0.000   0.000   0.000   0.000   0.000   0.000   0.000   0.000   0.000   0.000
 -0.000   0.000   0.004  -0.000   0.000   0.017   0.000   0.000   0.000   0.000   0.000   0.000   0.000   0.000   0.000   0.000
  0.017   0.000  -0.000  -0.011   0.000   0.000   0.000   0.000   0.000   0.000   0.000   0.000   0.000   0.000   0.000   0.000
  0.000   0.017   0.000   0.000  -0.012   0.000   0.000   0.000   0.000   0.000   0.000   0.000   0.000   0.000   0.000   0.000
 -0.000   0.000   0.017   0.000   0.000  -0.011   0.000   0.000   0.000   0.000   0.000   0.000   0.000   0.000   0.000   0.000
  0.000   0.000   0.000   0.000   0.000   0.000  -5.420   0.000  -1.641   0.000   0.000   3.080   0.000   1.279   0.000  -0.000
  0.000   0.000   0.000   0.000   0.000   0.000   0.000  -4.822   0.000  -1.412   0.000   0.000   2.598   0.000   1.101   0.000
  0.000   0.000   0.000   0.000   0.000   0.000  -1.641   0.000  -4.420   0.000  -0.000   1.279   0.000   2.293   0.000  -0.000
  0.000   0.000   0.000   0.000   0.000   0.000   0.000  -1.412   0.000  -4.822   0.000   0.000   1.101   0.000   2.598   0.000
  0.000   0.000   0.000   0.000   0.000   0.000   0.000   0.000  -0.000   0.000  -3.366  -0.000   0.000   0.000   0.000   1.465
  0.000   0.000   0.000   0.000   0.000   0.000   3.080   0.000   1.279   0.000   0.000  -1.866   0.000  -0.926   0.000   0.000
  0.000   0.000   0.000   0.000   0.000   0.000   0.000   2.598   0.000   1.101   0.000   0.000  -1.498   0.000  -0.798   0.000
  0.000   0.000   0.000   0.000   0.000   0.000   1.279   0.000   2.293   0.000   0.000  -0.926   0.000  -1.286   0.000   0.000
  0.000   0.000   0.000   0.000   0.000   0.000   0.000   1.101   0.000   2.598   0.000   0.000  -0.798   0.000  -1.498   0.000
  0.000   0.000   0.000   0.000   0.000   0.000  -0.000   0.000   0.000   0.000   1.465   0.000   0.000   0.000   0.000  -0.681
  0.000   0.000   0.000   0.000   0.000   0.000  -0.088   0.000   0.074   0.000   0.000   0.034   0.000  -0.025   0.000   0.000
  0.000   0.000   0.000   0.000   0.000   0.000   0.002   0.000  -0.009   0.000  -0.000   0.003   0.000   0.001   0.000   0.000


------------------------ aborting loop because EDIFF is reached ----------------------------------------


 


 total charge     
 
# of ion       s       p       d       tot
------------------------------------------
    1        0.165   6.145   4.960  11.270
    2        0.170   6.141   4.965  11.276
    3        1.729   4.409   0.000   6.138
    4        1.729   4.409   0.000   6.138
    5        1.729   4.405   0.000   6.135
    6        1.729   4.405   0.000   6.135
--------------------------------------------------
tot          7.252  29.914   9.924  47.091
 


 magnetization (x)
 
# of ion       s       p       d       tot
------------------------------------------
    1       -0.024  -0.019  -4.684  -4.728
    2        0.025   0.018   4.683   4.725
    3        0.002   0.015   0.000   0.017
    4        0.002   0.015   0.000   0.017
    5       -0.003  -0.012   0.000  -0.015
    6       -0.003  -0.012   0.000  -0.015
--------------------------------------------------
tot         -0.001   0.005  -0.002   0.002
 
    CHARGE:  cpu time    0.0358: real time    0.0358
    FORLOC:  cpu time    0.0008: real time    0.0008
    FORNL :  cpu time    0.1754: real time    0.1754
    STRESS:  cpu time    2.1493: real time    2.1493
    FORCOR:  cpu time    0.0295: real time    0.0295
    FORHAR:  cpu time    0.0022: real time    0.0022
    MIXING:  cpu time    0.0013: real time    0.0013
    OFIELD:  cpu time    0.0000: real time    0.0000

  FORCE on cell =-STRESS in cart. coord.  units (eV):
  Direction    XX          YY          ZZ          XY          YZ          ZX
  --------------------------------------------------------------------------------------
  Alpha Z   196.30408   196.30408   196.30408
  Ewald   -1582.23025 -1582.23025 -1015.92474    -0.00000    -0.00000    -0.00000
  Hartree   597.27556   597.27556   979.92852    -0.00000    -0.00000    -0.00000
  E(xc)    -150.52833  -150.49957  -150.64966    -0.01408    -0.02515    -0.02708
  Local     160.24659   160.24659  -781.71963     0.00000    -0.00000    -0.00000
  n-local  -310.79697  -311.11459  -309.76769     0.03195     0.11825     0.12504
  augment   158.39180   158.39180   157.85269    -0.00000     0.00000    -0.00000
  Kinetic   931.09806   931.84917   923.96072    -0.38860    -0.77165    -0.82009
  Fock        0.00000     0.00000     0.00000     0.00000     0.00000     0.00000
  -------------------------------------------------------------------------------------
  Total      -0.00833    -0.00833    -0.01571     0.00000     0.00000     0.00000
  in kB      -0.16973    -0.16973    -0.32011     0.00000     0.00000     0.00000
  external pressure =       -0.22 kB  Pullay stress =        0.00 kB


 VOLUME and BASIS-vectors are now :
 -----------------------------------------------------------------------------
  energy-cutoff  :      600.00
  volume of cell :       78.64
      direct lattice vectors                 reciprocal lattice vectors
     4.877619957  0.000000000  0.000000000     0.205018023  0.000000000  0.000000000
     0.000000000  4.877619957  0.000000000     0.000000000  0.205018023  0.000000000
     0.000000000  0.000000000  3.305455729     0.000000000  0.000000000  0.302530145

  length of vectors
     4.877619957  4.877619957  3.305455729     0.205018023  0.205018023  0.302530145


 FORCES acting on ions
    electron-ion (+dipol)            ewald-force                    non-local-force                 convergence-correction
 -----------------------------------------------------------------------------------------------
   -.177E-11 0.659E-11 0.785E-14   0.000E+00 0.568E-13 -.268E-13   0.000E+00 0.000E+00 0.000E+00   -.140E-14 -.460E-13 0.996E-13
   -.204E-13 -.311E-13 0.382E-13   0.114E-12 0.000E+00 -.265E-13   0.000E+00 0.000E+00 0.000E+00   -.364E-13 0.141E-13 -.135E-12
   -.338E+02 0.338E+02 -.378E-12   0.351E+02 -.351E+02 0.996E-14   -.132E+01 0.132E+01 0.000E+00   -.727E-05 0.727E-05 0.813E-13
   0.338E+02 -.338E+02 -.463E-11   -.351E+02 0.351E+02 0.970E-14   0.132E+01 -.132E+01 0.000E+00   0.727E-05 -.727E-05 0.211E-14
   0.338E+02 0.338E+02 0.372E-07   -.351E+02 -.351E+02 0.134E-13   0.132E+01 0.132E+01 0.000E+00   0.727E-05 0.727E-05 0.225E-10
   -.338E+02 -.338E+02 -.372E-07   0.351E+02 0.351E+02 0.134E-13   -.132E+01 -.132E+01 0.000E+00   -.727E-05 -.727E-05 -.226E-10
 -----------------------------------------------------------------------------------------------
   -.363E-11 0.532E-11 0.199E-11   -.711E-14 0.000E+00 -.672E-14   0.000E+00 0.222E-15 0.000E+00   -.507E-13 -.118E-13 -.734E-13
 
 
 POSITION                                       TOTAL-FORCE (eV/Angst)
 -----------------------------------------------------------------------------------
      2.43881      2.43881      1.65273         0.000000      0.000000      0.000000
      0.00000      0.00000      0.00000         0.000000      0.000000      0.000000
      0.95302      3.92460      1.65273        -0.001859      0.001859      0.000000
      3.92460      0.95302      1.65273         0.001859     -0.001859     -0.000000
      1.48579      1.48579      0.00000         0.001859      0.001859      0.000000
      3.39183      3.39183      0.00000        -0.001859     -0.001859     -0.000000
 -----------------------------------------------------------------------------------
    total drift:                               -0.000000      0.000000      0.000000


--------------------------------------------------------------------------------------------------------



  FREE ENERGIE OF THE ION-ELECTRON SYSTEM (eV)
  ---------------------------------------------------
  free  energy   TOTEN  =       -66.67940104 eV

  energy  without entropy=      -66.67940104  energy(sigma->0) =      -66.67940104
 


--------------------------------------------------------------------------------------------------------


    POTLOK:  cpu time    0.8158: real time    0.8158


--------------------------------------------------------------------------------------------------------


 writing wavefunctions
     LOOP+:  cpu time   40.2085: real time   40.2269
    4ORBIT:  cpu time    0.0000: real time    0.0000
 


 total charge     
 
# of ion       s       p       d       tot
------------------------------------------
    1        0.165   6.145   4.960  11.270
    2        0.170   6.141   4.965  11.276
    3        1.729   4.409   0.000   6.138
    4        1.729   4.409   0.000   6.138
    5        1.729   4.405   0.000   6.135
    6        1.729   4.405   0.000   6.135
--------------------------------------------------
tot          7.252  29.914   9.924  47.091
 


 magnetization (x)
 
# of ion       s       p       d       tot
------------------------------------------
    1       -0.024  -0.019  -4.684  -4.728
    2        0.025   0.018   4.683   4.725
    3        0.002   0.015   0.000   0.017
    4        0.002   0.015   0.000   0.017
    5       -0.003  -0.012   0.000  -0.015
    6       -0.003  -0.012   0.000  -0.015
--------------------------------------------------
tot         -0.001   0.005  -0.002   0.002
 
 BZINTS: Fermi energy:  0.764104; 54.000000 electrons
         Band energy:-816.594367;  BLOECHL correction:  0.000000

 total amount of memory used by VASP MPI-rank0    45320. kBytes
=======================================================================

   base      :      30000. kBytes
   nonl-proj :       7096. kBytes
   fftplans  :       1875. kBytes
   grid      :       3820. kBytes
   one-center:        186. kBytes
   wavefun   :       2343. kBytes
 
  
  
 General timing and accounting informations for this job:
 ========================================================
  
                  Total CPU time used (sec):       41.600
                            User time (sec):       32.665
                          System time (sec):        8.935
                         Elapsed time (sec):       41.830
  
                   Maximum memory used (kb):       63644.
                   Average memory used (kb):           0.
  
                          Minor page faults:        11311
                          Major page faults:            7
                 Voluntary context switches:          165
