 vasp.5.4.4.18Apr17-6-g9f103f2a35 (build Apr 27 2017 11:13:10) complex          
  
 executed on           IFC91_ompi date 2020.05.14  12:31:48
 running on   16 total cores
 distrk:  each k-point on   16 cores,    1 groups
 distr:  one band on NCORES_PER_BAND=   4 cores,    4 groups


--------------------------------------------------------------------------------------------------------


 INCAR:
 POTCAR:    PAW_PBE Mn_sv_GW 05Dec2013            
 POTCAR:    PAW_PBE O_GW 19Mar2012                
 POTCAR:    PAW_PBE Mn_sv_GW 05Dec2013            
   VRHFIN =Mn: 3p4s3d                                                           
   LEXCH  = PE                                                                  
   EATOM  =  2841.6120 eV,  208.8526 Ry                                         
                                                                                
   TITEL  = PAW_PBE Mn_sv_GW 05Dec2013                                          
   LULTRA =        F    use ultrasoft PP ?                                      
   IUNSCR =        1    unscreen: 0-lin 1-nonlin 2-no                           
   RPACOR =    1.400    partial core radius                                     
   POMASS =   54.938; ZVAL   =   15.000    mass and valenz                      
   RCORE  =    2.000    outmost cutoff radius                                   
   RWIGS  =    2.100; RWIGS  =    1.111    wigner-seitz radius (au A)           
   ENMAX  =  384.627; ENMIN  =  288.470 eV                                      
   RCLOC  =    1.304    cutoff for local pot                                    
   LCOR   =        T    correct aug charges                                     
   LPAW   =        T    paw PP                                                  
   EAUG   =  952.926                                                            
   RMAX   =    2.045    core radius for proj-oper                               
   RAUG   =    1.300    factor for augmentation sphere                          
   RDEP   =    2.057    radius for radial grids                                 
   RDEPT  =    1.600    core radius for aug-charge                              
                                                                                
   Atomic configuration                                                         
    9 entries                                                                   
     n  l   j            E        occ.                                          
     1  0  0.50     -6422.5163   2.0000                                         
     2  0  0.50      -736.4292   2.0000                                         
     2  1  1.50      -622.7460   6.0000                                         
     3  0  0.50       -79.0998   2.0000                                         
     3  0  0.50       -81.6350   0.0000                                         
     3  1  1.50       -48.0405   6.0000                                         
     3  1  1.50       -51.7021   0.0000                                         
     3  2  2.50        -1.4981   7.0000                                         
     4  3  2.50        -1.3606   0.0000                                         
   Description                                                                  
     l       E           TYP  RCUT    TYP  RCUT                                 
     0    -79.0998116     23  1.600                                             
     0     13.6058260     23  1.700                                             
     0    204.0873900     23  1.600                                             
     1    -48.0404833     23  1.650                                             
     1    -51.7021388     23  1.650                                             
     1    136.0582600     23  1.650                                             
     2     -1.4980942     23  1.900                                             
     2     40.8174780     23  1.900                                             
     2    136.0582600     23  1.900                                             
     3     27.2116520     23  2.000                                             
     3    136.0582600     23  2.000                                             
  local pseudopotential read in
  partial core-charges read in
  partial kinetic energy density read in
  kinetic energy density of atom read in
  atomic valenz-charges read in
  non local Contribution for L=           0  read in
    real space projection operators read in
  non local Contribution for L=           0  read in
    real space projection operators read in
  non local Contribution for L=           0  read in
    real space projection operators read in
  non local Contribution for L=           1  read in
    real space projection operators read in
  non local Contribution for L=           1  read in
    real space projection operators read in
  non local Contribution for L=           1  read in
    real space projection operators read in
  non local Contribution for L=           2  read in
    real space projection operators read in
  non local Contribution for L=           2  read in
    real space projection operators read in
  non local Contribution for L=           2  read in
    real space projection operators read in
  non local Contribution for L=           3  read in
    real space projection operators read in
  non local Contribution for L=           3  read in
    real space projection operators read in
    PAW grid and wavefunctions read in
 
   number of l-projection  operators is LMAX  =          11
   number of lm-projection operators is LMMAX =          41
 
 POTCAR:    PAW_PBE O_GW 19Mar2012                
   VRHFIN =O: s2p4                                                              
   LEXCH  = PE                                                                  
   EATOM  =   432.3788 eV,   31.7789 Ry                                         
                                                                                
   TITEL  = PAW_PBE O_GW 19Mar2012                                              
   LULTRA =        F    use ultrasoft PP ?                                      
   IUNSCR =        1    unscreen: 0-lin 1-nonlin 2-no                           
   RPACOR =    0.800    partial core radius                                     
   POMASS =   16.000; ZVAL   =    6.000    mass and valenz                      
   RCORE  =    1.600    outmost cutoff radius                                   
   RWIGS  =    1.600; RWIGS  =    0.847    wigner-seitz radius (au A)           
   ENMAX  =  434.431; ENMIN  =  325.824 eV                                      
   ICORE  =        3    local potential                                         
   LCOR   =        T    correct aug charges                                     
   LPAW   =        T    paw PP                                                  
   EAUG   = 1139.609                                                            
   DEXC   =    0.000                                                            
   RMAX   =    1.629    core radius for proj-oper                               
   RAUG   =    1.300    factor for augmentation sphere                          
   RDEP   =    1.652    radius for radial grids                                 
   RDEPT  =    1.200    core radius for aug-charge                              
                                                                                
   Atomic configuration                                                         
    5 entries                                                                   
     n  l   j            E        occ.                                          
     1  0  0.50      -514.6923   2.0000                                         
     2  0  0.50       -23.9615   2.0000                                         
     2  1  0.50        -9.0305   4.0000                                         
     3  2  1.50        -9.5241   0.0000                                         
     4  3  2.50        -9.5241   0.0000                                         
   Description                                                                  
     l       E           TYP  RCUT    TYP  RCUT                                 
     0    -23.9615316     23  1.150                                             
     0    -25.3221142     23  1.150                                             
     0    244.9048680     23  1.300                                             
     1     -9.0304908     23  1.500                                             
     1     -6.9258396     23  1.500                                             
     1    122.4524340     23  1.500                                             
     2     13.6058260     23  1.500                                             
     2    190.4815640     23  1.600                                             
     3     54.4233040     23  1.400                                             
  local pseudopotential read in
  partial core-charges read in
  partial kinetic energy density read in
  kinetic energy density of atom read in
  atomic valenz-charges read in
  non local Contribution for L=           0  read in
    real space projection operators read in
  non local Contribution for L=           0  read in
    real space projection operators read in
  non local Contribution for L=           0  read in
    real space projection operators read in
  non local Contribution for L=           1  read in
    real space projection operators read in
  non local Contribution for L=           1  read in
    real space projection operators read in
  non local Contribution for L=           1  read in
    real space projection operators read in
  non local Contribution for L=           2  read in
    real space projection operators read in
  non local Contribution for L=           2  read in
    real space projection operators read in
    PAW grid and wavefunctions read in
 
   number of l-projection  operators is LMAX  =           8
   number of lm-projection operators is LMMAX =          22
 
  PAW_PBE Mn_sv_GW 05Dec2013            :
 energy of atom  1       EATOM=-2841.6120
 kinetic energy error for atom=    0.0394 (will be added to EATOM!!)
  PAW_PBE O_GW 19Mar2012                :
 energy of atom  2       EATOM= -432.3788
 kinetic energy error for atom=    0.0188 (will be added to EATOM!!)
 
 
 POSCAR: Mn  F                                   
  positions in direct lattice
  velocities in cartesian coordinates

 METAGGA = SCAN     LMAXTAU =  6    LMIXTAU =  F

 exchange correlation table for  LEXCH =        8
   RHO(1)=    0.500       N(1)  =     2000
   RHO(2)=  100.500       N(2)  =     4000
 


--------------------------------------------------------------------------------------------------------


 ion  position               nearest neighbor table
   1  0.500  0.500  0.500-   5 1.87   6 1.87   5 1.87   6 1.87   3 1.88   4 1.88
   2  0.000  0.000  0.000-   3 1.87   4 1.87   3 1.87   4 1.87   5 1.88   6 1.88
   3  0.196  0.804  0.500-   2 1.87   2 1.87   1 1.88
   4  0.804  0.196  0.500-   2 1.87   2 1.87   1 1.88
   5  0.304  0.304  0.000-   1 1.87   1 1.87   2 1.88
   6  0.696  0.696  0.000-   1 1.87   1 1.87   2 1.88
 
  LATTYP: Found a simple tetragonal cell.
 ALAT       =     4.3689094867
 C/A-ratio  =     0.6514517857
  
  Lattice vectors:
  
 A1 = (   4.3689094867,   0.0000000000,   0.0000000000)
 A2 = (   0.0000000000,   4.3689094867,   0.0000000000)
 A3 = (   0.0000000000,   0.0000000000,   2.8461338867)


Analysis of symmetry for initial positions (statically):
=====================================================================
 Subroutine PRICEL returns:
 Original cell was already a primitive cell.
 

 Routine SETGRP: Setting up the symmetry group for a 
 simple tetragonal supercell.


 Subroutine GETGRP returns: Found 16 space group operations
 (whereof  8 operations were pure point group operations)
 out of a pool of 16 trial point group operations.


The static configuration has the point symmetry D_2h.
 The point group associated with its full space group is D_4h.


Analysis of symmetry for dynamics (positions and initial velocities):
=====================================================================
 Subroutine PRICEL returns:
 Original cell was already a primitive cell.
 

 Routine SETGRP: Setting up the symmetry group for a 
 simple tetragonal supercell.


 Subroutine GETGRP returns: Found 16 space group operations
 (whereof  8 operations were pure point group operations)
 out of a pool of 16 trial point group operations.


The dynamic configuration has the point symmetry D_2h.
 The point group associated with its full space group is D_4h.


Analysis of structural, dynamic, and magnetic symmetry:
=====================================================================
 Subroutine PRICEL returns:
 Original cell was already a primitive cell.
 

 Routine SETGRP: Setting up the symmetry group for a 
 simple tetragonal supercell.


 Subroutine GETGRP returns: Found 16 space group operations
 (whereof  8 operations were pure point group operations)
 out of a pool of 16 trial point group operations.


The magnetic configuration has the point symmetry D_2h.
 The point group associated with its full space group is D_4h.


 Subroutine INISYM returns: Found 16 space group operations
 (whereof  8 operations are pure point group operations),
 and found     1 'primitive' translations

 
 
 KPOINTS: KPOINTS created by Atomic Simulation Env

Automatic generation of k-mesh.
Space group operators:
 irot       det(A)        alpha          n_x          n_y          n_z        tau_x        tau_y        tau_z
    1     1.000000     0.000000     1.000000     0.000000     0.000000     0.000000     0.000000     0.000000
    2    -1.000000     0.000000     1.000000     0.000000     0.000000     0.000000     0.000000     0.000000
    3     1.000000   180.000000     0.000000     0.000000     1.000000     0.000000     0.000000     0.000000
    4    -1.000000   180.000000     0.000000     0.000000     1.000000     0.000000     0.000000     0.000000
    5     1.000000   180.000000     0.707107     0.707107     0.000000     0.000000     0.000000     0.000000
    6    -1.000000   180.000000     0.707107     0.707107     0.000000     0.000000     0.000000     0.000000
    7     1.000000   180.000000     0.707107    -0.707107     0.000000     0.000000     0.000000     0.000000
    8    -1.000000   180.000000     0.707107    -0.707107     0.000000     0.000000     0.000000     0.000000
    9     1.000000    90.000000     0.000000     0.000000    -1.000000     0.500000     0.500000     0.500000
   10    -1.000000    90.000000     0.000000     0.000000    -1.000000     0.500000     0.500000     0.500000
   11     1.000000    90.000000     0.000000     0.000000     1.000000     0.500000     0.500000     0.500000
   12    -1.000000    90.000000     0.000000     0.000000     1.000000     0.500000     0.500000     0.500000
   13     1.000000   180.000000     0.000000     1.000000     0.000000     0.500000     0.500000     0.500000
   14    -1.000000   180.000000     0.000000     1.000000     0.000000     0.500000     0.500000     0.500000
   15     1.000000   180.000000     1.000000     0.000000     0.000000     0.500000     0.500000     0.500000
   16    -1.000000   180.000000     1.000000     0.000000     0.000000     0.500000     0.500000     0.500000
 
 Subroutine IBZKPT returns following result:
 ===========================================
 
 Found      9 irreducible k-points:
 
 Following reciprocal coordinates:
            Coordinates               Weight
  0.125000  0.125000  0.083333      8.000000
  0.375000  0.125000  0.083333     16.000000
  0.375000  0.375000  0.083333      8.000000
  0.125000  0.125000  0.250000      8.000000
  0.375000  0.125000  0.250000     16.000000
  0.375000  0.375000  0.250000      8.000000
  0.125000  0.125000  0.416667      8.000000
  0.375000  0.125000  0.416667     16.000000
  0.375000  0.375000  0.416667      8.000000
 
 Following cartesian coordinates:
            Coordinates               Weight
  0.028611  0.028611  0.029279      8.000000
  0.085834  0.028611  0.029279     16.000000
  0.085834  0.085834  0.029279      8.000000
  0.028611  0.028611  0.087838      8.000000
  0.085834  0.028611  0.087838     16.000000
  0.085834  0.085834  0.087838      8.000000
  0.028611  0.028611  0.146397      8.000000
  0.085834  0.028611  0.146397     16.000000
  0.085834  0.085834  0.146397      8.000000
 
 TETIRR: Found    106 inequivalent tetrahedra from      576


--------------------------------------------------------------------------------------------------------




 Dimension of arrays:
   k-points           NKPTS =      9   k-points in BZ     NKDIM =      9   number of bands    NBANDS=     32
   number of dos      NEDOS =    301   number of ions     NIONS =      6
   non local maximal  LDIM  =     11   non local SUM 2l+1 LMDIM =     41
   total plane-waves  NPLWV =  31104
   max r-space proj   IRMAX =      1   max aug-charges    IRDMAX= 114889
   dimension x,y,z NGX =    36 NGY =   36 NGZ =   24
   dimension x,y,z NGXF=    72 NGYF=   72 NGZF=   48
   support grid    NGXF=   144 NGYF=  144 NGZF=   96
   ions per type =               2   4
   NGX,Y,Z   is equivalent  to a cutoff of  13.70, 13.70, 14.02 a.u.
   NGXF,Y,Z  is equivalent  to a cutoff of  27.40, 27.40, 28.04 a.u.

 SYSTEM =  unknown system                          
 POSCAR =  Mn  F                                   

 Startparameter for this run:
   NWRITE =      2    write-flag & timer
   PREC   = accura    normal or accurate (medium, high low for compatibility)
   ISTART =      0    job   : 0-new  1-cont  2-samecut
   ICHARG =      2    charge: 1-file 2-atom 10-const
   ISPIN  =      2    spin polarized calculation?
   LNONCOLLINEAR =      F non collinear calculations
   LSORBIT =      F    spin-orbit coupling
   INIWAV =      1    electr: 0-lowe 1-rand  2-diag
   LASPH  =      T    aspherical Exc in radial PAW
   METAGGA=      F    non-selfconsistent MetaGGA calc.

 Electronic Relaxation 1
   ENCUT  =  600.0 eV  44.10 Ry    6.64 a.u.   8.73  8.73  5.68*2*pi/ulx,y,z
   ENINI  =  600.0     initial cutoff
   ENAUG  = 1139.6 eV  augmentation charge cutoff
   NELM   =     60;   NELMIN=  2; NELMDL= -5     # of ELM steps 
   EDIFF  = 0.1E-06   stopping-criterion for ELM
   LREAL  =      F    real-space projection
   NLSPLINE    = F    spline interpolate recip. space projectors
   LCOMPAT=      F    compatible to vasp.4.4
   GGA_COMPAT  = T    GGA compatible to vasp.4.4-vasp.4.6
   LMAXPAW     = -100 max onsite density
   LMAXMIX     =    4 max onsite mixed and CHGCAR
   VOSKOWN=      0    Vosko Wilk Nusair interpolation
   ROPT   =    0.00000   0.00000
 Ionic relaxation
   EDIFFG = -.5E-02   stopping-criterion for IOM
   NSW    =     50    number of steps for IOM
   NBLOCK =      1;   KBLOCK =     50    inner block; outer block 
   IBRION =      2    ionic relax: 0-MD 1-quasi-New 2-CG
   NFREE  =      1    steps in history (QN), initial steepest desc. (CG)
   ISIF   =      3    stress and relaxation
   IWAVPR =     11    prediction:  0-non 1-charg 2-wave 3-comb
   ISYM   =      2    0-nonsym 1-usesym 2-fastsym
   LCORR  =      T    Harris-Foulkes like correction to forces

   POTIM  = 0.5000    time-step for ionic-motion
   TEIN   =    0.0    initial temperature
   TEBEG  =    0.0;   TEEND  =   0.0 temperature during run
   SMASS  =  -3.00    Nose mass-parameter (am)
   estimated Nose-frequenzy (Omega)   =  0.10E-29 period in steps =****** mass=  -0.436E-27a.u.
   SCALEE = 1.0000    scale energy and forces
   NPACO  =    256;   APACO  = 16.0  distance and # of slots for P.C.
   PSTRESS=    0.0 pullay stress

  Mass of Ions in am
   POMASS =  54.94 16.00
  Ionic Valenz
   ZVAL   =  15.00  6.00
  Atomic Wigner-Seitz radii
   RWIGS  =  -1.00 -1.00
  virtual crystal weights 
   VCA    =   1.00  1.00
   NELECT =      54.0000    total number of electrons
   NUPDOWN=      -1.0000    fix difference up-down

 DOS related values:
   EMIN   =  10.00;   EMAX   =-10.00  energy-range for DOS
   EFERMI =   0.00
   ISMEAR =    -5;   SIGMA  =   0.20  broadening in eV -4-tet -1-fermi 0-gaus

 Electronic relaxation 2 (details)
   IALGO  =     38    algorithm
   LDIAG  =      T    sub-space diagonalisation (order eigenvalues)
   LSUBROT=      F    optimize rotation matrix (better conditioning)
   TURBO    =      0    0=normal 1=particle mesh
   IRESTART =      0    0=no restart 2=restart with 2 vectors
   NREBOOT  =      0    no. of reboots
   NMIN     =      0    reboot dimension
   EREF     =   0.00    reference energy to select bands
   IMIX   =      4    mixing-type and parameters
     AMIX     =   0.40;   BMIX     =  1.00
     AMIX_MAG =   1.60;   BMIX_MAG =  1.00
     AMIN     =   0.10
     WC   =   100.;   INIMIX=   1;  MIXPRE=   1;  MAXMIX= -45

 Intra band minimization:
   WEIMIN = 0.0010     energy-eigenvalue tresh-hold
   EBREAK =  0.78E-09  absolut break condition
   DEPER  =   0.30     relativ break condition  

   TIME   =   0.40     timestep for ELM

  volume/ion in A,a.u.               =       9.05        61.10
  Fermi-wavevector in a.u.,A,eV,Ry     =   1.633825  3.087482 36.319188  2.669385
  Thomas-Fermi vector in A             =   2.725566
 
 Write flags
   LWAVE        =      F    write WAVECAR
   LDOWNSAMPLE  =      F    k-point downsampling of WAVECAR
   LCHARG       =      F    write CHGCAR
   LVTOT        =      F    write LOCPOT, total local potential
   LVHAR        =      F    write LOCPOT, Hartree potential only
   LELF         =      F    write electronic localiz. function (ELF)
   LORBIT       =     11    0 simple, 1 ext, 2 COOP (PROOUT), +10 PAW based schemes


 Dipole corrections
   LMONO  =      F    monopole corrections only (constant potential shift)
   LDIPOL =      F    correct potential (dipole corrections)
   IDIPOL =      0    1-x, 2-y, 3-z, 4-all directions 
   EPSILON=  1.0000000 bulk dielectric constant

 LDA+U is selected, type is set to LDAUTYPE =  2
   angular momentum for each species LDAUL =     2   -1
   U (eV)           for each species LDAUU =   0.0  0.0
   J (eV)           for each species LDAUJ =   0.0  0.0
 Exchange correlation treatment:
   GGA     =    --    GGA type
   LEXCH   =     8    internal setting for exchange type
   VOSKOWN=      0    Vosko Wilk Nusair interpolation
   LHFCALC =     F    Hartree Fock is set to
   LHFONE  =     F    Hartree Fock one center treatment
   AEXX    =    0.0000 exact exchange contribution

 Linear response parameters
   LEPSILON=     F    determine dielectric tensor
   LRPA    =     F    only Hartree local field effects (RPA)
   LNABLA  =     F    use nabla operator in PAW spheres
   LVEL    =     F    velocity operator in full k-point grid
   LINTERFAST=   F  fast interpolation
   KINTER  =     0    interpolate to denser k-point grid
   CSHIFT  =0.1000    complex shift for real part using Kramers Kronig
   OMEGAMAX=  -1.0    maximum frequency
   DEG_THRESHOLD= 0.2000000E-02 threshold for treating states as degnerate
   RTIME   =   -0.100 relaxation time in fs
  (WPLASMAI=    0.000 imaginary part of plasma frequency in eV, 0.658/RTIME)
   DFIELD  = 0.0000000 0.0000000 0.0000000 field for delta impulse in time
 
 Orbital magnetization related:
   ORBITALMAG=     F  switch on orbital magnetization
   LCHIMAG   =     F  perturbation theory with respect to B field
   DQ        =  0.001000  dq finite difference perturbation B field
   LLRAUG    =     F  two centre corrections for induced B field



--------------------------------------------------------------------------------------------------------


 conjugate gradient relaxation of ions
 charge density and potential will be updated during run
 spin polarized calculation
 Variant of blocked Davidson
 Davidson routine will perform the subspace rotation
 perform sub-space diagonalisation
    after iterative eigenvector-optimisation
 modified Broyden-mixing scheme, WC =      100.0
 initial mixing is a Kerker type mixing with AMIX =  0.4000 and BMIX =      1.0000
 Hartree-type preconditioning will be used
 using additional bands            5
 reciprocal scheme for non local part
 use partial core corrections
 calculate Harris-corrections to forces 
   (improved forces if not selfconsistent)
 use gradient corrections 
 use of overlap-Matrix (Vanderbilt PP)
 Fermi weights with tetrahedron method with Bloechl corrections


--------------------------------------------------------------------------------------------------------


  energy-cutoff  :      600.00
  volume of cell :       54.33
      direct lattice vectors                 reciprocal lattice vectors
     4.368909487  0.000000000  0.000000000     0.228890070  0.000000000  0.000000000
     0.000000000  4.368909487  0.000000000     0.000000000  0.228890070  0.000000000
     0.000000000  0.000000000  2.846133887     0.000000000  0.000000000  0.351353815

  length of vectors
     4.368909487  4.368909487  2.846133887     0.228890070  0.228890070  0.351353815


 
 k-points in units of 2pi/SCALE and weight: KPOINTS created by Atomic Simulation Env
   0.02861126  0.02861126  0.02927948       0.083
   0.08583378  0.02861126  0.02927948       0.167
   0.08583378  0.08583378  0.02927948       0.083
   0.02861126  0.02861126  0.08783845       0.083
   0.08583378  0.02861126  0.08783845       0.167
   0.08583378  0.08583378  0.08783845       0.083
   0.02861126  0.02861126  0.14639742       0.083
   0.08583378  0.02861126  0.14639742       0.167
   0.08583378  0.08583378  0.14639742       0.083
 
 k-points in reciprocal lattice and weights: KPOINTS created by Atomic Simulation Env
   0.12500000  0.12500000  0.08333333       0.083
   0.37500000  0.12500000  0.08333333       0.167
   0.37500000  0.37500000  0.08333333       0.083
   0.12500000  0.12500000  0.25000000       0.083
   0.37500000  0.12500000  0.25000000       0.167
   0.37500000  0.37500000  0.25000000       0.083
   0.12500000  0.12500000  0.41666667       0.083
   0.37500000  0.12500000  0.41666667       0.167
   0.37500000  0.37500000  0.41666667       0.083
 
 position of ions in fractional coordinates (direct lattice) 
   0.50000000  0.50000000  0.50000000
   0.00000000  0.00000000  0.00000000
   0.19567027  0.80432973  0.50000000
   0.80432973  0.19567027  0.50000000
   0.30432973  0.30432973  0.00000000
   0.69567027  0.69567027  0.00000000
 
 position of ions in cartesian coordinates  (Angst):
   2.18445474  2.18445474  1.42306694
   0.00000000  0.00000000  0.00000000
   0.85486569  3.51404380  1.42306694
   3.51404380  0.85486569  1.42306694
   1.32958906  1.32958906  0.00000000
   3.03932043  3.03932043  0.00000000
 


--------------------------------------------------------------------------------------------------------


 k-point  1 :   0.1250 0.1250 0.0833  plane waves:    1824
 k-point  2 :   0.3750 0.1250 0.0833  plane waves:    1811
 k-point  3 :   0.3750 0.3750 0.0833  plane waves:    1809
 k-point  4 :   0.1250 0.1250 0.2500  plane waves:    1813
 k-point  5 :   0.3750 0.1250 0.2500  plane waves:    1816
 k-point  6 :   0.3750 0.3750 0.2500  plane waves:    1812
 k-point  7 :   0.1250 0.1250 0.4167  plane waves:    1804
 k-point  8 :   0.3750 0.1250 0.4167  plane waves:    1822
 k-point  9 :   0.3750 0.3750 0.4167  plane waves:    1806

 maximum and minimum number of plane-waves per node :       465      440

 maximum number of plane-waves:      1824
 maximum index in each direction: 
   IXMAX=    8   IYMAX=    8   IZMAX=    5
   IXMIN=   -9   IYMIN=   -9   IZMIN=   -6


 parallel 3D FFT for wavefunctions:
    minimum data exchange during FFTs selected (reduces bandwidth)
 parallel 3D FFT for charge:
    minimum data exchange during FFTs selected (reduces bandwidth)


 total amount of memory used by VASP MPI-rank0    39751. kBytes
=======================================================================

   base      :      30000. kBytes
   nonl-proj :       2784. kBytes
   fftplans  :       2584. kBytes
   grid      :       2845. kBytes
   one-center:        322. kBytes
   wavefun   :       1216. kBytes
 
     INWAV:  cpu time    0.0000: real time    0.0000
 Broyden mixing: mesh for mixing (old mesh)
   NGX = 17   NGY = 17   NGZ = 11
  (NGX  = 72   NGY  = 72   NGZ  = 48)
  gives a total of   3179 points

 initial charge density was supplied:
 charge density of overlapping atoms calculated
 number of electron      54.0000000 magnetization       0.0000000
 keeping initial charge density in first step


--------------------------------------------------------------------------------------------------------


 Maximum index for augmentation-charges         7152 (set IRDMAX)


--------------------------------------------------------------------------------------------------------


 First call to EWALD:  gamma=   0.468
 Maximum number of real-space cells 2x 2x 3
 Maximum number of reciprocal cells 3x 3x 2

    FEWALD:  cpu time    0.0010: real time    0.0010


--------------------------------------- Iteration      1(   1)  ---------------------------------------


    POTLOK:  cpu time    0.0506: real time    0.0507
    SETDIJ:  cpu time    1.6575: real time    1.6575
atom =   1  type =  1  l = 2
 
 onsite density matrix
 
spin component  1
 
  0.3218  0.0000  0.0000  0.0000  0.0000
  0.0000  0.3218  0.0000  0.0000  0.0000
  0.0000  0.0000  0.3218  0.0000  0.0000
  0.0000  0.0000  0.0000  0.3218  0.0000
  0.0000  0.0000  0.0000  0.0000  0.3218
 
spin component  2
 
  0.7510  0.0000  0.0000  0.0000  0.0000
  0.0000  0.7510  0.0000  0.0000  0.0000
  0.0000  0.0000  0.7510  0.0000  0.0000
  0.0000  0.0000  0.0000  0.7510  0.0000
  0.0000  0.0000  0.0000  0.0000  0.7510
 
 occupancies and eigenvectors
 
  o =  0.3218  v =  0.0000  0.0000  1.0000  0.0000  0.0000  0.0000  0.0000  0.0000  0.0000  0.0000      0.0000  0.0000  0.0000  0.0000  0.0000  0.0000  0.0000  0.0000  0.0000  0.0000
  o =  0.3218  v =  0.0000  1.0000  0.0000  0.0000  0.0000  0.0000  0.0000  0.0000  0.0000  0.0000      0.0000  0.0000  0.0000  0.0000  0.0000  0.0000  0.0000  0.0000  0.0000  0.0000
  o =  0.3218  v =  1.0000  0.0000  0.0000  0.0000  0.0000  0.0000  0.0000  0.0000  0.0000  0.0000      0.0000  0.0000  0.0000  0.0000  0.0000  0.0000  0.0000  0.0000  0.0000  0.0000
  o =  0.3218  v =  0.0000  0.0000  0.0000  1.0000  0.0000  0.0000  0.0000  0.0000  0.0000  0.0000      0.0000  0.0000  0.0000  0.0000  0.0000  0.0000  0.0000  0.0000  0.0000  0.0000
  o =  0.3218  v =  0.0000  0.0000  0.0000  0.0000  1.0000  0.0000  0.0000  0.0000  0.0000  0.0000      0.0000  0.0000  0.0000  0.0000  0.0000  0.0000  0.0000  0.0000  0.0000  0.0000
  o =  0.7510  v =  0.0000  0.0000  0.0000  0.0000  0.0000  1.0000  0.0000  0.0000  0.0000  0.0000      0.0000  0.0000  0.0000  0.0000  0.0000  0.0000  0.0000  0.0000  0.0000  0.0000
  o =  0.7510  v =  0.0000  0.0000  0.0000  0.0000  0.0000  0.0000  1.0000  0.0000  0.0000  0.0000      0.0000  0.0000  0.0000  0.0000  0.0000  0.0000  0.0000  0.0000  0.0000  0.0000
  o =  0.7510  v =  0.0000  0.0000  0.0000  0.0000  0.0000  0.0000  0.0000  0.0000  1.0000  0.0000      0.0000  0.0000  0.0000  0.0000  0.0000  0.0000  0.0000  0.0000  0.0000  0.0000
  o =  0.7510  v =  0.0000  0.0000  0.0000  0.0000  0.0000  0.0000  0.0000  0.0000  0.0000  1.0000      0.0000  0.0000  0.0000  0.0000  0.0000  0.0000  0.0000  0.0000  0.0000  0.0000
  o =  0.7510  v =  0.0000  0.0000  0.0000  0.0000  0.0000  0.0000  0.0000  1.0000  0.0000  0.0000      0.0000  0.0000  0.0000  0.0000  0.0000  0.0000  0.0000  0.0000  0.0000  0.0000
atom =   2  type =  1  l = 2
 
 onsite density matrix
 
spin component  1
 
  0.7510  0.0000  0.0000  0.0000  0.0000
  0.0000  0.7510  0.0000  0.0000  0.0000
  0.0000  0.0000  0.7510  0.0000  0.0000
  0.0000  0.0000  0.0000  0.7510  0.0000
  0.0000  0.0000  0.0000  0.0000  0.7510
 
spin component  2
 
  0.3218  0.0000  0.0000  0.0000  0.0000
  0.0000  0.3218  0.0000  0.0000  0.0000
  0.0000  0.0000  0.3218  0.0000  0.0000
  0.0000  0.0000  0.0000  0.3218  0.0000
  0.0000  0.0000  0.0000  0.0000  0.3218
 
 occupancies and eigenvectors
 
  o =  0.3218  v =  0.0000  0.0000  0.0000  0.0000  0.0000  0.0000  0.0000  1.0000  0.0000  0.0000      0.0000  0.0000  0.0000  0.0000  0.0000  0.0000  0.0000  0.0000  0.0000  0.0000
  o =  0.3218  v =  0.0000  0.0000  0.0000  0.0000  0.0000  1.0000  0.0000  0.0000  0.0000  0.0000      0.0000  0.0000  0.0000  0.0000  0.0000  0.0000  0.0000  0.0000  0.0000  0.0000
  o =  0.3218  v =  0.0000  0.0000  0.0000  0.0000  0.0000  0.0000  1.0000  0.0000  0.0000  0.0000      0.0000  0.0000  0.0000  0.0000  0.0000  0.0000  0.0000  0.0000  0.0000  0.0000
  o =  0.3218  v =  0.0000  0.0000  0.0000  0.0000  0.0000  0.0000  0.0000  0.0000  1.0000  0.0000      0.0000  0.0000  0.0000  0.0000  0.0000  0.0000  0.0000  0.0000  0.0000  0.0000
  o =  0.3218  v =  0.0000  0.0000  0.0000  0.0000  0.0000  0.0000  0.0000  0.0000  0.0000  1.0000      0.0000  0.0000  0.0000  0.0000  0.0000  0.0000  0.0000  0.0000  0.0000  0.0000
  o =  0.7510  v =  0.0000  1.0000  0.0000  0.0000  0.0000  0.0000  0.0000  0.0000  0.0000  0.0000      0.0000  0.0000  0.0000  0.0000  0.0000  0.0000  0.0000  0.0000  0.0000  0.0000
  o =  0.7510  v =  1.0000  0.0000  0.0000  0.0000  0.0000  0.0000  0.0000  0.0000  0.0000  0.0000      0.0000  0.0000  0.0000  0.0000  0.0000  0.0000  0.0000  0.0000  0.0000  0.0000
  o =  0.7510  v =  0.0000  0.0000  0.0000  1.0000  0.0000  0.0000  0.0000  0.0000  0.0000  0.0000      0.0000  0.0000  0.0000  0.0000  0.0000  0.0000  0.0000  0.0000  0.0000  0.0000
  o =  0.7510  v =  0.0000  0.0000  0.0000  0.0000  1.0000  0.0000  0.0000  0.0000  0.0000  0.0000      0.0000  0.0000  0.0000  0.0000  0.0000  0.0000  0.0000  0.0000  0.0000  0.0000
  o =  0.7510  v =  0.0000  0.0000  1.0000  0.0000  0.0000  0.0000  0.0000  0.0000  0.0000  0.0000      0.0000  0.0000  0.0000  0.0000  0.0000  0.0000  0.0000  0.0000  0.0000  0.0000
     EDDAV:  cpu time    0.8590: real time    0.8775
 BZINTS: Fermi energy: 44.287737; 54.000000 electrons
         Band energy: 886.804983;  BLOECHL correction: -4.691501
       DOS:  cpu time    0.0063: real time    0.0063
    --------------------------------------------
      LOOP:  cpu time    2.5735: real time    2.5920

 eigenvalue-minimisations  :  1712
 total energy-change (2. order) : 0.1350476E+04  (-0.3355552E+04)
 number of electron      54.0000000 magnetization       0.0000000
 augmentation part       54.0000000 magnetization       0.0000000

 Free energy of the ion-electron system (eV)
  ---------------------------------------------------
  alpha Z        PSCENC =       254.25430495
  Ewald energy   TEWEN  =     -5016.19048431
  -Hartree energ DENC   =     -2191.17389026
  -exchange      EXHF   =         0.00000000
  -V(xc)+E(xc)   XCENC  =        -2.72357959
  PAW double counting   =      6122.82459562    -6115.90478955
  entropy T*S    EENTRO =         0.00000000
  eigenvalues    EBANDS =       886.80498313
  atomic energy  EATOM  =      7412.58502283
  Solvation  Ediel_sol  =         0.00000000
  ---------------------------------------------------
  free energy    TOTEN  =      1350.47616282 eV

  energy without entropy =     1350.47616282  energy(sigma->0) =     1350.47616282


--------------------------------------------------------------------------------------------------------




--------------------------------------- Iteration      1(   2)  ---------------------------------------


     EDDAV:  cpu time    0.8797: real time    0.8798
 BZINTS: Fermi energy: 22.750035; 54.000000 electrons
         Band energy:  89.293573;  BLOECHL correction: -1.759767
       DOS:  cpu time    0.0055: real time    0.0055
    --------------------------------------------
      LOOP:  cpu time    0.8852: real time    0.8852

 eigenvalue-minimisations  :  1784
 total energy-change (2. order) :-0.7975114E+03  (-0.7771997E+03)
 number of electron      54.0000000 magnetization       0.0000000
 augmentation part       54.0000000 magnetization       0.0000000

 Free energy of the ion-electron system (eV)
  ---------------------------------------------------
  alpha Z        PSCENC =       254.25430495
  Ewald energy   TEWEN  =     -5016.19048431
  -Hartree energ DENC   =     -2191.17389026
  -exchange      EXHF   =         0.00000000
  -V(xc)+E(xc)   XCENC  =        -2.72357959
  PAW double counting   =      6122.82459562    -6115.90478955
  entropy T*S    EENTRO =         0.00000000
  eigenvalues    EBANDS =        89.29357255
  atomic energy  EATOM  =      7412.58502283
  Solvation  Ediel_sol  =         0.00000000
  ---------------------------------------------------
  free energy    TOTEN  =       552.96475224 eV

  energy without entropy =      552.96475224  energy(sigma->0) =      552.96475224


--------------------------------------------------------------------------------------------------------




--------------------------------------- Iteration      1(   3)  ---------------------------------------


     EDDAV:  cpu time    1.0082: real time    1.0082
 BZINTS: Fermi energy: 18.830211; 54.000000 electrons
         Band energy:   1.042710;  BLOECHL correction: -0.047534
       DOS:  cpu time    0.0057: real time    0.0057
    --------------------------------------------
      LOOP:  cpu time    1.0138: real time    1.0139

 eigenvalue-minimisations  :  2152
 total energy-change (2. order) :-0.8825086E+02  (-0.8436328E+02)
 number of electron      54.0000000 magnetization       0.0000000
 augmentation part       54.0000000 magnetization       0.0000000

 Free energy of the ion-electron system (eV)
  ---------------------------------------------------
  alpha Z        PSCENC =       254.25430495
  Ewald energy   TEWEN  =     -5016.19048431
  -Hartree energ DENC   =     -2191.17389026
  -exchange      EXHF   =         0.00000000
  -V(xc)+E(xc)   XCENC  =        -2.72357959
  PAW double counting   =      6122.82459562    -6115.90478955
  entropy T*S    EENTRO =         0.00000000
  eigenvalues    EBANDS =         1.04271018
  atomic energy  EATOM  =      7412.58502283
  Solvation  Ediel_sol  =         0.00000000
  ---------------------------------------------------
  free energy    TOTEN  =       464.71388987 eV

  energy without entropy =      464.71388987  energy(sigma->0) =      464.71388987


--------------------------------------------------------------------------------------------------------




--------------------------------------- Iteration      1(   4)  ---------------------------------------


     EDDAV:  cpu time    0.8919: real time    0.8920
 BZINTS: Fermi energy: 17.432267; 54.000000 electrons
         Band energy:  -6.907376;  BLOECHL correction:  0.000000
       DOS:  cpu time    0.0010: real time    0.0010
    --------------------------------------------
      LOOP:  cpu time    0.8930: real time    0.8930

 eigenvalue-minimisations  :  1816
 total energy-change (2. order) :-0.7950086E+01  (-0.7758201E+01)
 number of electron      54.0000000 magnetization       0.0000000
 augmentation part       54.0000000 magnetization       0.0000000

 Free energy of the ion-electron system (eV)
  ---------------------------------------------------
  alpha Z        PSCENC =       254.25430495
  Ewald energy   TEWEN  =     -5016.19048431
  -Hartree energ DENC   =     -2191.17389026
  -exchange      EXHF   =         0.00000000
  -V(xc)+E(xc)   XCENC  =        -2.72357959
  PAW double counting   =      6122.82459562    -6115.90478955
  entropy T*S    EENTRO =         0.00000000
  eigenvalues    EBANDS =        -6.90737607
  atomic energy  EATOM  =      7412.58502283
  Solvation  Ediel_sol  =         0.00000000
  ---------------------------------------------------
  free energy    TOTEN  =       456.76380362 eV

  energy without entropy =      456.76380362  energy(sigma->0) =      456.76380362


--------------------------------------------------------------------------------------------------------




--------------------------------------- Iteration      1(   5)  ---------------------------------------


     EDDAV:  cpu time    0.9284: real time    0.9284
 BZINTS: Fermi energy: 17.323874; 54.000000 electrons
         Band energy:  -7.647793;  BLOECHL correction:  0.000000
       DOS:  cpu time    0.0012: real time    0.0012
    CHARGE:  cpu time    0.2331: real time    0.2331
    MIXING:  cpu time    0.0008: real time    0.0008
    --------------------------------------------
      LOOP:  cpu time    1.1635: real time    1.1635

 eigenvalue-minimisations  :  1928
 total energy-change (2. order) :-0.7404165E+00  (-0.7311946E+00)
 number of electron      54.0000000 magnetization      -0.0000000
 augmentation part       15.0599610 magnetization      -0.0000000

 Broyden mixing:
  rms(total) = 0.43799E+01    rms(broyden)= 0.43777E+01
  rms(prec ) = 0.56079E+01
  weight for this iteration     100.00

 Free energy of the ion-electron system (eV)
  ---------------------------------------------------
  alpha Z        PSCENC =       254.25430495
  Ewald energy   TEWEN  =     -5016.19048431
  -Hartree energ DENC   =     -2191.17389026
  -exchange      EXHF   =         0.00000000
  -V(xc)+E(xc)   XCENC  =        -2.72357959
  PAW double counting   =      6122.82459562    -6115.90478955
  entropy T*S    EENTRO =         0.00000000
  eigenvalues    EBANDS =        -7.64779254
  atomic energy  EATOM  =      7412.58502283
  Solvation  Ediel_sol  =         0.00000000
  ---------------------------------------------------
  free energy    TOTEN  =       456.02338715 eV

  energy without entropy =      456.02338715  energy(sigma->0) =      456.02338715


--------------------------------------------------------------------------------------------------------




--------------------------------------- Iteration      1(   6)  ---------------------------------------


    POTLOK:  cpu time    0.0474: real time    0.0474
    SETDIJ:  cpu time    2.0807: real time    2.0808
atom =   1  type =  1  l = 2
 
 onsite density matrix
 
spin component  1
 
  0.2418  0.0000  0.2047  0.0000 -0.0000
  0.0000  0.1579  0.0000  0.2305  0.0000
  0.2047  0.0000  0.0680  0.0000 -0.0000
  0.0000  0.2305  0.0000  0.1579  0.0000
 -0.0000  0.0000 -0.0000  0.0000 -0.0692
 
spin component  2
 
  0.6566  0.0000 -0.2892  0.0000  0.0000
  0.0000  0.7794  0.0000 -0.3288  0.0000
 -0.2892  0.0000  0.9046  0.0000 -0.0000
  0.0000 -0.3288  0.0000  0.7794  0.0000
  0.0000  0.0000 -0.0000  0.0000  1.1045
 
 occupancies and eigenvectors
 
  o = -0.0726  v = -0.0000  0.7071  0.0000 -0.7071 -0.0000  0.0000  0.0000  0.0000  0.0000  0.0000      0.0000  0.0000  0.0000  0.0000  0.0000  0.0000  0.0000  0.0000  0.0000  0.0000
  o = -0.0692  v = -0.0000  0.0000  0.0000 -0.0000  1.0000  0.0000  0.0000  0.0000  0.0000  0.0000      0.0000  0.0000  0.0000  0.0000  0.0000  0.0000  0.0000  0.0000  0.0000  0.0000
  o = -0.0674  v = -0.5519 -0.0000  0.8339  0.0000 -0.0000  0.0000  0.0000  0.0000  0.0000  0.0000      0.0000  0.0000  0.0000  0.0000  0.0000  0.0000  0.0000  0.0000  0.0000  0.0000
  o =  0.3773  v = -0.8339 -0.0000 -0.5519 -0.0000  0.0000  0.0000  0.0000  0.0000  0.0000  0.0000      0.0000  0.0000  0.0000  0.0000  0.0000  0.0000  0.0000  0.0000  0.0000  0.0000
  o =  0.3884  v = -0.0000  0.7071 -0.0000  0.7071  0.0000  0.0000  0.0000  0.0000  0.0000  0.0000      0.0000  0.0000  0.0000  0.0000  0.0000  0.0000  0.0000  0.0000  0.0000  0.0000
  o =  0.4506  v =  0.0000  0.0000  0.0000  0.0000  0.0000  0.0000 -0.7071  0.0000 -0.7071 -0.0000      0.0000  0.0000  0.0000  0.0000  0.0000  0.0000  0.0000  0.0000  0.0000  0.0000
  o =  0.4660  v =  0.0000  0.0000  0.0000  0.0000  0.0000 -0.8349  0.0000 -0.5505  0.0000  0.0000      0.0000  0.0000  0.0000  0.0000  0.0000  0.0000  0.0000  0.0000  0.0000  0.0000
  o =  1.0952  v =  0.0000  0.0000  0.0000  0.0000  0.0000 -0.5505  0.0000  0.8349  0.0000 -0.0000      0.0000  0.0000  0.0000  0.0000  0.0000  0.0000  0.0000  0.0000  0.0000  0.0000
  o =  1.1045  v =  0.0000  0.0000  0.0000  0.0000  0.0000  0.0000 -0.0000  0.0000  0.0000  1.0000      0.0000  0.0000  0.0000  0.0000  0.0000  0.0000  0.0000  0.0000  0.0000  0.0000
  o =  1.1082  v =  0.0000  0.0000  0.0000  0.0000  0.0000  0.0000  0.7071  0.0000 -0.7071  0.0000      0.0000  0.0000  0.0000  0.0000  0.0000  0.0000  0.0000  0.0000  0.0000  0.0000
atom =   2  type =  1  l = 2
 
 onsite density matrix
 
spin component  1
 
  0.6566  0.0000  0.2892  0.0000 -0.0000
  0.0000  0.7794  0.0000  0.3288  0.0000
  0.2892  0.0000  0.9046  0.0000  0.0000
  0.0000  0.3288  0.0000  0.7794  0.0000
 -0.0000  0.0000  0.0000  0.0000  1.1045
 
spin component  2
 
  0.2418  0.0000 -0.2047  0.0000  0.0000
  0.0000  0.1579  0.0000 -0.2305  0.0000
 -0.2047  0.0000  0.0680  0.0000  0.0000
  0.0000 -0.2305  0.0000  0.1579  0.0000
  0.0000  0.0000  0.0000  0.0000 -0.0692
 
 occupancies and eigenvectors
 
  o = -0.0726  v =  0.0000  0.0000  0.0000  0.0000  0.0000 -0.0000 -0.7071 -0.0000 -0.7071 -0.0000      0.0000  0.0000  0.0000  0.0000  0.0000  0.0000  0.0000  0.0000  0.0000  0.0000
  o = -0.0692  v =  0.0000  0.0000  0.0000  0.0000  0.0000 -0.0000 -0.0000 -0.0000 -0.0000  1.0000      0.0000  0.0000  0.0000  0.0000  0.0000  0.0000  0.0000  0.0000  0.0000  0.0000
  o = -0.0674  v =  0.0000  0.0000  0.0000  0.0000  0.0000 -0.5519  0.0000 -0.8339  0.0000 -0.0000      0.0000  0.0000  0.0000  0.0000  0.0000  0.0000  0.0000  0.0000  0.0000  0.0000
  o =  0.3773  v =  0.0000  0.0000  0.0000  0.0000  0.0000 -0.8339  0.0000  0.5519 -0.0000  0.0000      0.0000  0.0000  0.0000  0.0000  0.0000  0.0000  0.0000  0.0000  0.0000  0.0000
  o =  0.3884  v =  0.0000  0.0000  0.0000  0.0000  0.0000 -0.0000 -0.7071  0.0000  0.7071 -0.0000      0.0000  0.0000  0.0000  0.0000  0.0000  0.0000  0.0000  0.0000  0.0000  0.0000
  o =  0.4506  v =  0.0000  0.7071 -0.0000 -0.7071 -0.0000  0.0000  0.0000  0.0000  0.0000  0.0000      0.0000  0.0000  0.0000  0.0000  0.0000  0.0000  0.0000  0.0000  0.0000  0.0000
  o =  0.4660  v =  0.8349 -0.0000 -0.5505  0.0000  0.0000  0.0000  0.0000  0.0000  0.0000  0.0000      0.0000  0.0000  0.0000  0.0000  0.0000  0.0000  0.0000  0.0000  0.0000  0.0000
  o =  1.0952  v = -0.5505  0.0000 -0.8349  0.0000  0.0000  0.0000  0.0000  0.0000  0.0000  0.0000      0.0000  0.0000  0.0000  0.0000  0.0000  0.0000  0.0000  0.0000  0.0000  0.0000
  o =  1.1045  v = -0.0000 -0.0000 -0.0000 -0.0000 -1.0000  0.0000  0.0000  0.0000  0.0000  0.0000      0.0000  0.0000  0.0000  0.0000  0.0000  0.0000  0.0000  0.0000  0.0000  0.0000
  o =  1.1082  v =  0.0000  0.7071  0.0000  0.7071 -0.0000  0.0000  0.0000  0.0000  0.0000  0.0000      0.0000  0.0000  0.0000  0.0000  0.0000  0.0000  0.0000  0.0000  0.0000  0.0000
     EDDAV:  cpu time    0.8344: real time    0.8345
 BZINTS: Fermi energy:  8.457291; 54.000000 electrons
         Band energy:-786.116711;  BLOECHL correction:  0.000000
       DOS:  cpu time    0.0017: real time    0.0017
    CHARGE:  cpu time    0.2353: real time    0.2353
    MIXING:  cpu time    0.0008: real time    0.0008
    --------------------------------------------
      LOOP:  cpu time    3.2003: real time    3.2004

 eigenvalue-minimisations  :  1584
 total energy-change (2. order) :-0.5410449E+03  (-0.3700860E+02)
 number of electron      54.0000000 magnetization      -0.0000000
 augmentation part       11.3793069 magnetization      -0.0000000

 Broyden mixing:
  rms(total) = 0.20515E+01    rms(broyden)= 0.20504E+01
  rms(prec ) = 0.42490E+01
  weight for this iteration     100.00

 eigenvalues of (default mixing * dielectric matrix)
  average eigenvalue GAMMA=   0.8944
  0.8944

 Free energy of the ion-electron system (eV)
  ---------------------------------------------------
  alpha Z        PSCENC =       254.25430495
  Ewald energy   TEWEN  =     -5016.19048431
  -Hartree energ DENC   =     -2144.39834170
  -exchange      EXHF   =         0.00000000
  -V(xc)+E(xc)   XCENC  =       200.50182845
  PAW double counting   =      6420.30968098    -6425.96680054
  entropy T*S    EENTRO =         0.00000000
  eigenvalues    EBANDS =      -786.11671066
  atomic energy  EATOM  =      7412.58502283
  Solvation  Ediel_sol  =         0.00000000
  ---------------------------------------------------
  free energy    TOTEN  =       -85.02150000 eV

  energy without entropy =      -85.02150000  energy(sigma->0) =      -85.02150000


--------------------------------------------------------------------------------------------------------




--------------------------------------- Iteration      1(   7)  ---------------------------------------


    POTLOK:  cpu time    0.0476: real time    0.0476
    SETDIJ:  cpu time    2.6921: real time    2.6922
atom =   1  type =  1  l = 2
 
 onsite density matrix
 
spin component  1
 
  0.2666  0.0000  0.1100  0.0000  0.0000
  0.0000  0.2203  0.0000  0.1138  0.0000
  0.1100  0.0000  0.1617  0.0000  0.0000
  0.0000  0.1138  0.0000  0.2203  0.0000
  0.0000  0.0000  0.0000  0.0000  0.1105
 
spin component  2
 
  0.5116  0.0000 -0.2509  0.0000 -0.0000
  0.0000  0.6297  0.0000 -0.2751  0.0000
 -0.2509  0.0000  0.7503  0.0000 -0.0000
  0.0000 -0.2751  0.0000  0.6297  0.0000
 -0.0000  0.0000 -0.0000  0.0000  0.9014
 
 occupancies and eigenvectors
 
  o =  0.0923  v = -0.5336 -0.0000  0.8457  0.0000 -0.0000  0.0000  0.0000  0.0000  0.0000  0.0000      0.0000  0.0000  0.0000  0.0000  0.0000  0.0000  0.0000  0.0000  0.0000  0.0000
  o =  0.1064  v = -0.0000  0.7071  0.0000 -0.7071 -0.0000  0.0000  0.0000  0.0000  0.0000  0.0000      0.0000  0.0000  0.0000  0.0000  0.0000  0.0000  0.0000  0.0000  0.0000  0.0000
  o =  0.1105  v = -0.0000  0.0000  0.0000 -0.0000  1.0000  0.0000  0.0000  0.0000  0.0000  0.0000      0.0000  0.0000  0.0000  0.0000  0.0000  0.0000  0.0000  0.0000  0.0000  0.0000
  o =  0.3341  v = -0.0000  0.7071 -0.0000  0.7071  0.0000  0.0000  0.0000  0.0000  0.0000  0.0000      0.0000  0.0000  0.0000  0.0000  0.0000  0.0000  0.0000  0.0000  0.0000  0.0000
  o =  0.3360  v = -0.8457 -0.0000 -0.5336 -0.0000 -0.0000  0.0000  0.0000  0.0000  0.0000  0.0000      0.0000  0.0000  0.0000  0.0000  0.0000  0.0000  0.0000  0.0000  0.0000  0.0000
  o =  0.3531  v =  0.0000  0.0000  0.0000  0.0000  0.0000 -0.8455  0.0000 -0.5340  0.0000 -0.0000      0.0000  0.0000  0.0000  0.0000  0.0000  0.0000  0.0000  0.0000  0.0000  0.0000
  o =  0.3546  v =  0.0000  0.0000  0.0000  0.0000  0.0000  0.0000 -0.7071  0.0000 -0.7071 -0.0000      0.0000  0.0000  0.0000  0.0000  0.0000  0.0000  0.0000  0.0000  0.0000  0.0000
  o =  0.9014  v =  0.0000  0.0000  0.0000  0.0000  0.0000  0.0000 -0.0000 -0.0000  0.0000  1.0000      0.0000  0.0000  0.0000  0.0000  0.0000  0.0000  0.0000  0.0000  0.0000  0.0000
  o =  0.9048  v =  0.0000  0.0000  0.0000  0.0000  0.0000  0.0000 -0.7071  0.0000  0.7071 -0.0000      0.0000  0.0000  0.0000  0.0000  0.0000  0.0000  0.0000  0.0000  0.0000  0.0000
  o =  0.9088  v =  0.0000  0.0000  0.0000  0.0000  0.0000 -0.5340  0.0000  0.8455  0.0000  0.0000      0.0000  0.0000  0.0000  0.0000  0.0000  0.0000  0.0000  0.0000  0.0000  0.0000
atom =   2  type =  1  l = 2
 
 onsite density matrix
 
spin component  1
 
  0.5116  0.0000  0.2509  0.0000 -0.0000
  0.0000  0.6297  0.0000  0.2751  0.0000
  0.2509  0.0000  0.7503  0.0000 -0.0000
  0.0000  0.2751  0.0000  0.6297  0.0000
 -0.0000  0.0000 -0.0000  0.0000  0.9014
 
spin component  2
 
  0.2666  0.0000 -0.1100  0.0000 -0.0000
  0.0000  0.2203  0.0000 -0.1138  0.0000
 -0.1100  0.0000  0.1617  0.0000  0.0000
  0.0000 -0.1138  0.0000  0.2203  0.0000
 -0.0000  0.0000  0.0000  0.0000  0.1105
 
 occupancies and eigenvectors
 
  o =  0.0923  v =  0.0000  0.0000  0.0000  0.0000  0.0000 -0.5336 -0.0000 -0.8457 -0.0000  0.0000      0.0000  0.0000  0.0000  0.0000  0.0000  0.0000  0.0000  0.0000  0.0000  0.0000
  o =  0.1064  v =  0.0000  0.0000  0.0000  0.0000  0.0000 -0.0000  0.7071 -0.0000  0.7071  0.0000      0.0000  0.0000  0.0000  0.0000  0.0000  0.0000  0.0000  0.0000  0.0000  0.0000
  o =  0.1105  v =  0.0000  0.0000  0.0000  0.0000  0.0000  0.0000 -0.0000  0.0000 -0.0000  1.0000      0.0000  0.0000  0.0000  0.0000  0.0000  0.0000  0.0000  0.0000  0.0000  0.0000
  o =  0.3341  v =  0.0000  0.0000  0.0000  0.0000  0.0000 -0.0000  0.7071  0.0000 -0.7071 -0.0000      0.0000  0.0000  0.0000  0.0000  0.0000  0.0000  0.0000  0.0000  0.0000  0.0000
  o =  0.3360  v =  0.0000  0.0000  0.0000  0.0000  0.0000 -0.8457 -0.0000  0.5336  0.0000  0.0000      0.0000  0.0000  0.0000  0.0000  0.0000  0.0000  0.0000  0.0000  0.0000  0.0000
  o =  0.3531  v = -0.8455  0.0000  0.5340  0.0000 -0.0000  0.0000  0.0000  0.0000  0.0000  0.0000      0.0000  0.0000  0.0000  0.0000  0.0000  0.0000  0.0000  0.0000  0.0000  0.0000
  o =  0.3546  v =  0.0000 -0.7071  0.0000  0.7071  0.0000  0.0000  0.0000  0.0000  0.0000  0.0000      0.0000  0.0000  0.0000  0.0000  0.0000  0.0000  0.0000  0.0000  0.0000  0.0000
  o =  0.9014  v =  0.0000 -0.0000  0.0000 -0.0000  1.0000  0.0000  0.0000  0.0000  0.0000  0.0000      0.0000  0.0000  0.0000  0.0000  0.0000  0.0000  0.0000  0.0000  0.0000  0.0000
  o =  0.9048  v =  0.0000  0.7071  0.0000  0.7071  0.0000  0.0000  0.0000  0.0000  0.0000  0.0000      0.0000  0.0000  0.0000  0.0000  0.0000  0.0000  0.0000  0.0000  0.0000  0.0000
  o =  0.9088  v = -0.5340  0.0000 -0.8455  0.0000  0.0000  0.0000  0.0000  0.0000  0.0000  0.0000      0.0000  0.0000  0.0000  0.0000  0.0000  0.0000  0.0000  0.0000  0.0000  0.0000
     EDDAV:  cpu time    1.1092: real time    1.1092
 BZINTS: Fermi energy:  5.878867; 54.000000 electrons
         Band energy:-896.729977;  BLOECHL correction:  0.000000
       DOS:  cpu time    0.0014: real time    0.0014
    CHARGE:  cpu time    0.2357: real time    0.2357
    MIXING:  cpu time    0.0009: real time    0.0009
    --------------------------------------------
      LOOP:  cpu time    4.0869: real time    4.0870

 eigenvalue-minimisations  :  2288
 total energy-change (2. order) : 0.7250251E+01  (-0.4671979E+01)
 number of electron      54.0000000 magnetization       0.0000000
 augmentation part       12.1888844 magnetization       0.0000000

 Broyden mixing:
  rms(total) = 0.84081E+00    rms(broyden)= 0.83999E+00
  rms(prec ) = 0.10778E+01
  weight for this iteration     100.00

 eigenvalues of (default mixing * dielectric matrix)
  average eigenvalue GAMMA=   0.7858
  0.7858  0.7858

 Free energy of the ion-electron system (eV)
  ---------------------------------------------------
  alpha Z        PSCENC =       254.25430495
  Ewald energy   TEWEN  =     -5016.19048431
  -Hartree energ DENC   =     -2053.98105431
  -exchange      EXHF   =         0.00000000
  -V(xc)+E(xc)   XCENC  =       228.58813033
  PAW double counting   =      6402.62078750    -6408.91797939
  entropy T*S    EENTRO =         0.00000000
  eigenvalues    EBANDS =      -896.72997682
  atomic energy  EATOM  =      7412.58502283
  Solvation  Ediel_sol  =         0.00000000
  ---------------------------------------------------
  free energy    TOTEN  =       -77.77124922 eV

  energy without entropy =      -77.77124922  energy(sigma->0) =      -77.77124922


--------------------------------------------------------------------------------------------------------




--------------------------------------- Iteration      1(   8)  ---------------------------------------


    POTLOK:  cpu time    0.0480: real time    0.0480
    SETDIJ:  cpu time    2.6903: real time    2.6904
atom =   1  type =  1  l = 2
 
 onsite density matrix
 
spin component  1
 
  0.2214  0.0000  0.0990  0.0000  0.0000
  0.0000  0.1950  0.0000  0.0914  0.0000
  0.0990  0.0000  0.1116  0.0000  0.0000
  0.0000  0.0914  0.0000  0.1950  0.0000
  0.0000  0.0000  0.0000  0.0000  0.1203
 
spin component  2
 
  0.5567  0.0000 -0.2415  0.0000 -0.0000
  0.0000  0.6707  0.0000 -0.2596  0.0000
 -0.2415  0.0000  0.8050  0.0000  0.0000
  0.0000 -0.2596  0.0000  0.6707  0.0000
 -0.0000  0.0000  0.0000  0.0000  0.9211
 
 occupancies and eigenvectors
 
  o =  0.0533  v = -0.5075  0.0000  0.8617  0.0000  0.0000  0.0000  0.0000  0.0000  0.0000  0.0000      0.0000  0.0000  0.0000  0.0000  0.0000  0.0000  0.0000  0.0000  0.0000  0.0000
  o =  0.1036  v =  0.0000 -0.7071  0.0000  0.7071  0.0000  0.0000  0.0000  0.0000  0.0000  0.0000      0.0000  0.0000  0.0000  0.0000  0.0000  0.0000  0.0000  0.0000  0.0000  0.0000
  o =  0.1203  v =  0.0000  0.0000  0.0000 -0.0000  1.0000  0.0000  0.0000  0.0000  0.0000  0.0000      0.0000  0.0000  0.0000  0.0000  0.0000  0.0000  0.0000  0.0000  0.0000  0.0000
  o =  0.2796  v = -0.8617  0.0000 -0.5075  0.0000 -0.0000  0.0000  0.0000  0.0000  0.0000  0.0000      0.0000  0.0000  0.0000  0.0000  0.0000  0.0000  0.0000  0.0000  0.0000  0.0000
  o =  0.2864  v =  0.0000 -0.7071  0.0000 -0.7071 -0.0000  0.0000  0.0000  0.0000  0.0000  0.0000      0.0000  0.0000  0.0000  0.0000  0.0000  0.0000  0.0000  0.0000  0.0000  0.0000
  o =  0.4093  v =  0.0000  0.0000  0.0000  0.0000  0.0000 -0.8536  0.0000 -0.5210  0.0000 -0.0000      0.0000  0.0000  0.0000  0.0000  0.0000  0.0000  0.0000  0.0000  0.0000  0.0000
  o =  0.4111  v =  0.0000  0.0000  0.0000  0.0000  0.0000  0.0000  0.7071  0.0000  0.7071 -0.0000      0.0000  0.0000  0.0000  0.0000  0.0000  0.0000  0.0000  0.0000  0.0000  0.0000
  o =  0.9211  v =  0.0000  0.0000  0.0000  0.0000  0.0000  0.0000 -0.0000  0.0000  0.0000 -1.0000      0.0000  0.0000  0.0000  0.0000  0.0000  0.0000  0.0000  0.0000  0.0000  0.0000
  o =  0.9303  v =  0.0000  0.0000  0.0000  0.0000  0.0000  0.0000 -0.7071 -0.0000  0.7071  0.0000      0.0000  0.0000  0.0000  0.0000  0.0000  0.0000  0.0000  0.0000  0.0000  0.0000
  o =  0.9524  v =  0.0000  0.0000  0.0000  0.0000  0.0000 -0.5210  0.0000  0.8536  0.0000  0.0000      0.0000  0.0000  0.0000  0.0000  0.0000  0.0000  0.0000  0.0000  0.0000  0.0000
atom =   2  type =  1  l = 2
 
 onsite density matrix
 
spin component  1
 
  0.5567  0.0000  0.2415  0.0000  0.0000
  0.0000  0.6707  0.0000  0.2596  0.0000
  0.2415  0.0000  0.8050  0.0000  0.0000
  0.0000  0.2596  0.0000  0.6707  0.0000
  0.0000  0.0000  0.0000  0.0000  0.9211
 
spin component  2
 
  0.2214  0.0000 -0.0990  0.0000 -0.0000
  0.0000  0.1950  0.0000 -0.0914  0.0000
 -0.0990  0.0000  0.1116  0.0000  0.0000
  0.0000 -0.0914  0.0000  0.1950  0.0000
 -0.0000  0.0000  0.0000  0.0000  0.1203
 
 occupancies and eigenvectors
 
  o =  0.0533  v =  0.0000  0.0000  0.0000  0.0000  0.0000 -0.5075 -0.0000 -0.8617 -0.0000  0.0000      0.0000  0.0000  0.0000  0.0000  0.0000  0.0000  0.0000  0.0000  0.0000  0.0000
  o =  0.1036  v =  0.0000  0.0000  0.0000  0.0000  0.0000 -0.0000  0.7071 -0.0000  0.7071 -0.0000      0.0000  0.0000  0.0000  0.0000  0.0000  0.0000  0.0000  0.0000  0.0000  0.0000
  o =  0.1203  v =  0.0000  0.0000  0.0000  0.0000  0.0000  0.0000  0.0000  0.0000  0.0000  1.0000      0.0000  0.0000  0.0000  0.0000  0.0000  0.0000  0.0000  0.0000  0.0000  0.0000
  o =  0.2796  v =  0.0000  0.0000  0.0000  0.0000  0.0000 -0.8617  0.0000  0.5075 -0.0000  0.0000      0.0000  0.0000  0.0000  0.0000  0.0000  0.0000  0.0000  0.0000  0.0000  0.0000
  o =  0.2864  v =  0.0000  0.0000  0.0000  0.0000  0.0000  0.0000  0.7071 -0.0000 -0.7071  0.0000      0.0000  0.0000  0.0000  0.0000  0.0000  0.0000  0.0000  0.0000  0.0000  0.0000
  o =  0.4093  v = -0.8536  0.0000  0.5210  0.0000  0.0000  0.0000  0.0000  0.0000  0.0000  0.0000      0.0000  0.0000  0.0000  0.0000  0.0000  0.0000  0.0000  0.0000  0.0000  0.0000
  o =  0.4111  v =  0.0000  0.7071  0.0000 -0.7071  0.0000  0.0000  0.0000  0.0000  0.0000  0.0000      0.0000  0.0000  0.0000  0.0000  0.0000  0.0000  0.0000  0.0000  0.0000  0.0000
  o =  0.9211  v =  0.0000 -0.0000 -0.0000  0.0000  1.0000  0.0000  0.0000  0.0000  0.0000  0.0000      0.0000  0.0000  0.0000  0.0000  0.0000  0.0000  0.0000  0.0000  0.0000  0.0000
  o =  0.9303  v =  0.0000 -0.7071  0.0000 -0.7071 -0.0000  0.0000  0.0000  0.0000  0.0000  0.0000      0.0000  0.0000  0.0000  0.0000  0.0000  0.0000  0.0000  0.0000  0.0000  0.0000
  o =  0.9524  v = -0.5210  0.0000 -0.8536  0.0000 -0.0000  0.0000  0.0000  0.0000  0.0000  0.0000      0.0000  0.0000  0.0000  0.0000  0.0000  0.0000  0.0000  0.0000  0.0000  0.0000
     EDDAV:  cpu time    1.0086: real time    1.0086
 BZINTS: Fermi energy:  6.013438; 54.000000 electrons
         Band energy:-882.667610;  BLOECHL correction:  0.000000
       DOS:  cpu time    0.0014: real time    0.0014
    CHARGE:  cpu time    0.2347: real time    0.2347
    MIXING:  cpu time    0.0010: real time    0.0010
    --------------------------------------------
      LOOP:  cpu time    3.9840: real time    3.9841

 eigenvalue-minimisations  :  2040
 total energy-change (2. order) :-0.6211881E+00  (-0.3374589E+00)
 number of electron      54.0000000 magnetization      -0.0000000
 augmentation part       12.0161419 magnetization      -0.0000000

 Broyden mixing:
  rms(total) = 0.56101E+00    rms(broyden)= 0.56089E+00
  rms(prec ) = 0.71381E+00
  weight for this iteration     100.00

 eigenvalues of (default mixing * dielectric matrix)
  average eigenvalue GAMMA=   0.8659
  0.9950  0.9950  0.6076

 Free energy of the ion-electron system (eV)
  ---------------------------------------------------
  alpha Z        PSCENC =       254.25430495
  Ewald energy   TEWEN  =     -5016.19048431
  -Hartree energ DENC   =     -2064.17325521
  -exchange      EXHF   =         0.00000000
  -V(xc)+E(xc)   XCENC  =       224.22627799
  PAW double counting   =      6599.20486805    -6605.63156144
  entropy T*S    EENTRO =         0.00000000
  eigenvalues    EBANDS =      -882.66761020
  atomic energy  EATOM  =      7412.58502283
  Solvation  Ediel_sol  =         0.00000000
  ---------------------------------------------------
  free energy    TOTEN  =       -78.39243734 eV

  energy without entropy =      -78.39243734  energy(sigma->0) =      -78.39243734


--------------------------------------------------------------------------------------------------------




--------------------------------------- Iteration      1(   9)  ---------------------------------------


    POTLOK:  cpu time    0.0476: real time    0.0476
    SETDIJ:  cpu time    2.6920: real time    2.6921
atom =   1  type =  1  l = 2
 
 onsite density matrix
 
spin component  1
 
  0.2550  0.0000  0.1169  0.0000 -0.0000
  0.0000  0.2244  0.0000  0.1209  0.0000
  0.1169  0.0000  0.1419  0.0000  0.0000
  0.0000  0.1209  0.0000  0.2244  0.0000
 -0.0000  0.0000  0.0000  0.0000  0.1123
 
spin component  2
 
  0.5051  0.0000 -0.2656  0.0000  0.0000
  0.0000  0.6433  0.0000 -0.3017  0.0000
 -0.2656  0.0000  0.7712  0.0000  0.0000
  0.0000 -0.3017  0.0000  0.6433  0.0000
  0.0000  0.0000  0.0000  0.0000  0.9499
 
 occupancies and eigenvectors
 
  o =  0.0686  v = -0.5313  0.0000  0.8472  0.0000 -0.0000  0.0000  0.0000  0.0000  0.0000  0.0000      0.0000  0.0000  0.0000  0.0000  0.0000  0.0000  0.0000  0.0000  0.0000  0.0000
  o =  0.1035  v =  0.0000  0.7071  0.0000 -0.7071 -0.0000  0.0000  0.0000  0.0000  0.0000  0.0000      0.0000  0.0000  0.0000  0.0000  0.0000  0.0000  0.0000  0.0000  0.0000  0.0000
  o =  0.1123  v =  0.0000  0.0000  0.0000  0.0000  1.0000  0.0000  0.0000  0.0000  0.0000  0.0000      0.0000  0.0000  0.0000  0.0000  0.0000  0.0000  0.0000  0.0000  0.0000  0.0000
  o =  0.3283  v = -0.8472  0.0000 -0.5313  0.0000  0.0000  0.0000  0.0000  0.0000  0.0000  0.0000      0.0000  0.0000  0.0000  0.0000  0.0000  0.0000  0.0000  0.0000  0.0000  0.0000
  o =  0.3411  v =  0.0000  0.0000  0.0000  0.0000  0.0000  0.8508 -0.0000  0.5255 -0.0000 -0.0000      0.0000  0.0000  0.0000  0.0000  0.0000  0.0000  0.0000  0.0000  0.0000  0.0000
  o =  0.3416  v =  0.0000  0.0000  0.0000  0.0000  0.0000 -0.0000 -0.7071 -0.0000 -0.7071  0.0000      0.0000  0.0000  0.0000  0.0000  0.0000  0.0000  0.0000  0.0000  0.0000  0.0000
  o =  0.3453  v =  0.0000 -0.7071  0.0000 -0.7071  0.0000  0.0000  0.0000  0.0000  0.0000  0.0000      0.0000  0.0000  0.0000  0.0000  0.0000  0.0000  0.0000  0.0000  0.0000  0.0000
  o =  0.9352  v =  0.0000  0.0000  0.0000  0.0000  0.0000 -0.5255 -0.0000  0.8508  0.0000 -0.0000      0.0000  0.0000  0.0000  0.0000  0.0000  0.0000  0.0000  0.0000  0.0000  0.0000
  o =  0.9450  v =  0.0000  0.0000  0.0000  0.0000  0.0000  0.0000 -0.7071 -0.0000  0.7071 -0.0000      0.0000  0.0000  0.0000  0.0000  0.0000  0.0000  0.0000  0.0000  0.0000  0.0000
  o =  0.9499  v =  0.0000  0.0000  0.0000  0.0000  0.0000 -0.0000 -0.0000  0.0000  0.0000  1.0000      0.0000  0.0000  0.0000  0.0000  0.0000  0.0000  0.0000  0.0000  0.0000  0.0000
atom =   2  type =  1  l = 2
 
 onsite density matrix
 
spin component  1
 
  0.5051  0.0000  0.2656  0.0000 -0.0000
  0.0000  0.6433  0.0000  0.3017  0.0000
  0.2656  0.0000  0.7712  0.0000  0.0000
  0.0000  0.3017  0.0000  0.6433  0.0000
 -0.0000  0.0000  0.0000  0.0000  0.9499
 
spin component  2
 
  0.2550  0.0000 -0.1169  0.0000  0.0000
  0.0000  0.2244  0.0000 -0.1209  0.0000
 -0.1169  0.0000  0.1419  0.0000  0.0000
  0.0000 -0.1209  0.0000  0.2244  0.0000
  0.0000  0.0000  0.0000  0.0000  0.1123
 
 occupancies and eigenvectors
 
  o =  0.0686  v =  0.0000  0.0000  0.0000  0.0000  0.0000 -0.5313  0.0000 -0.8472  0.0000  0.0000      0.0000  0.0000  0.0000  0.0000  0.0000  0.0000  0.0000  0.0000  0.0000  0.0000
  o =  0.1035  v =  0.0000  0.0000  0.0000  0.0000  0.0000  0.0000  0.7071  0.0000  0.7071  0.0000      0.0000  0.0000  0.0000  0.0000  0.0000  0.0000  0.0000  0.0000  0.0000  0.0000
  o =  0.1123  v =  0.0000  0.0000  0.0000  0.0000  0.0000  0.0000  0.0000 -0.0000  0.0000 -1.0000      0.0000  0.0000  0.0000  0.0000  0.0000  0.0000  0.0000  0.0000  0.0000  0.0000
  o =  0.3283  v =  0.0000  0.0000  0.0000  0.0000  0.0000 -0.8472  0.0000  0.5313  0.0000 -0.0000      0.0000  0.0000  0.0000  0.0000  0.0000  0.0000  0.0000  0.0000  0.0000  0.0000
  o =  0.3411  v = -0.8508  0.0000  0.5255  0.0000 -0.0000  0.0000  0.0000  0.0000  0.0000  0.0000      0.0000  0.0000  0.0000  0.0000  0.0000  0.0000  0.0000  0.0000  0.0000  0.0000
  o =  0.3416  v =  0.0000 -0.7071 -0.0000  0.7071 -0.0000  0.0000  0.0000  0.0000  0.0000  0.0000      0.0000  0.0000  0.0000  0.0000  0.0000  0.0000  0.0000  0.0000  0.0000  0.0000
  o =  0.3453  v =  0.0000  0.0000  0.0000  0.0000  0.0000  0.0000 -0.7071  0.0000  0.7071 -0.0000      0.0000  0.0000  0.0000  0.0000  0.0000  0.0000  0.0000  0.0000  0.0000  0.0000
  o =  0.9352  v = -0.5255  0.0000 -0.8508  0.0000  0.0000  0.0000  0.0000  0.0000  0.0000  0.0000      0.0000  0.0000  0.0000  0.0000  0.0000  0.0000  0.0000  0.0000  0.0000  0.0000
  o =  0.9450  v =  0.0000 -0.7071 -0.0000 -0.7071 -0.0000  0.0000  0.0000  0.0000  0.0000  0.0000      0.0000  0.0000  0.0000  0.0000  0.0000  0.0000  0.0000  0.0000  0.0000  0.0000
  o =  0.9499  v =  0.0000  0.0000 -0.0000  0.0000 -1.0000  0.0000  0.0000  0.0000  0.0000  0.0000      0.0000  0.0000  0.0000  0.0000  0.0000  0.0000  0.0000  0.0000  0.0000  0.0000
     EDDAV:  cpu time    1.0590: real time    1.0591
 BZINTS: Fermi energy:  5.917577; 54.000000 electrons
         Band energy:-885.577293;  BLOECHL correction:  0.000000
       DOS:  cpu time    0.0014: real time    0.0014
    CHARGE:  cpu time    0.2353: real time    0.2353
    MIXING:  cpu time    0.0010: real time    0.0010
    --------------------------------------------
      LOOP:  cpu time    4.0364: real time    4.0365

 eigenvalue-minimisations  :  2168
 total energy-change (2. order) : 0.1993599E+00  (-0.4984143E-01)
 number of electron      54.0000000 magnetization      -0.0000000
 augmentation part       12.0601175 magnetization      -0.0000000

 Broyden mixing:
  rms(total) = 0.29615E+00    rms(broyden)= 0.29613E+00
  rms(prec ) = 0.49652E+00
  weight for this iteration     100.00

 eigenvalues of (default mixing * dielectric matrix)
  average eigenvalue GAMMA=   1.0468
  1.7297  1.1517  0.6529  0.6529

 Free energy of the ion-electron system (eV)
  ---------------------------------------------------
  alpha Z        PSCENC =       254.25430495
  Ewald energy   TEWEN  =     -5016.19048431
  -Hartree energ DENC   =     -2061.59974008
  -exchange      EXHF   =         0.00000000
  -V(xc)+E(xc)   XCENC  =       225.70471140
  PAW double counting   =      6787.05659862    -6794.42619821
  entropy T*S    EENTRO =         0.00000000
  eigenvalues    EBANDS =      -885.57729267
  atomic energy  EATOM  =      7412.58502283
  Solvation  Ediel_sol  =         0.00000000
  ---------------------------------------------------
  free energy    TOTEN  =       -78.19307747 eV

  energy without entropy =      -78.19307747  energy(sigma->0) =      -78.19307747


--------------------------------------------------------------------------------------------------------




--------------------------------------- Iteration      1(  10)  ---------------------------------------


    POTLOK:  cpu time    0.0478: real time    0.0478
    SETDIJ:  cpu time    2.6903: real time    2.6903
atom =   1  type =  1  l = 2
 
 onsite density matrix
 
spin component  1
 
  0.2254  0.0000  0.0986  0.0000  0.0000
  0.0000  0.2092  0.0000  0.0926  0.0000
  0.0986  0.0000  0.1252  0.0000 -0.0000
  0.0000  0.0926  0.0000  0.2092  0.0000
  0.0000  0.0000 -0.0000  0.0000  0.1335
 
spin component  2
 
  0.5216  0.0000 -0.2532  0.0000 -0.0000
  0.0000  0.6540  0.0000 -0.2816  0.0000
 -0.2532  0.0000  0.7823  0.0000 -0.0000
  0.0000 -0.2816  0.0000  0.6540  0.0000
 -0.0000  0.0000 -0.0000  0.0000  0.9355
 
 occupancies and eigenvectors
 
  o =  0.0647  v = -0.5230 -0.0000  0.8523  0.0000  0.0000  0.0000  0.0000  0.0000  0.0000  0.0000      0.0000  0.0000  0.0000  0.0000  0.0000  0.0000  0.0000  0.0000  0.0000  0.0000
  o =  0.1166  v = -0.0000  0.7071  0.0000 -0.7071 -0.0000  0.0000  0.0000  0.0000  0.0000  0.0000      0.0000  0.0000  0.0000  0.0000  0.0000  0.0000  0.0000  0.0000  0.0000  0.0000
  o =  0.1335  v =  0.0000  0.0000 -0.0000 -0.0000  1.0000  0.0000  0.0000  0.0000  0.0000  0.0000      0.0000  0.0000  0.0000  0.0000  0.0000  0.0000  0.0000  0.0000  0.0000  0.0000
  o =  0.2859  v = -0.8523  0.0000 -0.5230  0.0000  0.0000  0.0000  0.0000  0.0000  0.0000  0.0000      0.0000  0.0000  0.0000  0.0000  0.0000  0.0000  0.0000  0.0000  0.0000  0.0000
  o =  0.3019  v =  0.0000  0.7071  0.0000  0.7071 -0.0000  0.0000  0.0000  0.0000  0.0000  0.0000      0.0000  0.0000  0.0000  0.0000  0.0000  0.0000  0.0000  0.0000  0.0000  0.0000
  o =  0.3672  v =  0.0000  0.0000  0.0000  0.0000  0.0000  0.8538  0.0000  0.5206  0.0000  0.0000      0.0000  0.0000  0.0000  0.0000  0.0000  0.0000  0.0000  0.0000  0.0000  0.0000
  o =  0.3724  v =  0.0000  0.0000  0.0000  0.0000  0.0000  0.0000 -0.7071  0.0000 -0.7071  0.0000      0.0000  0.0000  0.0000  0.0000  0.0000  0.0000  0.0000  0.0000  0.0000  0.0000
  o =  0.9355  v =  0.0000  0.0000  0.0000  0.0000  0.0000  0.0000 -0.0000 -0.0000  0.0000 -1.0000      0.0000  0.0000  0.0000  0.0000  0.0000  0.0000  0.0000  0.0000  0.0000  0.0000
  o =  0.9357  v =  0.0000  0.0000  0.0000  0.0000  0.0000  0.0000 -0.7071 -0.0000  0.7071  0.0000      0.0000  0.0000  0.0000  0.0000  0.0000  0.0000  0.0000  0.0000  0.0000  0.0000
  o =  0.9367  v =  0.0000  0.0000  0.0000  0.0000  0.0000 -0.5206 -0.0000  0.8538  0.0000 -0.0000      0.0000  0.0000  0.0000  0.0000  0.0000  0.0000  0.0000  0.0000  0.0000  0.0000
atom =   2  type =  1  l = 2
 
 onsite density matrix
 
spin component  1
 
  0.5216  0.0000  0.2532  0.0000 -0.0000
  0.0000  0.6540  0.0000  0.2816  0.0000
  0.2532  0.0000  0.7823  0.0000 -0.0000
  0.0000  0.2816  0.0000  0.6540  0.0000
 -0.0000  0.0000 -0.0000  0.0000  0.9355
 
spin component  2
 
  0.2254  0.0000 -0.0986  0.0000 -0.0000
  0.0000  0.2092  0.0000 -0.0926  0.0000
 -0.0986  0.0000  0.1252  0.0000 -0.0000
  0.0000 -0.0926  0.0000  0.2092  0.0000
 -0.0000  0.0000 -0.0000  0.0000  0.1335
 
 occupancies and eigenvectors
 
  o =  0.0647  v =  0.0000  0.0000  0.0000  0.0000  0.0000 -0.5230  0.0000 -0.8523  0.0000 -0.0000      0.0000  0.0000  0.0000  0.0000  0.0000  0.0000  0.0000  0.0000  0.0000  0.0000
  o =  0.1166  v =  0.0000  0.0000  0.0000  0.0000  0.0000  0.0000 -0.7071  0.0000 -0.7071  0.0000      0.0000  0.0000  0.0000  0.0000  0.0000  0.0000  0.0000  0.0000  0.0000  0.0000
  o =  0.1335  v =  0.0000  0.0000  0.0000  0.0000  0.0000  0.0000  0.0000 -0.0000  0.0000  1.0000      0.0000  0.0000  0.0000  0.0000  0.0000  0.0000  0.0000  0.0000  0.0000  0.0000
  o =  0.2859  v =  0.0000  0.0000  0.0000  0.0000  0.0000 -0.8523  0.0000  0.5230  0.0000  0.0000      0.0000  0.0000  0.0000  0.0000  0.0000  0.0000  0.0000  0.0000  0.0000  0.0000
  o =  0.3019  v =  0.0000  0.0000  0.0000  0.0000  0.0000  0.0000  0.7071  0.0000 -0.7071 -0.0000      0.0000  0.0000  0.0000  0.0000  0.0000  0.0000  0.0000  0.0000  0.0000  0.0000
  o =  0.3672  v = -0.8538  0.0000  0.5206  0.0000 -0.0000  0.0000  0.0000  0.0000  0.0000  0.0000      0.0000  0.0000  0.0000  0.0000  0.0000  0.0000  0.0000  0.0000  0.0000  0.0000
  o =  0.3724  v =  0.0000  0.7071  0.0000 -0.7071 -0.0000  0.0000  0.0000  0.0000  0.0000  0.0000      0.0000  0.0000  0.0000  0.0000  0.0000  0.0000  0.0000  0.0000  0.0000  0.0000
  o =  0.9355  v =  0.0000 -0.0000 -0.0000  0.0000 -1.0000  0.0000  0.0000  0.0000  0.0000  0.0000      0.0000  0.0000  0.0000  0.0000  0.0000  0.0000  0.0000  0.0000  0.0000  0.0000
  o =  0.9357  v =  0.0000  0.7071  0.0000  0.7071 -0.0000  0.0000  0.0000  0.0000  0.0000  0.0000      0.0000  0.0000  0.0000  0.0000  0.0000  0.0000  0.0000  0.0000  0.0000  0.0000
  o =  0.9367  v = -0.5206  0.0000 -0.8538  0.0000  0.0000  0.0000  0.0000  0.0000  0.0000  0.0000      0.0000  0.0000  0.0000  0.0000  0.0000  0.0000  0.0000  0.0000  0.0000  0.0000
     EDDAV:  cpu time    1.0510: real time    1.0510
 BZINTS: Fermi energy:  5.980817; 54.000000 electrons
         Band energy:-889.915170;  BLOECHL correction:  0.000000
       DOS:  cpu time    0.0016: real time    0.0016
    CHARGE:  cpu time    0.2353: real time    0.2353
    MIXING:  cpu time    0.0011: real time    0.0011
    --------------------------------------------
      LOOP:  cpu time    4.0272: real time    4.0272

 eigenvalue-minimisations  :  2152
 total energy-change (2. order) : 0.8404654E-01  (-0.2168812E-01)
 number of electron      54.0000000 magnetization       0.0000000
 augmentation part       12.1584123 magnetization       0.0000000

 Broyden mixing:
  rms(total) = 0.86393E-01    rms(broyden)= 0.86369E-01
  rms(prec ) = 0.11923E+00
  weight for this iteration     100.00

 eigenvalues of (default mixing * dielectric matrix)
  average eigenvalue GAMMA=   1.0637
  1.8016  1.3423  0.8053  0.6845  0.6845

 Free energy of the ion-electron system (eV)
  ---------------------------------------------------
  alpha Z        PSCENC =       254.25430495
  Ewald energy   TEWEN  =     -5016.19048431
  -Hartree energ DENC   =     -2058.05404201
  -exchange      EXHF   =         0.00000000
  -V(xc)+E(xc)   XCENC  =       225.86796561
  PAW double counting   =      6855.18697144    -6861.84359984
  entropy T*S    EENTRO =         0.00000000
  eigenvalues    EBANDS =      -889.91516960
  atomic energy  EATOM  =      7412.58502283
  Solvation  Ediel_sol  =         0.00000000
  ---------------------------------------------------
  free energy    TOTEN  =       -78.10903093 eV

  energy without entropy =      -78.10903093  energy(sigma->0) =      -78.10903093


--------------------------------------------------------------------------------------------------------




--------------------------------------- Iteration      1(  11)  ---------------------------------------


    POTLOK:  cpu time    0.0476: real time    0.0476
    SETDIJ:  cpu time    2.6923: real time    2.6924
atom =   1  type =  1  l = 2
 
 onsite density matrix
 
spin component  1
 
  0.2297  0.0000  0.0915  0.0000 -0.0000
  0.0000  0.2190  0.0000  0.0829  0.0000
  0.0915  0.0000  0.1344  0.0000 -0.0000
  0.0000  0.0829  0.0000  0.2190  0.0000
 -0.0000  0.0000 -0.0000  0.0000  0.1541
 
spin component  2
 
  0.5131  0.0000 -0.2494  0.0000  0.0000
  0.0000  0.6435  0.0000 -0.2766  0.0000
 -0.2494  0.0000  0.7707  0.0000 -0.0000
  0.0000 -0.2766  0.0000  0.6435  0.0000
  0.0000  0.0000 -0.0000  0.0000  0.9206
 
 occupancies and eigenvectors
 
  o =  0.0789  v = -0.5187 -0.0000  0.8549  0.0000  0.0000  0.0000  0.0000  0.0000  0.0000  0.0000      0.0000  0.0000  0.0000  0.0000  0.0000  0.0000  0.0000  0.0000  0.0000  0.0000
  o =  0.1361  v = -0.0000  0.7071  0.0000 -0.7071 -0.0000  0.0000  0.0000  0.0000  0.0000  0.0000      0.0000  0.0000  0.0000  0.0000  0.0000  0.0000  0.0000  0.0000  0.0000  0.0000
  o =  0.1541  v =  0.0000  0.0000 -0.0000 -0.0000  1.0000  0.0000  0.0000  0.0000  0.0000  0.0000      0.0000  0.0000  0.0000  0.0000  0.0000  0.0000  0.0000  0.0000  0.0000  0.0000
  o =  0.2852  v = -0.8549  0.0000 -0.5187  0.0000  0.0000  0.0000  0.0000  0.0000  0.0000  0.0000      0.0000  0.0000  0.0000  0.0000  0.0000  0.0000  0.0000  0.0000  0.0000  0.0000
  o =  0.3018  v =  0.0000  0.7071  0.0000  0.7071 -0.0000  0.0000  0.0000  0.0000  0.0000  0.0000      0.0000  0.0000  0.0000  0.0000  0.0000  0.0000  0.0000  0.0000  0.0000  0.0000
  o =  0.3612  v =  0.0000  0.0000  0.0000  0.0000  0.0000 -0.8541  0.0000 -0.5202  0.0000  0.0000      0.0000  0.0000  0.0000  0.0000  0.0000  0.0000  0.0000  0.0000  0.0000  0.0000
  o =  0.3669  v =  0.0000  0.0000  0.0000  0.0000  0.0000  0.0000 -0.7071  0.0000 -0.7071 -0.0000      0.0000  0.0000  0.0000  0.0000  0.0000  0.0000  0.0000  0.0000  0.0000  0.0000
  o =  0.9201  v =  0.0000  0.0000  0.0000  0.0000  0.0000  0.0000  0.7071  0.0000 -0.7071  0.0000      0.0000  0.0000  0.0000  0.0000  0.0000  0.0000  0.0000  0.0000  0.0000  0.0000
  o =  0.9206  v =  0.0000  0.0000  0.0000  0.0000  0.0000  0.0000 -0.0000  0.0000  0.0000  1.0000      0.0000  0.0000  0.0000  0.0000  0.0000  0.0000  0.0000  0.0000  0.0000  0.0000
  o =  0.9226  v =  0.0000  0.0000  0.0000  0.0000  0.0000 -0.5202  0.0000  0.8541  0.0000 -0.0000      0.0000  0.0000  0.0000  0.0000  0.0000  0.0000  0.0000  0.0000  0.0000  0.0000
atom =   2  type =  1  l = 2
 
 onsite density matrix
 
spin component  1
 
  0.5131  0.0000  0.2494  0.0000  0.0000
  0.0000  0.6435  0.0000  0.2766  0.0000
  0.2494  0.0000  0.7707  0.0000 -0.0000
  0.0000  0.2766  0.0000  0.6435  0.0000
  0.0000  0.0000 -0.0000  0.0000  0.9206
 
spin component  2
 
  0.2297  0.0000 -0.0915  0.0000 -0.0000
  0.0000  0.2190  0.0000 -0.0829  0.0000
 -0.0915  0.0000  0.1344  0.0000 -0.0000
  0.0000 -0.0829  0.0000  0.2190  0.0000
 -0.0000  0.0000 -0.0000  0.0000  0.1541
 
 occupancies and eigenvectors
 
  o =  0.0789  v =  0.0000  0.0000  0.0000  0.0000  0.0000 -0.5187  0.0000 -0.8549  0.0000 -0.0000      0.0000  0.0000  0.0000  0.0000  0.0000  0.0000  0.0000  0.0000  0.0000  0.0000
  o =  0.1361  v =  0.0000  0.0000  0.0000  0.0000  0.0000  0.0000 -0.7071  0.0000 -0.7071 -0.0000      0.0000  0.0000  0.0000  0.0000  0.0000  0.0000  0.0000  0.0000  0.0000  0.0000
  o =  0.1541  v =  0.0000  0.0000  0.0000  0.0000  0.0000  0.0000 -0.0000 -0.0000 -0.0000  1.0000      0.0000  0.0000  0.0000  0.0000  0.0000  0.0000  0.0000  0.0000  0.0000  0.0000
  o =  0.2852  v =  0.0000  0.0000  0.0000  0.0000  0.0000 -0.8549  0.0000  0.5187  0.0000  0.0000      0.0000  0.0000  0.0000  0.0000  0.0000  0.0000  0.0000  0.0000  0.0000  0.0000
  o =  0.3018  v =  0.0000  0.0000  0.0000  0.0000  0.0000  0.0000 -0.7071 -0.0000  0.7071  0.0000      0.0000  0.0000  0.0000  0.0000  0.0000  0.0000  0.0000  0.0000  0.0000  0.0000
  o =  0.3612  v =  0.8541  0.0000 -0.5202 -0.0000 -0.0000  0.0000  0.0000  0.0000  0.0000  0.0000      0.0000  0.0000  0.0000  0.0000  0.0000  0.0000  0.0000  0.0000  0.0000  0.0000
[...]
 -0.000   0.000   0.000   0.000  -0.036   0.000  -0.000   0.003
  0.000  -0.000  -0.000   0.102  -0.000   0.021  -0.012   0.000
 -0.000   0.000   0.000   0.000  -0.000  -0.000  -0.000  -0.000
 -0.000  -0.000  -0.000   0.028   0.000  -0.073  -0.004  -0.000
 -0.000  -0.000   0.000   0.004  -0.000  -0.002  -0.006   0.000
 -0.000   0.000   0.000  -0.000   0.004  -0.000  -0.000  -0.009
  0.000   0.000   0.000   0.000  -0.000   0.004  -0.003  -0.000
 -0.000  -0.000   0.000   0.000  -0.001   0.000   0.000   0.000
 -0.000  -0.000  -0.000   0.004  -0.000   0.000  -0.008  -0.000
 -0.000  -0.000  -0.000   0.000  -0.000  -0.000   0.000  -0.000
 -0.000   0.000   0.000   0.002   0.000  -0.004  -0.003  -0.000
 total augmentation occupancy for first ion, spin component:           1
  2.000  -0.057   0.005   0.000   0.000   0.000   0.000   0.000   0.000   0.000   0.000   0.000  -0.000   0.000   0.000   0.000
 -0.057   0.182   0.016   0.000   0.000   0.000   0.000   0.000   0.000   0.000   0.000   0.000   0.016   0.000   0.007   0.000
  0.005   0.016   0.002   0.000   0.000   0.000   0.000   0.000   0.000   0.000   0.000   0.000   0.000   0.000   0.001   0.000
  0.000   0.000   0.000   2.012   0.000  -0.000  -0.213   0.000   0.001   0.069   0.000  -0.000   0.000   0.000   0.000   0.000
  0.000   0.000   0.000   0.000   2.013   0.000   0.000  -0.220   0.000   0.000   0.070   0.000   0.000   0.000   0.000   0.000
  0.000   0.000   0.000  -0.000   0.000   2.012   0.001   0.000  -0.213  -0.000   0.000   0.069   0.000   0.000   0.000   0.000
  0.000   0.000   0.000  -0.213   0.000   0.001   0.530   0.000  -0.003  -0.118   0.000  -0.000   0.000   0.000   0.000   0.000
  0.000   0.000   0.000   0.000  -0.220   0.000   0.000   0.600   0.000   0.000  -0.131   0.000   0.000   0.000   0.000   0.000
  0.000   0.000   0.000   0.001   0.000  -0.213  -0.003   0.000   0.530  -0.000   0.000  -0.118   0.000   0.000   0.000   0.000
  0.000   0.000   0.000   0.069   0.000  -0.000  -0.118   0.000  -0.000   0.027   0.000   0.000   0.000   0.000   0.000   0.000
  0.000   0.000   0.000   0.000   0.070   0.000   0.000  -0.131   0.000   0.000   0.030   0.000   0.000   0.000   0.000   0.000
  0.000   0.000   0.000  -0.000   0.000   0.069  -0.000   0.000  -0.118   0.000   0.000   0.027   0.000   0.000   0.000   0.000
 -0.000   0.016   0.000   0.000   0.000   0.000   0.000   0.000   0.000   0.000   0.000   0.000   0.942   0.000  -0.155   0.000
  0.000   0.000   0.000   0.000   0.000   0.000   0.000   0.000   0.000   0.000   0.000   0.000   0.000   1.073   0.000  -0.195
  0.000   0.007   0.001   0.000   0.000   0.000   0.000   0.000   0.000   0.000   0.000   0.000  -0.155   0.000   1.098   0.000
  0.000   0.000   0.000   0.000   0.000   0.000   0.000   0.000   0.000   0.000   0.000   0.000   0.000  -0.195   0.000   1.073
  0.000   0.000  -0.000   0.000   0.000   0.000   0.000   0.000   0.000   0.000   0.000   0.000  -0.000   0.000   0.000   0.000
  0.000  -0.005  -0.000   0.000   0.000   0.000   0.000   0.000   0.000   0.000   0.000   0.000   0.071   0.000   0.100   0.000
  0.000   0.000   0.000   0.000   0.000   0.000   0.000   0.000   0.000   0.000   0.000   0.000   0.000   0.029   0.000   0.113
 -0.001   0.009   0.001   0.000   0.000   0.000   0.000   0.000   0.000   0.000   0.000   0.000   0.103   0.000  -0.021   0.000
  0.000   0.000   0.000   0.000   0.000   0.000   0.000   0.000   0.000   0.000   0.000   0.000   0.000   0.113   0.000   0.029
  0.000   0.000   0.000   0.000   0.000   0.000   0.000   0.000   0.000   0.000   0.000   0.000   0.000   0.000  -0.000   0.000
  0.000  -0.001  -0.000   0.000   0.000   0.000   0.000   0.000   0.000   0.000   0.000   0.000   0.046   0.000   0.025   0.000
  0.000   0.000   0.000   0.000   0.000   0.000   0.000   0.000   0.000   0.000   0.000   0.000   0.000   0.038   0.000   0.027
 -0.000   0.003   0.000   0.000   0.000   0.000   0.000   0.000   0.000   0.000   0.000   0.000   0.025   0.000   0.025   0.000
  0.000   0.000   0.000   0.000   0.000   0.000   0.000   0.000   0.000   0.000   0.000   0.000   0.000   0.027   0.000   0.038
  0.000   0.000   0.000   0.000   0.000   0.000   0.000   0.000   0.000   0.000   0.000   0.000   0.000   0.000  -0.000   0.000
  0.000   0.000   0.000  -0.010   0.000   0.004   0.030   0.000  -0.013  -0.007   0.000   0.003   0.000   0.000   0.000   0.000
  0.000   0.000   0.000   0.000  -0.017   0.000   0.000   0.058   0.000   0.000  -0.013   0.000   0.000   0.000   0.000   0.000
  0.000   0.000   0.000  -0.001   0.000  -0.014   0.018   0.000   0.049  -0.004   0.000  -0.011   0.000   0.000   0.000   0.000
  0.000   0.000   0.000   0.000   0.006   0.000   0.000  -0.004   0.000   0.000   0.001   0.000   0.000   0.000   0.000   0.000
  0.000   0.000   0.000  -0.014   0.000  -0.001   0.049   0.000   0.018  -0.011   0.000  -0.004   0.000   0.000   0.000   0.000
  0.000   0.000   0.000   0.000   0.000   0.000   0.000  -0.000   0.000   0.000  -0.000   0.000   0.000   0.000   0.000   0.000
  0.000   0.000   0.000  -0.004   0.000   0.010   0.013   0.000  -0.030  -0.003   0.000   0.007   0.000   0.000   0.000   0.000
  0.000   0.000   0.000   0.007   0.000  -0.003   0.013   0.000  -0.006  -0.002   0.000   0.001   0.000   0.000   0.000   0.000
  0.000   0.000   0.000   0.000   0.012   0.000   0.000   0.024   0.000   0.000  -0.005   0.000   0.000   0.000   0.000   0.000
  0.000   0.000   0.000  -0.001   0.000   0.009   0.008   0.000   0.021  -0.002   0.000  -0.004   0.000   0.000   0.000   0.000
  0.000   0.000   0.000   0.000  -0.006   0.000   0.000   0.001   0.000   0.000  -0.000   0.000   0.000   0.000   0.000   0.000
  0.000   0.000   0.000   0.009   0.000  -0.001   0.021   0.000   0.008  -0.004   0.000  -0.002   0.000   0.000   0.000   0.000
  0.000   0.000   0.000   0.000   0.000   0.000   0.000  -0.000   0.000   0.000  -0.000   0.000   0.000   0.000   0.000   0.000
  0.000   0.000   0.000   0.003   0.000  -0.007   0.006   0.000  -0.013  -0.001   0.000   0.002   0.000   0.000   0.000   0.000
 total augmentation occupancy for first ion, spin component:           2
 -0.000   0.007  -0.006   0.000   0.000   0.000   0.000   0.000   0.000   0.000   0.000   0.000  -0.000   0.000   0.000   0.000
  0.007  -0.018   0.001   0.000   0.000   0.000   0.000   0.000   0.000   0.000   0.000   0.000  -0.015   0.000   0.005   0.000
 -0.006   0.001   0.000   0.000   0.000   0.000   0.000   0.000   0.000   0.000   0.000   0.000  -0.001   0.000   0.000   0.000
  0.000   0.000   0.000   0.002   0.000  -0.000   0.019   0.000  -0.001  -0.013   0.000   0.001   0.000   0.000   0.000   0.000
  0.000   0.000   0.000   0.000   0.002   0.000   0.000   0.021   0.000   0.000  -0.015   0.000   0.000   0.000   0.000   0.000
  0.000   0.000   0.000  -0.000   0.000   0.002  -0.001   0.000   0.019   0.001   0.000  -0.013   0.000   0.000   0.000   0.000
  0.000   0.000   0.000   0.019   0.000  -0.001  -0.028   0.000  -0.002   0.013   0.000   0.000   0.000   0.000   0.000   0.000
  0.000   0.000   0.000   0.000   0.021   0.000   0.000  -0.048   0.000   0.000   0.019   0.000   0.000   0.000   0.000   0.000
  0.000   0.000   0.000  -0.001   0.000   0.019  -0.002   0.000  -0.028   0.000   0.000   0.013   0.000   0.000   0.000   0.000
  0.000   0.000   0.000  -0.013   0.000   0.001   0.013   0.000   0.000  -0.005   0.000  -0.000   0.000   0.000   0.000   0.000
  0.000   0.000   0.000   0.000  -0.015   0.000   0.000   0.019   0.000   0.000  -0.006   0.000   0.000   0.000   0.000   0.000
  0.000   0.000   0.000   0.001   0.000  -0.013   0.000   0.000   0.013  -0.000   0.000  -0.005   0.000   0.000   0.000   0.000
 -0.000  -0.015  -0.001   0.000   0.000   0.000   0.000   0.000   0.000   0.000   0.000   0.000  -0.341   0.000   0.398   0.000
  0.000   0.000   0.000   0.000   0.000   0.000   0.000   0.000   0.000   0.000   0.000   0.000   0.000  -0.499   0.000   0.417
  0.000   0.005   0.000   0.000   0.000   0.000   0.000   0.000   0.000   0.000   0.000   0.000   0.398   0.000  -0.751   0.000
  0.000   0.000   0.000   0.000   0.000   0.000   0.000   0.000   0.000   0.000   0.000   0.000   0.000   0.417   0.000  -0.499
  0.000   0.000  -0.000   0.000   0.000   0.000   0.000   0.000   0.000   0.000   0.000   0.000   0.000   0.000   0.000   0.000
  0.000   0.002   0.000   0.000   0.000   0.000   0.000   0.000   0.000   0.000   0.000   0.000   0.041   0.000  -0.051   0.000
  0.000   0.000   0.000   0.000   0.000   0.000   0.000   0.000   0.000   0.000   0.000   0.000   0.000   0.073   0.000  -0.064
 -0.000  -0.001   0.000   0.000   0.000   0.000   0.000   0.000   0.000   0.000   0.000   0.000  -0.055   0.000   0.101   0.000
  0.000   0.000   0.000   0.000   0.000   0.000   0.000   0.000   0.000   0.000   0.000   0.000   0.000  -0.064   0.000   0.073
 -0.000  -0.000  -0.000   0.000   0.000   0.000   0.000   0.000   0.000   0.000   0.000   0.000   0.000   0.000  -0.000   0.000
  0.000   0.000   0.000   0.000   0.000   0.000   0.000   0.000   0.000   0.000   0.000   0.000   0.004   0.000  -0.003   0.000
  0.000   0.000   0.000   0.000   0.000   0.000   0.000   0.000   0.000   0.000   0.000   0.000   0.000   0.008   0.000  -0.006
 -0.000  -0.000   0.000   0.000   0.000   0.000   0.000   0.000   0.000   0.000   0.000   0.000  -0.004   0.000   0.009   0.000
  0.000   0.000   0.000   0.000   0.000   0.000   0.000   0.000   0.000   0.000   0.000   0.000   0.000  -0.006   0.000   0.008
 -0.000   0.000   0.000   0.000   0.000   0.000   0.000   0.000   0.000   0.000   0.000   0.000  -0.000   0.000   0.000   0.000
  0.000   0.000   0.000   0.020   0.000  -0.009  -0.003   0.000   0.001   0.001   0.000  -0.000   0.000   0.000   0.000   0.000
  0.000   0.000   0.000   0.000   0.037   0.000   0.000  -0.008   0.000   0.000   0.003   0.000   0.000   0.000   0.000   0.000
  0.000   0.000   0.000   0.007   0.000   0.030  -0.002   0.000  -0.005   0.001   0.000   0.002   0.000   0.000   0.000   0.000
  0.000   0.000   0.000   0.000  -0.012   0.000   0.000   0.002   0.000   0.000  -0.001   0.000   0.000   0.000   0.000   0.000
  0.000   0.000   0.000   0.030   0.000   0.007  -0.005   0.000  -0.002   0.002   0.000   0.001   0.000   0.000   0.000   0.000
  0.000   0.000   0.000   0.000   0.000   0.000   0.000   0.000   0.000   0.000   0.000   0.000   0.000   0.000   0.000   0.000
  0.000   0.000   0.000   0.009   0.000  -0.020  -0.001   0.000   0.003   0.000   0.000  -0.001   0.000   0.000   0.000   0.000
  0.000   0.000   0.000  -0.020   0.000   0.008   0.003   0.000  -0.001  -0.001   0.000   0.000   0.000   0.000   0.000   0.000
  0.000   0.000   0.000   0.000  -0.037   0.000   0.000   0.004   0.000   0.000  -0.001   0.000   0.000   0.000   0.000   0.000
  0.000   0.000   0.000  -0.006   0.000  -0.030   0.000   0.000   0.004  -0.000   0.000  -0.001   0.000   0.000   0.000   0.000
  0.000   0.000   0.000   0.000   0.011   0.000   0.000  -0.001   0.000   0.000   0.000   0.000   0.000   0.000   0.000   0.000
  0.000   0.000   0.000  -0.030   0.000  -0.006   0.004   0.000   0.000  -0.001   0.000  -0.000   0.000   0.000   0.000   0.000
  0.000   0.000   0.000   0.000  -0.000   0.000   0.000   0.000   0.000   0.000   0.000   0.000   0.000   0.000   0.000   0.000
  0.000   0.000   0.000  -0.008   0.000   0.020   0.001   0.000  -0.003  -0.000   0.000   0.001   0.000   0.000   0.000   0.000


------------------------ aborting loop because EDIFF is reached ----------------------------------------


 


 total charge     
 
# of ion       s       p       d       f       tot
--------------------------------------------------
    1        2.160   6.321   4.396   0.055  12.933
    2        2.161   6.311   4.463   0.056  12.992
    3        1.627   3.680   0.018   0.000   5.325
    4        1.627   3.680   0.018   0.000   5.325
    5        1.630   3.645   0.019   0.000   5.294
    6        1.630   3.645   0.019   0.000   5.294
--------------------------------------------------
tot         10.834  27.283   8.935   0.111  47.163

 


 magnetization (x)
 
# of ion       s       p       d       f       tot
--------------------------------------------------
    1       -0.012  -0.016  -2.546  -0.000  -2.574
    2        0.014   0.013   2.579  -0.000   2.606
    3        0.002   0.046   0.002   0.000   0.051
    4        0.002   0.046   0.002   0.000   0.051
    5       -0.001  -0.066  -0.002   0.000  -0.069
    6       -0.001  -0.066  -0.002   0.000  -0.069
--------------------------------------------------
tot          0.005  -0.044   0.034  -0.000  -0.004

 
    CHARGE:  cpu time    0.0874: real time    0.0874
    FORLOC:  cpu time    0.0016: real time    0.0016
    FORNL :  cpu time    0.4569: real time    0.4569
    STRESS:  cpu time    3.1747: real time    3.1748
    FORCOR:  cpu time    0.0449: real time    0.0449
    FORHAR:  cpu time    0.0032: real time    0.0032
    MIXING:  cpu time    0.0025: real time    0.0025
    OFIELD:  cpu time    0.0000: real time    0.0000

  FORCE on cell =-STRESS in cart. coord.  units (eV):
  Direction    XX          YY          ZZ          XY          YZ          ZX
  --------------------------------------------------------------------------------------
  Alpha Z   254.25430   254.25430   254.25430
  Ewald   -1942.30586 -1942.30586 -1131.58122     0.00000    -0.00000     0.00000
  Hartree   520.79005   520.79005  1018.46501     0.00000    -0.00000    -0.00000
  E(xc)    -199.77360  -199.82841  -200.20420    -0.03860     0.00051    -0.02790
  Local      92.70733    92.70733 -1188.19948    -0.00000    -0.00000    -0.00000
  n-local  -167.35862  -167.13914  -166.34063    -0.17504    -0.24289    -0.16741
  augment   224.27054   224.27054   219.26556     0.00000     0.00000     0.00000
  Kinetic  1218.09399  1216.54434  1194.35421    -1.49568    -0.05675    -0.97392
  Fock        0.00000     0.00000     0.00000     0.00000     0.00000     0.00000
  -------------------------------------------------------------------------------------
  Total      -0.01435    -0.01435     0.01356    -0.00000     0.00000     0.00000
  in kB      -0.42320    -0.42320     0.39979    -0.00000     0.00000     0.00000
  external pressure =       -0.15 kB  Pullay stress =        0.00 kB


 VOLUME and BASIS-vectors are now :
 -----------------------------------------------------------------------------
  energy-cutoff  :      600.00
  volume of cell :       54.33
      direct lattice vectors                 reciprocal lattice vectors
     4.368909487  0.000000000  0.000000000     0.228890070  0.000000000  0.000000000
     0.000000000  4.368909487  0.000000000     0.000000000  0.228890070  0.000000000
     0.000000000  0.000000000  2.846133887     0.000000000  0.000000000  0.351353815

  length of vectors
     4.368909487  4.368909487  2.846133887     0.228890070  0.228890070  0.351353815


 FORCES acting on ions
    electron-ion (+dipol)            ewald-force                    non-local-force                 convergence-correction
 -----------------------------------------------------------------------------------------------
   0.209E-11 0.781E-11 0.637E-11   -.568E-13 0.171E-12 -.394E-14   0.000E+00 0.000E+00 0.000E+00   -.771E-13 -.854E-13 -.943E-13
   -.266E-13 -.306E-13 0.384E-13   -.114E-12 -.114E-12 -.828E-14   0.000E+00 0.000E+00 0.000E+00   -.406E-13 -.630E-13 0.310E-14
   -.542E+02 0.542E+02 0.234E-11   0.574E+02 -.574E+02 0.416E-14   -.324E+01 0.324E+01 -.139E-16   -.105E-04 0.105E-04 -.763E-13
   0.542E+02 -.542E+02 -.429E-11   -.574E+02 0.574E+02 0.392E-14   0.324E+01 -.324E+01 0.139E-16   0.105E-04 -.105E-04 0.502E-13
   0.542E+02 0.542E+02 -.993E-06   -.574E+02 -.574E+02 0.461E-14   0.324E+01 0.324E+01 0.139E-16   0.105E-04 0.105E-04 0.154E-13
   -.542E+02 -.542E+02 0.993E-06   0.574E+02 0.574E+02 0.432E-14   -.324E+01 -.324E+01 -.139E-16   -.105E-04 -.105E-04 -.364E-13
 -----------------------------------------------------------------------------------------------
   -.101E-11 0.922E-11 0.685E-11   -.711E-14 0.568E-13 0.479E-14   0.888E-15 -.444E-15 0.000E+00   -.210E-12 -.229E-12 -.138E-12
 
 
 POSITION                                       TOTAL-FORCE (eV/Angst)
 -----------------------------------------------------------------------------------
      2.18445      2.18445      1.42307         0.000000      0.000000     -0.000000
      0.00000      0.00000      0.00000         0.000000      0.000000     -0.000000
      0.85487      3.51404      1.42307        -0.000532      0.000532      0.000000
      3.51404      0.85487      1.42307         0.000532     -0.000532     -0.000000
      1.32959      1.32959      0.00000         0.000532      0.000532      0.000000
      3.03932      3.03932      0.00000        -0.000532     -0.000532     -0.000000
 -----------------------------------------------------------------------------------
    total drift:                               -0.000000      0.000000      0.000000


--------------------------------------------------------------------------------------------------------



  FREE ENERGIE OF THE ION-ELECTRON SYSTEM (eV)
  ---------------------------------------------------
  free  energy   TOTEN  =       -78.09023098 eV

  energy  without entropy=      -78.09023098  energy(sigma->0) =      -78.09023098
 


--------------------------------------------------------------------------------------------------------


    POTLOK:  cpu time    2.7553: real time    2.7553


--------------------------------------------------------------------------------------------------------




--------------------------------------------------------------------------------------------------------


  
 reached required accuracy - stopping structural energy minimisation
     LOOP+:  cpu time   90.8792: real time   90.9014
    4ORBIT:  cpu time    0.0000: real time    0.0000
 


 total charge     
 
# of ion       s       p       d       f       tot
--------------------------------------------------
    1        2.160   6.321   4.396   0.055  12.933
    2        2.161   6.311   4.463   0.056  12.992
    3        1.627   3.680   0.018   0.000   5.325
    4        1.627   3.680   0.018   0.000   5.325
    5        1.630   3.645   0.019   0.000   5.294
    6        1.630   3.645   0.019   0.000   5.294
--------------------------------------------------
tot         10.834  27.283   8.935   0.111  47.163

 


 magnetization (x)
 
# of ion       s       p       d       f       tot
--------------------------------------------------
    1       -0.012  -0.016  -2.546  -0.000  -2.574
    2        0.014   0.013   2.579  -0.000   2.606
    3        0.002   0.046   0.002   0.000   0.051
    4        0.002   0.046   0.002   0.000   0.051
    5       -0.001  -0.066  -0.002   0.000  -0.069
    6       -0.001  -0.066  -0.002   0.000  -0.069
--------------------------------------------------
tot          0.005  -0.044   0.034  -0.000  -0.004

 
 BZINTS: Fermi energy:  5.996894; 54.000000 electrons
         Band energy:-886.906157;  BLOECHL correction:  0.000000

 total amount of memory used by VASP MPI-rank0    39751. kBytes
=======================================================================

   base      :      30000. kBytes
   nonl-proj :       2784. kBytes
   fftplans  :       2584. kBytes
   grid      :       2845. kBytes
   one-center:        322. kBytes
   wavefun   :       1216. kBytes
 
  
  
 General timing and accounting informations for this job:
 ========================================================
  
                  Total CPU time used (sec):       92.365
                            User time (sec):       63.262
                          System time (sec):       29.103
                         Elapsed time (sec):       92.477
  
                   Maximum memory used (kb):       69564.
                   Average memory used (kb):           0.
  
                          Minor page faults:        61865
                          Major page faults:            8
                 Voluntary context switches:          612
