 vasp.5.4.4.18Apr17-6-g9f103f2a35 (build Apr 24 2018 11:19:41) complex          
  
 executed on         CrayXC-Intel date 2021.08.25  23:28:20
 running on  192 total cores
 distrk:  each k-point on   48 cores,    4 groups
 distr:  one band on NCORES_PER_BAND=  12 cores,    4 groups


--------------------------------------------------------------------------------------------------------


 INCAR:
 POTCAR:    PAW_PBE Mn_pv 02Aug2007               
 POTCAR:    PAW_PBE F 08Apr2002                   
 POTCAR:    PAW_PBE H 15Jun2001                   

 ----------------------------------------------------------------------------- 
|                                                                             |
|           W    W    AA    RRRRR   N    N  II  N    N   GGGG   !!!           |
|           W    W   A  A   R    R  NN   N  II  NN   N  G    G  !!!           |
|           W    W  A    A  R    R  N N  N  II  N N  N  G       !!!           |
|           W WW W  AAAAAA  RRRRR   N  N N  II  N  N N  G  GGG   !            |
|           WW  WW  A    A  R   R   N   NN  II  N   NN  G    G                |
|           W    W  A    A  R    R  N    N  II  N    N   GGGG   !!!           |
|                                                                             |
|      You have enabled k-point parallelism (KPAR>1).                         |
|      This developmental code was originally  written by Paul Kent at ORNL,  |
|      and carefully double checked in Vienna.                                |
|      GW as well as linear response parallelism added by Martijn Marsman     |
|      and Georg Kresse.                                                      |
|      Carefully verify results versus KPAR=1.                                |
|      Report problems to Paul Kent and Vienna.                               |
|                                                                             |
 ----------------------------------------------------------------------------- 

 POTCAR:    PAW_PBE Mn_pv 02Aug2007               
   VRHFIN =Mn: 3p4s3d                                                           
   LEXCH  = PE                                                                  
   EATOM  =  2025.2664 eV,  148.8529 Ry                                         
                                                                                
   TITEL  = PAW_PBE Mn_pv 02Aug2007                                             
   LULTRA =        F    use ultrasoft PP ?                                      
   IUNSCR =        1    unscreen: 0-lin 1-nonlin 2-no                           
   RPACOR =    2.080    partial core radius                                     
   POMASS =   54.938; ZVAL   =   13.000    mass and valenz                      
   RCORE  =    2.300    outmost cutoff radius                                   
   RWIGS  =    2.500; RWIGS  =    1.323    wigner-seitz radius (au A)           
   ENMAX  =  269.864; ENMIN  =  202.398 eV                                      
   ICORE  =        3    local potential                                         
   LCOR   =        T    correct aug charges                                     
   LPAW   =        T    paw PP                                                  
   EAUG   =  569.085                                                            
   DEXC   =    0.000                                                            
   RMAX   =    2.343    core radius for proj-oper                               
   RAUG   =    1.300    factor for augmentation sphere                          
   RDEP   =    2.338    radius for radial grids                                 
   RDEPT  =    1.798    core radius for aug-charge                              
                                                                                
   Atomic configuration                                                         
    8 entries                                                                   
     n  l   j            E        occ.                                          
     1  0  0.50     -6424.8287   2.0000                                         
     2  0  0.50      -739.1154   2.0000                                         
     2  1  1.50      -625.3949   6.0000                                         
     3  0  0.50       -81.6100   2.0000                                         
     3  1  1.50       -50.4667   6.0000                                         
     3  2  2.50        -3.3745   6.0000                                         
     4  0  0.50        -4.1331   1.0000                                         
     4  3  2.50        -1.3606   0.0000                                         
   Description                                                                  
     l       E           TYP  RCUT    TYP  RCUT                                 
     1    -50.4666628     23  2.000                                             
     1     -1.3605826     23  2.000                                             
     2     -3.3744729     23  2.300                                             
     2     -4.7350555     23  2.300                                             
     0     -4.1331431     23  2.300                                             
     0      7.6656591     23  2.300                                             
     3      9.5240782     23  2.300                                             
  local pseudopotential read in
  partial core-charges read in
  partial kinetic energy density read in
  atomic valenz-charges read in
  non local Contribution for L=           1  read in
    real space projection operators read in
  non local Contribution for L=           1  read in
    real space projection operators read in
  non local Contribution for L=           2  read in
    real space projection operators read in
  non local Contribution for L=           2  read in
    real space projection operators read in
  non local Contribution for L=           0  read in
    real space projection operators read in
  non local Contribution for L=           0  read in
    real space projection operators read in
    PAW grid and wavefunctions read in
 
   number of l-projection  operators is LMAX  =           6
   number of lm-projection operators is LMMAX =          18
 
 POTCAR:    PAW_PBE F 08Apr2002                   
   VRHFIN =F: s2p5                                                              
   LEXCH  = PE                                                                  
   EATOM  =   659.6475 eV,   48.4827 Ry                                         
                                                                                
   TITEL  = PAW_PBE F 08Apr2002                                                 
   LULTRA =        F    use ultrasoft PP ?                                      
   IUNSCR =        1    unscreen: 0-lin 1-nonlin 2-no                           
   RPACOR =    1.200    partial core radius                                     
   POMASS =   18.998; ZVAL   =    7.000    mass and valenz                      
   RCORE  =    1.520    outmost cutoff radius                                   
   RWIGS  =    1.500; RWIGS  =    0.794    wigner-seitz radius (au A)           
   ENMAX  =  400.000; ENMIN  =  300.000 eV                                      
   ICORE  =        2    local potential                                         
   LCOR   =        T    correct aug charges                                     
   LPAW   =        T    paw PP                                                  
   EAUG   =  613.614                                                            
   RMAX   =    1.555    core radius for proj-oper                               
   RAUG   =    1.300    factor for augmentation sphere                          
   RDEP   =    1.539    radius for radial grids                                 
   RDEPT  =    1.299    core radius for aug-charge                              
                                                                                
   Atomic configuration                                                         
    4 entries                                                                   
     n  l   j            E        occ.                                          
     1  0  0.50      -663.3661   2.0000                                         
     2  0  0.50       -29.8995   2.0000                                         
     2  1  0.50       -11.1114   5.0000                                         
     3  2  1.50       -10.8847   0.0000                                         
   Description                                                                  
     l       E           TYP  RCUT    TYP  RCUT                                 
     0    -29.8995018     23  1.200                                             
     0     -9.5240782     23  1.200                                             
     1    -11.1113914     23  1.520                                             
     1      1.3605826     23  1.520                                             
     2    -10.8846608      7  1.500                                             
  local pseudopotential read in
  partial core-charges read in
  partial kinetic energy density read in
  atomic valenz-charges read in
  non local Contribution for L=           0  read in
    real space projection operators read in
  non local Contribution for L=           0  read in
    real space projection operators read in
  non local Contribution for L=           1  read in
    real space projection operators read in
  non local Contribution for L=           1  read in
    real space projection operators read in
    PAW grid and wavefunctions read in
 
   number of l-projection  operators is LMAX  =           4
   number of lm-projection operators is LMMAX =           8
 
 POTCAR:    PAW_PBE H 15Jun2001                   
   VRHFIN =H: ultrasoft test                                                    
   LEXCH  = PE                                                                  
   EATOM  =    12.4884 eV,    0.9179 Ry                                         
                                                                                
   TITEL  = PAW_PBE H 15Jun2001                                                 
   LULTRA =        F    use ultrasoft PP ?                                      
   IUNSCR =        0    unscreen: 0-lin 1-nonlin 2-no                           
   RPACOR =    0.000    partial core radius                                     
   POMASS =    1.000; ZVAL   =    1.000    mass and valenz                      
   RCORE  =    1.100    outmost cutoff radius                                   
   RWIGS  =    0.700; RWIGS  =    0.370    wigner-seitz radius (au A)           
   ENMAX  =  250.000; ENMIN  =  200.000 eV                                      
   RCLOC  =    0.701    cutoff for local pot                                    
   LCOR   =        T    correct aug charges                                     
   LPAW   =        T    paw PP                                                  
   EAUG   =  400.000                                                            
   RMAX   =    1.123    core radius for proj-oper                               
   RAUG   =    1.200    factor for augmentation sphere                          
   RDEP   =    1.112    radius for radial grids                                 
   RDEPT  =    0.926    core radius for aug-charge                              
                                                                                
   Atomic configuration                                                         
    2 entries                                                                   
     n  l   j            E        occ.                                          
     1  0  0.50        -6.4927   1.0000                                         
     2  1  0.50        -3.4015   0.0000                                         
   Description                                                                  
     l       E           TYP  RCUT    TYP  RCUT                                 
     0     -6.4927494     23  1.100                                             
     0      6.8029130     23  1.100                                             
     1     -4.0817478     23  1.100                                             
  local pseudopotential read in
  atomic valenz-charges read in
  non local Contribution for L=           0  read in
    real space projection operators read in
  non local Contribution for L=           0  read in
    real space projection operators read in
  non local Contribution for L=           1  read in
    real space projection operators read in
    PAW grid and wavefunctions read in
 
   number of l-projection  operators is LMAX  =           3
   number of lm-projection operators is LMMAX =           5
 

 ----------------------------------------------------------------------------- 
|                                                                             |
|  ADVICE TO THIS USER RUNNING 'VASP/VAMP'   (HEAR YOUR MASTER'S VOICE ...):  |
|                                                                             |
|      You have a (more or less) 'large supercell' and for larger cells       |
|      it might be more efficient to use real space projection opertators     |
|      So try LREAL= Auto  in the INCAR   file.                               |
|      Mind:          For very  accurate calculation you might also keep the  |
|      reciprocal projection scheme          (i.e. LREAL=.FALSE.)             |
|                                                                             |
 ----------------------------------------------------------------------------- 


 ----------------------------------------------------------------------------- 
|                                                                             |
|  ADVICE TO THIS USER RUNNING 'VASP/VAMP'   (HEAR YOUR MASTER'S VOICE ...):  |
|                                                                             |
|      You enforced a specific xc-type in the INCAR file,                     |
|      a different type was found on the POTCAR file                          |
|          I HOPE YOU KNOW, WHAT YOU ARE  DOING                               |
|                                                                             |
 ----------------------------------------------------------------------------- 

  PAW_PBE Mn_pv 02Aug2007               :
 energy of atom  1       EATOM=-2025.2664
 kinetic energy error for atom=    0.0020 (will be added to EATOM!!)
  PAW_PBE F 08Apr2002                   :
 energy of atom  2       EATOM= -659.6475
 kinetic energy error for atom=    0.0140 (will be added to EATOM!!)
  PAW_PBE H 15Jun2001                   :
 energy of atom  3       EATOM=  -12.4884
 kinetic energy error for atom=    0.0002 (will be added to EATOM!!)
 
 
 POSCAR: Mn  F  H                                
  positions in direct lattice
  velocities in cartesian coordinates
 exchange correlation table for  LEXCH =       14
   RHO(1)=    0.500       N(1)  =     2000
   RHO(2)=  100.500       N(2)  =     4000
 


--------------------------------------------------------------------------------------------------------


 ion  position               nearest neighbor table
   1  0.169  0.166  0.124-  74 2.10  73 2.11  76 2.12  80 2.13  75 2.13  79 2.14
   2  0.002  0.997  0.998- 170 2.10 204 2.10  75 2.11 117 2.11 105 2.13 182 2.14
   3  0.169  0.166  0.375-  78 2.10  77 2.11  84 2.12  80 2.13  83 2.14  79 2.14
   4  0.996  0.012  0.250- 217 1.69  79 2.12 208 2.13 170 2.15 174 2.16 109 2.17 105 2.17
   5  0.167  0.165  0.624-  82 2.10  81 2.10  87 2.13  88 2.13  84 2.13  83 2.14
   6  0.002  0.997  0.501- 174 2.10 212 2.10  83 2.11 113 2.11 109 2.13 178 2.14
   7  0.167  0.165  0.874-  86 2.10  85 2.10  87 2.13  88 2.13  76 2.13  75 2.14
   8  0.999  1.000  0.749- 216 2.10  87 2.11 178 2.12 182 2.13 117 2.13 113 2.13
   9  0.167  0.499  0.124-  89 2.10  90 2.10  92 2.13  96 2.13  91 2.13  95 2.13
  10  0.001  0.331  1.000- 172 2.10  91 2.10  85 2.13 186 2.13 198 2.14  73 2.15
  11  0.167  0.499  0.374-  93 2.10  94 2.10 100 2.13  96 2.13  99 2.13  95 2.13
  12  1.000  0.333  0.249-  95 2.10 176 2.12 186 2.12 190 2.12  77 2.14  73 2.14
  13  0.167  0.499  0.624-  98 2.10  97 2.10 100 2.13 103 2.13 104 2.13  99 2.14
  14  0.001  0.331  0.499- 180 2.10  99 2.10  81 2.13 190 2.13 194 2.14  77 2.15
  15  0.167  0.499  0.875- 102 2.10 101 2.10  92 2.13 103 2.13 104 2.13  91 2.14
  16  0.000  0.333  0.749- 184 2.10 103 2.10 198 2.13 194 2.13  81 2.13  85 2.13
  17  0.165  0.835  0.125- 105 2.11 106 2.12 111 2.13 112 2.13 108 2.13 107 2.13
  18  1.000  0.667  1.000- 188 2.10 107 2.11 214 2.13 202 2.13  89 2.13 101 2.13
  19  0.165  0.835  0.374- 109 2.11 110 2.12 111 2.13 112 2.13 116 2.13 115 2.13
  20  0.001  0.666  0.249- 111 2.10 192 2.11 202 2.13 206 2.13  93 2.13  89 2.13
  21  0.167  0.832  0.624- 114 2.10 113 2.10 120 2.13 119 2.13 115 2.13 116 2.14
  22  1.000  0.667  0.499- 196 2.10 115 2.11 210 2.13 206 2.13  93 2.13  97 2.13
  23  0.167  0.832  0.874- 118 2.10 117 2.10 120 2.13 119 2.13 107 2.13 108 2.14
  24  0.001  0.665  0.749- 119 2.10 200 2.10 214 2.13 210 2.13  97 2.13 101 2.13
  25  0.500  0.166  0.124- 122 2.10 121 2.11 127 2.13 123 2.13 124 2.13 128 2.13
  26  0.335  0.999  0.999- 123 2.10 108 2.11  74 2.12 165 2.13 153 2.13  86 2.14
  27  0.500  0.166  0.375- 126 2.10 125 2.11 127 2.13 131 2.13 132 2.13 128 2.13
  28  0.334  1.000  0.249- 112 2.10 127 2.10  74 2.13  78 2.13 157 2.14 153 2.14
  29  0.500  0.166  0.625- 130 2.10 129 2.10 131 2.13 136 2.13 132 2.13 135 2.13
  30  0.335  0.999  0.500- 131 2.10 116 2.11  78 2.12 161 2.13 157 2.13  82 2.14
  31  0.500  0.166  0.874- 134 2.10 133 2.11 123 2.13 136 2.13 124 2.13 135 2.13
  32  0.334  0.999  0.749- 135 2.10 120 2.10  86 2.13  82 2.13 161 2.13 165 2.13
  33  0.500  0.501  0.125- 138 2.11 137 2.11 140 2.13 144 2.13 143 2.13 139 2.14
  34  0.334  0.333  0.999- 139 2.10  76 2.11 133 2.13 102 2.13 121 2.13  90 2.13
  35  0.500  0.501  0.374- 141 2.11 142 2.11 148 2.13 144 2.13 143 2.13 147 2.13
  36  0.334  0.333  0.249- 143 2.10  80 2.11  94 2.13  90 2.13 125 2.13 121 2.13
  37  0.500  0.500  0.624- 145 2.10 146 2.10 147 2.13 152 2.13 151 2.13 148 2.13
  38  0.334  0.333  0.499- 147 2.10  84 2.11  98 2.13 129 2.13 125 2.13  94 2.13
  39  0.500  0.500  0.875- 149 2.10 150 2.10 139 2.13 152 2.13 151 2.13 140 2.13
  40  0.334  0.332  0.749- 151 2.10  88 2.11 129 2.13 133 2.13 102 2.13  98 2.13
  41  0.500  0.832  0.124- 153 2.10 154 2.10 159 2.13 155 2.13 156 2.13 160 2.13
  42  0.333  0.666  1.000- 155 2.10  92 2.10 137 2.13 118 2.13 106 2.13 149 2.14
  43  0.500  0.832  0.374- 157 2.10 158 2.10 159 2.13 163 2.13 164 2.13 160 2.13
  44  0.331  0.668  0.249- 159 2.10  96 2.10 106 2.13 110 2.13 141 2.14 137 2.14
  45  0.500  0.832  0.625- 162 2.10 161 2.10 168 2.13 164 2.13 167 2.13 163 2.13
  46  0.333  0.666  0.499- 163 2.10 100 2.10 141 2.13 114 2.13 110 2.13 145 2.14
  47  0.500  0.832  0.874- 166 2.10 165 2.10 168 2.13 156 2.13 167 2.13 155 2.13
  48  0.333  0.666  0.749- 104 2.10 167 2.10 145 2.13 149 2.13 118 2.13 114 2.13
  49  0.831  0.166  0.123- 169 2.10 170 2.12 175 2.13 171 2.13 172 2.13 176 2.16
  50  0.666  0.999  0.999- 171 2.10 156 2.10 201 2.13 134 2.13 213 2.13 122 2.13
  51  0.831  0.165  0.376- 173 2.10 174 2.12 175 2.13 179 2.13 180 2.13 176 2.16
  52  0.667  0.999  0.249- 160 2.10 175 2.11 126 2.13 205 2.13 122 2.13 201 2.13
  53  0.833  0.166  0.625- 178 2.11 177 2.11 179 2.13 184 2.13 183 2.13 180 2.14
  54  0.666  0.999  0.500- 179 2.10 164 2.10 205 2.13 130 2.13 209 2.13 126 2.13
  55  0.833  0.166  0.874- 182 2.11 181 2.11 171 2.13 184 2.13 183 2.13 172 2.14
  56  0.667  0.999  0.749- 183 2.10 168 2.11 134 2.13 130 2.13 209 2.13 213 2.13
  57  0.834  0.499  0.124- 185 2.10 186 2.11 188 2.13 187 2.13 192 2.13 191 2.13
  58  0.666  0.333  0.999- 124 2.10 187 2.10 169 2.13 150 2.13 138 2.13 181 2.13
  59  0.834  0.499  0.374- 189 2.10 190 2.11 196 2.13 195 2.13 192 2.13 191 2.13
  60  0.666  0.334  0.250- 128 2.10 191 2.10 138 2.13 142 2.13 169 2.13 173 2.13
  61  0.834  0.499  0.624- 193 2.11 194 2.11 200 2.13 196 2.13 199 2.13 195 2.13
  62  0.666  0.333  0.500- 132 2.10 195 2.10 173 2.13 146 2.13 142 2.13 177 2.13
  63  0.834  0.499  0.875- 197 2.11 198 2.11 200 2.13 188 2.13 199 2.13 187 2.13
  64  0.667  0.333  0.750- 199 2.10 136 2.10 181 2.13 177 2.13 150 2.13 146 2.13
  65  0.835  0.835  0.125- 201 2.10 202 2.10 204 2.13 207 2.14 208 2.14 203 2.15
  66  0.668  0.666  1.000- 203 2.10 140 2.11 185 2.13 166 2.13 154 2.13 197 2.13
  67  0.835  0.835  0.374- 205 2.10 206 2.11 212 2.13 207 2.14 208 2.14 211 2.15
  68  0.668  0.667  0.249- 207 2.11 144 2.11 158 2.13 154 2.13 185 2.13 189 2.13
  69  0.833  0.831  0.625- 210 2.11 209 2.11 212 2.12 215 2.13 211 2.13 216 2.14
  70  0.668  0.666  0.499- 211 2.10 148 2.11 189 2.13 162 2.13 158 2.13 193 2.13
  71  0.833  0.831  0.874- 214 2.11 213 2.11 204 2.12 215 2.13 203 2.13 216 2.13
  72  0.667  0.665  0.749- 152 2.10 215 2.10 166 2.13 193 2.13 162 2.13 197 2.13
  73  0.063  0.263  0.126-   1 2.11  12 2.14  10 2.15
  74  0.273  0.066  0.123-   1 2.10  26 2.12  28 2.13
  75  0.102  0.100  0.000-   2 2.11   1 2.13   7 2.14
  76  0.231  0.232  0.999-  34 2.11   1 2.12   7 2.13
  77  0.063  0.263  0.372-   3 2.11  12 2.14  14 2.15
  78  0.273  0.066  0.376-   3 2.10  30 2.12  28 2.13
  79  0.118  0.089  0.249-   4 2.12   1 2.14   3 2.14
  80  0.231  0.233  0.249-  36 2.11   1 2.13   3 2.13
  81  0.065  0.267  0.625-   5 2.10  14 2.13  16 2.13
  82  0.269  0.064  0.624-   5 2.10  32 2.13  30 2.14
  83  0.102  0.100  0.499-   6 2.11   3 2.14   5 2.14
  84  0.231  0.232  0.500-  38 2.11   3 2.12   5 2.13
  85  0.065  0.267  0.874-   7 2.10  10 2.13  16 2.13
  86  0.269  0.064  0.875-   7 2.10  32 2.13  26 2.14
  87  0.101  0.101  0.749-   8 2.11   5 2.13   7 2.13
  88  0.232  0.231  0.749-  40 2.11   7 2.13   5 2.13
  89  0.065  0.601  0.124-   9 2.10  18 2.13  20 2.13
  90  0.269  0.398  0.124-   9 2.10  36 2.13  34 2.13
  91  0.103  0.432  1.000-  10 2.10   9 2.13  15 2.14
  92  0.232  0.564  0.999-  42 2.10   9 2.13  15 2.13
  93  0.065  0.601  0.375-  11 2.10  20 2.13  22 2.13
  94  0.269  0.398  0.374-  11 2.10  36 2.13  38 2.13
  95  0.102  0.434  0.249-  12 2.10  11 2.13   9 2.13
  96  0.231  0.565  0.249-  44 2.10   9 2.13  11 2.13
  97  0.066  0.601  0.623-  13 2.10  24 2.13  22 2.13
  98  0.269  0.398  0.625-  13 2.10  38 2.13  40 2.13
  99  0.102  0.433  0.499-  14 2.10  11 2.13  13 2.14
 100  0.232  0.564  0.499-  46 2.10  11 2.13  13 2.13
 101  0.066  0.601  0.875-  15 2.10  24 2.13  18 2.13
 102  0.269  0.398  0.874-  15 2.10  34 2.13  40 2.13
 103  0.101  0.434  0.749-  16 2.10  13 2.13  15 2.13
 104  0.231  0.564  0.749-  48 2.10  13 2.13  15 2.13
 105  0.063  0.938  0.128-  17 2.11   2 2.13   4 2.17
 106  0.267  0.733  0.124-  17 2.12  44 2.13  42 2.13
 107  0.100  0.770  1.000-  18 2.11  23 2.13  17 2.13
 108  0.231  0.899  1.000-  26 2.11  17 2.13  23 2.14
 109  0.063  0.938  0.371-  19 2.11   6 2.13   4 2.17
 110  0.267  0.733  0.375-  19 2.12  44 2.13  46 2.13
 111  0.102  0.768  0.249-  20 2.10  19 2.13  17 2.13
 112  0.233  0.898  0.249-  28 2.10  17 2.13  19 2.13
 113  0.066  0.934  0.626-  21 2.10   6 2.11   8 2.13
 114  0.268  0.731  0.624-  21 2.10  46 2.13  48 2.13
 115  0.100  0.770  0.499-  22 2.11  21 2.13  19 2.13
 116  0.231  0.899  0.499-  30 2.11  19 2.13  21 2.14
 117  0.066  0.934  0.873-  23 2.10   2 2.11   8 2.13
 118  0.268  0.731  0.874-  23 2.10  42 2.13  48 2.13
 119  0.102  0.767  0.749-  24 2.10  23 2.13  21 2.13
 120  0.233  0.897  0.749-  32 2.10  23 2.13  21 2.13
 121  0.398  0.267  0.124-  25 2.11  34 2.13  36 2.13
 122  0.602  0.064  0.125-  25 2.10  52 2.13  50 2.13
 123  0.436  0.100  0.999-  26 2.10  31 2.13  25 2.13
 124  0.565  0.232  0.999-  58 2.10  31 2.13  25 2.13
 125  0.398  0.267  0.375-  27 2.11  38 2.13  36 2.13
 126  0.602  0.065  0.374-  27 2.10  52 2.13  54 2.13
 127  0.436  0.101  0.249-  28 2.10  25 2.13  27 2.13
 128  0.565  0.232  0.249-  60 2.10  27 2.13  25 2.13
 129  0.399  0.268  0.624-  29 2.10  40 2.13  38 2.13
 130  0.601  0.064  0.625-  29 2.10  56 2.13  54 2.13
 131  0.436  0.100  0.500-  30 2.10  29 2.13  27 2.13
 132  0.565  0.232  0.500-  62 2.10  29 2.13  27 2.13
 133  0.399  0.268  0.875-  31 2.11  34 2.13  40 2.13
 134  0.601  0.064  0.874-  31 2.10  56 2.13  50 2.13
 135  0.435  0.101  0.749-  32 2.10  29 2.13  31 2.13
 136  0.566  0.231  0.749-  64 2.10  31 2.13  29 2.13
 137  0.398  0.602  0.125-  33 2.11  42 2.13  44 2.14
 138  0.602  0.399  0.124-  33 2.11  60 2.13  58 2.13
 139  0.435  0.435  1.000-  34 2.10  39 2.13  33 2.14
 140  0.565  0.565  0.999-  66 2.11  33 2.13  39 2.13
 141  0.398  0.602  0.374-  35 2.11  46 2.13  44 2.14
 142  0.602  0.399  0.375-  35 2.11  60 2.13  62 2.13
 143  0.436  0.435  0.249-  36 2.10  35 2.13  33 2.13
 144  0.566  0.566  0.249-  68 2.11  35 2.13  33 2.13
 145  0.398  0.601  0.624-  37 2.10  48 2.13  46 2.14
 146  0.602  0.398  0.625-  37 2.10  62 2.13  64 2.13
 147  0.435  0.435  0.499-  38 2.10  37 2.13  35 2.13
 148  0.565  0.565  0.500-  70 2.11  35 2.13  37 2.13
 149  0.398  0.601  0.875-  39 2.10  48 2.13  42 2.14
 150  0.602  0.398  0.874-  39 2.10  58 2.13  64 2.13
 151  0.435  0.434  0.749-  40 2.10  37 2.13  39 2.13
 152  0.565  0.565  0.749-  72 2.10  37 2.13  39 2.13
 153  0.399  0.934  0.125-  41 2.10  26 2.13  28 2.14
 154  0.602  0.731  0.124-  41 2.10  68 2.13  66 2.13
 155  0.435  0.767  0.999-  42 2.10  47 2.13  41 2.13
 156  0.565  0.898  0.999-  50 2.10  47 2.13  41 2.13
 157  0.399  0.934  0.374-  43 2.10  30 2.13  28 2.14
 158  0.602  0.731  0.374-  43 2.10  68 2.13  70 2.13
 159  0.435  0.767  0.249-  44 2.10  41 2.13  43 2.13
 160  0.566  0.897  0.249-  52 2.10  43 2.13  41 2.13
 161  0.399  0.934  0.625-  45 2.10  30 2.13  32 2.13
 162  0.602  0.731  0.624-  45 2.10  70 2.13  72 2.13
 163  0.435  0.767  0.499-  46 2.10  45 2.13  43 2.13
 164  0.565  0.898  0.499-  54 2.10  45 2.13  43 2.13
 165  0.399  0.933  0.874-  47 2.10  26 2.13  32 2.13
 166  0.602  0.731  0.875-  47 2.10  66 2.13  72 2.13
 167  0.435  0.767  0.749-  48 2.10  45 2.13  47 2.13
 168  0.566  0.897  0.749-  56 2.11  47 2.13  45 2.13
 169  0.730  0.268  0.124-  49 2.10  58 2.13  60 2.13
 170  0.926  0.057  0.115-   2 2.10  49 2.12   4 2.15
 171  0.765  0.103  0.998-  50 2.10  55 2.13  49 2.13
 172  0.898  0.231  0.000-  10 2.10  49 2.13  55 2.14
 173  0.730  0.267  0.375-  51 2.10  62 2.13  60 2.13
 174  0.926  0.057  0.384-   6 2.10  51 2.12   4 2.16
 175  0.768  0.100  0.249-  52 2.11  49 2.13  51 2.13
 176  0.892  0.237  0.250-  12 2.12  49 2.16  51 2.16
 177  0.732  0.268  0.625-  53 2.11  64 2.13  62 2.13
 178  0.935  0.064  0.624-  53 2.11   8 2.12   6 2.14
 179  0.765  0.103  0.501-  54 2.10  53 2.13  51 2.13
 180  0.898  0.231  0.499-  14 2.10  51 2.13  53 2.14
 181  0.732  0.268  0.874-  55 2.11  64 2.13  58 2.13
 182  0.935  0.064  0.875-  55 2.11   8 2.13   2 2.14
 183  0.768  0.101  0.750-  56 2.10  53 2.13  55 2.13
 184  0.899  0.231  0.749-  16 2.10  53 2.13  55 2.13
 185  0.732  0.601  0.125-  57 2.10  68 2.13  66 2.13
 186  0.936  0.398  0.124-  57 2.11  12 2.12  10 2.13
 187  0.769  0.434  1.000-  58 2.10  57 2.13  63 2.13
 188  0.899  0.565  1.000-  18 2.10  57 2.13  63 2.13
 189  0.732  0.601  0.374-  59 2.10  68 2.13  70 2.13
 190  0.936  0.398  0.375-  59 2.11  12 2.12  14 2.13
 191  0.769  0.434  0.249-  60 2.10  59 2.13  57 2.13
 192  0.899  0.564  0.249-  20 2.11  59 2.13  57 2.13
 193  0.733  0.601  0.624-  61 2.11  72 2.13  70 2.13
 194  0.935  0.397  0.624-  61 2.11  16 2.13  14 2.14
 195  0.769  0.434  0.499-  62 2.10  59 2.13  61 2.13
 196  0.899  0.565  0.499-  22 2.10  59 2.13  61 2.13
 197  0.732  0.601  0.874-  63 2.11  72 2.13  66 2.13
 198  0.935  0.397  0.875-  63 2.11  16 2.13  10 2.14
 199  0.769  0.434  0.750-  64 2.10  63 2.13  61 2.13
 200  0.900  0.563  0.749-  24 2.10  61 2.13  63 2.13
 201  0.732  0.935  0.124-  65 2.10  50 2.13  52 2.13
 202  0.935  0.732  0.125-  65 2.10  20 2.13  18 2.13
 203  0.769  0.768  0.001-  66 2.10  71 2.13  65 2.15
 204  0.901  0.895  0.997-   2 2.10  71 2.12  65 2.13
 205  0.732  0.935  0.375-  67 2.10  54 2.13  52 2.13
 206  0.935  0.732  0.374-  67 2.11  20 2.13  22 2.13
 207  0.770  0.769  0.249-  68 2.11  65 2.14  67 2.14
 208  0.899  0.903  0.249-   4 2.13  65 2.14  67 2.14
 209  0.732  0.934  0.624-  69 2.11  56 2.13  54 2.13
 210  0.935  0.730  0.625-  69 2.11  24 2.13  22 2.13
 211  0.769  0.768  0.498-  70 2.10  69 2.13  67 2.15
 212  0.901  0.894  0.502-   6 2.10  69 2.12  67 2.13
 213  0.732  0.934  0.875-  71 2.11  56 2.13  50 2.13
 214  0.935  0.730  0.874-  71 2.11  24 2.13  18 2.13
 215  0.768  0.767  0.750-  72 2.10  69 2.13  71 2.13
 216  0.898  0.897  0.749-   8 2.10  71 2.13  69 2.14
 217  0.976  0.125  0.250-   4 1.69
 

IMPORTANT INFORMATION: All symmetrisations will be switched off!
NOSYMM: (Re-)initialisation of all symmetry stuff for point group C_1.

 
 
 KPOINTS: KPOINTS created by Atomic Simulation Env

Automatic generation of k-mesh.
Space group operators:
 irot       det(A)        alpha          n_x          n_y          n_z        tau_x        tau_y        tau_z
    1     1.000000     0.000000     1.000000     0.000000     0.000000     0.000000     0.000000     0.000000
 
 Subroutine IBZKPT returns following result:
 ===========================================
 
 Found      4 irreducible k-points:
 
 Following reciprocal coordinates:
            Coordinates               Weight
  0.250000  0.250000  0.250000      2.000000
 -0.250000  0.250000  0.250000      2.000000
  0.250000 -0.250000  0.250000      2.000000
 -0.250000 -0.250000  0.250000      2.000000
 
 Following cartesian coordinates:
            Coordinates               Weight
  0.017066  0.017066  0.018935      2.000000
 -0.017066  0.017066  0.018935      2.000000
  0.017066 -0.017066  0.018935      2.000000
 -0.017066 -0.017066  0.018935      2.000000
 


--------------------------------------------------------------------------------------------------------




 Dimension of arrays:
   k-points           NKPTS =      4   k-points in BZ     NKDIM =      4   number of bands    NBANDS=   1168
   number of dos      NEDOS =   5001   number of ions     NIONS =    217
   non local maximal  LDIM  =      6   non local SUM 2l+1 LMDIM =     18
   total plane-waves  NPLWV = 829440
   max r-space proj   IRMAX =      1   max aug-charges    IRDMAX=  71248
   dimension x,y,z NGX =    96 NGY =   96 NGZ =   90
   dimension x,y,z NGXF=   192 NGYF=  192 NGZF=  180
   support grid    NGXF=   384 NGYF=  384 NGZF=  360
   ions per type =              72 144   1
   NGX,Y,Z   is equivalent  to a cutoff of  10.89, 10.89, 11.33 a.u.
   NGXF,Y,Z  is equivalent  to a cutoff of  21.79, 21.79, 22.66 a.u.

 SYSTEM =  unknown system                          
 POSCAR =  Mn  F  H                                

 Startparameter for this run:
   NWRITE =      2    write-flag & timer
   PREC   = normal    normal or accurate (medium, high low for compatibility)
   ISTART =      1    job   : 0-new  1-cont  2-samecut
   ICHARG =      1    charge: 1-file 2-atom 10-const
   ISPIN  =      2    spin polarized calculation?
   LNONCOLLINEAR =      F non collinear calculations
   LSORBIT =      F    spin-orbit coupling
   INIWAV =      1    electr: 0-lowe 1-rand  2-diag
   LASPH  =      T    aspherical Exc in radial PAW
   METAGGA=      F    non-selfconsistent MetaGGA calc.

 Electronic Relaxation 1
   ENCUT  =  700.0 eV  51.45 Ry    7.17 a.u.  31.60 31.60 28.48*2*pi/ulx,y,z
   ENINI  =  700.0     initial cutoff
   ENAUG  =  613.6 eV  augmentation charge cutoff
   NELM   =     60;   NELMIN=  2; NELMDL=  0     # of ELM steps 
   EDIFF  = 0.1E-06   stopping-criterion for ELM
   LREAL  =      F    real-space projection
   NLSPLINE    = F    spline interpolate recip. space projectors
   LCOMPAT=      F    compatible to vasp.4.4
   GGA_COMPAT  = T    GGA compatible to vasp.4.4-vasp.4.6
   LMAXPAW     = -100 max onsite density
   LMAXMIX     =    4 max onsite mixed and CHGCAR
   VOSKOWN=      0    Vosko Wilk Nusair interpolation
   ROPT   =    0.00000   0.00000   0.00000
 Ionic relaxation
   EDIFFG = -.5E-02   stopping-criterion for IOM
   NSW    =      0    number of steps for IOM
   NBLOCK =      1;   KBLOCK =      1    inner block; outer block 
   IBRION =     -1    ionic relax: 0-MD 1-quasi-New 2-CG
   NFREE  =      0    steps in history (QN), initial steepest desc. (CG)
   ISIF   =      2    stress and relaxation
   IWAVPR =     10    prediction:  0-non 1-charg 2-wave 3-comb
   ISYM   =      0    0-nonsym 1-usesym 2-fastsym
   LCORR  =      T    Harris-Foulkes like correction to forces

   POTIM  = 0.5000    time-step for ionic-motion
   TEIN   =    0.0    initial temperature
   TEBEG  =    0.0;   TEEND  =   0.0 temperature during run
   SMASS  =  -3.00    Nose mass-parameter (am)
   estimated Nose-frequenzy (Omega)   =  0.10E-29 period in steps =****** mass=  -0.490E-26a.u.
   SCALEE = 1.0000    scale energy and forces
   NPACO  =    256;   APACO  = 16.0  distance and # of slots for P.C.
   PSTRESS=    0.0 pullay stress

  Mass of Ions in am
   POMASS =  54.94 19.00  1.00
  Ionic Valenz
   ZVAL   =  13.00  7.00  1.00
  Atomic Wigner-Seitz radii
   RWIGS  =  -1.00 -1.00 -1.00
  virtual crystal weights 
   VCA    =   1.00  1.00  1.00
   NELECT =    1945.0000    total number of electrons
   NUPDOWN=      -1.0000    fix difference up-down

 DOS related values:
   EMIN   =  10.00;   EMAX   =-10.00  energy-range for DOS
   EFERMI =   0.00
   ISMEAR =     0;   SIGMA  =   0.01  broadening in eV -4-tet -1-fermi 0-gaus

 Electronic relaxation 2 (details)
   IALGO  =     68    algorithm
   LDIAG  =      T    sub-space diagonalisation (order eigenvalues)
   LSUBROT=      F    optimize rotation matrix (better conditioning)
   TURBO    =      0    0=normal 1=particle mesh
   IRESTART =      0    0=no restart 2=restart with 2 vectors
   NREBOOT  =      0    no. of reboots
   NMIN     =      0    reboot dimension
   EREF     =   0.00    reference energy to select bands
   IMIX   =      4    mixing-type and parameters
     AMIX     =   0.40;   BMIX     =  1.00
     AMIX_MAG =   1.60;   BMIX_MAG =  1.00
     AMIN     =   0.10
     WC   =   100.;   INIMIX=   1;  MIXPRE=   1;  MAXMIX= -45

 Intra band minimization:
   WEIMIN = 0.0000     energy-eigenvalue tresh-hold
   EBREAK =  0.21E-10  absolut break condition
   DEPER  =   0.30     relativ break condition  

   TIME   =   0.40     timestep for ELM

  volume/ion in A,a.u.               =      13.06        88.12
  Fermi-wavevector in a.u.,A,eV,Ry     =   1.444135  2.729020 28.375312  2.085527
  Thomas-Fermi vector in A             =   2.562464
 
 Write flags
   LWAVE        =      T    write WAVECAR
   LDOWNSAMPLE  =      F    k-point downsampling of WAVECAR
   LCHARG       =      T    write CHGCAR
   LVTOT        =      F    write LOCPOT, total local potential
   LVHAR        =      F    write LOCPOT, Hartree potential only
   LELF         =      F    write electronic localiz. function (ELF)
   LORBIT       =     11    0 simple, 1 ext, 2 COOP (PROOUT), +10 PAW based schemes


 Dipole corrections
   LMONO  =      F    monopole corrections only (constant potential shift)
   LDIPOL =      F    correct potential (dipole corrections)
   IDIPOL =      0    1-x, 2-y, 3-z, 4-all directions 
   EPSILON=  1.0000000 bulk dielectric constant

 LDA+U is selected, type is set to LDAUTYPE =  2
   angular momentum for each species LDAUL =     2   -1   -1
   U (eV)           for each species LDAUU =   4.0  0.0  0.0
   J (eV)           for each species LDAUJ =   0.0  0.0  0.0
 Exchange correlation treatment:
   GGA     =    PS    GGA type
   LEXCH   =    14    internal setting for exchange type
   VOSKOWN=      0    Vosko Wilk Nusair interpolation
   LHFCALC =     F    Hartree Fock is set to
   LHFONE  =     F    Hartree Fock one center treatment
   AEXX    =    0.0000 exact exchange contribution

 Linear response parameters
   LEPSILON=     F    determine dielectric tensor
   LRPA    =     F    only Hartree local field effects (RPA)
   LNABLA  =     F    use nabla operator in PAW spheres
   LVEL    =     F    velocity operator in full k-point grid
   LINTERFAST=   F  fast interpolation
   KINTER  =     0    interpolate to denser k-point grid
   CSHIFT  =0.1000    complex shift for real part using Kramers Kronig
   OMEGAMAX=  -1.0    maximum frequency
   DEG_THRESHOLD= 0.2000000E-02 threshold for treating states as degnerate
   RTIME   =   -0.100 relaxation time in fs
  (WPLASMAI=    0.000 imaginary part of plasma frequency in eV, 0.658/RTIME)
   DFIELD  = 0.0000000 0.0000000 0.0000000 field for delta impulse in time
 
 Orbital magnetization related:
   ORBITALMAG=     F  switch on orbital magnetization
   LCHIMAG   =     F  perturbation theory with respect to B field
   DQ        =  0.001000  dq finite difference perturbation B field
   LLRAUG    =     F  two centre corrections for induced B field



--------------------------------------------------------------------------------------------------------


 Static calculation
 charge density and potential will be updated during run
 spin polarized calculation
 RMM-DIIS sequential band-by-band and
  variant of blocked Davidson during initial phase
 perform sub-space diagonalisation
    before iterative eigenvector-optimisation
 modified Broyden-mixing scheme, WC =      100.0
 initial mixing is a Kerker type mixing with AMIX =  0.4000 and BMIX =      1.0000
 Hartree-type preconditioning will be used
 using additional bands          195
 reciprocal scheme for non local part
 use partial core corrections
 calculate Harris-corrections to forces 
   (improved forces if not selfconsistent)
 use gradient corrections 
 use of overlap-Matrix (Vanderbilt PP)
 Gauss-broadening in eV      SIGMA  =   0.01


--------------------------------------------------------------------------------------------------------


  energy-cutoff  :      700.00
  volume of cell :     2833.48
      direct lattice vectors                 reciprocal lattice vectors
    14.649432430  0.000000000  0.000000000     0.068262030  0.000000000  0.000000000
     0.000000000 14.649432430  0.000000000     0.000000000  0.068262030  0.000000000
     0.000000000  0.000000000 13.203190708     0.000000000  0.000000000  0.075739268

  length of vectors
    14.649432430 14.649432430 13.203190708     0.068262030  0.068262030  0.075739268


 
 old parameters found on file WAVECAR:
  energy-cutoff  :      700.00
  volume of cell :     2833.48
      direct lattice vectors                 reciprocal lattice vectors
    14.649432430  0.000000000  0.000000000     0.068262030  0.000000000  0.000000000
     0.000000000 14.649432430  0.000000000     0.000000000  0.068262030  0.000000000
     0.000000000  0.000000000 13.203190708     0.000000000  0.000000000  0.075739268

  length of vectors

 
 k-points in units of 2pi/SCALE and weight: KPOINTS created by Atomic Simulation Env
   0.01706551  0.01706551  0.01893482       0.250
  -0.01706551  0.01706551  0.01893482       0.250
   0.01706551 -0.01706551  0.01893482       0.250
  -0.01706551 -0.01706551  0.01893482       0.250
 
 k-points in reciprocal lattice and weights: KPOINTS created by Atomic Simulation Env
   0.25000000  0.25000000  0.25000000       0.250
  -0.25000000  0.25000000  0.25000000       0.250
   0.25000000 -0.25000000  0.25000000       0.250
  -0.25000000 -0.25000000  0.25000000       0.250
 
 position of ions in fractional coordinates (direct lattice) 
   0.16931730  0.16563360  0.12398402
   0.00183030  0.99687636  0.99780718
   0.16928595  0.16557309  0.37475871
   0.99602363  0.01151589  0.24954396
   0.16673799  0.16533311  0.62440774
   0.00178283  0.99675811  0.50120071
   0.16681146  0.16537977  0.87431641
   0.99898421  0.99952443  0.74948600
   0.16676569  0.49944512  0.12435964
   0.00076873  0.33117021  0.99984387
   0.16667702  0.49939496  0.37441927
   0.99953885  0.33341682  0.24944385
   0.16666964  0.49895136  0.62419247
   0.00073279  0.33115014  0.49901671
   0.16669681  0.49891994  0.87459478
   0.00003386  0.33251368  0.74942946
   0.16493454  0.83528970  0.12507628
   0.99984413  0.66686336  0.99957756
   0.16497728  0.83527174  0.37373131
   0.00062238  0.66601786  0.24942836
   0.16737906  0.83247084  0.62447937
   0.99980038  0.66686776  0.49925660
   0.16737501  0.83244764  0.87430614
   0.00097961  0.66514529  0.74941303
   0.50023005  0.16605780  0.12438509
   0.33482849  0.99859829  0.99891727
   0.50025106  0.16614002  0.37453607
   0.33370767  0.99981281  0.24937847
   0.50040181  0.16620935  0.62465417
   0.33486329  0.99858770  0.49982352
   0.50045195  0.16618748  0.87428474
   0.33363998  0.99946583  0.74937918
   0.50023136  0.50086032  0.12468487
   0.33374346  0.33318373  0.99939375
   0.50019229  0.50089871  0.37424637
   0.33415468  0.33337338  0.24942858
   0.49977371  0.49954577  0.62429007
   0.33361929  0.33320787  0.49943039
   0.49980460  0.49960936  0.87459183
   0.33355300  0.33237324  0.74939897
   0.50013313  0.83216156  0.12447630
   0.33287360  0.66632659  0.99993306
   0.50007151  0.83210544  0.37432606
   0.33148037  0.66775928  0.24938600
   0.50040202  0.83196799  0.62454104
   0.33286423  0.66629055  0.49888431
   0.50040782  0.83193583  0.87431179
   0.33333786  0.66553291  0.74939244
   0.83093249  0.16566164  0.12348883
   0.66597802  0.99924664  0.99916134
   0.83080819  0.16547370  0.37558096
   0.66681844  0.99858778  0.24948673
   0.83338339  0.16602825  0.62457753
   0.66585903  0.99924526  0.49981271
   0.83336626  0.16604025  0.87443104
   0.66718756  0.99872009  0.74948551
   0.83391810  0.49935773  0.12445619
   0.66636132  0.33333713  0.99929906
   0.83390634  0.49938417  0.37447856
   0.66625685  0.33357541  0.24952243
   0.83408231  0.49908499  0.62430525
   0.66637963  0.33332839  0.49971125
   0.83413452  0.49909224  0.87465998
   0.66700386  0.33311359  0.74951822
   0.83547927  0.83502318  0.12488452
   0.66769848  0.66607675  0.99971366
   0.83547569  0.83507902  0.37411635
   0.66810432  0.66725505  0.24947078
   0.83284677  0.83142652  0.62467229
   0.66761719  0.66611670  0.49921748
   0.83295244  0.83147312  0.87431537
   0.66669396  0.66523582  0.74946177
   0.06320189  0.26339613  0.12645149
   0.27264632  0.06647827  0.12275043
   0.10211523  0.10032800  0.00014080
   0.23132451  0.23222736  0.99880151
   0.06332859  0.26349114  0.37240728
   0.27254949  0.06638462  0.37603685
   0.11784959  0.08914414  0.24931505
   0.23126802  0.23304954  0.24939134
   0.06504245  0.26671185  0.62451013
   0.26866787  0.06433419  0.62418458
   0.10192877  0.10034422  0.49857867
   0.23123422  0.23221370  0.49995727
   0.06505039  0.26668500  0.87433311
   0.26882711  0.06447688  0.87451647
   0.10143607  0.10061235  0.74939684
   0.23187424  0.23083701  0.74933331
   0.06516736  0.60085608  0.12397769
   0.26877523  0.39835136  0.12449110
   0.10252098  0.43249769  0.99985105
   0.23166148  0.56442722  0.99940588
   0.06506207  0.60075782  0.37483988
   0.26866897  0.39833031  0.37430594
   0.10201524  0.43355072  0.24934904
   0.23098607  0.56517536  0.24941502
   0.06561789  0.60081379  0.62348709
   0.26858040  0.39798486  0.62462021
   0.10244774  0.43250987  0.49899846
   0.23161505  0.56440881  0.49934977
   0.06570012  0.60084574  0.87533834
   0.26858542  0.39792367  0.87420604
   0.10144608  0.43406597  0.74938410
   0.23145596  0.56434759  0.74939208
   0.06328042  0.93763766  0.12823197
   0.26683399  0.73255549  0.12381031
   0.10036964  0.76965212  0.99976448
   0.23081212  0.89918158  0.99968366
   0.06340229  0.93773409  0.37064191
   0.26683274  0.73253772  0.37498555
   0.10189450  0.76771133  0.24941485
   0.23258330  0.89831702  0.24937709
   0.06637782  0.93413935  0.62628449
   0.26832350  0.73102177  0.62432004
   0.10032212  0.76967300  0.49903465
   0.23086865  0.89915030  0.49909820
   0.06629657  0.93408795  0.87264165
   0.26833696  0.73101800  0.87445530
   0.10240387  0.76679425  0.74938580
   0.23282600  0.89730630  0.74941201
   0.39813225  0.26724498  0.12430996
   0.60169626  0.06439324  0.12487323
   0.43637382  0.10022514  0.99895721
   0.56497766  0.23168292  0.99938235
   0.39810831  0.26728083  0.37458107
   0.60179993  0.06454617  0.37405819
   0.43588109  0.10069536  0.24949366
   0.56461898  0.23207228  0.24943553
   0.39864617  0.26766316  0.62418377
   0.60114066  0.06395814  0.62528410
   0.43633060  0.10028352  0.49990173
   0.56496944  0.23170287  0.49960777
   0.39870728  0.26766068  0.87459726
   0.60123652  0.06397212  0.87371644
   0.43469832  0.10135742  0.74945149
   0.56550454  0.23148793  0.74947500
   0.39767492  0.60159714  0.12515813
   0.60173688  0.39907409  0.12441500
   0.43515979  0.43475412  0.99996238
   0.56528460  0.56517067  0.99926170
   0.39769640  0.60168209  0.37365108
   0.60169326  0.39907487  0.37461323
   0.43559422  0.43480512  0.24947612
   0.56573431  0.56578624  0.24947462
   0.39801888  0.60073780  0.62399417
   0.60157027  0.39833270  0.62470560
   0.43503635  0.43479837  0.49890863
   0.56522875  0.56520104  0.49968311
   0.39803528  0.60078190  0.87481903
   0.60151978  0.39831099  0.87428276
   0.43481582  0.43431198  0.74944168
   0.56477731  0.56456383  0.74940852
   0.39879081  0.93360937  0.12461810
   0.60211156  0.73120732  0.12447030
   0.43487200  0.76731250  0.99937426
   0.56488138  0.89755773  0.99937350
   0.39883393  0.93362521  0.37410662
   0.60197523  0.73113298  0.37441726
   0.43460761  0.76748320  0.24935309
   0.56571368  0.89700401  0.24944413
   0.39887671  0.93356694  0.62495637
   0.60222985  0.73089533  0.62428071
   0.43484400  0.76732307  0.49949884
   0.56479956  0.89756389  0.49943276
   0.39880844  0.93347202  0.87383574
   0.60222529  0.73083649  0.87466801
   0.43537322  0.76656851  0.74940826
   0.56570908  0.89696990  0.74944057
   0.73021563  0.26751436  0.12424013
   0.92639486  0.05738843  0.11539418
   0.76522575  0.10270165  0.99798269
   0.89819211  0.23072936  0.00026815
   0.73018055  0.26744333  0.37479156
   0.92567578  0.05665845  0.38387794
   0.76831393  0.10048816  0.24943689
   0.89187745  0.23658406  0.24959733
   0.73234231  0.26838583  0.62460327
   0.93486771  0.06418644  0.62427105
   0.76502205  0.10275612  0.50117974
   0.89829449  0.23054396  0.49864030
   0.73226140  0.26831613  0.87442265
   0.93494231  0.06428552  0.87475773
   0.76840848  0.10070605  0.74950078
   0.89866344  0.23094759  0.74948654
   0.73247628  0.60091550  0.12490973
   0.93626782  0.39821673  0.12378096
   0.76863646  0.43424372  0.99965946
   0.89880996  0.56471146  0.99959683
   0.73249395  0.60098689  0.37406995
   0.93623089  0.39819407  0.37510840
   0.76915285  0.43384908  0.24948209
   0.89937868  0.56405199  0.24946645
   0.73250201  0.60074071  0.62440020
   0.93534505  0.39707583  0.62372106
   0.76862595  0.43426075  0.49926747
   0.89873315  0.56474950  0.49934786
   0.73249727  0.60068361  0.87449923
   0.93546501  0.39715651  0.87514792
   0.76874474  0.43442757  0.74951564
   0.89987625  0.56315437  0.74945299
   0.73224472  0.93479593  0.12378432
   0.93538160  0.73175260  0.12518518
   0.76889909  0.76776219  0.00082036
   0.90104135  0.89473905  0.99734171
   0.73222746  0.93483761  0.37522188
   0.93540342  0.73181288  0.37368205
   0.76968983  0.76939736  0.24949827
   0.89937520  0.90293147  0.24946801
   0.73192060  0.93381547  0.62414285
   0.93457024  0.72987353  0.62526443
   0.76869330  0.76790345  0.49810346
   0.90114913  0.89448997  0.50173348
   0.73207234  0.93389883  0.87480732
   0.93459596  0.72985135  0.87357802
   0.76769277  0.76696296  0.74952637
   0.89810044  0.89728762  0.74946324
   0.97558301  0.12503553  0.25038712
 
 position of ions in cartesian coordinates  (Angst):
   2.48040236  2.42643825  1.63698471
   0.02681283 14.60367288 13.17423854
   2.47994315  2.42555173  4.94801076
  14.59118092  0.16870121  3.29477645
   2.44261686  2.42203617  8.24417447
   0.02611743 14.60194056  6.61744859
   2.44369315  2.42271971 11.54376632
  14.63455166 14.64246553  9.89560662
   2.44302267  7.31658753  1.64194401
   0.01126147  4.85145567 13.20112932
   2.44172370  7.31585265  4.94352909
  14.64267682  4.88436723  3.29345469
   2.44161556  7.30935429  8.24133221
   0.01073494  4.85116164  6.58861273
   2.44201362  7.30889390 11.54744161
   0.00049600  4.87113675  9.89486008
   2.41619747 12.23652001  1.65140599
  14.64714902  9.76916979 13.19761312
   2.41682350 12.23625686  4.93444571
   0.00911757  9.75678369  3.29325019
   2.45200821 12.19522525  8.24512016
  14.64650807  9.76923421  6.59178012
   2.45194896 12.19488552 11.54363071
   0.01435074  9.74400097  9.89464322
   7.32808631  2.43265255  1.64228008
   4.90504734 14.62889811 13.18889520
   7.32839417  2.43385705  4.94507118
   4.88862800 14.64669021  3.29259152
   7.33060244  2.43487267  8.24742812
   4.90555719 14.62874310  6.59926529
   7.33133706  2.43455230 11.54334818
   4.88763639 14.64160721  9.89419628
   7.32810558  7.33731942  1.64623816
   4.88915229  4.88095255 13.19518623
   7.32753315  7.33788185  4.94124616
   4.89517641  4.88373077  3.29325310
   7.32140115  7.31806202  8.24262082
   4.88733330  4.88130617  6.59407464
   7.32185375  7.31899361 11.54740277
   4.88636215  4.86907930  9.89445747
   7.32666643 12.19069450  1.64348433
   4.87640938  9.76130636 13.20230685
   7.32576383 12.18987247  4.94229831
   4.85599922  9.78229442  3.29269094
   7.33060551 12.18785889  8.24593444
   4.87627211  9.76077832  6.58686464
   7.33069062 12.18738766 11.54370530
   4.88321039  9.74967934  9.89437135
  12.17268936  2.42684903  1.63044658
   9.75619997 14.63839616 13.19211776
  12.17086848  2.42409584  4.95886702
   9.76851168 14.62874414  3.29402090
  12.20859365  2.43221957  8.24641629
   9.75445692 14.63837590  6.59912258
  12.20834271  2.43239539 11.54527977
   9.77391908 14.63068249  9.89560015
  12.21642681  7.31530731  1.64321881
   9.76181517  4.88319979 13.19393612
  12.21625453  7.31569471  4.94431186
   9.76028465  4.88669044  3.29449220
  12.21883240  7.31131183  8.24282122
   9.76208338  4.88307171  6.59778292
  12.21959733  7.31141806 11.54830253
   9.77122803  4.87992496  9.89603204
  12.23929716 12.23261564  1.64887409
   9.78140372  9.75764627 13.19941007
  12.23924469 12.23343365  4.93952956
   9.78734913  9.77490781  3.29381030
  12.20073247 12.17992657  8.24766740
   9.78021290  9.75823156  6.59126361
  12.20228049 12.18060935 11.54375256
   9.76668806  9.74532725  9.89528663
   0.92587187  3.85860388  1.66956318
   3.99411388  0.97386899  1.62069734
   1.49593011  1.46974820  0.00185902
   3.38877280  3.40199898 13.18736682
   0.92772788  3.85999567  4.91696440
   3.99269538  0.97249697  4.96488626
   1.72642959  1.30591099  3.29175420
   3.38794526  3.41404353  3.29276147
   0.95283504  3.90717727  8.24552640
   3.93583182  0.94245942  8.24122801
   1.49319870  1.46998592  6.58282927
   3.38745012  3.40179897  6.60103112
   0.95295134  3.90678393 11.54398682
   3.93816463  0.94454971 11.54640773
   1.48598083  1.47391376  9.89442941
   3.39682598  3.38163115  9.89359064
   0.95466489  8.80220054  1.63690104
   3.93740451  5.83562128  1.64367979
   1.50187419  6.33584569 13.20122406
   3.39370923  8.26853849 13.19534644
   0.95312237  8.80076106  4.94908241
   3.93584790  5.83531291  4.94203275
   1.49446536  6.35127192  3.29220289
   3.38381477  8.27949827  3.29307414
   0.96126484  8.80158101  8.23201892
   3.93455044  5.83025232  8.24697972
   1.50080126  6.33602409  6.58837186
   3.39302899  8.26826868  6.59301020
   0.96246947  8.80204906 11.55725907
   3.93462402  5.82935594 11.54230906
   1.48612756  6.35882006  9.89426124
   3.39069839  8.26737194  9.89436654
   0.92702222 13.73585952  1.69307118
   3.90896658 10.73152214  1.63469120
   1.47035832 11.27496674 13.20008114
   3.38126652 13.17249978 13.19901407
   0.92880753 13.73727223  4.89365580
   3.90894815 10.73126186  4.95100568
   1.49269654 11.24653532  3.29307187
   3.40721335 13.15983450  3.29257334
   0.97239740 13.68461127  8.26895359
   3.93078705 10.70905403  8.24301649
   1.46966216 11.27527256  6.58884961
   3.38209474 13.17204158  6.58968868
   0.97120712 13.68385829 11.52165411
   3.93098416 10.70899885 11.54560015
   1.50015852 11.23310051  9.89428360
   3.41076874 13.14502805  9.89462970
   5.83241154  3.91498732  1.64128809
   8.81450871  0.94332445  1.64872506
   6.39262877  1.46824142 13.18942252
   8.27660203  3.39402331 13.19503575
   5.83206074  3.91551240  4.94566527
   8.81602741  0.94556474  4.93876165
   6.38541060  1.47512983  3.29411233
   8.27134758  3.39972719  3.29334484
   5.83994012  3.92111339  8.24121735
   8.80636941  0.93695040  8.25574516
   6.39199561  1.46909662  6.60029786
   8.27648162  3.39431554  6.59641661
   5.84083538  3.92107706 11.54747448
   8.80777378  0.93715529 11.53584475
   6.36808361  1.48482870  9.89515090
   8.28432059  3.39116683  9.89546133
   5.82571181  8.81305667  1.65248661
   8.81510382  5.84620895  1.64267497
   6.37484395  6.36890115 13.20269402
   8.28109848  8.27942955 13.19344280
   5.82602657  8.81430107  4.93338650
   8.81446483  5.84622034  4.94608988
   6.38120815  6.36964828  3.29388082
   8.28768650  8.28844732  3.29386104
   5.83075070  8.80046778  8.23871409
   8.81266309  5.83534794  8.24810720
   6.37303568  6.36954940  6.58718578
   8.28028034  8.27987446  6.59741141
   5.83099095  8.80111380 11.55040251
   8.81192333  5.83503001 11.54332207
   6.36980494  6.36242406  9.89502139
   8.27366710  8.27053974  9.89458359
   5.84205896 13.67684745  1.64535659
   8.82059260 10.71177225  1.64340508
   6.37062794 11.24069265 13.19492894
   8.27519154 13.14871126 13.19491886
   5.84269075 13.67707945  4.93940100
   8.81859541 10.71068321  4.94350255
   6.36675478 11.24319334  3.29225640
   8.28738440 13.14059960  3.29345836
   5.84331738 13.67622579  8.25141813
   8.82232550 10.70720169  8.24249723
   6.37021786 11.24084747  6.59497847
   8.27399304 13.14880154  6.59410595
   5.84231735 13.67483522 11.53741988
   8.82225864 10.70633981 11.54840859
   6.37797054 11.22979353  9.89458020
   8.28731699 13.14009994  9.89500682
  10.69724446  3.91893357  1.64036616
  13.57115894  0.84070795  1.52357136
  11.21012289  1.50452091 13.17655578
  13.15800468  3.38005415  0.00354046
  10.69673063  3.91789295  4.94844445
  13.56062484  0.83001412  5.06841370
  11.25536294  1.47209455  3.29336278
  13.06549843  3.46582224  3.29548116
  10.72839921  3.93170007  8.24675608
  13.69528142  0.94029491  8.24236970
  11.20713889  1.50531876  6.61717168
  13.15950444  3.37733819  6.58364297
  10.72721384  3.93067898 11.54516904
  13.69637422  0.94174639 11.54959317
  11.25674812  1.47528643  9.89580174
  13.16490930  3.38325106  9.89561372
  10.73036176  8.80307101  1.64920701
  13.71579214  5.83364905  1.63430364
  11.26008784  6.36142401 13.19869446
  13.16705580  8.27270239 13.19786756
  10.73062060  8.80411686  4.93891693
  13.71525121  5.83331715  4.95262770
  11.26765276  6.35564274  3.29395960
  13.17538717  8.26304156  3.29375313
  10.73073866  8.80051043  8.24407488
  13.70227418  5.81693548  8.23510806
  11.25993399  6.36167351  6.59192367
  13.16593060  8.27325964  6.59298509
  10.73066920  8.79967399 11.54618011
  13.70403138  5.81811750 11.55474487
  11.26167406  6.36411732  9.89599793
  13.18267634  8.24989187  9.89517072
  10.72696950 13.69422977  1.63434793
  13.70280958 10.71976020  1.65284376
  11.26393528 11.24728031  0.01083136
  13.19974431 13.10741931 13.16809285
  10.72671673 13.69484038  4.95412604
  13.70312914 10.72064330  4.93379541
  11.27551922 11.27123459  3.29417322
  13.17533618 13.22743353  3.29377377
  10.72222131 13.67986666  8.24067710
  13.69092360 10.69223293  8.25548558
  11.26092052 11.24934970  6.57655500
  13.20132326 13.10377044  6.62448276
  10.72444430 13.68108774 11.55024789
  13.69130043 10.69190811 11.53401719
  11.24626339 11.23557204  9.89613962
  13.15666168 13.14475433  9.89530615
  14.29173739  1.83169958  3.30590891
 


--------------------------------------------------------------------------------------------------------


 k-point  1 :   0.2500 0.2500 0.2500  plane waves:  119170
 k-point  2 :  -0.2500 0.2500 0.2500  plane waves:  119170
 k-point  3 :   0.2500-0.2500 0.2500  plane waves:  119170
 k-point  4 :  -0.2500-0.2500 0.2500  plane waves:  119170

 maximum and minimum number of plane-waves per node :      9968     9893

 maximum number of plane-waves:    119170
 maximum index in each direction: 
   IXMAX=   31   IYMAX=   31   IZMAX=   28
   IXMIN=  -31   IYMIN=  -31   IZMIN=  -28


 parallel 3D FFT for wavefunctions:
    minimum data exchange during FFTs selected (reduces bandwidth)
 parallel 3D FFT for charge:
    minimum data exchange during FFTs selected (reduces bandwidth)


 total amount of memory used by VASP MPI-rank0   501409. kBytes
=======================================================================

   base      :      30000. kBytes
   nonl-proj :      51625. kBytes
   fftplans  :      22373. kBytes
   grid      :      17829. kBytes
   one-center:        590. kBytes
   wavefun   :     378992. kBytes
 
     INWAV:  cpu time   66.8022: real time   66.8998
 Broyden mixing: mesh for mixing (old mesh)
   NGX = 63   NGY = 63   NGZ = 57
  (NGX  =192   NGY  =192   NGZ  =180)
  gives a total of 226233 points

 initial charge density was supplied:
 number of electron    1945.0000038 magnetization       1.0000000
 keeping initial charge density in first step


--------------------------------------------------------------------------------------------------------


 Maximum index for augmentation-charges         2061 (set IRDMAX)


--------------------------------------------------------------------------------------------------------


 First call to EWALD:  gamma=   0.125
 Maximum number of real-space cells 3x 3x 3
 Maximum number of reciprocal cells 3x 3x 3

    FEWALD:  cpu time    0.2098: real time    0.2098


--------------------------------------- Iteration      1(   1)  ---------------------------------------


    POTLOK:  cpu time    0.2199: real time    0.2415
    SETDIJ:  cpu time    4.9132: real time    4.9133
atom =   1  type =  1  l = 2
 
 onsite density matrix
 
spin component  1
 
  0.9696 -0.0006  0.0191  0.0012 -0.0019
 -0.0006  0.9666 -0.0007  0.0170  0.0010
  0.0191 -0.0007  0.9584  0.0004 -0.0011
  0.0012  0.0170  0.0004  0.9623  0.0010
 -0.0019  0.0010 -0.0011  0.0010  0.9477
 
spin component  2
 
  0.0455 -0.0006  0.0252  0.0013 -0.0024
 -0.0006  0.0404 -0.0011  0.0215  0.0014
  0.0252 -0.0011  0.0320  0.0006 -0.0018
  0.0013  0.0215  0.0006  0.0351  0.0010
 -0.0024  0.0014 -0.0018  0.0010  0.0141
 
 occupancies and eigenvectors
 
  o =  0.0127  v =  0.0000  0.0000  0.0000  0.0000  0.0000 -0.6071  0.0329  0.7937 -0.0209  0.0077      0.0000  0.0000  0.0000  0.0000  0.0000  0.0000  0.0000  0.0000  0.0000  0.0000
  o =  0.0139  v =  0.0000  0.0000  0.0000  0.0000  0.0000  0.0506 -0.0334  0.0300 -0.0190  0.9975      0.0000  0.0000  0.0000  0.0000  0.0000  0.0000  0.0000  0.0000  0.0000  0.0000
  o =  0.0161  v =  0.0000  0.0000  0.0000  0.0000  0.0000 -0.0522 -0.6611  0.0072  0.7484 -0.0055      0.0000  0.0000  0.0000  0.0000  0.0000  0.0000  0.0000  0.0000  0.0000  0.0000
  o =  0.0595  v =  0.0000  0.0000  0.0000  0.0000  0.0000  0.0125  0.7483 -0.0044  0.6622  0.0372      0.0000  0.0000  0.0000  0.0000  0.0000  0.0000  0.0000  0.0000  0.0000  0.0000
  o =  0.0651  v =  0.0000  0.0000  0.0000  0.0000  0.0000 -0.7912  0.0281 -0.6076 -0.0241  0.0589      0.0000  0.0000  0.0000  0.0000  0.0000  0.0000  0.0000  0.0000  0.0000  0.0000
  o =  0.9441  v =  0.6018  0.0276 -0.7905 -0.0529  0.0965  0.0000  0.0000  0.0000  0.0000  0.0000      0.0000  0.0000  0.0000  0.0000  0.0000  0.0000  0.0000  0.0000  0.0000  0.0000
  o =  0.9472  v = -0.0071  0.5840  0.1119 -0.6868  0.4179  0.0000  0.0000  0.0000  0.0000  0.0000      0.0000  0.0000  0.0000  0.0000  0.0000  0.0000  0.0000  0.0000  0.0000  0.0000
  o =  0.9476  v =  0.0084  0.3089 -0.0729 -0.2971 -0.9005  0.0000  0.0000  0.0000  0.0000  0.0000      0.0000  0.0000  0.0000  0.0000  0.0000  0.0000  0.0000  0.0000  0.0000  0.0000
  o =  0.9816  v =  0.0200  0.7492  0.0020  0.6609  0.0390  0.0000  0.0000  0.0000  0.0000  0.0000      0.0000  0.0000  0.0000  0.0000  0.0000  0.0000  0.0000  0.0000  0.0000  0.0000
  o =  0.9842  v = -0.7983  0.0376 -0.5977 -0.0203  0.0605  0.0000  0.0000  0.0000  0.0000  0.0000      0.0000  0.0000  0.0000  0.0000  0.0000  0.0000  0.0000  0.0000  0.0000  0.0000
atom =   2  type =  1  l = 2
 
 onsite density matrix
 
spin component  1
 
  0.0464 -0.0008 -0.0251  0.0023 -0.0013
 -0.0008  0.0372 -0.0009 -0.0226  0.0006
 -0.0251 -0.0009  0.0327 -0.0001  0.0008
  0.0023 -0.0226 -0.0001  0.0408 -0.0014
 -0.0013  0.0006  0.0008 -0.0014  0.0142
 
spin component  2
 
  0.9696  0.0002 -0.0191  0.0005 -0.0006
  0.0002  0.9632 -0.0008 -0.0165  0.0002
 -0.0191 -0.0008  0.9588  0.0001  0.0005
  0.0005 -0.0165  0.0001  0.9644 -0.0004
 -0.0006  0.0002  0.0005 -0.0004  0.9476
 
 occupancies and eigenvectors
 
  o =  0.0134  v = -0.5956 -0.0325 -0.7685  0.0111 -0.2312  0.0000  0.0000  0.0000  0.0000  0.0000      0.0000  0.0000  0.0000  0.0000  0.0000  0.0000  0.0000  0.0000  0.0000  0.0000
  o =  0.0141  v =  0.1208 -0.1130  0.1960 -0.1546 -0.9541  0.0000  0.0000  0.0000  0.0000  0.0000      0.0000  0.0000  0.0000  0.0000  0.0000  0.0000  0.0000  0.0000  0.0000  0.0000
  o =  0.0164  v =  0.0071 -0.7253 -0.0402 -0.6617  0.1857  0.0000  0.0000  0.0000  0.0000  0.0000      0.0000  0.0000  0.0000  0.0000  0.0000  0.0000  0.0000  0.0000  0.0000  0.0000
  o =  0.0612  v =  0.2345  0.6479 -0.2247 -0.6888  0.0184  0.0000  0.0000  0.0000  0.0000  0.0000      0.0000  0.0000  0.0000  0.0000  0.0000  0.0000  0.0000  0.0000  0.0000  0.0000
  o =  0.0661  v = -0.7587  0.2010  0.5647 -0.2524  0.0370  0.0000  0.0000  0.0000  0.0000  0.0000      0.0000  0.0000  0.0000  0.0000  0.0000  0.0000  0.0000  0.0000  0.0000  0.0000
  o =  0.9443  v =  0.0000  0.0000  0.0000  0.0000  0.0000  0.6011  0.0520  0.7970  0.0258  0.0043      0.0000  0.0000  0.0000  0.0000  0.0000  0.0000  0.0000  0.0000  0.0000  0.0000
  o =  0.9473  v =  0.0000  0.0000  0.0000  0.0000  0.0000  0.0431 -0.6951  0.0361 -0.6755 -0.2394      0.0000  0.0000  0.0000  0.0000  0.0000  0.0000  0.0000  0.0000  0.0000  0.0000
  o =  0.9476  v =  0.0000  0.0000  0.0000  0.0000  0.0000  0.0259 -0.1802 -0.0079 -0.1574  0.9706      0.0000  0.0000  0.0000  0.0000  0.0000  0.0000  0.0000  0.0000  0.0000  0.0000
  o =  0.9803  v =  0.0000  0.0000  0.0000  0.0000  0.0000  0.0511 -0.6923 -0.0166  0.7195 -0.0134      0.0000  0.0000  0.0000  0.0000  0.0000  0.0000  0.0000  0.0000  0.0000  0.0000
  o =  0.9841  v =  0.0000  0.0000  0.0000  0.0000  0.0000 -0.7959 -0.0487  0.6026  0.0241  0.0210      0.0000  0.0000  0.0000  0.0000  0.0000  0.0000  0.0000  0.0000  0.0000  0.0000
atom =   3  type =  1  l = 2
 
 onsite density matrix
 
spin component  1
 
  0.9696  0.0006  0.0191 -0.0012 -0.0019
  0.0006  0.9666  0.0007  0.0170 -0.0010
  0.0191  0.0007  0.9584 -0.0004 -0.0010
 -0.0012  0.0170 -0.0004  0.9623 -0.0010
 -0.0019 -0.0010 -0.0010 -0.0010  0.9477
 
spin component  2
 
  0.0455  0.0006  0.0252 -0.0013 -0.0023
  0.0006  0.0404  0.0011  0.0215 -0.0014
  0.0252  0.0011  0.0320 -0.0006 -0.0018
 -0.0013  0.0215 -0.0006  0.0351 -0.0011
 -0.0023 -0.0014 -0.0018 -0.0011  0.0141
 
 occupancies and eigenvectors
 
  o =  0.0127  v =  0.0000  0.0000  0.0000  0.0000  0.0000 -0.6067 -0.0346  0.7938  0.0215  0.0095      0.0000  0.0000  0.0000  0.0000  0.0000  0.0000  0.0000  0.0000  0.0000  0.0000
  o =  0.0139  v =  0.0000  0.0000  0.0000  0.0000  0.0000  0.0509  0.0325  0.0278  0.0207  0.9976      0.0000  0.0000  0.0000  0.0000  0.0000  0.0000  0.0000  0.0000  0.0000  0.0000
  o =  0.0161  v =  0.0000  0.0000  0.0000  0.0000  0.0000 -0.0531  0.6612  0.0086 -0.7482 -0.0036      0.0000  0.0000  0.0000  0.0000  0.0000  0.0000  0.0000  0.0000  0.0000  0.0000
  o =  0.0595  v =  0.0000  0.0000  0.0000  0.0000  0.0000  0.0129 -0.7482 -0.0052 -0.6623  0.0376      0.0000  0.0000  0.0000  0.0000  0.0000  0.0000  0.0000  0.0000  0.0000  0.0000
  o =  0.0651  v =  0.0000  0.0000  0.0000  0.0000  0.0000 -0.7914 -0.0280 -0.6075  0.0242  0.0577      0.0000  0.0000  0.0000  0.0000  0.0000  0.0000  0.0000  0.0000  0.0000  0.0000
  o =  0.9441  v = -0.6017  0.0275  0.7901 -0.0543 -0.0998  0.0000  0.0000  0.0000  0.0000  0.0000      0.0000  0.0000  0.0000  0.0000  0.0000  0.0000  0.0000  0.0000  0.0000  0.0000
  o =  0.9472  v =  0.0090  0.5818 -0.1140 -0.6847 -0.4238  0.0000  0.0000  0.0000  0.0000  0.0000      0.0000  0.0000  0.0000  0.0000  0.0000  0.0000  0.0000  0.0000  0.0000  0.0000
  o =  0.9476  v =  0.0108 -0.3133 -0.0735  0.3017 -0.8974  0.0000  0.0000  0.0000  0.0000  0.0000      0.0000  0.0000  0.0000  0.0000  0.0000  0.0000  0.0000  0.0000  0.0000  0.0000
  o =  0.9816  v =  0.0211 -0.7491  0.0017 -0.6610  0.0395  0.0000  0.0000  0.0000  0.0000  0.0000      0.0000  0.0000  0.0000  0.0000  0.0000  0.0000  0.0000  0.0000  0.0000  0.0000
  o =  0.9842  v = -0.7983 -0.0383 -0.5977  0.0199  0.0593  0.0000  0.0000  0.0000  0.0000  0.0000      0.0000  0.0000  0.0000  0.0000  0.0000  0.0000  0.0000  0.0000  0.0000  0.0000
atom =   4  type =  1  l = 2
 
 onsite density matrix
 
spin component  1
 
  0.0562 -0.0003 -0.0045 -0.0001  0.0323
 -0.0003  0.0334 -0.0007 -0.0198 -0.0009
 -0.0045 -0.0007  0.0628  0.0001  0.0445
 -0.0001 -0.0198  0.0001  0.0388  0.0000
  0.0323 -0.0009  0.0445  0.0000  0.0859
 
spin component  2
 
  0.9531  0.0006 -0.0381 -0.0002 -0.0293
  0.0006  0.9589  0.0007 -0.0149  0.0013
 -0.0381  0.0007  0.9266 -0.0001 -0.0513
 -0.0002 -0.0149 -0.0001  0.9656 -0.0002
 -0.0293  0.0013 -0.0513 -0.0002  0.8720
 
 occupancies and eigenvectors
 
  o =  0.0139  v = -0.5246 -0.0115 -0.5991 -0.0089  0.6047  0.0000  0.0000  0.0000  0.0000  0.0000      0.0000  0.0000  0.0000  0.0000  0.0000  0.0000  0.0000  0.0000  0.0000  0.0000
  o =  0.0162  v = -0.0054  0.7533 -0.0043  0.6574  0.0151  0.0000  0.0000  0.0000  0.0000  0.0000      0.0000  0.0000  0.0000  0.0000  0.0000  0.0000  0.0000  0.0000  0.0000  0.0000
  o =  0.0560  v = -0.0174  0.6571  0.0215 -0.7532  0.0076  0.0000  0.0000  0.0000  0.0000  0.0000      0.0000  0.0000  0.0000  0.0000  0.0000  0.0000  0.0000  0.0000  0.0000  0.0000
  o =  0.0629  v =  0.7876  0.0177 -0.6106 -0.0195  0.0783  0.0000  0.0000  0.0000  0.0000  0.0000      0.0000  0.0000  0.0000  0.0000  0.0000  0.0000  0.0000  0.0000  0.0000  0.0000
  o =  0.1282  v = -0.3227  0.0136 -0.5174 -0.0034 -0.7924  0.0000  0.0000  0.0000  0.0000  0.0000      0.0000  0.0000  0.0000  0.0000  0.0000  0.0000  0.0000  0.0000  0.0000  0.0000
  o =  0.8252  v =  0.0000  0.0000  0.0000  0.0000  0.0000  0.3357 -0.0120  0.5229  0.0006  0.7834      0.0000  0.0000  0.0000  0.0000  0.0000  0.0000  0.0000  0.0000  0.0000  0.0000
  o =  0.9457  v =  0.0000  0.0000  0.0000  0.0000  0.0000  0.5373  0.0335  0.5762  0.0258 -0.6143      0.0000  0.0000  0.0000  0.0000  0.0000  0.0000  0.0000  0.0000  0.0000  0.0000
  o =  0.9470  v =  0.0000  0.0000  0.0000  0.0000  0.0000 -0.0205  0.7801 -0.0190  0.6242  0.0330      0.0000  0.0000  0.0000  0.0000  0.0000  0.0000  0.0000  0.0000  0.0000  0.0000
  o =  0.9775  v =  0.0000  0.0000  0.0000  0.0000  0.0000 -0.0280  0.6241  0.0283 -0.7803  0.0033      0.0000  0.0000  0.0000  0.0000  0.0000  0.0000  0.0000  0.0000  0.0000  0.0000
  o =  0.9807  v =  0.0000  0.0000  0.0000  0.0000  0.0000  0.7729  0.0252 -0.6272 -0.0300  0.0878      0.0000  0.0000  0.0000  0.0000  0.0000  0.0000  0.0000  0.0000  0.0000  0.0000
atom =   5  type =  1  l = 2
 
 onsite density matrix
 
spin component  1
 
  0.9701 -0.0002  0.0192 -0.0001 -0.0002
 -0.0002  0.9645  0.0000  0.0170  0.0001
  0.0192  0.0000  0.9585  0.0001 -0.0001
 -0.0001  0.0170  0.0001  0.9642  0.0000
 -0.0002  0.0001 -0.0001  0.0000  0.9477
 
spin component  2
 
  0.0460 -0.0002  0.0254 -0.0001 -0.0002
 -0.0002  0.0377 -0.0000  0.0216  0.0001
  0.0254 -0.0000  0.0319  0.0001 -0.0002
 -0.0001  0.0216  0.0001  0.0373  0.0000
 -0.0002  0.0001 -0.0002  0.0000  0.0138
 
 occupancies and eigenvectors
 
  o =  0.0126  v =  0.0000  0.0000  0.0000  0.0000  0.0000  0.6059  0.0013 -0.7955  0.0038 -0.0001      0.0000  0.0000  0.0000  0.0000  0.0000  0.0000  0.0000  0.0000  0.0000  0.0000
  o =  0.0138  v =  0.0000  0.0000  0.0000  0.0000  0.0000  0.0042 -0.0158  0.0031  0.0132  0.9998      0.0000  0.0000  0.0000  0.0000  0.0000  0.0000  0.0000  0.0000  0.0000  0.0000
  o =  0.0160  v =  0.0000  0.0000  0.0000  0.0000  0.0000  0.0028  0.7038 -0.0001 -0.7101  0.0205      0.0000  0.0000  0.0000  0.0000  0.0000  0.0000  0.0000  0.0000  0.0000  0.0000
  o =  0.0591  v =  0.0000  0.0000  0.0000  0.0000  0.0000  0.0206  0.7099  0.0202  0.7038  0.0018      0.0000  0.0000  0.0000  0.0000  0.0000  0.0000  0.0000  0.0000  0.0000  0.0000
  o =  0.0653  v =  0.0000  0.0000  0.0000  0.0000  0.0000 -0.7953  0.0218 -0.6056  0.0187  0.0054      0.0000  0.0000  0.0000  0.0000  0.0000  0.0000  0.0000  0.0000  0.0000  0.0000
  o =  0.9442  v =  0.5962  0.0058 -0.8028  0.0009 -0.0004  0.0000  0.0000  0.0000  0.0000  0.0000      0.0000  0.0000  0.0000  0.0000  0.0000  0.0000  0.0000  0.0000  0.0000  0.0000
  o =  0.9473  v =  0.0004 -0.7020 -0.0040  0.7076  0.0807  0.0000  0.0000  0.0000  0.0000  0.0000      0.0000  0.0000  0.0000  0.0000  0.0000  0.0000  0.0000  0.0000  0.0000  0.0000
  o =  0.9477  v =  0.0046  0.0554  0.0032 -0.0587  0.9967  0.0000  0.0000  0.0000  0.0000  0.0000      0.0000  0.0000  0.0000  0.0000  0.0000  0.0000  0.0000  0.0000  0.0000  0.0000
  o =  0.9814  v =  0.0300  0.7093  0.0282  0.7037  0.0018  0.0000  0.0000  0.0000  0.0000  0.0000      0.0000  0.0000  0.0000  0.0000  0.0000  0.0000  0.0000  0.0000  0.0000  0.0000
  o =  0.9843  v = -0.8023  0.0308 -0.5955  0.0270  0.0055  0.0000  0.0000  0.0000  0.0000  0.0000      0.0000  0.0000  0.0000  0.0000  0.0000  0.0000  0.0000  0.0000  0.0000  0.0000
atom =   6  type =  1  l = 2
 
 onsite density matrix
 
spin component  1
 
  0.0464  0.0008 -0.0251 -0.0025 -0.0015
  0.0008  0.0370  0.0009 -0.0226 -0.0007
 -0.0251  0.0009  0.0327  0.0001  0.0008
 -0.0025 -0.0226  0.0001  0.0410  0.0015
 -0.0015 -0.0007  0.0008  0.0015  0.0142
 
spin component  2
 
  0.9696 -0.0001 -0.0191 -0.0006 -0.0007
 -0.0001  0.9631  0.0009 -0.0165 -0.0002
 -0.0191  0.0009  0.9588 -0.0000  0.0005
 -0.0006 -0.0165 -0.0000  0.9645  0.0004
 -0.0007 -0.0002  0.0005  0.0004  0.9476
 
 occupancies and eigenvectors
 
  o =  0.0134  v =  0.5943 -0.0355  0.7654  0.0079  0.2444  0.0000  0.0000  0.0000  0.0000  0.0000      0.0000  0.0000  0.0000  0.0000  0.0000  0.0000  0.0000  0.0000  0.0000  0.0000
  o =  0.0141  v = -0.1273 -0.1244 -0.2076 -0.1678  0.9471  0.0000  0.0000  0.0000  0.0000  0.0000      0.0000  0.0000  0.0000  0.0000  0.0000  0.0000  0.0000  0.0000  0.0000  0.0000
  o =  0.0164  v =  0.0082  0.7260 -0.0442  0.6555  0.2029  0.0000  0.0000  0.0000  0.0000  0.0000      0.0000  0.0000  0.0000  0.0000  0.0000  0.0000  0.0000  0.0000  0.0000  0.0000
  o =  0.0612  v =  0.2514 -0.6409 -0.2380  0.6848  0.0187  0.0000  0.0000  0.0000  0.0000  0.0000      0.0000  0.0000  0.0000  0.0000  0.0000  0.0000  0.0000  0.0000  0.0000  0.0000
  o =  0.0662  v = -0.7533 -0.2130  0.5590  0.2703  0.0412  0.0000  0.0000  0.0000  0.0000  0.0000      0.0000  0.0000  0.0000  0.0000  0.0000  0.0000  0.0000  0.0000  0.0000  0.0000
  o =  0.9443  v =  0.0000  0.0000  0.0000  0.0000  0.0000 -0.6008  0.0542 -0.7971  0.0257 -0.0061      0.0000  0.0000  0.0000  0.0000  0.0000  0.0000  0.0000  0.0000  0.0000  0.0000
  o =  0.9472  v =  0.0000  0.0000  0.0000  0.0000  0.0000  0.0449  0.6933  0.0369  0.6700 -0.2589      0.0000  0.0000  0.0000  0.0000  0.0000  0.0000  0.0000  0.0000  0.0000  0.0000
  o =  0.9476  v =  0.0000  0.0000  0.0000  0.0000  0.0000 -0.0287 -0.1957  0.0103 -0.1692 -0.9655      0.0000  0.0000  0.0000  0.0000  0.0000  0.0000  0.0000  0.0000  0.0000  0.0000
  o =  0.9803  v =  0.0000  0.0000  0.0000  0.0000  0.0000  0.0354  0.6905 -0.0029 -0.7223 -0.0145      0.0000  0.0000  0.0000  0.0000  0.0000  0.0000  0.0000  0.0000  0.0000  0.0000
  o =  0.9841  v =  0.0000  0.0000  0.0000  0.0000  0.0000 -0.7968  0.0359  0.6026 -0.0077  0.0241      0.0000  0.0000  0.0000  0.0000  0.0000  0.0000  0.0000  0.0000  0.0000  0.0000
atom =   7  type =  1  l = 2
 
 onsite density matrix
 
spin component  1
 
  0.9701  0.0002  0.0192  0.0001 -0.0002
  0.0002  0.9645 -0.0001  0.0171 -0.0001
  0.0192 -0.0001  0.9585 -0.0001 -0.0001
  0.0001  0.0171 -0.0001  0.9642 -0.0000
 -0.0002 -0.0001 -0.0001 -0.0000  0.9477
 
spin component  2
 
  0.0460  0.0002  0.0254  0.0001 -0.0003
  0.0002  0.0377 -0.0000  0.0216 -0.0001
  0.0254 -0.0000  0.0320 -0.0001 -0.0002
  0.0001  0.0216 -0.0001  0.0373 -0.0000
 -0.0003 -0.0001 -0.0002 -0.0000  0.0138
 
 occupancies and eigenvectors
 
  o =  0.0126  v =  0.0000  0.0000  0.0000  0.0000  0.0000 -0.6060  0.0017  0.7955  0.0045  0.0011      0.0000  0.0000  0.0000  0.0000  0.0000  0.0000  0.0000  0.0000  0.0000  0.0000
  o =  0.0138  v =  0.0000  0.0000  0.0000  0.0000  0.0000 -0.0057 -0.0137 -0.0029  0.0117 -0.9998      0.0000  0.0000  0.0000  0.0000  0.0000  0.0000  0.0000  0.0000  0.0000  0.0000
  o =  0.0160  v =  0.0000  0.0000  0.0000  0.0000  0.0000  0.0024 -0.7037 -0.0008  0.7102  0.0180      0.0000  0.0000  0.0000  0.0000  0.0000  0.0000  0.0000  0.0000  0.0000  0.0000
  o =  0.0591  v =  0.0000  0.0000  0.0000  0.0000  0.0000  0.0165 -0.7101  0.0180 -0.7037  0.0013      0.0000  0.0000  0.0000  0.0000  0.0000  0.0000  0.0000  0.0000  0.0000  0.0000
  o =  0.0653  v =  0.0000  0.0000  0.0000  0.0000  0.0000 -0.7953 -0.0180 -0.6057 -0.0160  0.0063      0.0000  0.0000  0.0000  0.0000  0.0000  0.0000  0.0000  0.0000  0.0000  0.0000
  o =  0.9442  v = -0.5963  0.0060  0.8028  0.0015  0.0021  0.0000  0.0000  0.0000  0.0000  0.0000      0.0000  0.0000  0.0000  0.0000  0.0000  0.0000  0.0000  0.0000  0.0000  0.0000
  o =  0.9473  v =  0.0010  0.7024 -0.0034 -0.7083  0.0702  0.0000  0.0000  0.0000  0.0000  0.0000      0.0000  0.0000  0.0000  0.0000  0.0000  0.0000  0.0000  0.0000  0.0000  0.0000
  o =  0.9477  v = -0.0064  0.0483 -0.0024 -0.0510 -0.9975  0.0000  0.0000  0.0000  0.0000  0.0000      0.0000  0.0000  0.0000  0.0000  0.0000  0.0000  0.0000  0.0000  0.0000  0.0000
  o =  0.9814  v =  0.0245 -0.7097  0.0249 -0.7037  0.0013  0.0000  0.0000  0.0000  0.0000  0.0000      0.0000  0.0000  0.0000  0.0000  0.0000  0.0000  0.0000  0.0000  0.0000  0.0000
  o =  0.9843  v = -0.8024 -0.0257 -0.5958 -0.0231  0.0065  0.0000  0.0000  0.0000  0.0000  0.0000      0.0000  0.0000  0.0000  0.0000  0.0000  0.0000  0.0000  0.0000  0.0000  0.0000
atom =   8  type =  1  l = 2
 
 onsite density matrix
 
spin component  1
 
  0.0461  0.0000 -0.0252 -0.0000 -0.0001
  0.0000  0.0380 -0.0000 -0.0222  0.0000
 -0.0252 -0.0000  0.0320  0.0000  0.0001
 -0.0000 -0.0222  0.0000  0.0384  0.0000
 -0.0001  0.0000  0.0001  0.0000  0.0139
 
spin component  2
 
  0.9704  0.0000 -0.0189 -0.0000 -0.0001
  0.0000  0.9645 -0.0000 -0.0174  0.0000
 -0.0189 -0.0000  0.9584  0.0000  0.0000
 -0.0000 -0.0174  0.0000  0.9649  0.0000
 -0.0001  0.0000  0.0000  0.0000  0.9477
 
 occupancies and eigenvectors
 
  o =  0.0129  v =  0.6046  0.0002  0.7965  0.0002  0.0113  0.0000  0.0000  0.0000  0.0000  0.0000      0.0000  0.0000  0.0000  0.0000  0.0000  0.0000  0.0000  0.0000  0.0000  0.0000
  o =  0.0139  v =  0.0052  0.0035  0.0102  0.0036 -0.9999  0.0000  0.0000  0.0000  0.0000  0.0000      0.0000  0.0000  0.0000  0.0000  0.0000  0.0000  0.0000  0.0000  0.0000  0.0000
  o =  0.0160  v = -0.0000 -0.7106  0.0005 -0.7036 -0.0050  0.0000  0.0000  0.0000  0.0000  0.0000      0.0000  0.0000  0.0000  0.0000  0.0000  0.0000  0.0000  0.0000  0.0000  0.0000
  o =  0.0604  v =  0.0085 -0.7035 -0.0065  0.7106  0.0000  0.0000  0.0000  0.0000  0.0000  0.0000      0.0000  0.0000  0.0000  0.0000  0.0000  0.0000  0.0000  0.0000  0.0000  0.0000
  o =  0.0652  v = -0.7965 -0.0073  0.6045  0.0078  0.0020  0.0000  0.0000  0.0000  0.0000  0.0000      0.0000  0.0000  0.0000  0.0000  0.0000  0.0000  0.0000  0.0000  0.0000  0.0000
  o =  0.9445  v =  0.0000  0.0000  0.0000  0.0000  0.0000  0.5904 -0.0002  0.8070  0.0001  0.0116      0.0000  0.0000  0.0000  0.0000  0.0000  0.0000  0.0000  0.0000  0.0000  0.0000
  o =  0.9473  v =  0.0000  0.0000  0.0000  0.0000  0.0000 -0.0003 -0.7108 -0.0000 -0.7033  0.0163      0.0000  0.0000  0.0000  0.0000  0.0000  0.0000  0.0000  0.0000  0.0000  0.0000
  o =  0.9477  v =  0.0000  0.0000  0.0000  0.0000  0.0000  0.0050 -0.0116  0.0107 -0.0114 -0.9998      0.0000  0.0000  0.0000  0.0000  0.0000  0.0000  0.0000  0.0000  0.0000  0.0000
  o =  0.9821  v =  0.0000  0.0000  0.0000  0.0000  0.0000  0.0112 -0.7033 -0.0085  0.7108  0.0000      0.0000  0.0000  0.0000  0.0000  0.0000  0.0000  0.0000  0.0000  0.0000  0.0000
  o =  0.9842  v =  0.0000  0.0000  0.0000  0.0000  0.0000 -0.8070 -0.0097  0.5903  0.0102  0.0022      0.0000  0.0000  0.0000  0.0000  0.0000  0.0000  0.0000  0.0000  0.0000  0.0000
atom =   9  type =  1  l = 2
 
 onsite density matrix
 
spin component  1
 
  0.9701  0.0001  0.0192 -0.0001 -0.0002
  0.0001  0.9649  0.0000  0.0171 -0.0001
  0.0192  0.0000  0.9585 -0.0001 -0.0002
 -0.0001  0.0171 -0.0001  0.9641 -0.0001
 -0.0002 -0.0001 -0.0002 -0.0001  0.9477
 
spin component  2
 
  0.0460  0.0002  0.0254 -0.0001 -0.0003
  0.0002  0.0382  0.0001  0.0217 -0.0002
  0.0254  0.0001  0.0320 -0.0002 -0.0002
 -0.0001  0.0217 -0.0002  0.0372 -0.0002
 -0.0003 -0.0002 -0.0002 -0.0002  0.0139
 
 occupancies and eigenvectors
 
  o =  0.0126  v =  0.0000  0.0000  0.0000  0.0000  0.0000 -0.6056 -0.0045  0.7957  0.0073 -0.0012      0.0000  0.0000  0.0000  0.0000  0.0000  0.0000  0.0000  0.0000  0.0000  0.0000
  o =  0.0139  v =  0.0000  0.0000  0.0000  0.0000  0.0000  0.0050  0.0055  0.0053  0.0014  1.0000      0.0000  0.0000  0.0000  0.0000  0.0000  0.0000  0.0000  0.0000  0.0000  0.0000
  o =  0.0160  v =  0.0000  0.0000  0.0000  0.0000  0.0000 -0.0089  0.6993  0.0038 -0.7147 -0.0029      0.0000  0.0000  0.0000  0.0000  0.0000  0.0000  0.0000  0.0000  0.0000  0.0000
  o =  0.0594  v =  0.0000  0.0000  0.0000  0.0000  0.0000  0.0011 -0.7147  0.0032 -0.6994  0.0049      0.0000  0.0000  0.0000  0.0000  0.0000  0.0000  0.0000  0.0000  0.0000  0.0000
  o =  0.0654  v =  0.0000  0.0000  0.0000  0.0000  0.0000 -0.7957 -0.0054 -0.6056  0.0015  0.0072      0.0000  0.0000  0.0000  0.0000  0.0000  0.0000  0.0000  0.0000  0.0000  0.0000
  o =  0.9443  v = -0.5957  0.0029  0.8032 -0.0003 -0.0039  0.0000  0.0000  0.0000  0.0000  0.0000      0.0000  0.0000  0.0000  0.0000  0.0000  0.0000  0.0000  0.0000  0.0000  0.0000
  o =  0.9473  v = -0.0028  0.6994 -0.0048 -0.7147  0.0099  0.0000  0.0000  0.0000  0.0000  0.0000      0.0000  0.0000  0.0000  0.0000  0.0000  0.0000  0.0000  0.0000  0.0000  0.0000
  o =  0.9477  v =  0.0039 -0.0034  0.0078  0.0105  0.9999  0.0000  0.0000  0.0000  0.0000  0.0000      0.0000  0.0000  0.0000  0.0000  0.0000  0.0000  0.0000  0.0000  0.0000  0.0000
  o =  0.9817  v =  0.0002  0.7147 -0.0022  0.6994 -0.0049  0.0000  0.0000  0.0000  0.0000  0.0000      0.0000  0.0000  0.0000  0.0000  0.0000  0.0000  0.0000  0.0000  0.0000  0.0000
  o =  0.9844  v = -0.8032 -0.0044 -0.5957  0.0029  0.0077  0.0000  0.0000  0.0000  0.0000  0.0000      0.0000  0.0000  0.0000  0.0000  0.0000  0.0000  0.0000  0.0000  0.0000  0.0000
atom =  10  type =  1  l = 2
 
 onsite density matrix
 
spin component  1
 
[...]
    1        0.167   6.151   4.953  11.270
    2        0.169   6.154   4.956  11.278
    3        0.167   6.151   4.953  11.270
    4        0.198   6.177   4.933  11.308
    5        0.166   6.150   4.953  11.269
    6        0.169   6.154   4.956  11.278
    7        0.166   6.150   4.953  11.269
    8        0.167   6.152   4.955  11.274
    9        0.166   6.151   4.954  11.271
   10        0.166   6.150   4.952  11.267
   11        0.166   6.151   4.954  11.271
   12        0.167   6.151   4.953  11.270
   13        0.166   6.150   4.953  11.270
   14        0.166   6.150   4.952  11.267
   15        0.166   6.150   4.953  11.270
   16        0.166   6.150   4.953  11.269
   17        0.165   6.149   4.951  11.265
   18        0.166   6.150   4.953  11.269
   19        0.165   6.149   4.951  11.265
   20        0.167   6.151   4.954  11.271
   21        0.167   6.151   4.954  11.272
   22        0.166   6.150   4.953  11.269
   23        0.167   6.151   4.954  11.272
   24        0.167   6.151   4.954  11.271
   25        0.166   6.150   4.953  11.269
   26        0.167   6.151   4.954  11.273
   27        0.166   6.150   4.953  11.269
   28        0.166   6.150   4.952  11.268
   29        0.167   6.151   4.954  11.272
   30        0.167   6.152   4.955  11.273
   31        0.167   6.151   4.954  11.272
   32        0.167   6.151   4.954  11.272
   33        0.166   6.150   4.953  11.269
   34        0.166   6.151   4.953  11.270
   35        0.166   6.150   4.953  11.269
   36        0.166   6.151   4.953  11.270
   37        0.166   6.151   4.953  11.271
   38        0.166   6.151   4.953  11.270
   39        0.166   6.151   4.953  11.270
   40        0.166   6.151   4.953  11.270
   41        0.167   6.151   4.954  11.272
   42        0.166   6.151   4.953  11.270
   43        0.167   6.151   4.954  11.272
   44        0.166   6.150   4.952  11.268
   45        0.166   6.151   4.954  11.271
   46        0.166   6.151   4.953  11.270
   47        0.166   6.151   4.954  11.271
   48        0.166   6.150   4.953  11.269
   49        0.166   6.150   4.951  11.267
   50        0.167   6.151   4.954  11.272
   51        0.166   6.150   4.951  11.267
   52        0.166   6.151   4.953  11.270
   53        0.166   6.150   4.953  11.270
   54        0.167   6.151   4.954  11.272
   55        0.166   6.150   4.953  11.270
   56        0.166   6.151   4.954  11.271
   57        0.166   6.151   4.953  11.270
   58        0.166   6.151   4.953  11.271
   59        0.166   6.151   4.953  11.270
   60        0.166   6.150   4.953  11.269
   61        0.166   6.150   4.953  11.269
   62        0.166   6.151   4.954  11.271
   63        0.166   6.150   4.953  11.270
   64        0.167   6.151   4.954  11.271
   65        0.165   6.149   4.951  11.266
   66        0.166   6.150   4.953  11.270
   67        0.165   6.149   4.951  11.265
   68        0.166   6.150   4.952  11.268
   69        0.167   6.152   4.955  11.273
   70        0.166   6.150   4.953  11.270
   71        0.167   6.152   4.955  11.273
   72        0.167   6.151   4.954  11.272
   73        1.726   4.362   0.000   6.088
   74        1.726   4.368   0.000   6.094
   75        1.726   4.365   0.000   6.090
   76        1.726   4.366   0.000   6.092
   77        1.726   4.362   0.000   6.088
   78        1.726   4.368   0.000   6.094
   79        1.729   4.354   0.000   6.083
   80        1.726   4.366   0.000   6.092
   81        1.726   4.366   0.000   6.092
   82        1.726   4.366   0.000   6.092
   83        1.726   4.364   0.000   6.090
   84        1.726   4.366   0.000   6.092
   85        1.726   4.366   0.000   6.092
   86        1.726   4.366   0.000   6.092
   87        1.726   4.366   0.000   6.092
   88        1.726   4.366   0.000   6.091
   89        1.726   4.366   0.000   6.092
   90        1.726   4.366   0.000   6.092
   91        1.726   4.366   0.000   6.091
   92        1.726   4.367   0.000   6.092
   93        1.726   4.366   0.000   6.092
   94        1.726   4.366   0.000   6.092
   95        1.726   4.366   0.000   6.092
   96        1.726   4.366   0.000   6.092
   97        1.726   4.366   0.000   6.092
   98        1.726   4.367   0.000   6.092
   99        1.726   4.366   0.000   6.091
  100        1.726   4.367   0.000   6.092
  101        1.726   4.366   0.000   6.092
  102        1.726   4.367   0.000   6.092
  103        1.726   4.366   0.000   6.092
  104        1.726   4.366   0.000   6.092
  105        1.726   4.362   0.000   6.088
  106        1.726   4.364   0.000   6.090
  107        1.726   4.365   0.000   6.091
  108        1.726   4.365   0.000   6.091
  109        1.726   4.362   0.000   6.088
  110        1.726   4.364   0.000   6.090
  111        1.726   4.367   0.000   6.093
  112        1.726   4.367   0.000   6.093
  113        1.726   4.368   0.000   6.094
  114        1.726   4.367   0.000   6.093
  115        1.726   4.365   0.000   6.091
  116        1.726   4.365   0.000   6.091
  117        1.726   4.368   0.000   6.094
  118        1.726   4.367   0.000   6.093
  119        1.726   4.366   0.000   6.092
  120        1.726   4.367   0.000   6.092
  121        1.726   4.366   0.000   6.092
  122        1.726   4.366   0.000   6.092
  123        1.726   4.367   0.000   6.092
  124        1.726   4.366   0.000   6.092
  125        1.726   4.366   0.000   6.092
  126        1.726   4.366   0.000   6.092
  127        1.726   4.367   0.000   6.093
  128        1.726   4.366   0.000   6.092
  129        1.726   4.366   0.000   6.092
  130        1.726   4.367   0.000   6.092
  131        1.726   4.367   0.000   6.092
  132        1.726   4.366   0.000   6.092
  133        1.726   4.366   0.000   6.092
  134        1.726   4.367   0.000   6.092
  135        1.726   4.366   0.000   6.092
  136        1.726   4.366   0.000   6.092
  137        1.726   4.366   0.000   6.091
  138        1.726   4.366   0.000   6.092
  139        1.726   4.366   0.000   6.092
  140        1.726   4.366   0.000   6.092
  141        1.726   4.366   0.000   6.091
  142        1.726   4.366   0.000   6.092
  143        1.726   4.366   0.000   6.092
  144        1.726   4.366   0.000   6.091
  145        1.726   4.366   0.000   6.092
  146        1.726   4.366   0.000   6.092
  147        1.726   4.366   0.000   6.092
  148        1.726   4.366   0.000   6.092
  149        1.726   4.366   0.000   6.092
  150        1.726   4.367   0.000   6.092
  151        1.726   4.366   0.000   6.092
  152        1.726   4.367   0.000   6.092
  153        1.726   4.366   0.000   6.092
  154        1.726   4.367   0.000   6.092
  155        1.726   4.366   0.000   6.092
  156        1.726   4.367   0.000   6.092
  157        1.726   4.366   0.000   6.092
  158        1.726   4.367   0.000   6.092
  159        1.726   4.367   0.000   6.092
  160        1.726   4.367   0.000   6.092
  161        1.726   4.367   0.000   6.092
  162        1.726   4.366   0.000   6.092
  163        1.726   4.366   0.000   6.092
  164        1.726   4.367   0.000   6.092
  165        1.726   4.367   0.000   6.092
  166        1.726   4.366   0.000   6.092
  167        1.726   4.366   0.000   6.092
  168        1.726   4.366   0.000   6.092
  169        1.726   4.367   0.000   6.093
  170        1.729   4.356   0.000   6.085
  171        1.726   4.368   0.000   6.094
  172        1.726   4.366   0.000   6.092
  173        1.726   4.367   0.000   6.093
  174        1.729   4.355   0.000   6.084
  175        1.726   4.367   0.000   6.093
  176        1.729   4.352   0.000   6.081
  177        1.726   4.366   0.000   6.092
  178        1.726   4.366   0.000   6.091
  179        1.726   4.368   0.000   6.094
  180        1.726   4.366   0.000   6.092
  181        1.726   4.366   0.000   6.092
  182        1.726   4.366   0.000   6.091
  183        1.726   4.366   0.000   6.092
  184        1.726   4.367   0.000   6.092
  185        1.726   4.366   0.000   6.092
  186        1.726   4.367   0.000   6.092
  187        1.726   4.366   0.000   6.092
  188        1.726   4.366   0.000   6.092
  189        1.726   4.366   0.000   6.092
  190        1.726   4.367   0.000   6.092
  191        1.726   4.366   0.000   6.092
  192        1.726   4.366   0.000   6.092
  193        1.726   4.366   0.000   6.091
  194        1.726   4.366   0.000   6.091
  195        1.726   4.366   0.000   6.092
  196        1.726   4.366   0.000   6.092
  197        1.726   4.366   0.000   6.091
  198        1.726   4.366   0.000   6.091
  199        1.726   4.366   0.000   6.092
  200        1.726   4.366   0.000   6.092
  201        1.726   4.366   0.000   6.092
  202        1.726   4.366   0.000   6.092
  203        1.726   4.365   0.000   6.091
  204        1.726   4.368   0.000   6.094
  205        1.726   4.366   0.000   6.092
  206        1.726   4.366   0.000   6.092
  207        1.726   4.365   0.000   6.090
  208        1.726   4.362   0.000   6.088
  209        1.726   4.366   0.000   6.092
  210        1.726   4.367   0.000   6.092
  211        1.726   4.365   0.000   6.091
  212        1.726   4.368   0.000   6.094
  213        1.726   4.366   0.000   6.092
  214        1.726   4.367   0.000   6.092
  215        1.726   4.368   0.000   6.093
  216        1.726   4.366   0.000   6.091
  217        0.459   0.010   0.000   0.469
--------------------------------------------------
tot        260.9761071.561 356.6121689.148
 


 magnetization (x)
 
# of ion       s       p       d       tot
------------------------------------------
    1        0.019   0.019   4.628   4.665
    2       -0.018  -0.019  -4.622  -4.659
    3        0.019   0.019   4.628   4.665
    4       -0.004  -0.001  -4.391  -4.396
    5        0.018   0.018   4.628   4.665
    6       -0.018  -0.019  -4.622  -4.659
    7        0.018   0.018   4.628   4.665
    8       -0.018  -0.018  -4.628  -4.664
    9        0.018   0.019   4.628   4.665
   10       -0.018  -0.018  -4.628  -4.665
   11        0.018   0.019   4.628   4.665
   12       -0.018  -0.019  -4.628  -4.665
   13        0.018   0.018   4.628   4.665
   14       -0.018  -0.018  -4.628  -4.665
   15        0.018   0.018   4.628   4.665
   16       -0.018  -0.019  -4.628  -4.665
   17        0.018   0.018   4.629   4.666
   18       -0.018  -0.018  -4.629  -4.665
   19        0.018   0.018   4.629   4.666
   20       -0.018  -0.019  -4.628  -4.665
   21        0.018   0.019   4.628   4.665
   22       -0.018  -0.018  -4.629  -4.665
   23        0.018   0.019   4.628   4.665
   24       -0.018  -0.019  -4.628  -4.665
   25        0.018   0.018   4.629   4.665
   26       -0.018  -0.019  -4.628  -4.665
   27        0.018   0.018   4.629   4.665
   28       -0.018  -0.018  -4.629  -4.666
   29        0.018   0.019   4.628   4.665
   30       -0.018  -0.019  -4.628  -4.665
   31        0.018   0.019   4.628   4.665
   32       -0.018  -0.018  -4.628  -4.665
   33        0.018   0.018   4.629   4.665
   34       -0.018  -0.019  -4.628  -4.665
   35        0.018   0.018   4.629   4.665
   36       -0.018  -0.019  -4.628  -4.665
   37        0.018   0.019   4.628   4.665
   38       -0.018  -0.018  -4.628  -4.665
   39        0.018   0.019   4.628   4.665
   40       -0.018  -0.019  -4.628  -4.665
   41        0.018   0.019   4.628   4.665
   42       -0.018  -0.018  -4.628  -4.665
   43        0.018   0.019   4.628   4.665
   44       -0.018  -0.018  -4.629  -4.665
   45        0.018   0.019   4.628   4.665
   46       -0.018  -0.018  -4.628  -4.665
   47        0.018   0.019   4.628   4.665
   48       -0.018  -0.019  -4.628  -4.665
   49        0.018   0.018   4.628   4.665
   50       -0.018  -0.019  -4.628  -4.665
   51        0.018   0.018   4.628   4.665
   52       -0.018  -0.019  -4.628  -4.665
   53        0.018   0.018   4.628   4.665
   54       -0.018  -0.019  -4.628  -4.665
   55        0.018   0.018   4.628   4.665
   56       -0.018  -0.018  -4.628  -4.665
   57        0.018   0.018   4.628   4.665
   58       -0.018  -0.019  -4.628  -4.665
   59        0.018   0.018   4.628   4.665
   60       -0.018  -0.018  -4.629  -4.665
   61        0.018   0.019   4.628   4.665
   62       -0.018  -0.019  -4.628  -4.665
   63        0.018   0.019   4.628   4.665
   64       -0.018  -0.019  -4.628  -4.665
   65        0.018   0.018   4.629   4.666
   66       -0.018  -0.019  -4.628  -4.665
   67        0.018   0.018   4.629   4.666
   68       -0.018  -0.018  -4.629  -4.665
   69        0.018   0.019   4.628   4.665
   70       -0.018  -0.019  -4.628  -4.665
   71        0.018   0.019   4.628   4.665
   72       -0.018  -0.019  -4.628  -4.665
   73       -0.002  -0.012   0.000  -0.014
   74       -0.002  -0.014   0.000  -0.016
   75        0.002   0.015   0.000   0.017
   76        0.002   0.016   0.000   0.017
   77       -0.002  -0.012   0.000  -0.014
   78       -0.002  -0.014   0.000  -0.016
   79        0.004   0.048   0.000   0.053
   80        0.002   0.016   0.000   0.017
   81       -0.002  -0.015   0.000  -0.017
   82       -0.002  -0.015   0.000  -0.017
   83        0.002   0.015   0.000   0.017
   84        0.002   0.016   0.000   0.017
   85       -0.002  -0.015   0.000  -0.017
   86       -0.002  -0.015   0.000  -0.017
   87        0.002   0.015   0.000   0.017
   88        0.002   0.015   0.000   0.017
   89       -0.002  -0.015   0.000  -0.017
   90       -0.002  -0.015   0.000  -0.017
   91        0.002   0.015   0.000   0.017
   92        0.002   0.015   0.000   0.017
   93       -0.002  -0.015   0.000  -0.017
   94       -0.002  -0.015   0.000  -0.017
   95        0.002   0.014   0.000   0.016
   96        0.002   0.015   0.000   0.017
   97       -0.002  -0.015   0.000  -0.017
   98       -0.002  -0.015   0.000  -0.017
   99        0.002   0.015   0.000   0.017
  100        0.002   0.015   0.000   0.017
  101       -0.002  -0.015   0.000  -0.017
  102       -0.002  -0.015   0.000  -0.017
  103        0.002   0.015   0.000   0.017
  104        0.002   0.015   0.000   0.017
  105       -0.002  -0.014   0.000  -0.016
  106       -0.002  -0.016   0.000  -0.018
  107        0.002   0.015   0.000   0.017
  108        0.002   0.015   0.000   0.017
  109       -0.002  -0.014   0.000  -0.016
  110       -0.002  -0.016   0.000  -0.018
  111        0.002   0.015   0.000   0.017
  112        0.002   0.015   0.000   0.017
  113       -0.002  -0.015   0.000  -0.017
  114       -0.002  -0.014   0.000  -0.016
  115        0.002   0.015   0.000   0.017
  116        0.002   0.015   0.000   0.017
  117       -0.002  -0.015   0.000  -0.017
  118       -0.002  -0.014   0.000  -0.016
  119        0.002   0.015   0.000   0.017
  120        0.002   0.015   0.000   0.017
  121       -0.002  -0.015   0.000  -0.017
  122       -0.002  -0.015   0.000  -0.017
  123        0.002   0.015   0.000   0.017
  124        0.002   0.015   0.000   0.017
  125       -0.002  -0.015   0.000  -0.017
  126       -0.002  -0.015   0.000  -0.017
  127        0.002   0.015   0.000   0.017
  128        0.002   0.015   0.000   0.017
  129       -0.002  -0.015   0.000  -0.017
  130       -0.002  -0.015   0.000  -0.017
  131        0.002   0.015   0.000   0.017
  132        0.002   0.015   0.000   0.017
  133       -0.002  -0.015   0.000  -0.017
  134       -0.002  -0.015   0.000  -0.017
  135        0.002   0.015   0.000   0.017
  136        0.002   0.015   0.000   0.017
  137       -0.002  -0.015   0.000  -0.017
  138       -0.002  -0.015   0.000  -0.017
  139        0.002   0.015   0.000   0.017
  140        0.002   0.015   0.000   0.017
  141       -0.002  -0.015   0.000  -0.017
  142       -0.002  -0.015   0.000  -0.017
  143        0.002   0.015   0.000   0.017
  144        0.002   0.015   0.000   0.017
  145       -0.002  -0.015   0.000  -0.017
  146       -0.002  -0.015   0.000  -0.017
  147        0.002   0.015   0.000   0.017
  148        0.002   0.015   0.000   0.017
  149       -0.002  -0.015   0.000  -0.017
  150       -0.002  -0.015   0.000  -0.017
  151        0.002   0.015   0.000   0.017
  152        0.002   0.015   0.000   0.017
  153       -0.002  -0.015   0.000  -0.017
  154       -0.002  -0.015   0.000  -0.017
  155        0.002   0.015   0.000   0.017
  156        0.002   0.015   0.000   0.017
  157       -0.002  -0.015   0.000  -0.017
  158       -0.002  -0.015   0.000  -0.017
  159        0.002   0.015   0.000   0.017
  160        0.002   0.015   0.000   0.017
  161       -0.002  -0.015   0.000  -0.017
  162       -0.002  -0.015   0.000  -0.017
  163        0.002   0.015   0.000   0.017
  164        0.002   0.015   0.000   0.017
  165       -0.002  -0.015   0.000  -0.017
  166       -0.002  -0.015   0.000  -0.017
  167        0.002   0.015   0.000   0.017
  168        0.002   0.015   0.000   0.017
  169       -0.002  -0.014   0.000  -0.016
  170        0.000   0.020   0.000   0.020
  171        0.002   0.016   0.000   0.018
  172        0.002   0.015   0.000   0.017
  173       -0.002  -0.014   0.000  -0.016
  174        0.000   0.020   0.000   0.021
  175        0.002   0.017   0.000   0.019
  176        0.004   0.052   0.000   0.056
  177       -0.002  -0.015   0.000  -0.017
  178       -0.002  -0.015   0.000  -0.017
  179        0.002   0.016   0.000   0.018
  180        0.002   0.015   0.000   0.017
  181       -0.002  -0.015   0.000  -0.017
  182       -0.002  -0.015   0.000  -0.017
  183        0.002   0.015   0.000   0.017
  184        0.002   0.015   0.000   0.017
  185       -0.002  -0.015   0.000  -0.017
  186       -0.002  -0.016   0.000  -0.017
  187        0.002   0.015   0.000   0.017
  188        0.002   0.015   0.000   0.017
  189       -0.002  -0.015   0.000  -0.017
  190       -0.002  -0.016   0.000  -0.017
  191        0.002   0.015   0.000   0.017
  192        0.002   0.015   0.000   0.017
  193       -0.002  -0.015   0.000  -0.017
  194       -0.002  -0.015   0.000  -0.017
  195        0.002   0.015   0.000   0.017
  196        0.002   0.015   0.000   0.017
  197       -0.002  -0.015   0.000  -0.017
  198       -0.002  -0.015   0.000  -0.017
  199        0.002   0.015   0.000   0.017
  200        0.002   0.015   0.000   0.017
  201       -0.002  -0.015   0.000  -0.017
  202       -0.002  -0.015   0.000  -0.017
  203        0.002   0.014   0.000   0.016
  204        0.002   0.015   0.000   0.017
  205       -0.002  -0.015   0.000  -0.017
  206       -0.002  -0.015   0.000  -0.017
  207        0.002   0.015   0.000   0.017
  208        0.002   0.016   0.000   0.018
  209       -0.002  -0.015   0.000  -0.017
  210       -0.002  -0.015   0.000  -0.017
  211        0.002   0.014   0.000   0.016
  212        0.002   0.015   0.000   0.017
  213       -0.002  -0.015   0.000  -0.017
  214       -0.002  -0.015   0.000  -0.017
  215        0.002   0.015   0.000   0.017
  216        0.002   0.015   0.000   0.017
  217        0.254  -0.002   0.000   0.252
--------------------------------------------------
tot          0.280   0.169   0.251   0.699
 

 total amount of memory used by VASP MPI-rank0   501409. kBytes
=======================================================================

   base      :      30000. kBytes
   nonl-proj :      51625. kBytes
   fftplans  :      22373. kBytes
   grid      :      17829. kBytes
   one-center:        590. kBytes
   wavefun   :     378992. kBytes
 
  
  
 General timing and accounting informations for this job:
 ========================================================
  
                  Total CPU time used (sec):      986.723
                            User time (sec):      963.882
                          System time (sec):       22.841
                         Elapsed time (sec):     1073.757
  
                   Maximum memory used (kb):      721168.
                   Average memory used (kb):           0.
  
                          Minor page faults:       237683
                          Major page faults:           23
                 Voluntary context switches:        10467
