 vasp.5.4.4.18Apr17-6-g9f103f2a35 (build Apr 27 2017 11:13:10) complex          
  
 executed on           IFC91_ompi date 2020.05.13  11:10:34
 running on   12 total cores
 distrk:  each k-point on   12 cores,    1 groups
 distr:  one band on NCORES_PER_BAND=   1 cores,   12 groups


--------------------------------------------------------------------------------------------------------


 INCAR:
 POTCAR:    PAW Mn_pv 02Aug2007                   
 POTCAR:    PAW F 31May2000                       

 ----------------------------------------------------------------------------- 
|                                                                             |
|           W    W    AA    RRRRR   N    N  II  N    N   GGGG   !!!           |
|           W    W   A  A   R    R  NN   N  II  NN   N  G    G  !!!           |
|           W    W  A    A  R    R  N N  N  II  N N  N  G       !!!           |
|           W WW W  AAAAAA  RRRRR   N  N N  II  N  N N  G  GGG   !            |
|           WW  WW  A    A  R   R   N   NN  II  N   NN  G    G                |
|           W    W  A    A  R    R  N    N  II  N    N   GGGG   !!!           |
|                                                                             |
|      For optimal performance we recommend to set                            |
|        NCORE= 4 - approx SQRT( number of cores)                             |
|      NCORE specifies how many cores store one orbital (NPAR=cpu/NCORE).     |
|      This setting can  greatly improve the performance of VASP for DFT.     |
|      The default,   NCORE=1            might be grossly inefficient         |
|      on modern multi-core architectures or massively parallel machines.     |
|      Do your own testing !!!!                                               |
|      Unfortunately you need to use the default for GW and RPA calculations. |
|      (for HF NCORE is supported but not extensively tested yet)             |
|                                                                             |
 ----------------------------------------------------------------------------- 

 POTCAR:    PAW Mn_pv 02Aug2007                   
   VRHFIN =Mn: 3p4s3d                                                           
   LEXCH  = CA                                                                  
   EATOM  =  2028.0466 eV,  149.0572 Ry                                         
                                                                                
   TITEL  = PAW Mn_pv 02Aug2007                                                 
   LULTRA =        F    use ultrasoft PP ?                                      
   IUNSCR =        1    unscreen: 0-lin 1-nonlin 2-no                           
   RPACOR =    2.080    partial core radius                                     
   POMASS =   54.938; ZVAL   =   13.000    mass and valenz                      
   RCORE  =    2.300    outmost cutoff radius                                   
   RWIGS  =    2.500; RWIGS  =    1.323    wigner-seitz radius (au A)           
   ENMAX  =  269.944; ENMIN  =  202.458 eV                                      
   ICORE  =        3    local potential                                         
   LCOR   =        T    correct aug charges                                     
   LPAW   =        T    paw PP                                                  
   EAUG   =  569.085                                                            
   DEXC   =    0.000                                                            
   RMAX   =    2.343    core radius for proj-oper                               
   RAUG   =    1.300    factor for augmentation sphere                          
   RDEP   =    2.338    radius for radial grids                                 
   RDEPT  =    1.798    core radius for aug-charge                              
                                                                                
   Atomic configuration                                                         
    8 entries                                                                   
     n  l   j            E        occ.                                          
     1  0  0.50     -6393.6057   2.0000                                         
     2  0  0.50      -735.9993   2.0000                                         
     2  1  1.50      -624.3417   6.0000                                         
     3  0  0.50       -80.9782   2.0000                                         
     3  1  1.50       -50.3144   6.0000                                         
     3  2  2.50        -3.6171   6.0000                                         
     4  0  0.50        -4.3304   1.0000                                         
     4  3  2.50        -1.3606   0.0000                                         
   Description                                                                  
     l       E           TYP  RCUT    TYP  RCUT                                 
     1    -50.3143634     23  2.000                                             
     1     -1.3605826     23  2.000                                             
     2     -3.6171470     23  2.300                                             
     2     -4.9777296     23  2.300                                             
     0     -4.3303688     23  2.300                                             
     0      7.3408788     23  2.300                                             
     3      9.5240782     23  2.300                                             
  local pseudopotential read in
  partial core-charges read in
  partial kinetic energy density read in
  atomic valenz-charges read in
  non local Contribution for L=           1  read in
    real space projection operators read in
  non local Contribution for L=           1  read in
    real space projection operators read in
  non local Contribution for L=           2  read in
    real space projection operators read in
  non local Contribution for L=           2  read in
    real space projection operators read in
  non local Contribution for L=           0  read in
    real space projection operators read in
  non local Contribution for L=           0  read in
    real space projection operators read in
    PAW grid and wavefunctions read in
 
   number of l-projection  operators is LMAX  =           6
   number of lm-projection operators is LMMAX =          18
 
 POTCAR:    PAW F 31May2000                       
   VRHFIN =F: s2p5                                                              
   LEXCH  = CA                                                                  
   EATOM  =   658.3685 eV,   48.3887 Ry                                         
                                                                                
   TITEL  = PAW F 31May2000                                                     
   LULTRA =        F    use ultrasoft PP ?                                      
   IUNSCR =        1    unscreen: 0-lin 1-nonlin 2-no                           
   RPACOR =    1.200    partial core radius                                     
   POMASS =   18.998; ZVAL   =    7.000    mass and valenz                      
   RCORE  =    1.520    outmost cutoff radius                                   
   RWIGS  =    1.500; RWIGS  =    0.794    wigner-seitz radius (au A)           
   ENMAX  =  400.000; ENMIN  =  300.000 eV                                      
   ICORE  =        2    local potential                                         
   LCOR   =        T    correct aug charges                                     
   LPAW   =        T    paw PP                                                  
   EAUG   =  613.614                                                            
   DEXC   =    0.000                                                            
   RMAX   =    1.555    core radius for proj-oper                               
   RAUG   =    1.300    factor for augmentation sphere                          
   RDEP   =    1.539    radius for radial grids                                 
   RDEPT  =    1.299    core radius for aug-charge                              
                                                                                
   Atomic configuration                                                         
    4 entries                                                                   
     n  l   j            E        occ.                                          
     1  0  0.50      -658.3386   2.0000                                         
     2  0  0.50       -29.6221   2.0000                                         
     2  1  0.50       -11.2952   5.0000                                         
     3  2  1.50       -12.2452   0.0000                                         
   Description                                                                  
     l       E           TYP  RCUT    TYP  RCUT                                 
     0    -29.6221019     23  1.200                                             
     0     -9.5240782     23  1.200                                             
     1    -11.2951545     23  1.520                                             
     1      1.3605826     23  1.520                                             
     2    -12.2452434      7  1.500                                             
  local pseudopotential read in
  partial core-charges read in
  partial kinetic energy density read in
  kinetic energy density of atom read in
  atomic valenz-charges read in
  non local Contribution for L=           0  read in
    real space projection operators read in
  non local Contribution for L=           0  read in
    real space projection operators read in
  non local Contribution for L=           1  read in
    real space projection operators read in
  non local Contribution for L=           1  read in
    real space projection operators read in
    PAW grid and wavefunctions read in
 
   number of l-projection  operators is LMAX  =           4
   number of lm-projection operators is LMMAX =           8
 
  PAW Mn_pv 02Aug2007                   :
 energy of atom  1       EATOM=-2028.0466
 kinetic energy error for atom=    0.0061 (will be added to EATOM!!)
  PAW F 31May2000                       :
 energy of atom  2       EATOM= -658.3685
 kinetic energy error for atom=    0.0346 (will be added to EATOM!!)
 
 
 POSCAR: Mn  F                                   
  positions in cartesian coordinates
  No initial velocities read in
 exchange correlation table for  LEXCH =        2
   RHO(1)=    0.500       N(1)  =     2000
   RHO(2)=  100.500       N(2)  =     4000
 


--------------------------------------------------------------------------------------------------------


 ion  position               nearest neighbor table
   1  0.500  0.500  0.500-   3 2.06   4 2.06   5 2.10   6 2.10   5 2.10   6 2.10
   2  0.000  0.000  0.000-   5 2.06   6 2.06   3 2.10   4 2.10   3 2.10   4 2.10
   3  0.196  0.804  0.500-   1 2.06   2 2.10   2 2.10
   4  0.804  0.196  0.500-   1 2.06   2 2.10   2 2.10
   5  0.304  0.304  0.000-   2 2.06   1 2.10   1 2.10
   6  0.696  0.696  0.000-   2 2.06   1 2.10   1 2.10
 
  LATTYP: Found a simple tetragonal cell.
 ALAT       =     4.7946465072
 C/A-ratio  =     0.6772568216
  
  Lattice vectors:
  
 A1 = (   4.7946465072,   0.0000000000,   0.0000000000)
 A2 = (   0.0000000000,   4.7946465072,   0.0000000000)
 A3 = (   0.0000000000,   0.0000000000,   3.2472070543)


Analysis of symmetry for initial positions (statically):
=====================================================================
 Subroutine PRICEL returns:
 Original cell was already a primitive cell.
 

 Routine SETGRP: Setting up the symmetry group for a 
 simple tetragonal supercell.


 Subroutine GETGRP returns: Found 16 space group operations
 (whereof  8 operations were pure point group operations)
 out of a pool of 16 trial point group operations.


The static configuration has the point symmetry D_2h.
 The point group associated with its full space group is D_4h.


Analysis of symmetry for dynamics (positions and initial velocities):
=====================================================================
 Subroutine PRICEL returns:
 Original cell was already a primitive cell.
 

 Routine SETGRP: Setting up the symmetry group for a 
 simple tetragonal supercell.


 Subroutine GETGRP returns: Found 16 space group operations
 (whereof  8 operations were pure point group operations)
 out of a pool of 16 trial point group operations.


The dynamic configuration has the point symmetry D_2h.
 The point group associated with its full space group is D_4h.


Analysis of structural, dynamic, and magnetic symmetry:
=====================================================================
 Subroutine PRICEL returns:
 Original cell was already a primitive cell.
 

 Routine SETGRP: Setting up the symmetry group for a 
 simple tetragonal supercell.


 Subroutine GETGRP returns: Found 16 space group operations
 (whereof  8 operations were pure point group operations)
 out of a pool of 16 trial point group operations.


The magnetic configuration has the point symmetry D_2h.
 The point group associated with its full space group is D_4h.


 Subroutine INISYM returns: Found 16 space group operations
 (whereof  8 operations are pure point group operations),
 and found     1 'primitive' translations

 
 
 KPOINTS: KPOINTS created by Atomic Simulation Env

Automatic generation of k-mesh.
Space group operators:
 irot       det(A)        alpha          n_x          n_y          n_z        tau_x        tau_y        tau_z
    1     1.000000     0.000001     1.000000     0.000000     0.000000     0.000000     0.000000     0.000000
    2    -1.000000     0.000001     1.000000     0.000000     0.000000     0.000000     0.000000     0.000000
    3     1.000000   180.000000     0.000000     0.000000     1.000000     0.000000     0.000000     0.000000
    4    -1.000000   180.000000     0.000000     0.000000     1.000000     0.000000     0.000000     0.000000
    5     1.000000   180.000000     0.707107     0.707107     0.000000     0.000000     0.000000     0.000000
    6    -1.000000   180.000000     0.707107     0.707107     0.000000     0.000000     0.000000     0.000000
    7     1.000000   180.000000     0.707107    -0.707107     0.000000     0.000000     0.000000     0.000000
    8    -1.000000   180.000000     0.707107    -0.707107     0.000000     0.000000     0.000000     0.000000
    9     1.000000    90.000000     0.000000     0.000000    -1.000000     0.500000     0.500000     0.500000
   10    -1.000000    90.000000     0.000000     0.000000    -1.000000     0.500000     0.500000     0.500000
   11     1.000000    90.000000     0.000000     0.000000     1.000000     0.500000     0.500000     0.500000
   12    -1.000000    90.000000     0.000000     0.000000     1.000000     0.500000     0.500000     0.500000
   13     1.000000   180.000000     0.000000     1.000000     0.000000     0.500000     0.500000     0.500000
   14    -1.000000   180.000000     0.000000     1.000000     0.000000     0.500000     0.500000     0.500000
   15     1.000000   180.000000     1.000000     0.000000     0.000000     0.500000     0.500000     0.500000
   16    -1.000000   180.000000     1.000000     0.000000     0.000000     0.500000     0.500000     0.500000
 
 Subroutine IBZKPT returns following result:
 ===========================================
 
 Found      9 irreducible k-points:
 
 Following reciprocal coordinates:
            Coordinates               Weight
  0.125000  0.125000  0.083333      8.000000
  0.375000  0.125000  0.083333     16.000000
  0.375000  0.375000  0.083333      8.000000
  0.125000  0.125000  0.250000      8.000000
  0.375000  0.125000  0.250000     16.000000
  0.375000  0.375000  0.250000      8.000000
  0.125000  0.125000  0.416667      8.000000
  0.375000  0.125000  0.416667     16.000000
  0.375000  0.375000  0.416667      8.000000
 
 Following cartesian coordinates:
            Coordinates               Weight
  0.026071  0.026071  0.025663      8.000000
  0.078212  0.026071  0.025663     16.000000
  0.078212  0.078212  0.025663      8.000000
  0.026071  0.026071  0.076989      8.000000
  0.078212  0.026071  0.076989     16.000000
  0.078212  0.078212  0.076989      8.000000
  0.026071  0.026071  0.128315      8.000000
  0.078212  0.026071  0.128315     16.000000
  0.078212  0.078212  0.128315      8.000000
 
 TETIRR: Found    106 inequivalent tetrahedra from      576


--------------------------------------------------------------------------------------------------------




 Dimension of arrays:
   k-points           NKPTS =      9   k-points in BZ     NKDIM =      9   number of bands    NBANDS=     36
   number of dos      NEDOS =    301   number of ions     NIONS =      6
   non local maximal  LDIM  =      6   non local SUM 2l+1 LMDIM =     18
   total plane-waves  NPLWV =  14112
   max r-space proj   IRMAX =      1   max aug-charges    IRDMAX=  46083
   dimension x,y,z NGX =    28 NGY =   28 NGZ =   18
   dimension x,y,z NGXF=    56 NGYF=   56 NGZF=   36
   support grid    NGXF=   112 NGYF=  112 NGZF=   72
   ions per type =               2   4
   NGX,Y,Z   is equivalent  to a cutoff of   9.71,  9.71,  9.22 a.u.
   NGXF,Y,Z  is equivalent  to a cutoff of  19.42, 19.42, 18.43 a.u.

 SYSTEM =  unknown system                          
 POSCAR =  Mn  F                                   

 Startparameter for this run:
   NWRITE =      2    write-flag & timer
   PREC   = normal    normal or accurate (medium, high low for compatibility)
   ISTART =      0    job   : 0-new  1-cont  2-samecut
   ICHARG =      2    charge: 1-file 2-atom 10-const
   ISPIN  =      2    spin polarized calculation?
   LNONCOLLINEAR =      F non collinear calculations
   LSORBIT =      F    spin-orbit coupling
   INIWAV =      1    electr: 0-lowe 1-rand  2-diag
   LASPH  =      T    aspherical Exc in radial PAW
   METAGGA=      F    non-selfconsistent MetaGGA calc.

 Electronic Relaxation 1
   ENCUT  =  500.0 eV  36.75 Ry    6.06 a.u.   8.74  8.74  5.92*2*pi/ulx,y,z
   ENINI  =  500.0     initial cutoff
   ENAUG  =  613.6 eV  augmentation charge cutoff
   NELM   =     60;   NELMIN=  2; NELMDL= -5     # of ELM steps 
   EDIFF  = 0.1E-05   stopping-criterion for ELM
   LREAL  =      F    real-space projection
   NLSPLINE    = F    spline interpolate recip. space projectors
   LCOMPAT=      F    compatible to vasp.4.4
   GGA_COMPAT  = T    GGA compatible to vasp.4.4-vasp.4.6
   LMAXPAW     = -100 max onsite density
   LMAXMIX     =    4 max onsite mixed and CHGCAR
   VOSKOWN=      0    Vosko Wilk Nusair interpolation
   ROPT   =    0.00000   0.00000
 Ionic relaxation
   EDIFFG = 0.1E-04   stopping-criterion for IOM
   NSW    =      0    number of steps for IOM
   NBLOCK =      1;   KBLOCK =      1    inner block; outer block 
   IBRION =     -1    ionic relax: 0-MD 1-quasi-New 2-CG
   NFREE  =      0    steps in history (QN), initial steepest desc. (CG)
   ISIF   =      2    stress and relaxation
   IWAVPR =     10    prediction:  0-non 1-charg 2-wave 3-comb
   ISYM   =      2    0-nonsym 1-usesym 2-fastsym
   LCORR  =      T    Harris-Foulkes like correction to forces

   POTIM  = 0.5000    time-step for ionic-motion
   TEIN   =    0.0    initial temperature
   TEBEG  =    0.0;   TEEND  =   0.0 temperature during run
   SMASS  =  -3.00    Nose mass-parameter (am)
   estimated Nose-frequenzy (Omega)   =  0.10E-29 period in steps =****** mass=  -0.525E-27a.u.
   SCALEE = 1.0000    scale energy and forces
   NPACO  =    256;   APACO  = 16.0  distance and # of slots for P.C.
   PSTRESS=    0.0 pullay stress

  Mass of Ions in am
   POMASS =  54.94 19.00
  Ionic Valenz
   ZVAL   =  13.00  7.00
  Atomic Wigner-Seitz radii
   RWIGS  =  -1.00 -1.00
  virtual crystal weights 
   VCA    =   1.00  1.00
   NELECT =      54.0000    total number of electrons
   NUPDOWN=      -1.0000    fix difference up-down

 DOS related values:
   EMIN   =  10.00;   EMAX   =-10.00  energy-range for DOS
   EFERMI =   0.00
   ISMEAR =    -5;   SIGMA  =   0.20  broadening in eV -4-tet -1-fermi 0-gaus

 Electronic relaxation 2 (details)
   IALGO  =     38    algorithm
   LDIAG  =      T    sub-space diagonalisation (order eigenvalues)
   LSUBROT=      F    optimize rotation matrix (better conditioning)
   TURBO    =      0    0=normal 1=particle mesh
   IRESTART =      0    0=no restart 2=restart with 2 vectors
   NREBOOT  =      0    no. of reboots
   NMIN     =      0    reboot dimension
   EREF     =   0.00    reference energy to select bands
   IMIX   =      4    mixing-type and parameters
     AMIX     =   0.40;   BMIX     =  1.00
     AMIX_MAG =   1.60;   BMIX_MAG =  1.00
     AMIN     =   0.10
     WC   =   100.;   INIMIX=   1;  MIXPRE=   1;  MAXMIX= -45

 Intra band minimization:
   WEIMIN = 0.0000     energy-eigenvalue tresh-hold
   EBREAK =  0.69E-08  absolut break condition
   DEPER  =   0.30     relativ break condition  

   TIME   =   0.40     timestep for ELM

  volume/ion in A,a.u.               =      12.44        83.96
  Fermi-wavevector in a.u.,A,eV,Ry     =   1.469597  2.777136 29.384725  2.159716
  Thomas-Fermi vector in A             =   2.584956
 
 Write flags
   LWAVE        =      T    write WAVECAR
   LDOWNSAMPLE  =      F    k-point downsampling of WAVECAR
   LCHARG       =      T    write CHGCAR
   LVTOT        =      F    write LOCPOT, total local potential
   LVHAR        =      F    write LOCPOT, Hartree potential only
   LELF         =      F    write electronic localiz. function (ELF)
   LORBIT       =     11    0 simple, 1 ext, 2 COOP (PROOUT), +10 PAW based schemes


 Dipole corrections
   LMONO  =      F    monopole corrections only (constant potential shift)
   LDIPOL =      F    correct potential (dipole corrections)
   IDIPOL =      0    1-x, 2-y, 3-z, 4-all directions 
   EPSILON=  1.0000000 bulk dielectric constant

 LDA+U is selected, type is set to LDAUTYPE =  2
   angular momentum for each species LDAUL =     2   -1
   U (eV)           for each species LDAUU =   4.0  0.0
   J (eV)           for each species LDAUJ =   0.0  0.0
 Exchange correlation treatment:
   GGA     =    --    GGA type
   LEXCH   =     2    internal setting for exchange type
   VOSKOWN=      0    Vosko Wilk Nusair interpolation
   LHFCALC =     F    Hartree Fock is set to
   LHFONE  =     F    Hartree Fock one center treatment
   AEXX    =    0.0000 exact exchange contribution

 Linear response parameters
   LEPSILON=     F    determine dielectric tensor
   LRPA    =     F    only Hartree local field effects (RPA)
   LNABLA  =     F    use nabla operator in PAW spheres
   LVEL    =     F    velocity operator in full k-point grid
   LINTERFAST=   F  fast interpolation
   KINTER  =     0    interpolate to denser k-point grid
   CSHIFT  =0.1000    complex shift for real part using Kramers Kronig
   OMEGAMAX=  -1.0    maximum frequency
   DEG_THRESHOLD= 0.2000000E-02 threshold for treating states as degnerate
   RTIME   =   -0.100 relaxation time in fs
  (WPLASMAI=    0.000 imaginary part of plasma frequency in eV, 0.658/RTIME)
   DFIELD  = 0.0000000 0.0000000 0.0000000 field for delta impulse in time
 
 Orbital magnetization related:
   ORBITALMAG=     F  switch on orbital magnetization
   LCHIMAG   =     F  perturbation theory with respect to B field
   DQ        =  0.001000  dq finite difference perturbation B field
   LLRAUG    =     F  two centre corrections for induced B field



--------------------------------------------------------------------------------------------------------


 Static calculation
 charge density and potential will be updated during run
 spin polarized calculation
 Variant of blocked Davidson
 Davidson routine will perform the subspace rotation
 perform sub-space diagonalisation
    after iterative eigenvector-optimisation
 modified Broyden-mixing scheme, WC =      100.0
 initial mixing is a Kerker type mixing with AMIX =  0.4000 and BMIX =      1.0000
 Hartree-type preconditioning will be used
 using additional bands            9
 reciprocal scheme for non local part
 use partial core corrections
 calculate Harris-corrections to forces 
   (improved forces if not selfconsistent)
 use of overlap-Matrix (Vanderbilt PP)
 Fermi weights with tetrahedron method with Bloechl corrections


--------------------------------------------------------------------------------------------------------


  energy-cutoff  :      500.00
  volume of cell :       74.65
      direct lattice vectors                 reciprocal lattice vectors
     4.794646507  0.000000000  0.000000000     0.208565949  0.000000000  0.000000000
     0.000000000  4.794646507  0.000000000     0.000000000  0.208565949  0.000000000
     0.000000000  0.000000000  3.247207054     0.000000000  0.000000000  0.307956956

  length of vectors
     4.794646507  4.794646507  3.247207054     0.208565949  0.208565949  0.307956956


 
 k-points in units of 2pi/SCALE and weight: KPOINTS created by Atomic Simulation Env
   0.02607074  0.02607074  0.02566308       0.083
   0.07821223  0.02607074  0.02566308       0.167
   0.07821223  0.07821223  0.02566308       0.083
   0.02607074  0.02607074  0.07698924       0.083
   0.07821223  0.02607074  0.07698924       0.167
   0.07821223  0.07821223  0.07698924       0.083
   0.02607074  0.02607074  0.12831540       0.083
   0.07821223  0.02607074  0.12831540       0.167
   0.07821223  0.07821223  0.12831540       0.083
 
 k-points in reciprocal lattice and weights: KPOINTS created by Atomic Simulation Env
   0.12500000  0.12500000  0.08333333       0.083
   0.37500000  0.12500000  0.08333333       0.167
   0.37500000  0.37500000  0.08333333       0.083
   0.12500000  0.12500000  0.25000000       0.083
   0.37500000  0.12500000  0.25000000       0.167
   0.37500000  0.37500000  0.25000000       0.083
   0.12500000  0.12500000  0.41666667       0.083
   0.37500000  0.12500000  0.41666667       0.167
   0.37500000  0.37500000  0.41666667       0.083
 
 position of ions in fractional coordinates (direct lattice) 
   0.50000000  0.50000000  0.50000000
   0.00000000  0.00000000  0.00000000
   0.19590555  0.80409445  0.50000000
   0.80409445  0.19590555  0.50000000
   0.30409445  0.30409445  0.00000000
   0.69590555  0.69590555  0.00000000
 
 position of ions in cartesian coordinates  (Angst):
   2.39732325  2.39732325  1.62360353
   0.00000000  0.00000000  0.00000000
   0.93929787  3.85534864  1.62360353
   3.85534864  0.93929787  1.62360353
   1.45802539  1.45802539  0.00000000
   3.33662112  3.33662112  0.00000000
 


--------------------------------------------------------------------------------------------------------


 k-point  1 :   0.1250 0.1250 0.0833  plane waves:    1898
 k-point  2 :   0.3750 0.1250 0.0833  plane waves:    1886
 k-point  3 :   0.3750 0.3750 0.0833  plane waves:    1881
 k-point  4 :   0.1250 0.1250 0.2500  plane waves:    1892
 k-point  5 :   0.3750 0.1250 0.2500  plane waves:    1897
 k-point  6 :   0.3750 0.3750 0.2500  plane waves:    1898
 k-point  7 :   0.1250 0.1250 0.4167  plane waves:    1895
 k-point  8 :   0.3750 0.1250 0.4167  plane waves:    1905
 k-point  9 :   0.3750 0.3750 0.4167  plane waves:    1906

 maximum and minimum number of plane-waves per node :      1906     1881

 maximum number of plane-waves:      1906
 maximum index in each direction: 
   IXMAX=    8   IYMAX=    8   IZMAX=    5
   IXMIN=   -9   IYMIN=   -9   IZMIN=   -6


 serial   3D FFT for wavefunctions
 parallel 3D FFT for charge:
    minimum data exchange during FFTs selected (reduces bandwidth)


 total amount of memory used by VASP MPI-rank0    40571. kBytes
=======================================================================

   base      :      30000. kBytes
   nonl-proj :       5128. kBytes
   fftplans  :       1551. kBytes
   grid      :       1996. kBytes
   one-center:        186. kBytes
   wavefun   :       1710. kBytes
 
     INWAV:  cpu time    0.0000: real time    0.0000
 Broyden mixing: mesh for mixing (old mesh)
   NGX = 17   NGY = 17   NGZ = 11
  (NGX  = 56   NGY  = 56   NGZ  = 36)
  gives a total of   3179 points

 initial charge density was supplied:
 charge density of overlapping atoms calculated
 number of electron      54.0000000 magnetization       0.0000000
 keeping initial charge density in first step


--------------------------------------------------------------------------------------------------------


 Maximum index for augmentation-charges         4718 (set IRDMAX)


--------------------------------------------------------------------------------------------------------


 First call to EWALD:  gamma=   0.421
 Maximum number of real-space cells 2x 2x 3
 Maximum number of reciprocal cells 3x 3x 2

    FEWALD:  cpu time    0.0010: real time    0.0010


--------------------------------------- Iteration      1(   1)  ---------------------------------------


    POTLOK:  cpu time    0.0056: real time    0.0056
    SETDIJ:  cpu time    0.4246: real time    0.4246
atom =   1  type =  1  l = 2
 
 onsite density matrix
 
spin component  1
 
  0.2837  0.0000  0.0000  0.0000  0.0000
  0.0000  0.2837  0.0000  0.0000  0.0000
  0.0000  0.0000  0.2837  0.0000  0.0000
  0.0000  0.0000  0.0000  0.2837  0.0000
  0.0000  0.0000  0.0000  0.0000  0.2837
 
spin component  2
 
  0.7701  0.0000  0.0000  0.0000  0.0000
  0.0000  0.7701  0.0000  0.0000  0.0000
  0.0000  0.0000  0.7701  0.0000  0.0000
  0.0000  0.0000  0.0000  0.7701  0.0000
  0.0000  0.0000  0.0000  0.0000  0.7701
 
 occupancies and eigenvectors
 
  o =  0.2837  v =  1.0000  0.0000  0.0000  0.0000  0.0000  0.0000  0.0000  0.0000  0.0000  0.0000      0.0000  0.0000  0.0000  0.0000  0.0000  0.0000  0.0000  0.0000  0.0000  0.0000
  o =  0.2837  v =  0.0000  1.0000  0.0000  0.0000  0.0000  0.0000  0.0000  0.0000  0.0000  0.0000      0.0000  0.0000  0.0000  0.0000  0.0000  0.0000  0.0000  0.0000  0.0000  0.0000
  o =  0.2837  v =  0.0000  0.0000  1.0000  0.0000  0.0000  0.0000  0.0000  0.0000  0.0000  0.0000      0.0000  0.0000  0.0000  0.0000  0.0000  0.0000  0.0000  0.0000  0.0000  0.0000
  o =  0.2837  v =  0.0000  0.0000  0.0000  1.0000  0.0000  0.0000  0.0000  0.0000  0.0000  0.0000      0.0000  0.0000  0.0000  0.0000  0.0000  0.0000  0.0000  0.0000  0.0000  0.0000
  o =  0.2837  v =  0.0000  0.0000  0.0000  0.0000  1.0000  0.0000  0.0000  0.0000  0.0000  0.0000      0.0000  0.0000  0.0000  0.0000  0.0000  0.0000  0.0000  0.0000  0.0000  0.0000
  o =  0.7701  v =  0.0000  0.0000  0.0000  0.0000  0.0000  1.0000  0.0000  0.0000  0.0000  0.0000      0.0000  0.0000  0.0000  0.0000  0.0000  0.0000  0.0000  0.0000  0.0000  0.0000
  o =  0.7701  v =  0.0000  0.0000  0.0000  0.0000  0.0000  0.0000  1.0000  0.0000  0.0000  0.0000      0.0000  0.0000  0.0000  0.0000  0.0000  0.0000  0.0000  0.0000  0.0000  0.0000
  o =  0.7701  v =  0.0000  0.0000  0.0000  0.0000  0.0000  0.0000  0.0000  1.0000  0.0000  0.0000      0.0000  0.0000  0.0000  0.0000  0.0000  0.0000  0.0000  0.0000  0.0000  0.0000
  o =  0.7701  v =  0.0000  0.0000  0.0000  0.0000  0.0000  0.0000  0.0000  0.0000  1.0000  0.0000      0.0000  0.0000  0.0000  0.0000  0.0000  0.0000  0.0000  0.0000  0.0000  0.0000
  o =  0.7701  v =  0.0000  0.0000  0.0000  0.0000  0.0000  0.0000  0.0000  0.0000  0.0000  1.0000      0.0000  0.0000  0.0000  0.0000  0.0000  0.0000  0.0000  0.0000  0.0000  0.0000
atom =   2  type =  1  l = 2
 
 onsite density matrix
 
spin component  1
 
  0.7701  0.0000  0.0000  0.0000  0.0000
  0.0000  0.7701  0.0000  0.0000  0.0000
  0.0000  0.0000  0.7701  0.0000  0.0000
  0.0000  0.0000  0.0000  0.7701  0.0000
  0.0000  0.0000  0.0000  0.0000  0.7701
 
spin component  2
 
  0.2837  0.0000  0.0000  0.0000  0.0000
  0.0000  0.2837  0.0000  0.0000  0.0000
  0.0000  0.0000  0.2837  0.0000  0.0000
  0.0000  0.0000  0.0000  0.2837  0.0000
  0.0000  0.0000  0.0000  0.0000  0.2837
 
 occupancies and eigenvectors
 
  o =  0.2837  v =  0.0000  0.0000  0.0000  0.0000  0.0000  1.0000  0.0000  0.0000  0.0000  0.0000      0.0000  0.0000  0.0000  0.0000  0.0000  0.0000  0.0000  0.0000  0.0000  0.0000
  o =  0.2837  v =  0.0000  0.0000  0.0000  0.0000  0.0000  0.0000  1.0000  0.0000  0.0000  0.0000      0.0000  0.0000  0.0000  0.0000  0.0000  0.0000  0.0000  0.0000  0.0000  0.0000
  o =  0.2837  v =  0.0000  0.0000  0.0000  0.0000  0.0000  0.0000  0.0000  1.0000  0.0000  0.0000      0.0000  0.0000  0.0000  0.0000  0.0000  0.0000  0.0000  0.0000  0.0000  0.0000
  o =  0.2837  v =  0.0000  0.0000  0.0000  0.0000  0.0000  0.0000  0.0000  0.0000  1.0000  0.0000      0.0000  0.0000  0.0000  0.0000  0.0000  0.0000  0.0000  0.0000  0.0000  0.0000
  o =  0.2837  v =  0.0000  0.0000  0.0000  0.0000  0.0000  0.0000  0.0000  0.0000  0.0000  1.0000      0.0000  0.0000  0.0000  0.0000  0.0000  0.0000  0.0000  0.0000  0.0000  0.0000
  o =  0.7701  v =  1.0000  0.0000  0.0000  0.0000  0.0000  0.0000  0.0000  0.0000  0.0000  0.0000      0.0000  0.0000  0.0000  0.0000  0.0000  0.0000  0.0000  0.0000  0.0000  0.0000
  o =  0.7701  v =  0.0000  1.0000  0.0000  0.0000  0.0000  0.0000  0.0000  0.0000  0.0000  0.0000      0.0000  0.0000  0.0000  0.0000  0.0000  0.0000  0.0000  0.0000  0.0000  0.0000
  o =  0.7701  v =  0.0000  0.0000  1.0000  0.0000  0.0000  0.0000  0.0000  0.0000  0.0000  0.0000      0.0000  0.0000  0.0000  0.0000  0.0000  0.0000  0.0000  0.0000  0.0000  0.0000
  o =  0.7701  v =  0.0000  0.0000  0.0000  1.0000  0.0000  0.0000  0.0000  0.0000  0.0000  0.0000      0.0000  0.0000  0.0000  0.0000  0.0000  0.0000  0.0000  0.0000  0.0000  0.0000
  o =  0.7701  v =  0.0000  0.0000  0.0000  0.0000  1.0000  0.0000  0.0000  0.0000  0.0000  0.0000      0.0000  0.0000  0.0000  0.0000  0.0000  0.0000  0.0000  0.0000  0.0000  0.0000
     EDDAV:  cpu time    0.2417: real time    0.2626
 BZINTS: Fermi energy: 17.701354; 54.000000 electrons
         Band energy: -97.006364;  BLOECHL correction: -0.055007
       DOS:  cpu time    0.0066: real time    0.0066
    --------------------------------------------
      LOOP:  cpu time    0.6785: real time    0.6995

 eigenvalue-minimisations  :  1296
 total energy-change (2. order) : 0.6284292E+03  (-0.3098924E+04)
 number of electron      54.0000000 magnetization      -0.0000000
 augmentation part       54.0000000 magnetization      -0.0000000

 Free energy of the ion-electron system (eV)
  ---------------------------------------------------
  alpha Z        PSCENC =       204.10001004
  Ewald energy   TEWEN  =     -4254.08391899
  -Hartree energ DENC   =     -2091.13807734
  -exchange      EXHF   =         0.00000000
  -V(xc)+E(xc)   XCENC  =       295.21817577
  PAW double counting   =      5431.03059579    -5549.10764102
  entropy T*S    EENTRO =         0.00000000
  eigenvalues    EBANDS =       -97.00636392
  atomic energy  EATOM  =      6689.41641552
  Solvation  Ediel_sol  =         0.00000000
  ---------------------------------------------------
  free energy    TOTEN  =       628.42919587 eV

  energy without entropy =      628.42919587  energy(sigma->0) =      628.42919587


--------------------------------------------------------------------------------------------------------




--------------------------------------- Iteration      1(   2)  ---------------------------------------


     EDDAV:  cpu time    0.2711: real time    0.2711
 BZINTS: Fermi energy:  4.276471; 54.000000 electrons
         Band energy:-723.708427;  BLOECHL correction:  0.000000
       DOS:  cpu time    0.0014: real time    0.0014
    --------------------------------------------
      LOOP:  cpu time    0.2725: real time    0.2725

 eigenvalue-minimisations  :  1500
 total energy-change (2. order) :-0.6267021E+03  (-0.6107153E+03)
 number of electron      54.0000000 magnetization      -0.0000000
 augmentation part       54.0000000 magnetization      -0.0000000

 Free energy of the ion-electron system (eV)
  ---------------------------------------------------
  alpha Z        PSCENC =       204.10001004
  Ewald energy   TEWEN  =     -4254.08391899
  -Hartree energ DENC   =     -2091.13807734
  -exchange      EXHF   =         0.00000000
  -V(xc)+E(xc)   XCENC  =       295.21817577
  PAW double counting   =      5431.03059579    -5549.10764102
  entropy T*S    EENTRO =         0.00000000
  eigenvalues    EBANDS =      -723.70842686
  atomic energy  EATOM  =      6689.41641552
  Solvation  Ediel_sol  =         0.00000000
  ---------------------------------------------------
  free energy    TOTEN  =         1.72713293 eV

  energy without entropy =        1.72713293  energy(sigma->0) =        1.72713293


--------------------------------------------------------------------------------------------------------




--------------------------------------- Iteration      1(   3)  ---------------------------------------


     EDDAV:  cpu time    0.2714: real time    0.2715
 BZINTS: Fermi energy:  3.482840; 54.000000 electrons
         Band energy:-766.305992;  BLOECHL correction:  0.000000
       DOS:  cpu time    0.0014: real time    0.0014
    --------------------------------------------
      LOOP:  cpu time    0.2729: real time    0.2729

 eigenvalue-minimisations  :  1512
 total energy-change (2. order) :-0.4259756E+02  (-0.4244861E+02)
 number of electron      54.0000000 magnetization      -0.0000000
 augmentation part       54.0000000 magnetization      -0.0000000

 Free energy of the ion-electron system (eV)
  ---------------------------------------------------
  alpha Z        PSCENC =       204.10001004
  Ewald energy   TEWEN  =     -4254.08391899
  -Hartree energ DENC   =     -2091.13807734
  -exchange      EXHF   =         0.00000000
  -V(xc)+E(xc)   XCENC  =       295.21817577
  PAW double counting   =      5431.03059579    -5549.10764102
  entropy T*S    EENTRO =         0.00000000
  eigenvalues    EBANDS =      -766.30599180
  atomic energy  EATOM  =      6689.41641552
  Solvation  Ediel_sol  =         0.00000000
  ---------------------------------------------------
  free energy    TOTEN  =       -40.87043201 eV

  energy without entropy =      -40.87043201  energy(sigma->0) =      -40.87043201


--------------------------------------------------------------------------------------------------------




--------------------------------------- Iteration      1(   4)  ---------------------------------------


     EDDAV:  cpu time    0.2678: real time    0.2678
 BZINTS: Fermi energy:  3.516116; 54.000000 electrons
         Band energy:-766.837577;  BLOECHL correction:  0.000000
       DOS:  cpu time    0.0012: real time    0.0012
    --------------------------------------------
      LOOP:  cpu time    0.2690: real time    0.2690

 eigenvalue-minimisations  :  1488
 total energy-change (2. order) :-0.5315856E+00  (-0.5314393E+00)
 number of electron      54.0000000 magnetization      -0.0000000
 augmentation part       54.0000000 magnetization      -0.0000000

 Free energy of the ion-electron system (eV)
  ---------------------------------------------------
  alpha Z        PSCENC =       204.10001004
  Ewald energy   TEWEN  =     -4254.08391899
  -Hartree energ DENC   =     -2091.13807734
  -exchange      EXHF   =         0.00000000
  -V(xc)+E(xc)   XCENC  =       295.21817577
  PAW double counting   =      5431.03059579    -5549.10764102
  entropy T*S    EENTRO =         0.00000000
  eigenvalues    EBANDS =      -766.83757738
  atomic energy  EATOM  =      6689.41641552
  Solvation  Ediel_sol  =         0.00000000
  ---------------------------------------------------
  free energy    TOTEN  =       -41.40201759 eV

  energy without entropy =      -41.40201759  energy(sigma->0) =      -41.40201759


--------------------------------------------------------------------------------------------------------




--------------------------------------- Iteration      1(   5)  ---------------------------------------


     EDDAV:  cpu time    0.2741: real time    0.2741
 BZINTS: Fermi energy:  3.509158; 54.000000 electrons
         Band energy:-766.846168;  BLOECHL correction:  0.000000
       DOS:  cpu time    0.0012: real time    0.0012
    CHARGE:  cpu time    0.0285: real time    0.0285
    MIXING:  cpu time    0.0006: real time    0.0006
    --------------------------------------------
      LOOP:  cpu time    0.3044: real time    0.3044

 eigenvalue-minimisations  :  1524
 total energy-change (2. order) :-0.8590897E-02  (-0.8590843E-02)
 number of electron      53.9999996 magnetization      -0.0000000
 augmentation part       20.1247823 magnetization      -0.0000000

 Broyden mixing:
  rms(total) = 0.24802E+01    rms(broyden)= 0.24800E+01
  rms(prec ) = 0.32141E+01
  weight for this iteration     100.00

 Free energy of the ion-electron system (eV)
  ---------------------------------------------------
  alpha Z        PSCENC =       204.10001004
  Ewald energy   TEWEN  =     -4254.08391899
  -Hartree energ DENC   =     -2091.13807734
  -exchange      EXHF   =         0.00000000
  -V(xc)+E(xc)   XCENC  =       295.21817577
  PAW double counting   =      5431.03059579    -5549.10764102
  entropy T*S    EENTRO =         0.00000000
  eigenvalues    EBANDS =      -766.84616828
  atomic energy  EATOM  =      6689.41641552
  Solvation  Ediel_sol  =         0.00000000
  ---------------------------------------------------
  free energy    TOTEN  =       -41.41060849 eV

  energy without entropy =      -41.41060849  energy(sigma->0) =      -41.41060849


--------------------------------------------------------------------------------------------------------




--------------------------------------- Iteration      1(   6)  ---------------------------------------


    POTLOK:  cpu time    0.0038: real time    0.0038
    SETDIJ:  cpu time    0.4237: real time    0.4237
atom =   1  type =  1  l = 2
 
 onsite density matrix
 
spin component  1
 
 -0.0728  0.0000  0.0050  0.0000  0.0000
  0.0000 -0.0763  0.0000  0.0034  0.0000
  0.0050  0.0000 -0.0740  0.0000 -0.0000
  0.0000  0.0034  0.0000 -0.0763  0.0000
  0.0000  0.0000 -0.0000  0.0000 -0.0828
 
spin component  2
 
  1.1008  0.0000  0.0137  0.0000 -0.0000
  0.0000  1.0985  0.0000  0.0123  0.0000
  0.0137  0.0000  1.0919  0.0000  0.0000
  0.0000  0.0123  0.0000  1.0985  0.0000
 -0.0000  0.0000  0.0000  0.0000  1.0886
 
 occupancies and eigenvectors
 
  o = -0.0828  v = -0.0000  0.0000  0.0000  0.0000  1.0000  0.0000  0.0000  0.0000  0.0000  0.0000      0.0000  0.0000  0.0000  0.0000  0.0000  0.0000  0.0000  0.0000  0.0000  0.0000
  o = -0.0797  v = -0.0000  0.7071  0.0000 -0.7071  0.0000  0.0000  0.0000  0.0000  0.0000  0.0000      0.0000  0.0000  0.0000  0.0000  0.0000  0.0000  0.0000  0.0000  0.0000  0.0000
  o = -0.0784  v =  0.6625  0.0000 -0.7491 -0.0000  0.0000  0.0000  0.0000  0.0000  0.0000  0.0000      0.0000  0.0000  0.0000  0.0000  0.0000  0.0000  0.0000  0.0000  0.0000  0.0000
  o = -0.0729  v = -0.0000 -0.7071  0.0000 -0.7071  0.0000  0.0000  0.0000  0.0000  0.0000  0.0000      0.0000  0.0000  0.0000  0.0000  0.0000  0.0000  0.0000  0.0000  0.0000  0.0000
  o = -0.0683  v =  0.7491 -0.0000  0.6625 -0.0000 -0.0000  0.0000  0.0000  0.0000  0.0000  0.0000      0.0000  0.0000  0.0000  0.0000  0.0000  0.0000  0.0000  0.0000  0.0000  0.0000
  o =  1.0819  v =  0.0000  0.0000  0.0000  0.0000  0.0000 -0.5886  0.0000  0.8084  0.0000 -0.0000      0.0000  0.0000  0.0000  0.0000  0.0000  0.0000  0.0000  0.0000  0.0000  0.0000
  o =  1.0863  v =  0.0000  0.0000  0.0000  0.0000  0.0000  0.0000  0.7071  0.0000 -0.7071 -0.0000      0.0000  0.0000  0.0000  0.0000  0.0000  0.0000  0.0000  0.0000  0.0000  0.0000
  o =  1.0886  v =  0.0000  0.0000  0.0000  0.0000  0.0000  0.0000  0.0000  0.0000  0.0000  1.0000      0.0000  0.0000  0.0000  0.0000  0.0000  0.0000  0.0000  0.0000  0.0000  0.0000
  o =  1.1107  v =  0.0000  0.0000  0.0000  0.0000  0.0000 -0.8084  0.0000 -0.5886  0.0000  0.0000      0.0000  0.0000  0.0000  0.0000  0.0000  0.0000  0.0000  0.0000  0.0000  0.0000
  o =  1.1108  v =  0.0000  0.0000  0.0000  0.0000  0.0000  0.0000 -0.7071  0.0000 -0.7071  0.0000      0.0000  0.0000  0.0000  0.0000  0.0000  0.0000  0.0000  0.0000  0.0000  0.0000
atom =   2  type =  1  l = 2
 
 onsite density matrix
 
spin component  1
 
  1.1008  0.0000 -0.0137  0.0000 -0.0000
  0.0000  1.0985  0.0000 -0.0123  0.0000
 -0.0137  0.0000  1.0919  0.0000  0.0000
  0.0000 -0.0123  0.0000  1.0985  0.0000
 -0.0000  0.0000  0.0000  0.0000  1.0886
 
spin component  2
 
 -0.0728  0.0000 -0.0050  0.0000  0.0000
  0.0000 -0.0763  0.0000 -0.0034  0.0000
 -0.0050  0.0000 -0.0740  0.0000 -0.0000
  0.0000 -0.0034  0.0000 -0.0763  0.0000
  0.0000  0.0000 -0.0000  0.0000 -0.0828
 
 occupancies and eigenvectors
 
  o = -0.0828  v =  0.0000  0.0000  0.0000  0.0000  0.0000  0.0000 -0.0000  0.0000 -0.0000  1.0000      0.0000  0.0000  0.0000  0.0000  0.0000  0.0000  0.0000  0.0000  0.0000  0.0000
  o = -0.0797  v =  0.0000  0.0000  0.0000  0.0000  0.0000 -0.0000  0.7071 -0.0000  0.7071  0.0000      0.0000  0.0000  0.0000  0.0000  0.0000  0.0000  0.0000  0.0000  0.0000  0.0000
  o = -0.0784  v =  0.0000  0.0000  0.0000  0.0000  0.0000  0.6625  0.0000  0.7491  0.0000 -0.0000      0.0000  0.0000  0.0000  0.0000  0.0000  0.0000  0.0000  0.0000  0.0000  0.0000
  o = -0.0729  v =  0.0000  0.0000  0.0000  0.0000  0.0000 -0.0000 -0.7071 -0.0000  0.7071  0.0000      0.0000  0.0000  0.0000  0.0000  0.0000  0.0000  0.0000  0.0000  0.0000  0.0000
  o = -0.0683  v =  0.0000  0.0000  0.0000  0.0000  0.0000  0.7491 -0.0000 -0.6625  0.0000  0.0000      0.0000  0.0000  0.0000  0.0000  0.0000  0.0000  0.0000  0.0000  0.0000  0.0000
  o =  1.0819  v =  0.5886 -0.0000  0.8084 -0.0000 -0.0000  0.0000  0.0000  0.0000  0.0000  0.0000      0.0000  0.0000  0.0000  0.0000  0.0000  0.0000  0.0000  0.0000  0.0000  0.0000
  o =  1.0863  v = -0.0000 -0.7071 -0.0000 -0.7071  0.0000  0.0000  0.0000  0.0000  0.0000  0.0000      0.0000  0.0000  0.0000  0.0000  0.0000  0.0000  0.0000  0.0000  0.0000  0.0000
  o =  1.0886  v =  0.0000  0.0000  0.0000  0.0000  1.0000  0.0000  0.0000  0.0000  0.0000  0.0000      0.0000  0.0000  0.0000  0.0000  0.0000  0.0000  0.0000  0.0000  0.0000  0.0000
  o =  1.1107  v =  0.8084  0.0000 -0.5886 -0.0000 -0.0000  0.0000  0.0000  0.0000  0.0000  0.0000      0.0000  0.0000  0.0000  0.0000  0.0000  0.0000  0.0000  0.0000  0.0000  0.0000
  o =  1.1108  v =  0.0000 -0.7071 -0.0000  0.7071  0.0000  0.0000  0.0000  0.0000  0.0000  0.0000      0.0000  0.0000  0.0000  0.0000  0.0000  0.0000  0.0000  0.0000  0.0000  0.0000
     EDDAV:  cpu time    0.2814: real time    0.2814
 BZINTS: Fermi energy:  1.727122; 54.000000 electrons
         Band energy:-750.888628;  BLOECHL correction:  0.000000
       DOS:  cpu time    0.0014: real time    0.0014
    CHARGE:  cpu time    0.0285: real time    0.0285
    MIXING:  cpu time    0.0006: real time    0.0006
    --------------------------------------------
      LOOP:  cpu time    0.7394: real time    0.7394

 eigenvalue-minimisations  :  1596
 total energy-change (2. order) : 0.2081824E+01  (-0.1565712E+01)
 number of electron      53.9999996 magnetization       0.0000000
 augmentation part       19.9744710 magnetization       0.0000000

 Broyden mixing:
  rms(total) = 0.15938E+01    rms(broyden)= 0.15936E+01
  rms(prec ) = 0.16429E+01
  weight for this iteration     100.00

 eigenvalues of (default mixing * dielectric matrix)
  average eigenvalue GAMMA=   0.8134
  0.8134

 Free energy of the ion-electron system (eV)
  ---------------------------------------------------
  alpha Z        PSCENC =       204.10001004
  Ewald energy   TEWEN  =     -4254.08391899
  -Hartree energ DENC   =     -2114.04202700
  -exchange      EXHF   =         0.00000000
  -V(xc)+E(xc)   XCENC  =       295.83883570
  PAW double counting   =      5725.83167433    -5835.50114617
  entropy T*S    EENTRO =         0.00000000
  eigenvalues    EBANDS =      -750.88862822
  atomic energy  EATOM  =      6689.41641552
  Solvation  Ediel_sol  =         0.00000000
  ---------------------------------------------------
  free energy    TOTEN  =       -39.32878479 eV

  energy without entropy =      -39.32878479  energy(sigma->0) =      -39.32878479


--------------------------------------------------------------------------------------------------------




--------------------------------------- Iteration      1(   7)  ---------------------------------------


    POTLOK:  cpu time    0.0037: real time    0.0037
    SETDIJ:  cpu time    0.4240: real time    0.4240
atom =   1  type =  1  l = 2
 
 onsite density matrix
 
spin component  1
 
  0.1246  0.0000  0.0223  0.0000 -0.0000
  0.0000  0.1175  0.0000  0.0184  0.0000
  0.0223  0.0000  0.1121  0.0000 -0.0000
  0.0000  0.0184  0.0000  0.1175  0.0000
 -0.0000  0.0000 -0.0000  0.0000  0.0979
 
spin component  2
 
  0.8989  0.0000  0.0074  0.0000  0.0000
  0.0000  0.8967  0.0000  0.0064  0.0000
  0.0074  0.0000  0.8951  0.0000  0.0000
  0.0000  0.0064  0.0000  0.8967  0.0000
  0.0000  0.0000  0.0000  0.0000  0.8899
 
 occupancies and eigenvectors
 
  o =  0.0952  v = -0.6041  0.0000  0.7969  0.0000  0.0000  0.0000  0.0000  0.0000  0.0000  0.0000      0.0000  0.0000  0.0000  0.0000  0.0000  0.0000  0.0000  0.0000  0.0000  0.0000
  o =  0.0979  v = -0.0000 -0.0000  0.0000  0.0000 -1.0000  0.0000  0.0000  0.0000  0.0000  0.0000      0.0000  0.0000  0.0000  0.0000  0.0000  0.0000  0.0000  0.0000  0.0000  0.0000
  o =  0.0991  v =  0.0000  0.7071  0.0000 -0.7071 -0.0000  0.0000  0.0000  0.0000  0.0000  0.0000      0.0000  0.0000  0.0000  0.0000  0.0000  0.0000  0.0000  0.0000  0.0000  0.0000
  o =  0.1359  v =  0.0000  0.7071  0.0000  0.7071 -0.0000  0.0000  0.0000  0.0000  0.0000  0.0000      0.0000  0.0000  0.0000  0.0000  0.0000  0.0000  0.0000  0.0000  0.0000  0.0000
  o =  0.1415  v = -0.7969  0.0000 -0.6041  0.0000  0.0000  0.0000  0.0000  0.0000  0.0000  0.0000      0.0000  0.0000  0.0000  0.0000  0.0000  0.0000  0.0000  0.0000  0.0000  0.0000
  o =  0.8893  v =  0.0000  0.0000  0.0000  0.0000  0.0000 -0.6135  0.0000  0.7897  0.0000 -0.0000      0.0000  0.0000  0.0000  0.0000  0.0000  0.0000  0.0000  0.0000  0.0000  0.0000
  o =  0.8899  v =  0.0000  0.0000  0.0000  0.0000  0.0000 -0.0000 -0.0000  0.0000  0.0000  1.0000      0.0000  0.0000  0.0000  0.0000  0.0000  0.0000  0.0000  0.0000  0.0000  0.0000
  o =  0.8903  v =  0.0000  0.0000  0.0000  0.0000  0.0000  0.0000  0.7071  0.0000 -0.7071  0.0000      0.0000  0.0000  0.0000  0.0000  0.0000  0.0000  0.0000  0.0000  0.0000  0.0000
  o =  0.9032  v =  0.0000  0.0000  0.0000  0.0000  0.0000  0.0000 -0.7071  0.0000 -0.7071 -0.0000      0.0000  0.0000  0.0000  0.0000  0.0000  0.0000  0.0000  0.0000  0.0000  0.0000
  o =  0.9047  v =  0.0000  0.0000  0.0000  0.0000  0.0000 -0.7897  0.0000 -0.6135  0.0000 -0.0000      0.0000  0.0000  0.0000  0.0000  0.0000  0.0000  0.0000  0.0000  0.0000  0.0000
atom =   2  type =  1  l = 2
 
 onsite density matrix
 
spin component  1
 
  0.8989  0.0000 -0.0074  0.0000  0.0000
  0.0000  0.8967  0.0000 -0.0064  0.0000
 -0.0074  0.0000  0.8951  0.0000 -0.0000
  0.0000 -0.0064  0.0000  0.8967  0.0000
  0.0000  0.0000 -0.0000  0.0000  0.8899
 
spin component  2
 
  0.1246  0.0000 -0.0223  0.0000 -0.0000
  0.0000  0.1175  0.0000 -0.0184  0.0000
 -0.0223  0.0000  0.1121  0.0000 -0.0000
  0.0000 -0.0184  0.0000  0.1175  0.0000
 -0.0000  0.0000 -0.0000  0.0000  0.0979
 
 occupancies and eigenvectors
 
  o =  0.0952  v =  0.0000  0.0000  0.0000  0.0000  0.0000 -0.6041  0.0000 -0.7969  0.0000 -0.0000      0.0000  0.0000  0.0000  0.0000  0.0000  0.0000  0.0000  0.0000  0.0000  0.0000
  o =  0.0979  v =  0.0000  0.0000  0.0000  0.0000  0.0000 -0.0000  0.0000 -0.0000  0.0000  1.0000      0.0000  0.0000  0.0000  0.0000  0.0000  0.0000  0.0000  0.0000  0.0000  0.0000
  o =  0.0991  v =  0.0000  0.0000  0.0000  0.0000  0.0000  0.0000  0.7071  0.0000  0.7071 -0.0000      0.0000  0.0000  0.0000  0.0000  0.0000  0.0000  0.0000  0.0000  0.0000  0.0000
  o =  0.1359  v =  0.0000  0.0000  0.0000  0.0000  0.0000 -0.0000 -0.7071  0.0000  0.7071 -0.0000      0.0000  0.0000  0.0000  0.0000  0.0000  0.0000  0.0000  0.0000  0.0000  0.0000
  o =  0.1415  v =  0.0000  0.0000  0.0000  0.0000  0.0000 -0.7969  0.0000  0.6041 -0.0000 -0.0000      0.0000  0.0000  0.0000  0.0000  0.0000  0.0000  0.0000  0.0000  0.0000  0.0000
  o =  0.8893  v = -0.6135  0.0000 -0.7897  0.0000  0.0000  0.0000  0.0000  0.0000  0.0000  0.0000      0.0000  0.0000  0.0000  0.0000  0.0000  0.0000  0.0000  0.0000  0.0000  0.0000
  o =  0.8899  v =  0.0000 -0.0000  0.0000  0.0000  1.0000  0.0000  0.0000  0.0000  0.0000  0.0000      0.0000  0.0000  0.0000  0.0000  0.0000  0.0000  0.0000  0.0000  0.0000  0.0000
  o =  0.8903  v =  0.0000 -0.7071  0.0000 -0.7071 -0.0000  0.0000  0.0000  0.0000  0.0000  0.0000      0.0000  0.0000  0.0000  0.0000  0.0000  0.0000  0.0000  0.0000  0.0000  0.0000
  o =  0.9032  v =  0.0000  0.7071  0.0000 -0.7071  0.0000  0.0000  0.0000  0.0000  0.0000  0.0000      0.0000  0.0000  0.0000  0.0000  0.0000  0.0000  0.0000  0.0000  0.0000  0.0000
  o =  0.9047  v = -0.7897  0.0000  0.6135  0.0000 -0.0000  0.0000  0.0000  0.0000  0.0000  0.0000      0.0000  0.0000  0.0000  0.0000  0.0000  0.0000  0.0000  0.0000  0.0000  0.0000
     EDDAV:  cpu time    0.2721: real time    0.2721
 BZINTS: Fermi energy:  2.070983; 54.000000 electrons
         Band energy:-745.899765;  BLOECHL correction:  0.000000
       DOS:  cpu time    0.0012: real time    0.0012
    CHARGE:  cpu time    0.0289: real time    0.0289
    MIXING:  cpu time    0.0007: real time    0.0006
    --------------------------------------------
      LOOP:  cpu time    0.7305: real time    0.7305

 eigenvalue-minimisations  :  1524
 total energy-change (2. order) :-0.6397441E+00  (-0.1561574E+00)
 number of electron      53.9999997 magnetization      -0.0000000
 augmentation part       19.9502844 magnetization      -0.0000000

 Broyden mixing:
  rms(total) = 0.11834E+01    rms(broyden)= 0.11834E+01
  rms(prec ) = 0.12112E+01
  weight for this iteration     100.00

 eigenvalues of (default mixing * dielectric matrix)
  average eigenvalue GAMMA=   1.4375
  0.7013  2.1737

 Free energy of the ion-electron system (eV)
  ---------------------------------------------------
  alpha Z        PSCENC =       204.10001004
  Ewald energy   TEWEN  =     -4254.08391899
  -Hartree energ DENC   =     -2110.45835239
  -exchange      EXHF   =         0.00000000
  -V(xc)+E(xc)   XCENC  =       296.48036228
  PAW double counting   =      5979.72521467    -6099.24849538
  entropy T*S    EENTRO =         0.00000000
  eigenvalues    EBANDS =      -745.89976463
  atomic energy  EATOM  =      6689.41641552
  Solvation  Ediel_sol  =         0.00000000
  ---------------------------------------------------
  free energy    TOTEN  =       -39.96852887 eV

  energy without entropy =      -39.96852887  energy(sigma->0) =      -39.96852887


--------------------------------------------------------------------------------------------------------




--------------------------------------- Iteration      1(   8)  ---------------------------------------


    POTLOK:  cpu time    0.0041: real time    0.0041
    SETDIJ:  cpu time    0.4255: real time    0.4255
atom =   1  type =  1  l = 2
 
 onsite density matrix
 
spin component  1
 
 -0.0251  0.0000  0.0237  0.0000  0.0000
  0.0000 -0.0330  0.0000  0.0184  0.0000
  0.0237  0.0000 -0.0359  0.0000  0.0000
  0.0000  0.0184  0.0000 -0.0330  0.0000
  0.0000  0.0000  0.0000  0.0000 -0.0559
 
spin component  2
 
  1.0500  0.0000  0.0209  0.0000 -0.0000
  0.0000  1.0438  0.0000  0.0192  0.0000
  0.0209  0.0000  1.0358  0.0000 -0.0000
  0.0000  0.0192  0.0000  1.0438  0.0000
 -0.0000  0.0000 -0.0000  0.0000  1.0267
 
 occupancies and eigenvectors
 
  o = -0.0559  v =  0.0000 -0.0000 -0.0000  0.0000  1.0000  0.0000  0.0000  0.0000  0.0000  0.0000      0.0000  0.0000  0.0000  0.0000  0.0000  0.0000  0.0000  0.0000  0.0000  0.0000
  o = -0.0549  v = -0.6234 -0.0000  0.7819  0.0000  0.0000  0.0000  0.0000  0.0000  0.0000  0.0000      0.0000  0.0000  0.0000  0.0000  0.0000  0.0000  0.0000  0.0000  0.0000  0.0000
  o = -0.0513  v =  0.0000 -0.7071  0.0000  0.7071 -0.0000  0.0000  0.0000  0.0000  0.0000  0.0000      0.0000  0.0000  0.0000  0.0000  0.0000  0.0000  0.0000  0.0000  0.0000  0.0000
  o = -0.0146  v =  0.0000  0.7071  0.0000  0.7071  0.0000  0.0000  0.0000  0.0000  0.0000  0.0000      0.0000  0.0000  0.0000  0.0000  0.0000  0.0000  0.0000  0.0000  0.0000  0.0000
  o = -0.0062  v =  0.7819 -0.0000  0.6234  0.0000  0.0000  0.0000  0.0000  0.0000  0.0000  0.0000      0.0000  0.0000  0.0000  0.0000  0.0000  0.0000  0.0000  0.0000  0.0000  0.0000
  o =  1.0208  v =  0.0000  0.0000  0.0000  0.0000  0.0000 -0.5825  0.0000  0.8128 -0.0000  0.0000      0.0000  0.0000  0.0000  0.0000  0.0000  0.0000  0.0000  0.0000  0.0000  0.0000
  o =  1.0246  v =  0.0000  0.0000  0.0000  0.0000  0.0000  0.0000  0.7071 -0.0000 -0.7071 -0.0000      0.0000  0.0000  0.0000  0.0000  0.0000  0.0000  0.0000  0.0000  0.0000  0.0000
  o =  1.0267  v =  0.0000  0.0000  0.0000  0.0000  0.0000  0.0000  0.0000 -0.0000 -0.0000  1.0000      0.0000  0.0000  0.0000  0.0000  0.0000  0.0000  0.0000  0.0000  0.0000  0.0000
  o =  1.0630  v =  0.0000  0.0000  0.0000  0.0000  0.0000 -0.0000 -0.7071 -0.0000 -0.7071 -0.0000      0.0000  0.0000  0.0000  0.0000  0.0000  0.0000  0.0000  0.0000  0.0000  0.0000
  o =  1.0649  v =  0.0000  0.0000  0.0000  0.0000  0.0000 -0.8128  0.0000 -0.5825  0.0000  0.0000      0.0000  0.0000  0.0000  0.0000  0.0000  0.0000  0.0000  0.0000  0.0000  0.0000
atom =   2  type =  1  l = 2
 
 onsite density matrix
 
spin component  1
 
  1.0500  0.0000 -0.0209  0.0000 -0.0000
  0.0000  1.0438  0.0000 -0.0192  0.0000
 -0.0209  0.0000  1.0358  0.0000 -0.0000
  0.0000 -0.0192  0.0000  1.0438  0.0000
 -0.0000  0.0000 -0.0000  0.0000  1.0267
 
spin component  2
 
 -0.0251  0.0000 -0.0237  0.0000  0.0000
  0.0000 -0.0330  0.0000 -0.0184  0.0000
 -0.0237  0.0000 -0.0359  0.0000  0.0000
  0.0000 -0.0184  0.0000 -0.0330  0.0000
  0.0000  0.0000  0.0000  0.0000 -0.0559
 
 occupancies and eigenvectors
 
  o = -0.0559  v =  0.0000  0.0000  0.0000  0.0000  0.0000  0.0000  0.0000  0.0000  0.0000 -1.0000      0.0000  0.0000  0.0000  0.0000  0.0000  0.0000  0.0000  0.0000  0.0000  0.0000
  o = -0.0549  v =  0.0000  0.0000  0.0000  0.0000  0.0000 -0.6234  0.0000 -0.7819  0.0000 -0.0000      0.0000  0.0000  0.0000  0.0000  0.0000  0.0000  0.0000  0.0000  0.0000  0.0000
  o = -0.0513  v =  0.0000  0.0000  0.0000  0.0000  0.0000  0.0000  0.7071  0.0000  0.7071  0.0000      0.0000  0.0000  0.0000  0.0000  0.0000  0.0000  0.0000  0.0000  0.0000  0.0000
  o = -0.0146  v =  0.0000  0.0000  0.0000  0.0000  0.0000  0.0000  0.7071  0.0000 -0.7071  0.0000      0.0000  0.0000  0.0000  0.0000  0.0000  0.0000  0.0000  0.0000  0.0000  0.0000
  o = -0.0062  v =  0.0000  0.0000  0.0000  0.0000  0.0000  0.7819  0.0000 -0.6234  0.0000 -0.0000      0.0000  0.0000  0.0000  0.0000  0.0000  0.0000  0.0000  0.0000  0.0000  0.0000
  o =  1.0208  v = -0.5825 -0.0000 -0.8128  0.0000 -0.0000  0.0000  0.0000  0.0000  0.0000  0.0000      0.0000  0.0000  0.0000  0.0000  0.0000  0.0000  0.0000  0.0000  0.0000  0.0000
  o =  1.0246  v =  0.0000 -0.7071  0.0000 -0.7071  0.0000  0.0000  0.0000  0.0000  0.0000  0.0000      0.0000  0.0000  0.0000  0.0000  0.0000  0.0000  0.0000  0.0000  0.0000  0.0000
  o =  1.0267  v = -0.0000  0.0000 -0.0000  0.0000  1.0000  0.0000  0.0000  0.0000  0.0000  0.0000      0.0000  0.0000  0.0000  0.0000  0.0000  0.0000  0.0000  0.0000  0.0000  0.0000
  o =  1.0630  v =  0.0000  0.7071  0.0000 -0.7071 -0.0000  0.0000  0.0000  0.0000  0.0000  0.0000      0.0000  0.0000  0.0000  0.0000  0.0000  0.0000  0.0000  0.0000  0.0000  0.0000
  o =  1.0649  v = -0.8128 -0.0000  0.5825  0.0000 -0.0000  0.0000  0.0000  0.0000  0.0000  0.0000      0.0000  0.0000  0.0000  0.0000  0.0000  0.0000  0.0000  0.0000  0.0000  0.0000
     EDDAV:  cpu time    0.2745: real time    0.2745
 BZINTS: Fermi energy:  1.709176; 54.000000 electrons
         Band energy:-753.998033;  BLOECHL correction:  0.000000
       DOS:  cpu time    0.0012: real time    0.0012
    CHARGE:  cpu time    0.0245: real time    0.0245
    MIXING:  cpu time    0.0006: real time    0.0006
    --------------------------------------------
      LOOP:  cpu time    0.7304: real time    0.7304

 eigenvalue-minimisations  :  1512
 total energy-change (2. order) : 0.8322619E-01  (-0.5171806E-01)
 number of electron      53.9999996 magnetization       0.0000000
 augmentation part       19.9840013 magnetization       0.0000000

 Broyden mixing:
  rms(total) = 0.47305E+00    rms(broyden)= 0.47304E+00
  rms(prec ) = 0.50379E+00
  weight for this iteration     100.00

 eigenvalues of (default mixing * dielectric matrix)
  average eigenvalue GAMMA=   1.2532
  2.0987  1.0273  0.6334

 Free energy of the ion-electron system (eV)
  ---------------------------------------------------
  alpha Z        PSCENC =       204.10001004
  Ewald energy   TEWEN  =     -4254.08391899
  -Hartree energ DENC   =     -2104.92624168
  -exchange      EXHF   =         0.00000000
  -V(xc)+E(xc)   XCENC  =       295.79888862
  PAW double counting   =      6251.18133206    -6367.37375567
  entropy T*S    EENTRO =         0.00000000
  eigenvalues    EBANDS =      -753.99803260
  atomic energy  EATOM  =      6689.41641552
  Solvation  Ediel_sol  =         0.00000000
  ---------------------------------------------------
  free energy    TOTEN  =       -39.88530268 eV

  energy without entropy =      -39.88530268  energy(sigma->0) =      -39.88530268


--------------------------------------------------------------------------------------------------------




--------------------------------------- Iteration      1(   9)  ---------------------------------------


    POTLOK:  cpu time    0.0042: real time    0.0042
    SETDIJ:  cpu time    0.2269: real time    0.2269
atom =   1  type =  1  l = 2
 
 onsite density matrix
 
spin component  1
 
  0.0497  0.0000  0.0276  0.0000  0.0000
  0.0000  0.0402  0.0000  0.0231  0.0000
  0.0276  0.0000  0.0344  0.0000  0.0000
  0.0000  0.0231  0.0000  0.0402  0.0000
  0.0000  0.0000  0.0000  0.0000  0.0147
 
spin component  2
 
  0.9743  0.0000  0.0242  0.0000  0.0000
  0.0000  0.9673  0.0000  0.0207  0.0000
  0.0242  0.0000  0.9603  0.0000  0.0000
  0.0000  0.0207  0.0000  0.9673  0.0000
  0.0000  0.0000  0.0000  0.0000  0.9463
 
 occupancies and eigenvectors
 
  o =  0.0134  v = -0.6051  0.0000  0.7961  0.0000 -0.0000  0.0000  0.0000  0.0000  0.0000  0.0000      0.0000  0.0000  0.0000  0.0000  0.0000  0.0000  0.0000  0.0000  0.0000  0.0000
  o =  0.0147  v = -0.0000 -0.0000  0.0000  0.0000  1.0000  0.0000  0.0000  0.0000  0.0000  0.0000      0.0000  0.0000  0.0000  0.0000  0.0000  0.0000  0.0000  0.0000  0.0000  0.0000
  o =  0.0171  v =  0.0000  0.7071  0.0000 -0.7071  0.0000  0.0000  0.0000  0.0000  0.0000  0.0000      0.0000  0.0000  0.0000  0.0000  0.0000  0.0000  0.0000  0.0000  0.0000  0.0000
  o =  0.0633  v =  0.0000 -0.7071  0.0000 -0.7071 -0.0000  0.0000  0.0000  0.0000  0.0000  0.0000      0.0000  0.0000  0.0000  0.0000  0.0000  0.0000  0.0000  0.0000  0.0000  0.0000
  o =  0.0707  v = -0.7961  0.0000 -0.6051  0.0000 -0.0000  0.0000  0.0000  0.0000  0.0000  0.0000      0.0000  0.0000  0.0000  0.0000  0.0000  0.0000  0.0000  0.0000  0.0000  0.0000
  o =  0.9421  v =  0.0000  0.0000  0.0000  0.0000  0.0000 -0.6006  0.0000  0.7995  0.0000  0.0000      0.0000  0.0000  0.0000  0.0000  0.0000  0.0000  0.0000  0.0000  0.0000  0.0000
  o =  0.9463  v =  0.0000  0.0000  0.0000  0.0000  0.0000  0.0000  0.0000 -0.0000 -0.0000  1.0000      0.0000  0.0000  0.0000  0.0000  0.0000  0.0000  0.0000  0.0000  0.0000  0.0000
  o =  0.9466  v =  0.0000  0.0000  0.0000  0.0000  0.0000  0.0000 -0.7071 -0.0000  0.7071  0.0000      0.0000  0.0000  0.0000  0.0000  0.0000  0.0000  0.0000  0.0000  0.0000  0.0000
  o =  0.9880  v =  0.0000  0.0000  0.0000  0.0000  0.0000  0.0000 -0.7071 -0.0000 -0.7071  0.0000      0.0000  0.0000  0.0000  0.0000  0.0000  0.0000  0.0000  0.0000  0.0000  0.0000
  o =  0.9925  v =  0.0000  0.0000  0.0000  0.0000  0.0000 -0.7995  0.0000 -0.6006  0.0000 -0.0000      0.0000  0.0000  0.0000  0.0000  0.0000  0.0000  0.0000  0.0000  0.0000  0.0000
atom =   2  type =  1  l = 2
 
 onsite density matrix
 
spin component  1
 
  0.9743  0.0000 -0.0242  0.0000  0.0000
  0.0000  0.9673  0.0000 -0.0207  0.0000
 -0.0242  0.0000  0.9603  0.0000  0.0000
  0.0000 -0.0207  0.0000  0.9673  0.0000
  0.0000  0.0000  0.0000  0.0000  0.9463
 
spin component  2
 
  0.0497  0.0000 -0.0276  0.0000 -0.0000
  0.0000  0.0402  0.0000 -0.0231  0.0000
 -0.0276  0.0000  0.0344  0.0000  0.0000
  0.0000 -0.0231  0.0000  0.0402  0.0000
 -0.0000  0.0000  0.0000  0.0000  0.0147
 
 occupancies and eigenvectors
 
  o =  0.0134  v =  0.0000  0.0000  0.0000  0.0000  0.0000 -0.6051  0.0000 -0.7961  0.0000  0.0000      0.0000  0.0000  0.0000  0.0000  0.0000  0.0000  0.0000  0.0000  0.0000  0.0000
  o =  0.0147  v =  0.0000  0.0000  0.0000  0.0000  0.0000 -0.0000 -0.0000 -0.0000  0.0000 -1.0000      0.0000  0.0000  0.0000  0.0000  0.0000  0.0000  0.0000  0.0000  0.0000  0.0000
  o =  0.0171  v =  0.0000  0.0000  0.0000  0.0000  0.0000  0.0000  0.7071  0.0000  0.7071 -0.0000      0.0000  0.0000  0.0000  0.0000  0.0000  0.0000  0.0000  0.0000  0.0000  0.0000
  o =  0.0633  v =  0.0000  0.0000  0.0000  0.0000  0.0000  0.0000  0.7071  0.0000 -0.7071 -0.0000      0.0000  0.0000  0.0000  0.0000  0.0000  0.0000  0.0000  0.0000  0.0000  0.0000
  o =  0.0707  v =  0.0000  0.0000  0.0000  0.0000  0.0000 -0.7961  0.0000  0.6051  0.0000  0.0000      0.0000  0.0000  0.0000  0.0000  0.0000  0.0000  0.0000  0.0000  0.0000  0.0000
  o =  0.9421  v = -0.6006  0.0000 -0.7995  0.0000  0.0000  0.0000  0.0000  0.0000  0.0000  0.0000      0.0000  0.0000  0.0000  0.0000  0.0000  0.0000  0.0000  0.0000  0.0000  0.0000
  o =  0.9463  v =  0.0000 -0.0000 -0.0000 -0.0000 -1.0000  0.0000  0.0000  0.0000  0.0000  0.0000      0.0000  0.0000  0.0000  0.0000  0.0000  0.0000  0.0000  0.0000  0.0000  0.0000
  o =  0.9466  v =  0.0000  0.7071 -0.0000  0.7071 -0.0000  0.0000  0.0000  0.0000  0.0000  0.0000      0.0000  0.0000  0.0000  0.0000  0.0000  0.0000  0.0000  0.0000  0.0000  0.0000
  o =  0.9880  v =  0.0000 -0.7071  0.0000  0.7071  0.0000  0.0000  0.0000  0.0000  0.0000  0.0000      0.0000  0.0000  0.0000  0.0000  0.0000  0.0000  0.0000  0.0000  0.0000  0.0000
  o =  0.9925  v = -0.7995  0.0000  0.6006  0.0000 -0.0000  0.0000  0.0000  0.0000  0.0000  0.0000      0.0000  0.0000  0.0000  0.0000  0.0000  0.0000  0.0000  0.0000  0.0000  0.0000
     EDDAV:  cpu time    0.2559: real time    0.2559
 BZINTS: Fermi energy:  1.832944; 54.000000 electrons
         Band energy:-750.246704;  BLOECHL correction:  0.000000
       DOS:  cpu time    0.0014: real time    0.0014
    CHARGE:  cpu time    0.0244: real time    0.0244
    MIXING:  cpu time    0.0007: real time    0.0007
    --------------------------------------------
      LOOP:  cpu time    0.5134: real time    0.5134

 eigenvalue-minimisations  :  1428
 total energy-change (2. order) :-0.2755878E+00  (-0.7324438E-02)
 number of electron      53.9999996 magnetization       0.0000000
 augmentation part       19.9738066 magnetization       0.0000000

 Broyden mixing:
  rms(total) = 0.13752E+00    rms(broyden)= 0.13752E+00
  rms(prec ) = 0.14691E+00
  weight for this iteration     100.00

 eigenvalues of (default mixing * dielectric matrix)
  average eigenvalue GAMMA=   1.2166
  2.6245  0.8084  0.8084  0.6253

 Free energy of the ion-electron system (eV)
  ---------------------------------------------------
  alpha Z        PSCENC =       204.10001004
  Ewald energy   TEWEN  =     -4254.08391899
  -Hartree energ DENC   =     -2105.03351457
  -exchange      EXHF   =         0.00000000
  -V(xc)+E(xc)   XCENC  =       296.08375358
  PAW double counting   =      6384.43798705    -6504.83491898
  entropy T*S    EENTRO =         0.00000000
  eigenvalues    EBANDS =      -750.24670411
  atomic energy  EATOM  =      6689.41641552
  Solvation  Ediel_sol  =         0.00000000
  ---------------------------------------------------
  free energy    TOTEN  =       -40.16089045 eV

  energy without entropy =      -40.16089045  energy(sigma->0) =      -40.16089045


--------------------------------------------------------------------------------------------------------




--------------------------------------- Iteration      1(  10)  ---------------------------------------


    POTLOK:  cpu time    0.0037: real time    0.0037
    SETDIJ:  cpu time    0.2281: real time    0.2281
atom =   1  type =  1  l = 2
 
 onsite density matrix
 
spin component  1
 
  0.0547  0.0000  0.0299  0.0000  0.0000
  0.0000  0.0448  0.0000  0.0245  0.0000
  0.0299  0.0000  0.0385  0.0000  0.0000
  0.0000  0.0245  0.0000  0.0448  0.0000
  0.0000  0.0000  0.0000  0.0000  0.0173
 
spin component  2
 
  0.9697  0.0000  0.0217  0.0000 -0.0000
  0.0000  0.9631  0.0000  0.0190  0.0000
  0.0217  0.0000  0.9565  0.0000 -0.0000
  0.0000  0.0190  0.0000  0.9631  0.0000
 -0.0000  0.0000 -0.0000  0.0000  0.9443
 
 occupancies and eigenvectors
 
  o =  0.0156  v = -0.6078  0.0000  0.7941  0.0000 -0.0000  0.0000  0.0000  0.0000  0.0000  0.0000      0.0000  0.0000  0.0000  0.0000  0.0000  0.0000  0.0000  0.0000  0.0000  0.0000
  o =  0.0173  v = -0.0000 -0.0000  0.0000  0.0000  1.0000  0.0000  0.0000  0.0000  0.0000  0.0000      0.0000  0.0000  0.0000  0.0000  0.0000  0.0000  0.0000  0.0000  0.0000  0.0000
  o =  0.0202  v =  0.0000  0.7071  0.0000 -0.7071  0.0000  0.0000  0.0000  0.0000  0.0000  0.0000      0.0000  0.0000  0.0000  0.0000  0.0000  0.0000  0.0000  0.0000  0.0000  0.0000
  o =  0.0693  v =  0.0000 -0.7071  0.0000 -0.7071 -0.0000  0.0000  0.0000  0.0000  0.0000  0.0000      0.0000  0.0000  0.0000  0.0000  0.0000  0.0000  0.0000  0.0000  0.0000  0.0000
  o =  0.0776  v = -0.7941  0.0000 -0.6078  0.0000 -0.0000  0.0000  0.0000  0.0000  0.0000  0.0000      0.0000  0.0000  0.0000  0.0000  0.0000  0.0000  0.0000  0.0000  0.0000  0.0000
  o =  0.9405  v =  0.0000  0.0000  0.0000  0.0000  0.0000 -0.5957  0.0000  0.8032  0.0000 -0.0000      0.0000  0.0000  0.0000  0.0000  0.0000  0.0000  0.0000  0.0000  0.0000  0.0000
  o =  0.9441  v =  0.0000  0.0000  0.0000  0.0000  0.0000  0.0000 -0.7071  0.0000  0.7071  0.0000      0.0000  0.0000  0.0000  0.0000  0.0000  0.0000  0.0000  0.0000  0.0000  0.0000
  o =  0.9443  v =  0.0000  0.0000  0.0000  0.0000  0.0000  0.0000 -0.0000 -0.0000  0.0000 -1.0000      0.0000  0.0000  0.0000  0.0000  0.0000  0.0000  0.0000  0.0000  0.0000  0.0000
  o =  0.9821  v =  0.0000  0.0000  0.0000  0.0000  0.0000  0.0000 -0.7071  0.0000 -0.7071  0.0000      0.0000  0.0000  0.0000  0.0000  0.0000  0.0000  0.0000  0.0000  0.0000  0.0000
  o =  0.9858  v =  0.0000  0.0000  0.0000  0.0000  0.0000 -0.8032  0.0000 -0.5957  0.0000  0.0000      0.0000  0.0000  0.0000  0.0000  0.0000  0.0000  0.0000  0.0000  0.0000  0.0000
atom =   2  type =  1  l = 2
 
 onsite density matrix
 
spin component  1
 
  0.9697  0.0000 -0.0217  0.0000 -0.0000
  0.0000  0.9631  0.0000 -0.0190  0.0000
 -0.0217  0.0000  0.9565  0.0000  0.0000
  0.0000 -0.0190  0.0000  0.9631  0.0000
 -0.0000  0.0000  0.0000  0.0000  0.9443
 
spin component  2
 
  0.0547  0.0000 -0.0299  0.0000  0.0000
  0.0000  0.0448  0.0000 -0.0245  0.0000
 -0.0299  0.0000  0.0385  0.0000  0.0000
  0.0000 -0.0245  0.0000  0.0448  0.0000
  0.0000  0.0000  0.0000  0.0000  0.0173
 
 occupancies and eigenvectors
 
  o =  0.0156  v =  0.0000  0.0000  0.0000  0.0000  0.0000 -0.6078  0.0000 -0.7941  0.0000  0.0000      0.0000  0.0000  0.0000  0.0000  0.0000  0.0000  0.0000  0.0000  0.0000  0.0000
  o =  0.0173  v =  0.0000  0.0000  0.0000  0.0000  0.0000 -0.0000  0.0000 -0.0000  0.0000 -1.0000      0.0000  0.0000  0.0000  0.0000  0.0000  0.0000  0.0000  0.0000  0.0000  0.0000
  o =  0.0202  v =  0.0000  0.0000  0.0000  0.0000  0.0000 -0.0000 -0.7071 -0.0000 -0.7071 -0.0000      0.0000  0.0000  0.0000  0.0000  0.0000  0.0000  0.0000  0.0000  0.0000  0.0000
  o =  0.0693  v =  0.0000  0.0000  0.0000  0.0000  0.0000 -0.0000 -0.7071  0.0000  0.7071 -0.0000      0.0000  0.0000  0.0000  0.0000  0.0000  0.0000  0.0000  0.0000  0.0000  0.0000
  o =  0.0776  v =  0.0000  0.0000  0.0000  0.0000  0.0000 -0.7941  0.0000  0.6078 -0.0000  0.0000      0.0000  0.0000  0.0000  0.0000  0.0000  0.0000  0.0000  0.0000  0.0000  0.0000
  o =  0.9405  v = -0.5957  0.0000 -0.8032  0.0000  0.0000  0.0000  0.0000  0.0000  0.0000  0.0000      0.0000  0.0000  0.0000  0.0000  0.0000  0.0000  0.0000  0.0000  0.0000  0.0000
  o =  0.9441  v =  0.0000 -0.7071  0.0000 -0.7071  0.0000  0.0000  0.0000  0.0000  0.0000  0.0000      0.0000  0.0000  0.0000  0.0000  0.0000  0.0000  0.0000  0.0000  0.0000  0.0000
  o =  0.9443  v = -0.0000 -0.0000 -0.0000  0.0000 -1.0000  0.0000  0.0000  0.0000  0.0000  0.0000      0.0000  0.0000  0.0000  0.0000  0.0000  0.0000  0.0000  0.0000  0.0000  0.0000
  o =  0.9821  v =  0.0000 -0.7071  0.0000  0.7071  0.0000  0.0000  0.0000  0.0000  0.0000  0.0000      0.0000  0.0000  0.0000  0.0000  0.0000  0.0000  0.0000  0.0000  0.0000  0.0000
  o =  0.9858  v = -0.8032  0.0000  0.5957  0.0000  0.0000  0.0000  0.0000  0.0000  0.0000  0.0000      0.0000  0.0000  0.0000  0.0000  0.0000  0.0000  0.0000  0.0000  0.0000  0.0000
     EDDAV:  cpu time    0.2746: real time    0.2746
 BZINTS: Fermi energy:  1.828647; 54.000000 electrons
         Band energy:-749.566506;  BLOECHL correction:  0.000000
       DOS:  cpu time    0.0014: real time    0.0014
    CHARGE:  cpu time    0.0243: real time    0.0243
    MIXING:  cpu time    0.0006: real time    0.0006
    --------------------------------------------
      LOOP:  cpu time    0.5326: real time    0.5326

 eigenvalue-minimisations  :  1548
 total energy-change (2. order) :-0.5065215E-03  (-0.1580779E-02)
 number of electron      53.9999996 magnetization      -0.0000000
 augmentation part       19.9705937 magnetization      -0.0000000

 Broyden mixing:
  rms(total) = 0.24961E-01    rms(broyden)= 0.24947E-01
  rms(prec ) = 0.27542E-01
  weight for this iteration     100.00

 eigenvalues of (default mixing * dielectric matrix)
  average eigenvalue GAMMA=   1.1586
  2.5394  0.9601  0.9601  0.7282  0.6054

 Free energy of the ion-electron system (eV)
  ---------------------------------------------------
  alpha Z        PSCENC =       204.10001004
  Ewald energy   TEWEN  =     -4254.08391899
  -Hartree energ DENC   =     -2105.72644580
  -exchange      EXHF   =         0.00000000
  -V(xc)+E(xc)   XCENC  =       296.17861337
  PAW double counting   =      6372.13002936    -6492.60959441
  entropy T*S    EENTRO =         0.00000000
  eigenvalues    EBANDS =      -749.56650606
  atomic energy  EATOM  =      6689.41641552
  Solvation  Ediel_sol  =         0.00000000
  ---------------------------------------------------
  free energy    TOTEN  =       -40.16139697 eV

  energy without entropy =      -40.16139697  energy(sigma->0) =      -40.16139697


--------------------------------------------------------------------------------------------------------




--------------------------------------- Iteration      1(  11)  ---------------------------------------


    POTLOK:  cpu time    0.0037: real time    0.0037
    SETDIJ:  cpu time    0.2268: real time    0.2268
atom =   1  type =  1  l = 2
 
 onsite density matrix
 
spin component  1
 
  0.0533  0.0000  0.0296  0.0000 -0.0000
  0.0000  0.0434  0.0000  0.0244  0.0000
  0.0296  0.0000  0.0372  0.0000 -0.0000
  0.0000  0.0244  0.0000  0.0434  0.0000
 -0.0000  0.0000 -0.0000  0.0000  0.0162
 
spin component  2
 
  0.9719  0.0000  0.0217  0.0000  0.0000
  0.0000  0.9653  0.0000  0.0190  0.0000
  0.0217  0.0000  0.9588  0.0000  0.0000
  0.0000  0.0190  0.0000  0.9653  0.0000
  0.0000  0.0000  0.0000  0.0000  0.9465
 
 occupancies and eigenvectors
 
  o =  0.0145  v = -0.6070  0.0000  0.7947  0.0000  0.0000  0.0000  0.0000  0.0000  0.0000  0.0000      0.0000  0.0000  0.0000  0.0000  0.0000  0.0000  0.0000  0.0000  0.0000  0.0000
  o =  0.0162  v = -0.0000 -0.0000  0.0000  0.0000 -1.0000  0.0000  0.0000  0.0000  0.0000  0.0000      0.0000  0.0000  0.0000  0.0000  0.0000  0.0000  0.0000  0.0000  0.0000  0.0000
  o =  0.0190  v =  0.0000 -0.7071  0.0000  0.7071  0.0000  0.0000  0.0000  0.0000  0.0000  0.0000      0.0000  0.0000  0.0000  0.0000  0.0000  0.0000  0.0000  0.0000  0.0000  0.0000
  o =  0.0678  v =  0.0000  0.7071  0.0000  0.7071 -0.0000  0.0000  0.0000  0.0000  0.0000  0.0000      0.0000  0.0000  0.0000  0.0000  0.0000  0.0000  0.0000  0.0000  0.0000  0.0000
  o =  0.0760  v = -0.7947  0.0000 -0.6070  0.0000  0.0000  0.0000  0.0000  0.0000  0.0000  0.0000      0.0000  0.0000  0.0000  0.0000  0.0000  0.0000  0.0000  0.0000  0.0000  0.0000
  o =  0.9426  v =  0.0000  0.0000  0.0000  0.0000  0.0000 -0.5961  0.0000  0.8029 -0.0000 -0.0000      0.0000  0.0000  0.0000  0.0000  0.0000  0.0000  0.0000  0.0000  0.0000  0.0000
  o =  0.9464  v =  0.0000  0.0000  0.0000  0.0000  0.0000 -0.0000 -0.7071  0.0000  0.7071 -0.0000      0.0000  0.0000  0.0000  0.0000  0.0000  0.0000  0.0000  0.0000  0.0000  0.0000
  o =  0.9465  v =  0.0000  0.0000  0.0000  0.0000  0.0000 -0.0000 -0.0000  0.0000  0.0000  1.0000      0.0000  0.0000  0.0000  0.0000  0.0000  0.0000  0.0000  0.0000  0.0000  0.0000
  o =  0.9843  v =  0.0000  0.0000  0.0000  0.0000  0.0000 -0.0000 -0.7071 -0.0000 -0.7071 -0.0000      0.0000  0.0000  0.0000  0.0000  0.0000  0.0000  0.0000  0.0000  0.0000  0.0000
  o =  0.9880  v =  0.0000  0.0000  0.0000  0.0000  0.0000 -0.8029  0.0000 -0.5961  0.0000 -0.0000      0.0000  0.0000  0.0000  0.0000  0.0000  0.0000  0.0000  0.0000  0.0000  0.0000
atom =   2  type =  1  l = 2
 
 onsite density matrix
 
spin component  1
 
  0.9719  0.0000 -0.0217  0.0000  0.0000
  0.0000  0.9653  0.0000 -0.0190  0.0000
 -0.0217  0.0000  0.9588  0.0000  0.0000
  0.0000 -0.0190  0.0000  0.9653  0.0000
  0.0000  0.0000  0.0000  0.0000  0.9465
 
spin component  2
 
  0.0533  0.0000 -0.0296  0.0000 -0.0000
  0.0000  0.0434  0.0000 -0.0244  0.0000
 -0.0296  0.0000  0.0372  0.0000  0.0000
  0.0000 -0.0244  0.0000  0.0434  0.0000
 -0.0000  0.0000  0.0000  0.0000  0.0162
 
 occupancies and eigenvectors
 
  o =  0.0145  v =  0.0000  0.0000  0.0000  0.0000  0.0000 -0.6070  0.0000 -0.7947  0.0000  0.0000      0.0000  0.0000  0.0000  0.0000  0.0000  0.0000  0.0000  0.0000  0.0000  0.0000
  o =  0.0162  v =  0.0000  0.0000  0.0000  0.0000  0.0000 -0.0000 -0.0000 -0.0000  0.0000 -1.0000      0.0000  0.0000  0.0000  0.0000  0.0000  0.0000  0.0000  0.0000  0.0000  0.0000
  o =  0.0190  v =  0.0000  0.0000  0.0000  0.0000  0.0000  0.0000 -0.7071  0.0000 -0.7071  0.0000      0.0000  0.0000  0.0000  0.0000  0.0000  0.0000  0.0000  0.0000  0.0000  0.0000
  o =  0.0678  v =  0.0000  0.0000  0.0000  0.0000  0.0000  0.0000 -0.7071  0.0000  0.7071  0.0000      0.0000  0.0000  0.0000  0.0000  0.0000  0.0000  0.0000  0.0000  0.0000  0.0000
  o =  0.0760  v =  0.0000  0.0000  0.0000  0.0000  0.0000 -0.7947  0.0000  0.6070  0.0000  0.0000      0.0000  0.0000  0.0000  0.0000  0.0000  0.0000  0.0000  0.0000  0.0000  0.0000
  o =  0.9426  v = -0.5961 -0.0000 -0.8029  0.0000  0.0000  0.0000  0.0000  0.0000  0.0000  0.0000      0.0000  0.0000  0.0000  0.0000  0.0000  0.0000  0.0000  0.0000  0.0000  0.0000
  o =  0.9464  v =  0.0000 -0.7071  0.0000 -0.7071 -0.0000  0.0000  0.0000  0.0000  0.0000  0.0000      0.0000  0.0000  0.0000  0.0000  0.0000  0.0000  0.0000  0.0000  0.0000  0.0000
  o =  0.9465  v = -0.0000  0.0000 -0.0000  0.0000 -1.0000  0.0000  0.0000  0.0000  0.0000  0.0000      0.0000  0.0000  0.0000  0.0000  0.0000  0.0000  0.0000  0.0000  0.0000  0.0000
[...]
     33       8.9811      0.00000
     34      10.1941      0.00000
     35      10.4640      0.00000
     36      11.5555      0.00000

 k-point     7 :       0.1250    0.1250    0.4167
  band No.  band energies     occupation 
      1     -45.9546      1.00000
      2     -45.9246      1.00000
      3     -45.8977      1.00000
      4     -41.3676      1.00000
      5     -41.3475      1.00000
      6     -41.3125      1.00000
      7     -20.5718      1.00000
      8     -20.4195      1.00000
      9     -20.3716      1.00000
     10     -20.2614      1.00000
     11      -4.3119      1.00000
     12      -4.0200      1.00000
     13      -3.6549      1.00000
     14      -3.5732      1.00000
     15      -3.4667      1.00000
     16      -3.1976      1.00000
     17      -2.7065      1.00000
     18      -2.4923      1.00000
     19      -2.4665      1.00000
     20      -1.9475      1.00000
     21      -1.8031      1.00000
     22      -1.7481      1.00000
     23      -0.0029      1.00000
     24       0.1940      1.00000
     25       0.5247      1.00000
     26       1.1035      1.00000
     27       1.4519      1.00000
     28       7.0799      0.00000
     29       7.0918      0.00000
     30       7.2066      0.00000
     31       8.0252      0.00000
     32       8.2395      0.00000
     33       8.9139      0.00000
     34      11.0855      0.00000
     35      12.4992      0.00000
     36      12.7297      0.00000

 k-point     8 :       0.3750    0.1250    0.4167
  band No.  band energies     occupation 
      1     -45.9546      1.00000
      2     -45.9246      1.00000
      3     -45.8977      1.00000
      4     -41.3676      1.00000
      5     -41.3475      1.00000
      6     -41.3126      1.00000
      7     -20.5040      1.00000
      8     -20.4372      1.00000
      9     -20.3867      1.00000
     10     -20.2964      1.00000
     11      -4.2105      1.00000
     12      -4.0727      1.00000
     13      -3.9913      1.00000
     14      -3.6763      1.00000
     15      -3.4339      1.00000
     16      -3.0158      1.00000
     17      -2.8351      1.00000
     18      -2.6676      1.00000
     19      -2.2068      1.00000
     20      -1.9055      1.00000
     21      -1.6822      1.00000
     22      -1.5559      1.00000
     23       0.0066      1.00000
     24       0.1250      1.00000
     25       0.4159      1.00000
     26       1.0506      1.00000
     27       1.6560      1.00000
     28       7.0742      0.00000
     29       7.0804      0.00000
     30       7.3259      0.00000
     31       7.9493      0.00000
     32       8.4745      0.00000
     33       9.4635      0.00000
     34      10.8432      0.00000
     35      11.4695      0.00000
     36      12.5237      0.00000

 k-point     9 :       0.3750    0.3750    0.4167
  band No.  band energies     occupation 
      1     -45.9546      1.00000
      2     -45.9246      1.00000
      3     -45.8977      1.00000
      4     -41.3676      1.00000
      5     -41.3475      1.00000
      6     -41.3126      1.00000
      7     -20.4763      1.00000
      8     -20.4672      1.00000
      9     -20.3897      1.00000
     10     -20.2857      1.00000
     11      -4.4836      1.00000
     12      -4.2435      1.00000
     13      -3.9569      1.00000
     14      -3.9023      1.00000
     15      -3.4753      1.00000
     16      -2.9955      1.00000
     17      -2.6976      1.00000
     18      -2.4420      1.00000
     19      -1.9845      1.00000
     20      -1.7183      1.00000
     21      -1.6031      1.00000
     22      -1.4955      1.00000
     23       0.0070      1.00000
     24       0.1231      1.00000
     25       0.3748      1.00000
     26       1.1016      1.00000
     27       1.6108      1.00000
     28       7.0766      0.00000
     29       7.0995      0.00000
     30       7.3586      0.00000
     31       7.9234      0.00000
     32       8.3556      0.00000
     33       9.9735      0.00000
     34      11.4231      0.00000
     35      11.4231      0.00000
     36      11.5940      0.00000


--------------------------------------------------------------------------------------------------------


 soft charge-density along one line, spin component           1
         0         1         2         3         4         5         6         7         8         9
 total charge-density along one line
 
 soft charge-density along one line, spin component           2
         0         1         2         3         4         5         6         7         8         9
 total charge-density along one line
 
 pseudopotential strength for first ion, spin component:           1
-41.883  -0.000  -0.031   7.896   0.000   0.013   0.000   0.000
 -0.000 -41.856  -0.000   0.000   7.886   0.000  -0.000  -0.000
 -0.031  -0.000 -41.883   0.013   0.000   7.896  -0.000  -0.000
  7.896   0.000   0.013   5.349  -0.000  -0.005  -0.000  -0.000
  0.000   7.886   0.000  -0.000   5.353  -0.000   0.000  -0.000
  0.013   0.000   7.896  -0.005  -0.000   5.349  -0.000   0.000
  0.000  -0.000  -0.000  -0.000   0.000  -0.000  -1.373  -0.000
  0.000  -0.000  -0.000  -0.000  -0.000   0.000  -0.000  -1.328
  0.000   0.000  -0.000   0.000  -0.000  -0.000  -0.075   0.000
 -0.000  -0.000   0.000   0.000  -0.000  -0.000  -0.000  -0.090
  0.000  -0.000  -0.000   0.000   0.000   0.000   0.000   0.000
  0.000  -0.000  -0.000  -0.000   0.000  -0.000  -1.816  -0.000
  0.000  -0.000  -0.000  -0.000  -0.000   0.000  -0.000  -1.770
  0.000   0.000  -0.000   0.000  -0.000  -0.000  -0.079   0.000
 -0.000  -0.000   0.000   0.000  -0.000  -0.000  -0.000  -0.093
  0.000  -0.000  -0.000   0.000   0.000   0.000   0.000   0.000
 -0.000  -0.000   0.000  -0.000  -0.000   0.000   0.006   0.000
 -0.000  -0.000   0.000  -0.000  -0.000   0.000   0.012   0.000
 pseudopotential strength for first ion, spin component:           2
-44.952  -0.000  -0.024   9.382   0.000   0.009   0.000   0.000
 -0.000 -44.933  -0.000   0.000   9.375   0.000  -0.000  -0.000
 -0.024  -0.000 -44.952   0.009   0.000   9.382  -0.000  -0.000
  9.382   0.000   0.009   4.854  -0.000  -0.003   0.000  -0.000
  0.000   9.375   0.000  -0.000   4.857  -0.000   0.000  -0.000
  0.009   0.000   9.382  -0.003  -0.000   4.854  -0.000   0.000
  0.000  -0.000  -0.000   0.000   0.000  -0.000  -7.376  -0.000
  0.000  -0.000  -0.000  -0.000  -0.000   0.000  -0.000  -7.344
  0.000   0.000  -0.000   0.000  -0.000  -0.000  -0.053   0.000
 -0.000  -0.000   0.000   0.000  -0.000  -0.000  -0.000  -0.073
  0.000  -0.000  -0.000   0.000   0.000  -0.000   0.000   0.000
  0.000  -0.000  -0.000   0.000   0.000  -0.000  -7.869  -0.000
  0.000  -0.000  -0.000  -0.000  -0.000   0.000  -0.000  -7.837
  0.000   0.000  -0.000   0.000  -0.000  -0.000  -0.055   0.000
 -0.000  -0.000   0.000   0.000  -0.000  -0.000  -0.000  -0.075
  0.000  -0.000  -0.000   0.000   0.000  -0.000   0.000   0.000
 -0.000  -0.000   0.000  -0.000  -0.000   0.000   0.004   0.000
 -0.000  -0.000   0.000  -0.000  -0.000   0.000   0.007   0.000
 total augmentation occupancy for first ion, spin component:           1
  1.998   0.000  -0.000  -0.013   0.000   0.000   0.000   0.000   0.000   0.000   0.000   0.000   0.000   0.000   0.000   0.000
  0.000   1.998   0.000   0.000  -0.013   0.000   0.000   0.000   0.000   0.000   0.000   0.000   0.000   0.000   0.000   0.000
 -0.000   0.000   1.998   0.000   0.000  -0.013   0.000   0.000   0.000   0.000   0.000   0.000   0.000   0.000   0.000   0.000
 -0.013   0.000   0.000   0.097   0.000  -0.010   0.000   0.000   0.000   0.000   0.000   0.000   0.000   0.000   0.000   0.000
  0.000  -0.013   0.000   0.000   0.108   0.000   0.000   0.000   0.000   0.000   0.000   0.000   0.000   0.000   0.000   0.000
  0.000   0.000  -0.013  -0.010   0.000   0.097   0.000   0.000   0.000   0.000   0.000   0.000   0.000   0.000   0.000   0.000
  0.000   0.000   0.000   0.000   0.000   0.000   8.384   0.000   3.393   0.000  -0.000  -6.455   0.000  -3.219   0.000   0.000
  0.000   0.000   0.000   0.000   0.000   0.000   0.000   7.004   0.000   2.923   0.000   0.000  -5.138   0.000  -2.761   0.000
  0.000   0.000   0.000   0.000   0.000   0.000   3.393   0.000   6.318   0.000   0.000  -3.220   0.000  -4.516   0.000  -0.000
  0.000   0.000   0.000   0.000   0.000   0.000   0.000   2.923   0.000   7.004   0.000   0.000  -2.761   0.000  -5.138   0.000
  0.000   0.000   0.000   0.000   0.000   0.000   0.000   0.000   0.000   0.000   3.961   0.000   0.000  -0.000   0.000  -2.235
  0.000   0.000   0.000   0.000   0.000   0.000  -6.455   0.000  -3.220   0.000   0.000   5.697   0.000   3.091   0.000   0.000
  0.000   0.000   0.000   0.000   0.000   0.000   0.000  -5.138   0.000  -2.761   0.000   0.000   4.431   0.000   2.637   0.000
  0.000   0.000   0.000   0.000   0.000   0.000  -3.219   0.000  -4.516   0.000  -0.000   3.091   0.000   3.858   0.000  -0.000
  0.000   0.000   0.000   0.000   0.000   0.000   0.000  -2.761   0.000  -5.138   0.000   0.000   2.637   0.000   4.431   0.000
  0.000   0.000   0.000   0.000   0.000   0.000   0.000   0.000   0.000   0.000  -2.235   0.000   0.000  -0.000   0.000   1.629
  0.000   0.000   0.000   0.000   0.000   0.000   0.265   0.000  -0.231   0.000  -0.000  -0.295   0.000   0.239   0.000  -0.000
  0.000   0.000   0.000   0.000   0.000   0.000  -0.008   0.000   0.027   0.000  -0.000   0.034   0.000  -0.038   0.000   0.000
 total augmentation occupancy for first ion, spin component:           2
  0.004   0.000  -0.000   0.016   0.000  -0.000   0.000   0.000   0.000   0.000   0.000   0.000   0.000   0.000   0.000   0.000
  0.000   0.004   0.000   0.000   0.017   0.000   0.000   0.000   0.000   0.000   0.000   0.000   0.000   0.000   0.000   0.000
 -0.000   0.000   0.004  -0.000   0.000   0.016   0.000   0.000   0.000   0.000   0.000   0.000   0.000   0.000   0.000   0.000
  0.016   0.000  -0.000  -0.009   0.000  -0.000   0.000   0.000   0.000   0.000   0.000   0.000   0.000   0.000   0.000   0.000
  0.000   0.017   0.000   0.000  -0.009   0.000   0.000   0.000   0.000   0.000   0.000   0.000   0.000   0.000   0.000   0.000
 -0.000   0.000   0.016  -0.000   0.000  -0.009   0.000   0.000   0.000   0.000   0.000   0.000   0.000   0.000   0.000   0.000
  0.000   0.000   0.000   0.000   0.000   0.000  -5.677   0.000  -1.873   0.000   0.000   3.340   0.000   1.478   0.000   0.000
  0.000   0.000   0.000   0.000   0.000   0.000   0.000  -4.913   0.000  -1.642   0.000   0.000   2.718   0.000   1.295   0.000
  0.000   0.000   0.000   0.000   0.000   0.000  -1.873   0.000  -4.445   0.000   0.000   1.478   0.000   2.359   0.000  -0.000
  0.000   0.000   0.000   0.000   0.000   0.000   0.000  -1.642   0.000  -4.913   0.000   0.000   1.295   0.000   2.718   0.000
  0.000   0.000   0.000   0.000   0.000   0.000  -0.000   0.000   0.000   0.000  -3.278  -0.000   0.000   0.000   0.000   1.427
  0.000   0.000   0.000   0.000   0.000   0.000   3.340   0.000   1.478   0.000  -0.000  -2.104   0.000  -1.090   0.000   0.000
  0.000   0.000   0.000   0.000   0.000   0.000   0.000   2.718   0.000   1.295   0.000   0.000  -1.623   0.000  -0.955   0.000
  0.000   0.000   0.000   0.000   0.000   0.000   1.478   0.000   2.359   0.000   0.000  -1.090   0.000  -1.368   0.000  -0.000
  0.000   0.000   0.000   0.000   0.000   0.000   0.000   1.295   0.000   2.718   0.000   0.000  -0.955   0.000  -1.623   0.000
  0.000   0.000   0.000   0.000   0.000   0.000  -0.000   0.000   0.000   0.000   1.427  -0.000   0.000   0.000   0.000  -0.671
  0.000   0.000   0.000   0.000   0.000   0.000   0.006   0.000   0.024   0.000   0.000  -0.015   0.000  -0.004   0.000  -0.000
  0.000   0.000   0.000   0.000   0.000   0.000  -0.047   0.000   0.012   0.000   0.000   0.028   0.000  -0.006   0.000  -0.000


------------------------ aborting loop because EDIFF is reached ----------------------------------------


 


 total charge     
 
# of ion       s       p       d       tot
------------------------------------------
    1        0.179   6.173   4.981  11.333
    2        0.184   6.168   4.988  11.339
    3        1.728   4.362   0.000   6.090
    4        1.728   4.362   0.000   6.090
    5        1.728   4.358   0.000   6.085
    6        1.728   4.358   0.000   6.085
--------------------------------------------------
tot          7.274  29.780   9.968  47.022
 


 magnetization (x)
 
# of ion       s       p       d       tot
------------------------------------------
    1       -0.014  -0.015  -4.597  -4.626
    2        0.014   0.013   4.595   4.622
    3        0.002   0.021   0.000   0.023
    4        0.002   0.021   0.000   0.023
    5       -0.003  -0.017   0.000  -0.020
    6       -0.003  -0.017   0.000  -0.020
--------------------------------------------------
tot         -0.001   0.007  -0.003   0.003
 
    CHARGE:  cpu time    0.0243: real time    0.0243
    FORLOC:  cpu time    0.0009: real time    0.0009
    FORNL :  cpu time    0.1309: real time    0.1309
    STRESS:  cpu time    0.3793: real time    0.3794
    FORCOR:  cpu time    0.0035: real time    0.0034
    FORHAR:  cpu time    0.0017: real time    0.0017
    MIXING:  cpu time    0.0005: real time    0.0005
    OFIELD:  cpu time    0.0000: real time    0.0000

  FORCE on cell =-STRESS in cart. coord.  units (eV):
  Direction    XX          YY          ZZ          XY          YZ          ZX
  --------------------------------------------------------------------------------------
  Alpha Z   204.10001   204.10001   204.10001
  Ewald   -1606.90162 -1606.90162 -1040.28387    -0.00000    -0.00000    -0.00000
  Hartree   575.45264   575.45264   955.17163    -0.00000    -0.00000    -0.00000
  E(xc)    -309.50709  -309.50709  -309.55175    -0.00000     0.00000     0.00000
  Local     186.34608   186.34608  -752.70814     0.00000     0.00000    -0.00000
  n-local  -238.24261  -238.59071  -237.37457     0.02548     0.11736     0.11925
  augment   267.17925   267.17925   266.55966    -0.00000    -0.00001    -0.00001
  Kinetic   921.36346   922.13065   914.10271    -0.51215    -0.95612    -1.01462
  Fock        0.00000     0.00000     0.00000     0.00000     0.00000     0.00000
  -------------------------------------------------------------------------------------
  Total      -0.00032    -0.00032     0.01567    -0.00000     0.00000     0.00000
  in kB      -0.00693    -0.00693     0.33638    -0.00000     0.00000     0.00000
  external pressure =        0.11 kB  Pullay stress =        0.00 kB


 VOLUME and BASIS-vectors are now :
 -----------------------------------------------------------------------------
  energy-cutoff  :      500.00
  volume of cell :       74.65
      direct lattice vectors                 reciprocal lattice vectors
     4.794646507  0.000000000  0.000000000     0.208565949  0.000000000  0.000000000
     0.000000000  4.794646507  0.000000000     0.000000000  0.208565949  0.000000000
     0.000000000  0.000000000  3.247207054     0.000000000  0.000000000  0.307956956

  length of vectors
     4.794646507  4.794646507  3.247207054     0.208565949  0.208565949  0.307956956


 FORCES acting on ions
    electron-ion (+dipol)            ewald-force                    non-local-force                 convergence-correction
 -----------------------------------------------------------------------------------------------
   0.213E-11 0.525E-11 0.542E-11   0.000E+00 0.284E-13 0.458E-14   0.000E+00 0.000E+00 0.000E+00   -.530E-13 -.434E-13 0.524E-13
   -.501E-13 -.571E-13 -.908E-12   0.000E+00 -.853E-13 0.190E-14   0.000E+00 0.000E+00 0.000E+00   -.184E-13 0.251E-13 -.491E-13
   -.339E+02 0.339E+02 -.293E-11   0.352E+02 -.352E+02 -.289E-14   -.128E+01 0.128E+01 0.000E+00   -.265E-03 0.265E-03 0.112E-12
   0.339E+02 -.339E+02 -.103E-10   -.352E+02 0.352E+02 -.283E-14   0.128E+01 -.128E+01 0.000E+00   0.265E-03 -.265E-03 -.750E-13
   0.339E+02 0.339E+02 0.618E-09   -.352E+02 -.352E+02 0.130E-14   0.128E+01 0.128E+01 0.000E+00   0.265E-03 0.265E-03 -.225E-10
   -.339E+02 -.339E+02 -.607E-09   0.352E+02 0.352E+02 0.139E-14   -.128E+01 -.128E+01 0.000E+00   -.265E-03 -.265E-03 0.224E-10
 -----------------------------------------------------------------------------------------------
   -.187E-12 0.105E-10 0.247E-11   0.711E-14 0.000E+00 0.345E-14   -.222E-15 -.222E-15 0.000E+00   -.355E-13 -.132E-14 0.290E-13
 
 
 POSITION                                       TOTAL-FORCE (eV/Angst)
 -----------------------------------------------------------------------------------
      2.39732      2.39732      1.62360        -0.000000      0.000000     -0.000000
      0.00000      0.00000      0.00000        -0.000000      0.000000     -0.000000
      0.93930      3.85535      1.62360        -0.000904      0.000904      0.000000
      3.85535      0.93930      1.62360         0.000904     -0.000904     -0.000000
      1.45803      1.45803      0.00000         0.000904      0.000904      0.000000
      3.33662      3.33662      0.00000        -0.000904     -0.000904     -0.000000
 -----------------------------------------------------------------------------------
    total drift:                               -0.000000      0.000000      0.000000


--------------------------------------------------------------------------------------------------------



  FREE ENERGIE OF THE ION-ELECTRON SYSTEM (eV)
  ---------------------------------------------------
  free  energy   TOTEN  =       -40.16141275 eV

  energy  without entropy=      -40.16141275  energy(sigma->0) =      -40.16141275
 


--------------------------------------------------------------------------------------------------------


    POTLOK:  cpu time    0.2290: real time    0.2290


--------------------------------------------------------------------------------------------------------


 writing wavefunctions
     LOOP+:  cpu time    8.6744: real time    8.6955
    4ORBIT:  cpu time    0.0000: real time    0.0000
 


 total charge     
 
# of ion       s       p       d       tot
------------------------------------------
    1        0.179   6.173   4.981  11.333
    2        0.184   6.168   4.988  11.339
    3        1.728   4.362   0.000   6.090
    4        1.728   4.362   0.000   6.090
    5        1.728   4.358   0.000   6.085
    6        1.728   4.358   0.000   6.085
--------------------------------------------------
tot          7.274  29.780   9.968  47.022
 


 magnetization (x)
 
# of ion       s       p       d       tot
------------------------------------------
    1       -0.014  -0.015  -4.597  -4.626
    2        0.014   0.013   4.595   4.622
    3        0.002   0.021   0.000   0.023
    4        0.002   0.021   0.000   0.023
    5       -0.003  -0.017   0.000  -0.020
    6       -0.003  -0.017   0.000  -0.020
--------------------------------------------------
tot         -0.001   0.007  -0.003   0.003
 
 BZINTS: Fermi energy:  1.835327; 54.000000 electrons
         Band energy:-749.346654;  BLOECHL correction:  0.000000

 total amount of memory used by VASP MPI-rank0    40571. kBytes
=======================================================================

   base      :      30000. kBytes
   nonl-proj :       5128. kBytes
   fftplans  :       1551. kBytes
   grid      :       1996. kBytes
   one-center:        186. kBytes
   wavefun   :       1710. kBytes
 
  
  
 General timing and accounting informations for this job:
 ========================================================
  
                  Total CPU time used (sec):        9.755
                            User time (sec):        6.939
                          System time (sec):        2.816
                         Elapsed time (sec):        9.825
  
                   Maximum memory used (kb):       55344.
                   Average memory used (kb):           0.
  
                          Minor page faults:         8200
                          Major page faults:            8
                 Voluntary context switches:          253
