       N       E                     dE             d eps       ncg     rms          rms(c)
DAV:   1     0.732227412757E+03    0.73223E+03   -0.38186E+04  1296   0.219E+03
DAV:   2     0.153464236302E+02   -0.71688E+03   -0.69254E+03  1476   0.547E+02
DAV:   3    -0.393043703610E+02   -0.54651E+02   -0.54367E+02  1488   0.163E+02
DAV:   4    -0.401076368755E+02   -0.80327E+00   -0.80292E+00  1500   0.214E+01
DAV:   5    -0.401201135200E+02   -0.12477E-01   -0.12476E-01  1548   0.262E+00    0.225E+01
DAV:   6    -0.382305499555E+02    0.18896E+01   -0.15567E+01  1596   0.316E+01    0.142E+01
DAV:   7    -0.389484790555E+02   -0.71793E+00   -0.18332E+00  1560   0.108E+01    0.113E+01
DAV:   8    -0.390115016776E+02   -0.63023E-01   -0.41632E-01  1488   0.550E+00    0.522E+00
DAV:   9    -0.391694595212E+02   -0.15796E+00   -0.48571E-02  1332   0.218E+00    0.127E+00
DAV:  10    -0.391705946508E+02   -0.11351E-02   -0.19938E-02  1596   0.125E+00    0.283E-01
DAV:  11    -0.391708318002E+02   -0.23715E-03   -0.28355E-03  1380   0.357E-01    0.138E-01
DAV:  12    -0.391709836789E+02   -0.15188E-03   -0.10593E-04  1620   0.124E-01    0.551E-02
DAV:  13    -0.391710391455E+02   -0.55467E-04   -0.92284E-05  1368   0.557E-02    0.212E-02
DAV:  14    -0.391710478415E+02   -0.86960E-05   -0.83441E-06  1536   0.216E-02    0.909E-03
DAV:  15    -0.391710476475E+02    0.19404E-06   -0.14855E-06  1428   0.742E-03    0.269E-03
DAV:  16    -0.391710479241E+02   -0.27665E-06   -0.24094E-07  1452   0.288E-03    0.184E-03
DAV:  17    -0.391710478851E+02    0.38997E-07   -0.16865E-08   948   0.104E-03
   1 F= -.39171048E+02 E0= -.39171048E+02  d E =-.391710E+02  mag=    -0.0000
