 vasp.5.4.4.18Apr17-6-g9f103f2a35 (build Apr 27 2017 11:13:10) complex          
  
 executed on           IFC91_ompi date 2021.06.03  11:51:00
 running on    4 total cores
 distrk:  each k-point on    4 cores,    1 groups
 distr:  one band on NCORES_PER_BAND=   1 cores,    4 groups


--------------------------------------------------------------------------------------------------------


 INCAR:
 POTCAR:    PAW_PBE Mn_pv 02Aug2007               
 POTCAR:    PAW_PBE F 08Apr2002                   
 POTCAR:    PAW_PBE Mn_pv 02Aug2007               
   VRHFIN =Mn: 3p4s3d                                                           
   LEXCH  = PE                                                                  
   EATOM  =  2025.2664 eV,  148.8529 Ry                                         
                                                                                
   TITEL  = PAW_PBE Mn_pv 02Aug2007                                             
   LULTRA =        F    use ultrasoft PP ?                                      
   IUNSCR =        1    unscreen: 0-lin 1-nonlin 2-no                           
   RPACOR =    2.080    partial core radius                                     
   POMASS =   54.938; ZVAL   =   13.000    mass and valenz                      
   RCORE  =    2.300    outmost cutoff radius                                   
   RWIGS  =    2.500; RWIGS  =    1.323    wigner-seitz radius (au A)           
   ENMAX  =  269.864; ENMIN  =  202.398 eV                                      
   ICORE  =        3    local potential                                         
   LCOR   =        T    correct aug charges                                     
   LPAW   =        T    paw PP                                                  
   EAUG   =  569.085                                                            
   DEXC   =    0.000                                                            
   RMAX   =    2.343    core radius for proj-oper                               
   RAUG   =    1.300    factor for augmentation sphere                          
   RDEP   =    2.338    radius for radial grids                                 
   RDEPT  =    1.798    core radius for aug-charge                              
                                                                                
   Atomic configuration                                                         
    8 entries                                                                   
     n  l   j            E        occ.                                          
     1  0  0.50     -6424.8287   2.0000                                         
     2  0  0.50      -739.1154   2.0000                                         
     2  1  1.50      -625.3949   6.0000                                         
     3  0  0.50       -81.6100   2.0000                                         
     3  1  1.50       -50.4667   6.0000                                         
     3  2  2.50        -3.3745   6.0000                                         
     4  0  0.50        -4.1331   1.0000                                         
     4  3  2.50        -1.3606   0.0000                                         
   Description                                                                  
     l       E           TYP  RCUT    TYP  RCUT                                 
     1    -50.4666628     23  2.000                                             
     1     -1.3605826     23  2.000                                             
     2     -3.3744729     23  2.300                                             
     2     -4.7350555     23  2.300                                             
     0     -4.1331431     23  2.300                                             
     0      7.6656591     23  2.300                                             
     3      9.5240782     23  2.300                                             
  local pseudopotential read in
  partial core-charges read in
  partial kinetic energy density read in
  atomic valenz-charges read in
  non local Contribution for L=           1  read in
    real space projection operators read in
  non local Contribution for L=           1  read in
    real space projection operators read in
  non local Contribution for L=           2  read in
    real space projection operators read in
  non local Contribution for L=           2  read in
    real space projection operators read in
  non local Contribution for L=           0  read in
    real space projection operators read in
  non local Contribution for L=           0  read in
    real space projection operators read in
    PAW grid and wavefunctions read in
 
   number of l-projection  operators is LMAX  =           6
   number of lm-projection operators is LMMAX =          18
 
 POTCAR:    PAW_PBE F 08Apr2002                   
   VRHFIN =F: s2p5                                                              
   LEXCH  = PE                                                                  
   EATOM  =   659.6475 eV,   48.4827 Ry                                         
                                                                                
   TITEL  = PAW_PBE F 08Apr2002                                                 
   LULTRA =        F    use ultrasoft PP ?                                      
   IUNSCR =        1    unscreen: 0-lin 1-nonlin 2-no                           
   RPACOR =    1.200    partial core radius                                     
   POMASS =   18.998; ZVAL   =    7.000    mass and valenz                      
   RCORE  =    1.520    outmost cutoff radius                                   
   RWIGS  =    1.500; RWIGS  =    0.794    wigner-seitz radius (au A)           
   ENMAX  =  400.000; ENMIN  =  300.000 eV                                      
   ICORE  =        2    local potential                                         
   LCOR   =        T    correct aug charges                                     
   LPAW   =        T    paw PP                                                  
   EAUG   =  613.614                                                            
   RMAX   =    1.555    core radius for proj-oper                               
   RAUG   =    1.300    factor for augmentation sphere                          
   RDEP   =    1.539    radius for radial grids                                 
   RDEPT  =    1.299    core radius for aug-charge                              
                                                                                
   Atomic configuration                                                         
    4 entries                                                                   
     n  l   j            E        occ.                                          
     1  0  0.50      -663.3661   2.0000                                         
     2  0  0.50       -29.8995   2.0000                                         
     2  1  0.50       -11.1114   5.0000                                         
     3  2  1.50       -10.8847   0.0000                                         
   Description                                                                  
     l       E           TYP  RCUT    TYP  RCUT                                 
     0    -29.8995018     23  1.200                                             
     0     -9.5240782     23  1.200                                             
     1    -11.1113914     23  1.520                                             
     1      1.3605826     23  1.520                                             
     2    -10.8846608      7  1.500                                             
  local pseudopotential read in
  partial core-charges read in
  partial kinetic energy density read in
  atomic valenz-charges read in
  non local Contribution for L=           0  read in
    real space projection operators read in
  non local Contribution for L=           0  read in
    real space projection operators read in
  non local Contribution for L=           1  read in
    real space projection operators read in
  non local Contribution for L=           1  read in
    real space projection operators read in
    PAW grid and wavefunctions read in
 
   number of l-projection  operators is LMAX  =           4
   number of lm-projection operators is LMMAX =           8
 

 ----------------------------------------------------------------------------- 
|                                                                             |
|  ADVICE TO THIS USER RUNNING 'VASP/VAMP'   (HEAR YOUR MASTER'S VOICE ...):  |
|                                                                             |
|      You enforced a specific xc-type in the INCAR file,                     |
|      a different type was found on the POTCAR file                          |
|          I HOPE YOU KNOW, WHAT YOU ARE  DOING                               |
|                                                                             |
 ----------------------------------------------------------------------------- 

  PAW_PBE Mn_pv 02Aug2007               :
 energy of atom  1       EATOM=-2025.2664
 kinetic energy error for atom=    0.0047 (will be added to EATOM!!)
  PAW_PBE F 08Apr2002                   :
 energy of atom  2       EATOM= -659.6475
 kinetic energy error for atom=    0.0256 (will be added to EATOM!!)
 
 
 POSCAR: Mn  F                                   
  positions in cartesian coordinates
  No initial velocities read in
 exchange correlation table for  LEXCH =       14
   RHO(1)=    0.500       N(1)  =     2000
   RHO(2)=  100.500       N(2)  =     4000
 


--------------------------------------------------------------------------------------------------------


 ion  position               nearest neighbor table
   1  0.500  0.500  0.500-   3 2.10   4 2.10   5 2.13   6 2.13   5 2.13   6 2.13
   2  0.000  0.000  0.000-   5 2.10   6 2.10   3 2.13   4 2.13   3 2.13   4 2.13
   3  0.195  0.805  0.500-   1 2.10   2 2.13   2 2.13
   4  0.805  0.195  0.500-   1 2.10   2 2.13   2 2.13
   5  0.305  0.305  0.000-   2 2.10   1 2.13   1 2.13
   6  0.695  0.695  0.000-   2 2.10   1 2.13   1 2.13
 

IMPORTANT INFORMATION: All symmetrisations will be switched off!
NOSYMM: (Re-)initialisation of all symmetry stuff for point group C_1.

 
 
 KPOINTS: KPOINTS created by Atomic Simulation Env

Automatic generation of k-mesh.
Space group operators:
 irot       det(A)        alpha          n_x          n_y          n_z        tau_x        tau_y        tau_z
    1     1.000000     0.000001     1.000000     0.000000     0.000000     0.000000     0.000000     0.000000
 
 Subroutine IBZKPT returns following result:
 ===========================================
 
 Found    446 irreducible k-points:
 
 Following reciprocal coordinates:
            Coordinates               Weight
  0.000000  0.000000  0.000000      1.000000
  0.111111  0.000000  0.000000      2.000000
  0.222222  0.000000  0.000000      2.000000
  0.333333  0.000000  0.000000      2.000000
  0.444444  0.000000  0.000000      2.000000
  0.000000  0.111111  0.000000      2.000000
  0.111111  0.111111  0.000000      2.000000
  0.222222  0.111111  0.000000      2.000000
  0.333333  0.111111  0.000000      2.000000
  0.444444  0.111111  0.000000      2.000000
 -0.444444  0.111111  0.000000      2.000000
 -0.333333  0.111111  0.000000      2.000000
 -0.222222  0.111111  0.000000      2.000000
 -0.111111  0.111111  0.000000      2.000000
  0.000000  0.222222  0.000000      2.000000
  0.111111  0.222222  0.000000      2.000000
  0.222222  0.222222  0.000000      2.000000
  0.333333  0.222222  0.000000      2.000000
  0.444444  0.222222  0.000000      2.000000
 -0.444444  0.222222  0.000000      2.000000
 -0.333333  0.222222  0.000000      2.000000
 -0.222222  0.222222  0.000000      2.000000
 -0.111111  0.222222  0.000000      2.000000
  0.000000  0.333333  0.000000      2.000000
  0.111111  0.333333  0.000000      2.000000
  0.222222  0.333333  0.000000      2.000000
  0.333333  0.333333  0.000000      2.000000
  0.444444  0.333333  0.000000      2.000000
 -0.444444  0.333333  0.000000      2.000000
 -0.333333  0.333333  0.000000      2.000000
 -0.222222  0.333333  0.000000      2.000000
 -0.111111  0.333333  0.000000      2.000000
  0.000000  0.444444  0.000000      2.000000
  0.111111  0.444444  0.000000      2.000000
  0.222222  0.444444  0.000000      2.000000
  0.333333  0.444444  0.000000      2.000000
  0.444444  0.444444  0.000000      2.000000
 -0.444444  0.444444  0.000000      2.000000
 -0.333333  0.444444  0.000000      2.000000
 -0.222222  0.444444  0.000000      2.000000
 -0.111111  0.444444  0.000000      2.000000
  0.000000  0.000000  0.090909      2.000000
  0.111111  0.000000  0.090909      2.000000
  0.222222  0.000000  0.090909      2.000000
  0.333333  0.000000  0.090909      2.000000
  0.444444  0.000000  0.090909      2.000000
 -0.444444  0.000000  0.090909      2.000000
 -0.333333  0.000000  0.090909      2.000000
 -0.222222  0.000000  0.090909      2.000000
 -0.111111  0.000000  0.090909      2.000000
  0.000000  0.111111  0.090909      2.000000
  0.111111  0.111111  0.090909      2.000000
  0.222222  0.111111  0.090909      2.000000
  0.333333  0.111111  0.090909      2.000000
  0.444444  0.111111  0.090909      2.000000
 -0.444444  0.111111  0.090909      2.000000
 -0.333333  0.111111  0.090909      2.000000
 -0.222222  0.111111  0.090909      2.000000
 -0.111111  0.111111  0.090909      2.000000
  0.000000  0.222222  0.090909      2.000000
  0.111111  0.222222  0.090909      2.000000
  0.222222  0.222222  0.090909      2.000000
  0.333333  0.222222  0.090909      2.000000
  0.444444  0.222222  0.090909      2.000000
 -0.444444  0.222222  0.090909      2.000000
 -0.333333  0.222222  0.090909      2.000000
 -0.222222  0.222222  0.090909      2.000000
 -0.111111  0.222222  0.090909      2.000000
  0.000000  0.333333  0.090909      2.000000
  0.111111  0.333333  0.090909      2.000000
  0.222222  0.333333  0.090909      2.000000
  0.333333  0.333333  0.090909      2.000000
  0.444444  0.333333  0.090909      2.000000
 -0.444444  0.333333  0.090909      2.000000
 -0.333333  0.333333  0.090909      2.000000
 -0.222222  0.333333  0.090909      2.000000
 -0.111111  0.333333  0.090909      2.000000
  0.000000  0.444444  0.090909      2.000000
  0.111111  0.444444  0.090909      2.000000
  0.222222  0.444444  0.090909      2.000000
  0.333333  0.444444  0.090909      2.000000
  0.444444  0.444444  0.090909      2.000000
 -0.444444  0.444444  0.090909      2.000000
 -0.333333  0.444444  0.090909      2.000000
 -0.222222  0.444444  0.090909      2.000000
 -0.111111  0.444444  0.090909      2.000000
  0.000000 -0.444444  0.090909      2.000000
  0.111111 -0.444444  0.090909      2.000000
  0.222222 -0.444444  0.090909      2.000000
  0.333333 -0.444444  0.090909      2.000000
  0.444444 -0.444444  0.090909      2.000000
 -0.444444 -0.444444  0.090909      2.000000
 -0.333333 -0.444444  0.090909      2.000000
 -0.222222 -0.444444  0.090909      2.000000
 -0.111111 -0.444444  0.090909      2.000000
  0.000000 -0.333333  0.090909      2.000000
  0.111111 -0.333333  0.090909      2.000000
  0.222222 -0.333333  0.090909      2.000000
  0.333333 -0.333333  0.090909      2.000000
  0.444444 -0.333333  0.090909      2.000000
 -0.444444 -0.333333  0.090909      2.000000
 -0.333333 -0.333333  0.090909      2.000000
 -0.222222 -0.333333  0.090909      2.000000
 -0.111111 -0.333333  0.090909      2.000000
  0.000000 -0.222222  0.090909      2.000000
  0.111111 -0.222222  0.090909      2.000000
  0.222222 -0.222222  0.090909      2.000000
  0.333333 -0.222222  0.090909      2.000000
  0.444444 -0.222222  0.090909      2.000000
 -0.444444 -0.222222  0.090909      2.000000
 -0.333333 -0.222222  0.090909      2.000000
 -0.222222 -0.222222  0.090909      2.000000
 -0.111111 -0.222222  0.090909      2.000000
  0.000000 -0.111111  0.090909      2.000000
  0.111111 -0.111111  0.090909      2.000000
  0.222222 -0.111111  0.090909      2.000000
  0.333333 -0.111111  0.090909      2.000000
  0.444444 -0.111111  0.090909      2.000000
 -0.444444 -0.111111  0.090909      2.000000
 -0.333333 -0.111111  0.090909      2.000000
 -0.222222 -0.111111  0.090909      2.000000
 -0.111111 -0.111111  0.090909      2.000000
  0.000000  0.000000  0.181818      2.000000
  0.111111  0.000000  0.181818      2.000000
  0.222222  0.000000  0.181818      2.000000
  0.333333  0.000000  0.181818      2.000000
  0.444444  0.000000  0.181818      2.000000
 -0.444444  0.000000  0.181818      2.000000
 -0.333333  0.000000  0.181818      2.000000
 -0.222222  0.000000  0.181818      2.000000
 -0.111111  0.000000  0.181818      2.000000
  0.000000  0.111111  0.181818      2.000000
  0.111111  0.111111  0.181818      2.000000
  0.222222  0.111111  0.181818      2.000000
  0.333333  0.111111  0.181818      2.000000
  0.444444  0.111111  0.181818      2.000000
 -0.444444  0.111111  0.181818      2.000000
 -0.333333  0.111111  0.181818      2.000000
 -0.222222  0.111111  0.181818      2.000000
 -0.111111  0.111111  0.181818      2.000000
  0.000000  0.222222  0.181818      2.000000
  0.111111  0.222222  0.181818      2.000000
  0.222222  0.222222  0.181818      2.000000
  0.333333  0.222222  0.181818      2.000000
  0.444444  0.222222  0.181818      2.000000
 -0.444444  0.222222  0.181818      2.000000
 -0.333333  0.222222  0.181818      2.000000
 -0.222222  0.222222  0.181818      2.000000
 -0.111111  0.222222  0.181818      2.000000
  0.000000  0.333333  0.181818      2.000000
  0.111111  0.333333  0.181818      2.000000
  0.222222  0.333333  0.181818      2.000000
  0.333333  0.333333  0.181818      2.000000
  0.444444  0.333333  0.181818      2.000000
 -0.444444  0.333333  0.181818      2.000000
 -0.333333  0.333333  0.181818      2.000000
 -0.222222  0.333333  0.181818      2.000000
 -0.111111  0.333333  0.181818      2.000000
  0.000000  0.444444  0.181818      2.000000
  0.111111  0.444444  0.181818      2.000000
  0.222222  0.444444  0.181818      2.000000
  0.333333  0.444444  0.181818      2.000000
  0.444444  0.444444  0.181818      2.000000
 -0.444444  0.444444  0.181818      2.000000
 -0.333333  0.444444  0.181818      2.000000
 -0.222222  0.444444  0.181818      2.000000
 -0.111111  0.444444  0.181818      2.000000
  0.000000 -0.444444  0.181818      2.000000
  0.111111 -0.444444  0.181818      2.000000
  0.222222 -0.444444  0.181818      2.000000
  0.333333 -0.444444  0.181818      2.000000
  0.444444 -0.444444  0.181818      2.000000
 -0.444444 -0.444444  0.181818      2.000000
 -0.333333 -0.444444  0.181818      2.000000
 -0.222222 -0.444444  0.181818      2.000000
 -0.111111 -0.444444  0.181818      2.000000
  0.000000 -0.333333  0.181818      2.000000
  0.111111 -0.333333  0.181818      2.000000
  0.222222 -0.333333  0.181818      2.000000
  0.333333 -0.333333  0.181818      2.000000
  0.444444 -0.333333  0.181818      2.000000
 -0.444444 -0.333333  0.181818      2.000000
 -0.333333 -0.333333  0.181818      2.000000
 -0.222222 -0.333333  0.181818      2.000000
 -0.111111 -0.333333  0.181818      2.000000
  0.000000 -0.222222  0.181818      2.000000
  0.111111 -0.222222  0.181818      2.000000
  0.222222 -0.222222  0.181818      2.000000
  0.333333 -0.222222  0.181818      2.000000
  0.444444 -0.222222  0.181818      2.000000
 -0.444444 -0.222222  0.181818      2.000000
 -0.333333 -0.222222  0.181818      2.000000
 -0.222222 -0.222222  0.181818      2.000000
 -0.111111 -0.222222  0.181818      2.000000
  0.000000 -0.111111  0.181818      2.000000
  0.111111 -0.111111  0.181818      2.000000
  0.222222 -0.111111  0.181818      2.000000
  0.333333 -0.111111  0.181818      2.000000
  0.444444 -0.111111  0.181818      2.000000
 -0.444444 -0.111111  0.181818      2.000000
 -0.333333 -0.111111  0.181818      2.000000
 -0.222222 -0.111111  0.181818      2.000000
 -0.111111 -0.111111  0.181818      2.000000
  0.000000  0.000000  0.272727      2.000000
  0.111111  0.000000  0.272727      2.000000
  0.222222  0.000000  0.272727      2.000000
  0.333333  0.000000  0.272727      2.000000
  0.444444  0.000000  0.272727      2.000000
 -0.444444  0.000000  0.272727      2.000000
 -0.333333  0.000000  0.272727      2.000000
 -0.222222  0.000000  0.272727      2.000000
 -0.111111  0.000000  0.272727      2.000000
  0.000000  0.111111  0.272727      2.000000
  0.111111  0.111111  0.272727      2.000000
  0.222222  0.111111  0.272727      2.000000
  0.333333  0.111111  0.272727      2.000000
  0.444444  0.111111  0.272727      2.000000
 -0.444444  0.111111  0.272727      2.000000
 -0.333333  0.111111  0.272727      2.000000
 -0.222222  0.111111  0.272727      2.000000
 -0.111111  0.111111  0.272727      2.000000
  0.000000  0.222222  0.272727      2.000000
  0.111111  0.222222  0.272727      2.000000
  0.222222  0.222222  0.272727      2.000000
  0.333333  0.222222  0.272727      2.000000
  0.444444  0.222222  0.272727      2.000000
 -0.444444  0.222222  0.272727      2.000000
 -0.333333  0.222222  0.272727      2.000000
 -0.222222  0.222222  0.272727      2.000000
 -0.111111  0.222222  0.272727      2.000000
  0.000000  0.333333  0.272727      2.000000
  0.111111  0.333333  0.272727      2.000000
  0.222222  0.333333  0.272727      2.000000
  0.333333  0.333333  0.272727      2.000000
  0.444444  0.333333  0.272727      2.000000
 -0.444444  0.333333  0.272727      2.000000
 -0.333333  0.333333  0.272727      2.000000
 -0.222222  0.333333  0.272727      2.000000
 -0.111111  0.333333  0.272727      2.000000
  0.000000  0.444444  0.272727      2.000000
  0.111111  0.444444  0.272727      2.000000
  0.222222  0.444444  0.272727      2.000000
  0.333333  0.444444  0.272727      2.000000
  0.444444  0.444444  0.272727      2.000000
 -0.444444  0.444444  0.272727      2.000000
 -0.333333  0.444444  0.272727      2.000000
 -0.222222  0.444444  0.272727      2.000000
 -0.111111  0.444444  0.272727      2.000000
  0.000000 -0.444444  0.272727      2.000000
  0.111111 -0.444444  0.272727      2.000000
  0.222222 -0.444444  0.272727      2.000000
  0.333333 -0.444444  0.272727      2.000000
  0.444444 -0.444444  0.272727      2.000000
 -0.444444 -0.444444  0.272727      2.000000
 -0.333333 -0.444444  0.272727      2.000000
 -0.222222 -0.444444  0.272727      2.000000
 -0.111111 -0.444444  0.272727      2.000000
  0.000000 -0.333333  0.272727      2.000000
  0.111111 -0.333333  0.272727      2.000000
  0.222222 -0.333333  0.272727      2.000000
  0.333333 -0.333333  0.272727      2.000000
  0.444444 -0.333333  0.272727      2.000000
 -0.444444 -0.333333  0.272727      2.000000
 -0.333333 -0.333333  0.272727      2.000000
 -0.222222 -0.333333  0.272727      2.000000
 -0.111111 -0.333333  0.272727      2.000000
  0.000000 -0.222222  0.272727      2.000000
  0.111111 -0.222222  0.272727      2.000000
  0.222222 -0.222222  0.272727      2.000000
  0.333333 -0.222222  0.272727      2.000000
  0.444444 -0.222222  0.272727      2.000000
 -0.444444 -0.222222  0.272727      2.000000
 -0.333333 -0.222222  0.272727      2.000000
 -0.222222 -0.222222  0.272727      2.000000
 -0.111111 -0.222222  0.272727      2.000000
  0.000000 -0.111111  0.272727      2.000000
  0.111111 -0.111111  0.272727      2.000000
  0.222222 -0.111111  0.272727      2.000000
  0.333333 -0.111111  0.272727      2.000000
  0.444444 -0.111111  0.272727      2.000000
 -0.444444 -0.111111  0.272727      2.000000
 -0.333333 -0.111111  0.272727      2.000000
 -0.222222 -0.111111  0.272727      2.000000
 -0.111111 -0.111111  0.272727      2.000000
  0.000000  0.000000  0.363636      2.000000
  0.111111  0.000000  0.363636      2.000000
  0.222222  0.000000  0.363636      2.000000
  0.333333  0.000000  0.363636      2.000000
  0.444444  0.000000  0.363636      2.000000
 -0.444444  0.000000  0.363636      2.000000
 -0.333333  0.000000  0.363636      2.000000
 -0.222222  0.000000  0.363636      2.000000
 -0.111111  0.000000  0.363636      2.000000
  0.000000  0.111111  0.363636      2.000000
  0.111111  0.111111  0.363636      2.000000
  0.222222  0.111111  0.363636      2.000000
  0.333333  0.111111  0.363636      2.000000
  0.444444  0.111111  0.363636      2.000000
 -0.444444  0.111111  0.363636      2.000000
 -0.333333  0.111111  0.363636      2.000000
 -0.222222  0.111111  0.363636      2.000000
 -0.111111  0.111111  0.363636      2.000000
  0.000000  0.222222  0.363636      2.000000
  0.111111  0.222222  0.363636      2.000000
  0.222222  0.222222  0.363636      2.000000
  0.333333  0.222222  0.363636      2.000000
  0.444444  0.222222  0.363636      2.000000
 -0.444444  0.222222  0.363636      2.000000
 -0.333333  0.222222  0.363636      2.000000
 -0.222222  0.222222  0.363636      2.000000
 -0.111111  0.222222  0.363636      2.000000
  0.000000  0.333333  0.363636      2.000000
  0.111111  0.333333  0.363636      2.000000
  0.222222  0.333333  0.363636      2.000000
  0.333333  0.333333  0.363636      2.000000
  0.444444  0.333333  0.363636      2.000000
 -0.444444  0.333333  0.363636      2.000000
 -0.333333  0.333333  0.363636      2.000000
 -0.222222  0.333333  0.363636      2.000000
 -0.111111  0.333333  0.363636      2.000000
  0.000000  0.444444  0.363636      2.000000
  0.111111  0.444444  0.363636      2.000000
  0.222222  0.444444  0.363636      2.000000
  0.333333  0.444444  0.363636      2.000000
  0.444444  0.444444  0.363636      2.000000
 -0.444444  0.444444  0.363636      2.000000
 -0.333333  0.444444  0.363636      2.000000
 -0.222222  0.444444  0.363636      2.000000
 -0.111111  0.444444  0.363636      2.000000
  0.000000 -0.444444  0.363636      2.000000
  0.111111 -0.444444  0.363636      2.000000
  0.222222 -0.444444  0.363636      2.000000
  0.333333 -0.444444  0.363636      2.000000
  0.444444 -0.444444  0.363636      2.000000
 -0.444444 -0.444444  0.363636      2.000000
 -0.333333 -0.444444  0.363636      2.000000
 -0.222222 -0.444444  0.363636      2.000000
 -0.111111 -0.444444  0.363636      2.000000
  0.000000 -0.333333  0.363636      2.000000
  0.111111 -0.333333  0.363636      2.000000
  0.222222 -0.333333  0.363636      2.000000
  0.333333 -0.333333  0.363636      2.000000
  0.444444 -0.333333  0.363636      2.000000
 -0.444444 -0.333333  0.363636      2.000000
 -0.333333 -0.333333  0.363636      2.000000
 -0.222222 -0.333333  0.363636      2.000000
 -0.111111 -0.333333  0.363636      2.000000
  0.000000 -0.222222  0.363636      2.000000
  0.111111 -0.222222  0.363636      2.000000
  0.222222 -0.222222  0.363636      2.000000
  0.333333 -0.222222  0.363636      2.000000
  0.444444 -0.222222  0.363636      2.000000
 -0.444444 -0.222222  0.363636      2.000000
 -0.333333 -0.222222  0.363636      2.000000
 -0.222222 -0.222222  0.363636      2.000000
 -0.111111 -0.222222  0.363636      2.000000
  0.000000 -0.111111  0.363636      2.000000
  0.111111 -0.111111  0.363636      2.000000
  0.222222 -0.111111  0.363636      2.000000
  0.333333 -0.111111  0.363636      2.000000
  0.444444 -0.111111  0.363636      2.000000
 -0.444444 -0.111111  0.363636      2.000000
 -0.333333 -0.111111  0.363636      2.000000
 -0.222222 -0.111111  0.363636      2.000000
 -0.111111 -0.111111  0.363636      2.000000
  0.000000  0.000000  0.454545      2.000000
  0.111111  0.000000  0.454545      2.000000
  0.222222  0.000000  0.454545      2.000000
  0.333333  0.000000  0.454545      2.000000
  0.444444  0.000000  0.454545      2.000000
 -0.444444  0.000000  0.454545      2.000000
 -0.333333  0.000000  0.454545      2.000000
 -0.222222  0.000000  0.454545      2.000000
 -0.111111  0.000000  0.454545      2.000000
  0.000000  0.111111  0.454545      2.000000
  0.111111  0.111111  0.454545      2.000000
  0.222222  0.111111  0.454545      2.000000
  0.333333  0.111111  0.454545      2.000000
  0.444444  0.111111  0.454545      2.000000
 -0.444444  0.111111  0.454545      2.000000
 -0.333333  0.111111  0.454545      2.000000
 -0.222222  0.111111  0.454545      2.000000
 -0.111111  0.111111  0.454545      2.000000
  0.000000  0.222222  0.454545      2.000000
  0.111111  0.222222  0.454545      2.000000
  0.222222  0.222222  0.454545      2.000000
  0.333333  0.222222  0.454545      2.000000
  0.444444  0.222222  0.454545      2.000000
 -0.444444  0.222222  0.454545      2.000000
 -0.333333  0.222222  0.454545      2.000000
 -0.222222  0.222222  0.454545      2.000000
 -0.111111  0.222222  0.454545      2.000000
  0.000000  0.333333  0.454545      2.000000
  0.111111  0.333333  0.454545      2.000000
  0.222222  0.333333  0.454545      2.000000
  0.333333  0.333333  0.454545      2.000000
  0.444444  0.333333  0.454545      2.000000
 -0.444444  0.333333  0.454545      2.000000
 -0.333333  0.333333  0.454545      2.000000
 -0.222222  0.333333  0.454545      2.000000
 -0.111111  0.333333  0.454545      2.000000
  0.000000  0.444444  0.454545      2.000000
  0.111111  0.444444  0.454545      2.000000
  0.222222  0.444444  0.454545      2.000000
  0.333333  0.444444  0.454545      2.000000
  0.444444  0.444444  0.454545      2.000000
 -0.444444  0.444444  0.454545      2.000000
 -0.333333  0.444444  0.454545      2.000000
 -0.222222  0.444444  0.454545      2.000000
 -0.111111  0.444444  0.454545      2.000000
  0.000000 -0.444444  0.454545      2.000000
  0.111111 -0.444444  0.454545      2.000000
  0.222222 -0.444444  0.454545      2.000000
  0.333333 -0.444444  0.454545      2.000000
  0.444444 -0.444444  0.454545      2.000000
 -0.444444 -0.444444  0.454545      2.000000
 -0.333333 -0.444444  0.454545      2.000000
 -0.222222 -0.444444  0.454545      2.000000
 -0.111111 -0.444444  0.454545      2.000000
  0.000000 -0.333333  0.454545      2.000000
  0.111111 -0.333333  0.454545      2.000000
  0.222222 -0.333333  0.454545      2.000000
  0.333333 -0.333333  0.454545      2.000000
  0.444444 -0.333333  0.454545      2.000000
 -0.444444 -0.333333  0.454545      2.000000
 -0.333333 -0.333333  0.454545      2.000000
 -0.222222 -0.333333  0.454545      2.000000
 -0.111111 -0.333333  0.454545      2.000000
  0.000000 -0.222222  0.454545      2.000000
  0.111111 -0.222222  0.454545      2.000000
  0.222222 -0.222222  0.454545      2.000000
  0.333333 -0.222222  0.454545      2.000000
  0.444444 -0.222222  0.454545      2.000000
 -0.444444 -0.222222  0.454545      2.000000
 -0.333333 -0.222222  0.454545      2.000000
 -0.222222 -0.222222  0.454545      2.000000
 -0.111111 -0.222222  0.454545      2.000000
  0.000000 -0.111111  0.454545      2.000000
  0.111111 -0.111111  0.454545      2.000000
  0.222222 -0.111111  0.454545      2.000000
  0.333333 -0.111111  0.454545      2.000000
  0.444444 -0.111111  0.454545      2.000000
 -0.444444 -0.111111  0.454545      2.000000
 -0.333333 -0.111111  0.454545      2.000000
 -0.222222 -0.111111  0.454545      2.000000
 -0.111111 -0.111111  0.454545      2.000000
 
 Following cartesian coordinates:
            Coordinates               Weight
  0.000000  0.000000  0.000000      1.000000
  0.022754  0.000000  0.000000      2.000000
  0.045508  0.000000  0.000000      2.000000
  0.068262  0.000000  0.000000      2.000000
  0.091016  0.000000  0.000000      2.000000
  0.000000  0.022754  0.000000      2.000000
  0.022754  0.022754  0.000000      2.000000
  0.045508  0.022754  0.000000      2.000000
  0.068262  0.022754  0.000000      2.000000
  0.091016  0.022754  0.000000      2.000000
 -0.091016  0.022754  0.000000      2.000000
 -0.068262  0.022754  0.000000      2.000000
 -0.045508  0.022754  0.000000      2.000000
 -0.022754  0.022754  0.000000      2.000000
  0.000000  0.045508  0.000000      2.000000
  0.022754  0.045508  0.000000      2.000000
  0.045508  0.045508  0.000000      2.000000
  0.068262  0.045508  0.000000      2.000000
  0.091016  0.045508  0.000000      2.000000
 -0.091016  0.045508  0.000000      2.000000
 -0.068262  0.045508  0.000000      2.000000
 -0.045508  0.045508  0.000000      2.000000
 -0.022754  0.045508  0.000000      2.000000
  0.000000  0.068262  0.000000      2.000000
  0.022754  0.068262  0.000000      2.000000
  0.045508  0.068262  0.000000      2.000000
  0.068262  0.068262  0.000000      2.000000
  0.091016  0.068262  0.000000      2.000000
 -0.091016  0.068262  0.000000      2.000000
 -0.068262  0.068262  0.000000      2.000000
 -0.045508  0.068262  0.000000      2.000000
 -0.022754  0.068262  0.000000      2.000000
  0.000000  0.091016  0.000000      2.000000
  0.022754  0.091016  0.000000      2.000000
  0.045508  0.091016  0.000000      2.000000
  0.068262  0.091016  0.000000      2.000000
  0.091016  0.091016  0.000000      2.000000
 -0.091016  0.091016  0.000000      2.000000
 -0.068262  0.091016  0.000000      2.000000
 -0.045508  0.091016  0.000000      2.000000
 -0.022754  0.091016  0.000000      2.000000
  0.000000  0.000000  0.027542      2.000000
  0.022754  0.000000  0.027542      2.000000
  0.045508  0.000000  0.027542      2.000000
  0.068262  0.000000  0.027542      2.000000
  0.091016  0.000000  0.027542      2.000000
 -0.091016  0.000000  0.027542      2.000000
 -0.068262  0.000000  0.027542      2.000000
 -0.045508  0.000000  0.027542      2.000000
 -0.022754  0.000000  0.027542      2.000000
  0.000000  0.022754  0.027542      2.000000
  0.022754  0.022754  0.027542      2.000000
  0.045508  0.022754  0.027542      2.000000
  0.068262  0.022754  0.027542      2.000000
  0.091016  0.022754  0.027542      2.000000
 -0.091016  0.022754  0.027542      2.000000
 -0.068262  0.022754  0.027542      2.000000
 -0.045508  0.022754  0.027542      2.000000
 -0.022754  0.022754  0.027542      2.000000
  0.000000  0.045508  0.027542      2.000000
  0.022754  0.045508  0.027542      2.000000
  0.045508  0.045508  0.027542      2.000000
  0.068262  0.045508  0.027542      2.000000
  0.091016  0.045508  0.027542      2.000000
 -0.091016  0.045508  0.027542      2.000000
 -0.068262  0.045508  0.027542      2.000000
 -0.045508  0.045508  0.027542      2.000000
 -0.022754  0.045508  0.027542      2.000000
  0.000000  0.068262  0.027542      2.000000
  0.022754  0.068262  0.027542      2.000000
  0.045508  0.068262  0.027542      2.000000
  0.068262  0.068262  0.027542      2.000000
  0.091016  0.068262  0.027542      2.000000
 -0.091016  0.068262  0.027542      2.000000
 -0.068262  0.068262  0.027542      2.000000
 -0.045508  0.068262  0.027542      2.000000
 -0.022754  0.068262  0.027542      2.000000
  0.000000  0.091016  0.027542      2.000000
  0.022754  0.091016  0.027542      2.000000
  0.045508  0.091016  0.027542      2.000000
  0.068262  0.091016  0.027542      2.000000
  0.091016  0.091016  0.027542      2.000000
 -0.091016  0.091016  0.027542      2.000000
 -0.068262  0.091016  0.027542      2.000000
 -0.045508  0.091016  0.027542      2.000000
 -0.022754  0.091016  0.027542      2.000000
  0.000000 -0.091016  0.027542      2.000000
  0.022754 -0.091016  0.027542      2.000000
  0.045508 -0.091016  0.027542      2.000000
  0.068262 -0.091016  0.027542      2.000000
  0.091016 -0.091016  0.027542      2.000000
 -0.091016 -0.091016  0.027542      2.000000
 -0.068262 -0.091016  0.027542      2.000000
 -0.045508 -0.091016  0.027542      2.000000
 -0.022754 -0.091016  0.027542      2.000000
  0.000000 -0.068262  0.027542      2.000000
  0.022754 -0.068262  0.027542      2.000000
  0.045508 -0.068262  0.027542      2.000000
  0.068262 -0.068262  0.027542      2.000000
  0.091016 -0.068262  0.027542      2.000000
 -0.091016 -0.068262  0.027542      2.000000
 -0.068262 -0.068262  0.027542      2.000000
 -0.045508 -0.068262  0.027542      2.000000
 -0.022754 -0.068262  0.027542      2.000000
  0.000000 -0.045508  0.027542      2.000000
  0.022754 -0.045508  0.027542      2.000000
  0.045508 -0.045508  0.027542      2.000000
  0.068262 -0.045508  0.027542      2.000000
  0.091016 -0.045508  0.027542      2.000000
 -0.091016 -0.045508  0.027542      2.000000
 -0.068262 -0.045508  0.027542      2.000000
 -0.045508 -0.045508  0.027542      2.000000
 -0.022754 -0.045508  0.027542      2.000000
  0.000000 -0.022754  0.027542      2.000000
  0.022754 -0.022754  0.027542      2.000000
  0.045508 -0.022754  0.027542      2.000000
  0.068262 -0.022754  0.027542      2.000000
  0.091016 -0.022754  0.027542      2.000000
 -0.091016 -0.022754  0.027542      2.000000
 -0.068262 -0.022754  0.027542      2.000000
 -0.045508 -0.022754  0.027542      2.000000
 -0.022754 -0.022754  0.027542      2.000000
  0.000000  0.000000  0.055083      2.000000
  0.022754  0.000000  0.055083      2.000000
  0.045508  0.000000  0.055083      2.000000
  0.068262  0.000000  0.055083      2.000000
  0.091016  0.000000  0.055083      2.000000
 -0.091016  0.000000  0.055083      2.000000
 -0.068262  0.000000  0.055083      2.000000
 -0.045508  0.000000  0.055083      2.000000
 -0.022754  0.000000  0.055083      2.000000
  0.000000  0.022754  0.055083      2.000000
  0.022754  0.022754  0.055083      2.000000
  0.045508  0.022754  0.055083      2.000000
  0.068262  0.022754  0.055083      2.000000
  0.091016  0.022754  0.055083      2.000000
 -0.091016  0.022754  0.055083      2.000000
 -0.068262  0.022754  0.055083      2.000000
 -0.045508  0.022754  0.055083      2.000000
 -0.022754  0.022754  0.055083      2.000000
  0.000000  0.045508  0.055083      2.000000
  0.022754  0.045508  0.055083      2.000000
  0.045508  0.045508  0.055083      2.000000
  0.068262  0.045508  0.055083      2.000000
  0.091016  0.045508  0.055083      2.000000
 -0.091016  0.045508  0.055083      2.000000
 -0.068262  0.045508  0.055083      2.000000
 -0.045508  0.045508  0.055083      2.000000
 -0.022754  0.045508  0.055083      2.000000
  0.000000  0.068262  0.055083      2.000000
  0.022754  0.068262  0.055083      2.000000
  0.045508  0.068262  0.055083      2.000000
  0.068262  0.068262  0.055083      2.000000
  0.091016  0.068262  0.055083      2.000000
 -0.091016  0.068262  0.055083      2.000000
 -0.068262  0.068262  0.055083      2.000000
 -0.045508  0.068262  0.055083      2.000000
 -0.022754  0.068262  0.055083      2.000000
  0.000000  0.091016  0.055083      2.000000
  0.022754  0.091016  0.055083      2.000000
  0.045508  0.091016  0.055083      2.000000
  0.068262  0.091016  0.055083      2.000000
  0.091016  0.091016  0.055083      2.000000
 -0.091016  0.091016  0.055083      2.000000
 -0.068262  0.091016  0.055083      2.000000
 -0.045508  0.091016  0.055083      2.000000
 -0.022754  0.091016  0.055083      2.000000
  0.000000 -0.091016  0.055083      2.000000
  0.022754 -0.091016  0.055083      2.000000
  0.045508 -0.091016  0.055083      2.000000
  0.068262 -0.091016  0.055083      2.000000
  0.091016 -0.091016  0.055083      2.000000
 -0.091016 -0.091016  0.055083      2.000000
 -0.068262 -0.091016  0.055083      2.000000
 -0.045508 -0.091016  0.055083      2.000000
 -0.022754 -0.091016  0.055083      2.000000
  0.000000 -0.068262  0.055083      2.000000
  0.022754 -0.068262  0.055083      2.000000
  0.045508 -0.068262  0.055083      2.000000
  0.068262 -0.068262  0.055083      2.000000
  0.091016 -0.068262  0.055083      2.000000
 -0.091016 -0.068262  0.055083      2.000000
 -0.068262 -0.068262  0.055083      2.000000
 -0.045508 -0.068262  0.055083      2.000000
 -0.022754 -0.068262  0.055083      2.000000
  0.000000 -0.045508  0.055083      2.000000
  0.022754 -0.045508  0.055083      2.000000
  0.045508 -0.045508  0.055083      2.000000
  0.068262 -0.045508  0.055083      2.000000
  0.091016 -0.045508  0.055083      2.000000
 -0.091016 -0.045508  0.055083      2.000000
 -0.068262 -0.045508  0.055083      2.000000
 -0.045508 -0.045508  0.055083      2.000000
 -0.022754 -0.045508  0.055083      2.000000
  0.000000 -0.022754  0.055083      2.000000
  0.022754 -0.022754  0.055083      2.000000
  0.045508 -0.022754  0.055083      2.000000
  0.068262 -0.022754  0.055083      2.000000
  0.091016 -0.022754  0.055083      2.000000
 -0.091016 -0.022754  0.055083      2.000000
 -0.068262 -0.022754  0.055083      2.000000
 -0.045508 -0.022754  0.055083      2.000000
 -0.022754 -0.022754  0.055083      2.000000
  0.000000  0.000000  0.082625      2.000000
  0.022754  0.000000  0.082625      2.000000
  0.045508  0.000000  0.082625      2.000000
  0.068262  0.000000  0.082625      2.000000
  0.091016  0.000000  0.082625      2.000000
 -0.091016  0.000000  0.082625      2.000000
 -0.068262  0.000000  0.082625      2.000000
 -0.045508  0.000000  0.082625      2.000000
 -0.022754  0.000000  0.082625      2.000000
  0.000000  0.022754  0.082625      2.000000
  0.022754  0.022754  0.082625      2.000000
  0.045508  0.022754  0.082625      2.000000
  0.068262  0.022754  0.082625      2.000000
  0.091016  0.022754  0.082625      2.000000
 -0.091016  0.022754  0.082625      2.000000
 -0.068262  0.022754  0.082625      2.000000
 -0.045508  0.022754  0.082625      2.000000
 -0.022754  0.022754  0.082625      2.000000
  0.000000  0.045508  0.082625      2.000000
  0.022754  0.045508  0.082625      2.000000
  0.045508  0.045508  0.082625      2.000000
  0.068262  0.045508  0.082625      2.000000
  0.091016  0.045508  0.082625      2.000000
 -0.091016  0.045508  0.082625      2.000000
 -0.068262  0.045508  0.082625      2.000000
 -0.045508  0.045508  0.082625      2.000000
 -0.022754  0.045508  0.082625      2.000000
  0.000000  0.068262  0.082625      2.000000
  0.022754  0.068262  0.082625      2.000000
  0.045508  0.068262  0.082625      2.000000
  0.068262  0.068262  0.082625      2.000000
  0.091016  0.068262  0.082625      2.000000
 -0.091016  0.068262  0.082625      2.000000
 -0.068262  0.068262  0.082625      2.000000
 -0.045508  0.068262  0.082625      2.000000
 -0.022754  0.068262  0.082625      2.000000
  0.000000  0.091016  0.082625      2.000000
  0.022754  0.091016  0.082625      2.000000
  0.045508  0.091016  0.082625      2.000000
  0.068262  0.091016  0.082625      2.000000
  0.091016  0.091016  0.082625      2.000000
 -0.091016  0.091016  0.082625      2.000000
 -0.068262  0.091016  0.082625      2.000000
 -0.045508  0.091016  0.082625      2.000000
 -0.022754  0.091016  0.082625      2.000000
  0.000000 -0.091016  0.082625      2.000000
  0.022754 -0.091016  0.082625      2.000000
  0.045508 -0.091016  0.082625      2.000000
  0.068262 -0.091016  0.082625      2.000000
  0.091016 -0.091016  0.082625      2.000000
 -0.091016 -0.091016  0.082625      2.000000
 -0.068262 -0.091016  0.082625      2.000000
 -0.045508 -0.091016  0.082625      2.000000
 -0.022754 -0.091016  0.082625      2.000000
  0.000000 -0.068262  0.082625      2.000000
  0.022754 -0.068262  0.082625      2.000000
  0.045508 -0.068262  0.082625      2.000000
  0.068262 -0.068262  0.082625      2.000000
  0.091016 -0.068262  0.082625      2.000000
 -0.091016 -0.068262  0.082625      2.000000
 -0.068262 -0.068262  0.082625      2.000000
 -0.045508 -0.068262  0.082625      2.000000
 -0.022754 -0.068262  0.082625      2.000000
  0.000000 -0.045508  0.082625      2.000000
  0.022754 -0.045508  0.082625      2.000000
  0.045508 -0.045508  0.082625      2.000000
  0.068262 -0.045508  0.082625      2.000000
  0.091016 -0.045508  0.082625      2.000000
 -0.091016 -0.045508  0.082625      2.000000
 -0.068262 -0.045508  0.082625      2.000000
 -0.045508 -0.045508  0.082625      2.000000
 -0.022754 -0.045508  0.082625      2.000000
  0.000000 -0.022754  0.082625      2.000000
  0.022754 -0.022754  0.082625      2.000000
  0.045508 -0.022754  0.082625      2.000000
  0.068262 -0.022754  0.082625      2.000000
  0.091016 -0.022754  0.082625      2.000000
 -0.091016 -0.022754  0.082625      2.000000
 -0.068262 -0.022754  0.082625      2.000000
 -0.045508 -0.022754  0.082625      2.000000
 -0.022754 -0.022754  0.082625      2.000000
  0.000000  0.000000  0.110166      2.000000
  0.022754  0.000000  0.110166      2.000000
  0.045508  0.000000  0.110166      2.000000
  0.068262  0.000000  0.110166      2.000000
  0.091016  0.000000  0.110166      2.000000
 -0.091016  0.000000  0.110166      2.000000
 -0.068262  0.000000  0.110166      2.000000
 -0.045508  0.000000  0.110166      2.000000
 -0.022754  0.000000  0.110166      2.000000
  0.000000  0.022754  0.110166      2.000000
  0.022754  0.022754  0.110166      2.000000
  0.045508  0.022754  0.110166      2.000000
  0.068262  0.022754  0.110166      2.000000
  0.091016  0.022754  0.110166      2.000000
 -0.091016  0.022754  0.110166      2.000000
 -0.068262  0.022754  0.110166      2.000000
 -0.045508  0.022754  0.110166      2.000000
 -0.022754  0.022754  0.110166      2.000000
  0.000000  0.045508  0.110166      2.000000
  0.022754  0.045508  0.110166      2.000000
  0.045508  0.045508  0.110166      2.000000
  0.068262  0.045508  0.110166      2.000000
  0.091016  0.045508  0.110166      2.000000
 -0.091016  0.045508  0.110166      2.000000
 -0.068262  0.045508  0.110166      2.000000
 -0.045508  0.045508  0.110166      2.000000
 -0.022754  0.045508  0.110166      2.000000
  0.000000  0.068262  0.110166      2.000000
  0.022754  0.068262  0.110166      2.000000
  0.045508  0.068262  0.110166      2.000000
  0.068262  0.068262  0.110166      2.000000
  0.091016  0.068262  0.110166      2.000000
 -0.091016  0.068262  0.110166      2.000000
 -0.068262  0.068262  0.110166      2.000000
 -0.045508  0.068262  0.110166      2.000000
 -0.022754  0.068262  0.110166      2.000000
  0.000000  0.091016  0.110166      2.000000
  0.022754  0.091016  0.110166      2.000000
  0.045508  0.091016  0.110166      2.000000
  0.068262  0.091016  0.110166      2.000000
  0.091016  0.091016  0.110166      2.000000
 -0.091016  0.091016  0.110166      2.000000
 -0.068262  0.091016  0.110166      2.000000
 -0.045508  0.091016  0.110166      2.000000
 -0.022754  0.091016  0.110166      2.000000
  0.000000 -0.091016  0.110166      2.000000
  0.022754 -0.091016  0.110166      2.000000
  0.045508 -0.091016  0.110166      2.000000
  0.068262 -0.091016  0.110166      2.000000
  0.091016 -0.091016  0.110166      2.000000
 -0.091016 -0.091016  0.110166      2.000000
 -0.068262 -0.091016  0.110166      2.000000
 -0.045508 -0.091016  0.110166      2.000000
 -0.022754 -0.091016  0.110166      2.000000
  0.000000 -0.068262  0.110166      2.000000
  0.022754 -0.068262  0.110166      2.000000
  0.045508 -0.068262  0.110166      2.000000
  0.068262 -0.068262  0.110166      2.000000
  0.091016 -0.068262  0.110166      2.000000
 -0.091016 -0.068262  0.110166      2.000000
 -0.068262 -0.068262  0.110166      2.000000
 -0.045508 -0.068262  0.110166      2.000000
 -0.022754 -0.068262  0.110166      2.000000
  0.000000 -0.045508  0.110166      2.000000
  0.022754 -0.045508  0.110166      2.000000
  0.045508 -0.045508  0.110166      2.000000
  0.068262 -0.045508  0.110166      2.000000
  0.091016 -0.045508  0.110166      2.000000
 -0.091016 -0.045508  0.110166      2.000000
 -0.068262 -0.045508  0.110166      2.000000
 -0.045508 -0.045508  0.110166      2.000000
 -0.022754 -0.045508  0.110166      2.000000
  0.000000 -0.022754  0.110166      2.000000
  0.022754 -0.022754  0.110166      2.000000
  0.045508 -0.022754  0.110166      2.000000
  0.068262 -0.022754  0.110166      2.000000
  0.091016 -0.022754  0.110166      2.000000
 -0.091016 -0.022754  0.110166      2.000000
 -0.068262 -0.022754  0.110166      2.000000
 -0.045508 -0.022754  0.110166      2.000000
 -0.022754 -0.022754  0.110166      2.000000
  0.000000  0.000000  0.137708      2.000000
  0.022754  0.000000  0.137708      2.000000
  0.045508  0.000000  0.137708      2.000000
  0.068262  0.000000  0.137708      2.000000
  0.091016  0.000000  0.137708      2.000000
 -0.091016  0.000000  0.137708      2.000000
 -0.068262  0.000000  0.137708      2.000000
 -0.045508  0.000000  0.137708      2.000000
 -0.022754  0.000000  0.137708      2.000000
  0.000000  0.022754  0.137708      2.000000
  0.022754  0.022754  0.137708      2.000000
  0.045508  0.022754  0.137708      2.000000
  0.068262  0.022754  0.137708      2.000000
  0.091016  0.022754  0.137708      2.000000
 -0.091016  0.022754  0.137708      2.000000
 -0.068262  0.022754  0.137708      2.000000
 -0.045508  0.022754  0.137708      2.000000
 -0.022754  0.022754  0.137708      2.000000
  0.000000  0.045508  0.137708      2.000000
  0.022754  0.045508  0.137708      2.000000
  0.045508  0.045508  0.137708      2.000000
  0.068262  0.045508  0.137708      2.000000
  0.091016  0.045508  0.137708      2.000000
 -0.091016  0.045508  0.137708      2.000000
 -0.068262  0.045508  0.137708      2.000000
 -0.045508  0.045508  0.137708      2.000000
 -0.022754  0.045508  0.137708      2.000000
  0.000000  0.068262  0.137708      2.000000
  0.022754  0.068262  0.137708      2.000000
  0.045508  0.068262  0.137708      2.000000
  0.068262  0.068262  0.137708      2.000000
  0.091016  0.068262  0.137708      2.000000
 -0.091016  0.068262  0.137708      2.000000
 -0.068262  0.068262  0.137708      2.000000
 -0.045508  0.068262  0.137708      2.000000
 -0.022754  0.068262  0.137708      2.000000
  0.000000  0.091016  0.137708      2.000000
  0.022754  0.091016  0.137708      2.000000
  0.045508  0.091016  0.137708      2.000000
  0.068262  0.091016  0.137708      2.000000
  0.091016  0.091016  0.137708      2.000000
 -0.091016  0.091016  0.137708      2.000000
 -0.068262  0.091016  0.137708      2.000000
 -0.045508  0.091016  0.137708      2.000000
 -0.022754  0.091016  0.137708      2.000000
  0.000000 -0.091016  0.137708      2.000000
  0.022754 -0.091016  0.137708      2.000000
  0.045508 -0.091016  0.137708      2.000000
  0.068262 -0.091016  0.137708      2.000000
  0.091016 -0.091016  0.137708      2.000000
 -0.091016 -0.091016  0.137708      2.000000
 -0.068262 -0.091016  0.137708      2.000000
 -0.045508 -0.091016  0.137708      2.000000
 -0.022754 -0.091016  0.137708      2.000000
  0.000000 -0.068262  0.137708      2.000000
  0.022754 -0.068262  0.137708      2.000000
  0.045508 -0.068262  0.137708      2.000000
  0.068262 -0.068262  0.137708      2.000000
  0.091016 -0.068262  0.137708      2.000000
 -0.091016 -0.068262  0.137708      2.000000
 -0.068262 -0.068262  0.137708      2.000000
 -0.045508 -0.068262  0.137708      2.000000
 -0.022754 -0.068262  0.137708      2.000000
  0.000000 -0.045508  0.137708      2.000000
  0.022754 -0.045508  0.137708      2.000000
  0.045508 -0.045508  0.137708      2.000000
  0.068262 -0.045508  0.137708      2.000000
  0.091016 -0.045508  0.137708      2.000000
 -0.091016 -0.045508  0.137708      2.000000
 -0.068262 -0.045508  0.137708      2.000000
 -0.045508 -0.045508  0.137708      2.000000
 -0.022754 -0.045508  0.137708      2.000000
  0.000000 -0.022754  0.137708      2.000000
  0.022754 -0.022754  0.137708      2.000000
  0.045508 -0.022754  0.137708      2.000000
  0.068262 -0.022754  0.137708      2.000000
  0.091016 -0.022754  0.137708      2.000000
 -0.091016 -0.022754  0.137708      2.000000
 -0.068262 -0.022754  0.137708      2.000000
 -0.045508 -0.022754  0.137708      2.000000
 -0.022754 -0.022754  0.137708      2.000000
 
 TETIRR: Found   2670 inequivalent tetrahedra from     5346


--------------------------------------------------------------------------------------------------------




 Dimension of arrays:
   k-points           NKPTS =    446   k-points in BZ     NKDIM =    446   number of bands    NBANDS=     32
   number of dos      NEDOS =   3001   number of ions     NIONS =      6
   non local maximal  LDIM  =      6   non local SUM 2l+1 LMDIM =     18
   total plane-waves  NPLWV =  18000
   max r-space proj   IRMAX =      1   max aug-charges    IRDMAX=  55706
   dimension x,y,z NGX =    30 NGY =   30 NGZ =   20
   dimension x,y,z NGXF=    60 NGYF=   60 NGZF=   40
   support grid    NGXF=   120 NGYF=  120 NGZF=   80
   ions per type =               2   4
   NGX,Y,Z   is equivalent  to a cutoff of  10.21, 10.21, 10.07 a.u.
   NGXF,Y,Z  is equivalent  to a cutoff of  20.43, 20.43, 20.15 a.u.

 SYSTEM =  unknown system                          
 POSCAR =  Mn  F                                   

 Startparameter for this run:
   NWRITE =      2    write-flag & timer
   PREC   = normal    normal or accurate (medium, high low for compatibility)
   ISTART =      1    job   : 0-new  1-cont  2-samecut
   ICHARG =      0    charge: 1-file 2-atom 10-const
   ISPIN  =      2    spin polarized calculation?
   LNONCOLLINEAR =      F non collinear calculations
   LSORBIT =      F    spin-orbit coupling
   INIWAV =      1    electr: 0-lowe 1-rand  2-diag
   LASPH  =      T    aspherical Exc in radial PAW
   METAGGA=      F    non-selfconsistent MetaGGA calc.

 Electronic Relaxation 1
   ENCUT  =  600.0 eV  44.10 Ry    6.64 a.u.   9.75  9.75  6.59*2*pi/ulx,y,z
   ENINI  =  600.0     initial cutoff
   ENAUG  =  613.6 eV  augmentation charge cutoff
   NELM   =     60;   NELMIN=  2; NELMDL=  0     # of ELM steps 
   EDIFF  = 0.1E-05   stopping-criterion for ELM
   LREAL  =      F    real-space projection
   NLSPLINE    = F    spline interpolate recip. space projectors
   LCOMPAT=      F    compatible to vasp.4.4
   GGA_COMPAT  = T    GGA compatible to vasp.4.4-vasp.4.6
   LMAXPAW     = -100 max onsite density
   LMAXMIX     =    4 max onsite mixed and CHGCAR
   VOSKOWN=      0    Vosko Wilk Nusair interpolation
   ROPT   =    0.00000   0.00000
 Ionic relaxation
   EDIFFG = 0.1E-04   stopping-criterion for IOM
   NSW    =      0    number of steps for IOM
   NBLOCK =      1;   KBLOCK =      1    inner block; outer block 
   IBRION =     -1    ionic relax: 0-MD 1-quasi-New 2-CG
   NFREE  =      0    steps in history (QN), initial steepest desc. (CG)
   ISIF   =      2    stress and relaxation
   IWAVPR =     10    prediction:  0-non 1-charg 2-wave 3-comb
   ISYM   =      0    0-nonsym 1-usesym 2-fastsym
   LCORR  =      T    Harris-Foulkes like correction to forces

   POTIM  = 0.5000    time-step for ionic-motion
   TEIN   =    0.0    initial temperature
   TEBEG  =    0.0;   TEEND  =   0.0 temperature during run
   SMASS  =  -3.00    Nose mass-parameter (am)
   estimated Nose-frequenzy (Omega)   =  0.10E-29 period in steps =****** mass=  -0.545E-27a.u.
   SCALEE = 1.0000    scale energy and forces
   NPACO  =    256;   APACO  = 16.0  distance and # of slots for P.C.
   PSTRESS=    0.0 pullay stress

  Mass of Ions in am
   POMASS =  54.94 19.00
  Ionic Valenz
   ZVAL   =  13.00  7.00
  Atomic Wigner-Seitz radii
   RWIGS  =  -1.00 -1.00
  virtual crystal weights 
   VCA    =   1.00  1.00
   NELECT =      54.0000    total number of electrons
   NUPDOWN=      -1.0000    fix difference up-down

 DOS related values:
   EMIN   =  10.00;   EMAX   =-10.00  energy-range for DOS
   EFERMI =   0.00
   ISMEAR =    -5;   SIGMA  =   0.20  broadening in eV -4-tet -1-fermi 0-gaus

 Electronic relaxation 2 (details)
   IALGO  =     38    algorithm
   LDIAG  =      T    sub-space diagonalisation (order eigenvalues)
   LSUBROT=      F    optimize rotation matrix (better conditioning)
   TURBO    =      0    0=normal 1=particle mesh
   IRESTART =      0    0=no restart 2=restart with 2 vectors
   NREBOOT  =      0    no. of reboots
   NMIN     =      0    reboot dimension
   EREF     =   0.00    reference energy to select bands
   IMIX   =      4    mixing-type and parameters
     AMIX     =   0.40;   BMIX     =  1.00
     AMIX_MAG =   1.60;   BMIX_MAG =  1.00
     AMIN     =   0.10
     WC   =   100.;   INIMIX=   1;  MIXPRE=   1;  MAXMIX= -45

 Intra band minimization:
   WEIMIN = 0.0000     energy-eigenvalue tresh-hold
   EBREAK =  0.78E-08  absolut break condition
   DEPER  =   0.30     relativ break condition  

   TIME   =   0.40     timestep for ELM

  volume/ion in A,a.u.               =      13.12        88.52
  Fermi-wavevector in a.u.,A,eV,Ry     =   1.443888  2.728552 28.365585  2.084812
  Thomas-Fermi vector in A             =   2.562245
 
 Write flags
   LWAVE        =      T    write WAVECAR
   LDOWNSAMPLE  =      F    k-point downsampling of WAVECAR
   LCHARG       =      T    write CHGCAR
   LVTOT        =      F    write LOCPOT, total local potential
   LVHAR        =      F    write LOCPOT, Hartree potential only
   LELF         =      F    write electronic localiz. function (ELF)
   LORBIT       =     11    0 simple, 1 ext, 2 COOP (PROOUT), +10 PAW based schemes


 Dipole corrections
   LMONO  =      F    monopole corrections only (constant potential shift)
   LDIPOL =      F    correct potential (dipole corrections)
   IDIPOL =      0    1-x, 2-y, 3-z, 4-all directions 
   EPSILON=  1.0000000 bulk dielectric constant

 LDA+U is selected, type is set to LDAUTYPE =  2
   angular momentum for each species LDAUL =     2   -1
   U (eV)           for each species LDAUU =   4.0  0.0
   J (eV)           for each species LDAUJ =   0.0  0.0
 Exchange correlation treatment:
   GGA     =    PS    GGA type
   LEXCH   =    14    internal setting for exchange type
   VOSKOWN=      0    Vosko Wilk Nusair interpolation
   LHFCALC =     F    Hartree Fock is set to
   LHFONE  =     F    Hartree Fock one center treatment
   AEXX    =    0.0000 exact exchange contribution

 Linear response parameters
   LEPSILON=     F    determine dielectric tensor
   LRPA    =     F    only Hartree local field effects (RPA)
   LNABLA  =     F    use nabla operator in PAW spheres
   LVEL    =     F    velocity operator in full k-point grid
   LINTERFAST=   F  fast interpolation
   KINTER  =     0    interpolate to denser k-point grid
   CSHIFT  =0.1000    complex shift for real part using Kramers Kronig
   OMEGAMAX=  -1.0    maximum frequency
   DEG_THRESHOLD= 0.2000000E-02 threshold for treating states as degnerate
   RTIME   =   -0.100 relaxation time in fs
  (WPLASMAI=    0.000 imaginary part of plasma frequency in eV, 0.658/RTIME)
   DFIELD  = 0.0000000 0.0000000 0.0000000 field for delta impulse in time
 
 Orbital magnetization related:
   ORBITALMAG=     F  switch on orbital magnetization
   LCHIMAG   =     F  perturbation theory with respect to B field
   DQ        =  0.001000  dq finite difference perturbation B field
   LLRAUG    =     F  two centre corrections for induced B field



--------------------------------------------------------------------------------------------------------


 Static calculation
 charge density and potential will be updated during run
 spin polarized calculation
 Variant of blocked Davidson
 Davidson routine will perform the subspace rotation
 perform sub-space diagonalisation
    after iterative eigenvector-optimisation
 modified Broyden-mixing scheme, WC =      100.0
 initial mixing is a Kerker type mixing with AMIX =  0.4000 and BMIX =      1.0000
 Hartree-type preconditioning will be used
 using additional bands            5
 reciprocal scheme for non local part
 use partial core corrections
 calculate Harris-corrections to forces 
   (improved forces if not selfconsistent)
 use gradient corrections 
 use of overlap-Matrix (Vanderbilt PP)
 Fermi weights with tetrahedron method with Bloechl corrections


--------------------------------------------------------------------------------------------------------


  energy-cutoff  :      600.00
  volume of cell :       78.71
      direct lattice vectors                 reciprocal lattice vectors
     4.883144143  0.000000000  0.000000000     0.204786091  0.000000000  0.000000000
     0.000000000  4.883144143  0.000000000     0.000000000  0.204786091  0.000000000
     0.000000000  0.000000000  3.300797677     0.000000000  0.000000000  0.302957072

  length of vectors
     4.883144143  4.883144143  3.300797677     0.204786091  0.204786091  0.302957072


 
 old parameters found on file WAVECAR:
  energy-cutoff  :      600.00
  volume of cell :       78.71
      direct lattice vectors                 reciprocal lattice vectors
     4.883144143  0.000000000  0.000000000     0.204786091  0.000000000  0.000000000
     0.000000000  4.883144143  0.000000000     0.000000000  0.204786091  0.000000000
     0.000000000  0.000000000  3.300797677     0.000000000  0.000000000  0.302957072

  length of vectors

 
 k-points in units of 2pi/SCALE and weight: KPOINTS created by Atomic Simulation Env
   0.00000000  0.00000000  0.00000000       0.001
   0.02275401  0.00000000  0.00000000       0.002
   0.04550802  0.00000000  0.00000000       0.002
   0.06826203  0.00000000  0.00000000       0.002
   0.09101604  0.00000000  0.00000000       0.002
   0.00000000  0.02275401  0.00000000       0.002
   0.02275401  0.02275401  0.00000000       0.002
   0.04550802  0.02275401  0.00000000       0.002
   0.06826203  0.02275401  0.00000000       0.002
   0.09101604  0.02275401  0.00000000       0.002
  -0.09101604  0.02275401  0.00000000       0.002
  -0.06826203  0.02275401  0.00000000       0.002
  -0.04550802  0.02275401  0.00000000       0.002
  -0.02275401  0.02275401  0.00000000       0.002
   0.00000000  0.04550802  0.00000000       0.002
   0.02275401  0.04550802  0.00000000       0.002
   0.04550802  0.04550802  0.00000000       0.002
   0.06826203  0.04550802  0.00000000       0.002
   0.09101604  0.04550802  0.00000000       0.002
  -0.09101604  0.04550802  0.00000000       0.002
  -0.06826203  0.04550802  0.00000000       0.002
  -0.04550802  0.04550802  0.00000000       0.002
  -0.02275401  0.04550802  0.00000000       0.002
   0.00000000  0.06826203  0.00000000       0.002
   0.02275401  0.06826203  0.00000000       0.002
   0.04550802  0.06826203  0.00000000       0.002
   0.06826203  0.06826203  0.00000000       0.002
   0.09101604  0.06826203  0.00000000       0.002
  -0.09101604  0.06826203  0.00000000       0.002
  -0.06826203  0.06826203  0.00000000       0.002
  -0.04550802  0.06826203  0.00000000       0.002
  -0.02275401  0.06826203  0.00000000       0.002
   0.00000000  0.09101604  0.00000000       0.002
   0.02275401  0.09101604  0.00000000       0.002
   0.04550802  0.09101604  0.00000000       0.002
   0.06826203  0.09101604  0.00000000       0.002
   0.09101604  0.09101604  0.00000000       0.002
  -0.09101604  0.09101604  0.00000000       0.002
  -0.06826203  0.09101604  0.00000000       0.002
  -0.04550802  0.09101604  0.00000000       0.002
  -0.02275401  0.09101604  0.00000000       0.002
   0.00000000  0.00000000  0.02754155       0.002
   0.02275401  0.00000000  0.02754155       0.002
   0.04550802  0.00000000  0.02754155       0.002
   0.06826203  0.00000000  0.02754155       0.002
   0.09101604  0.00000000  0.02754155       0.002
  -0.09101604  0.00000000  0.02754155       0.002
  -0.06826203  0.00000000  0.02754155       0.002
  -0.04550802  0.00000000  0.02754155       0.002
  -0.02275401  0.00000000  0.02754155       0.002
   0.00000000  0.02275401  0.02754155       0.002
   0.02275401  0.02275401  0.02754155       0.002
   0.04550802  0.02275401  0.02754155       0.002
   0.06826203  0.02275401  0.02754155       0.002
   0.09101604  0.02275401  0.02754155       0.002
  -0.09101604  0.02275401  0.02754155       0.002
  -0.06826203  0.02275401  0.02754155       0.002
  -0.04550802  0.02275401  0.02754155       0.002
  -0.02275401  0.02275401  0.02754155       0.002
   0.00000000  0.04550802  0.02754155       0.002
   0.02275401  0.04550802  0.02754155       0.002
   0.04550802  0.04550802  0.02754155       0.002
   0.06826203  0.04550802  0.02754155       0.002
   0.09101604  0.04550802  0.02754155       0.002
  -0.09101604  0.04550802  0.02754155       0.002
  -0.06826203  0.04550802  0.02754155       0.002
  -0.04550802  0.04550802  0.02754155       0.002
  -0.02275401  0.04550802  0.02754155       0.002
   0.00000000  0.06826203  0.02754155       0.002
   0.02275401  0.06826203  0.02754155       0.002
   0.04550802  0.06826203  0.02754155       0.002
   0.06826203  0.06826203  0.02754155       0.002
   0.09101604  0.06826203  0.02754155       0.002
  -0.09101604  0.06826203  0.02754155       0.002
  -0.06826203  0.06826203  0.02754155       0.002
  -0.04550802  0.06826203  0.02754155       0.002
  -0.02275401  0.06826203  0.02754155       0.002
   0.00000000  0.09101604  0.02754155       0.002
   0.02275401  0.09101604  0.02754155       0.002
   0.04550802  0.09101604  0.02754155       0.002
   0.06826203  0.09101604  0.02754155       0.002
   0.09101604  0.09101604  0.02754155       0.002
  -0.09101604  0.09101604  0.02754155       0.002
  -0.06826203  0.09101604  0.02754155       0.002
  -0.04550802  0.09101604  0.02754155       0.002
  -0.02275401  0.09101604  0.02754155       0.002
   0.00000000 -0.09101604  0.02754155       0.002
   0.02275401 -0.09101604  0.02754155       0.002
   0.04550802 -0.09101604  0.02754155       0.002
   0.06826203 -0.09101604  0.02754155       0.002
   0.09101604 -0.09101604  0.02754155       0.002
  -0.09101604 -0.09101604  0.02754155       0.002
  -0.06826203 -0.09101604  0.02754155       0.002
  -0.04550802 -0.09101604  0.02754155       0.002
  -0.02275401 -0.09101604  0.02754155       0.002
   0.00000000 -0.06826203  0.02754155       0.002
   0.02275401 -0.06826203  0.02754155       0.002
   0.04550802 -0.06826203  0.02754155       0.002
   0.06826203 -0.06826203  0.02754155       0.002
   0.09101604 -0.06826203  0.02754155       0.002
  -0.09101604 -0.06826203  0.02754155       0.002
  -0.06826203 -0.06826203  0.02754155       0.002
  -0.04550802 -0.06826203  0.02754155       0.002
  -0.02275401 -0.06826203  0.02754155       0.002
   0.00000000 -0.04550802  0.02754155       0.002
   0.02275401 -0.04550802  0.02754155       0.002
   0.04550802 -0.04550802  0.02754155       0.002
   0.06826203 -0.04550802  0.02754155       0.002
   0.09101604 -0.04550802  0.02754155       0.002
  -0.09101604 -0.04550802  0.02754155       0.002
  -0.06826203 -0.04550802  0.02754155       0.002
  -0.04550802 -0.04550802  0.02754155       0.002
  -0.02275401 -0.04550802  0.02754155       0.002
   0.00000000 -0.02275401  0.02754155       0.002
   0.02275401 -0.02275401  0.02754155       0.002
   0.04550802 -0.02275401  0.02754155       0.002
   0.06826203 -0.02275401  0.02754155       0.002
   0.09101604 -0.02275401  0.02754155       0.002
  -0.09101604 -0.02275401  0.02754155       0.002
  -0.06826203 -0.02275401  0.02754155       0.002
  -0.04550802 -0.02275401  0.02754155       0.002
  -0.02275401 -0.02275401  0.02754155       0.002
   0.00000000  0.00000000  0.05508310       0.002
   0.02275401  0.00000000  0.05508310       0.002
   0.04550802  0.00000000  0.05508310       0.002
   0.06826203  0.00000000  0.05508310       0.002
   0.09101604  0.00000000  0.05508310       0.002
  -0.09101604  0.00000000  0.05508310       0.002
  -0.06826203  0.00000000  0.05508310       0.002
  -0.04550802  0.00000000  0.05508310       0.002
  -0.02275401  0.00000000  0.05508310       0.002
   0.00000000  0.02275401  0.05508310       0.002
   0.02275401  0.02275401  0.05508310       0.002
   0.04550802  0.02275401  0.05508310       0.002
   0.06826203  0.02275401  0.05508310       0.002
   0.09101604  0.02275401  0.05508310       0.002
  -0.09101604  0.02275401  0.05508310       0.002
  -0.06826203  0.02275401  0.05508310       0.002
  -0.04550802  0.02275401  0.05508310       0.002
  -0.02275401  0.02275401  0.05508310       0.002
   0.00000000  0.04550802  0.05508310       0.002
   0.02275401  0.04550802  0.05508310       0.002
   0.04550802  0.04550802  0.05508310       0.002
   0.06826203  0.04550802  0.05508310       0.002
   0.09101604  0.04550802  0.05508310       0.002
  -0.09101604  0.04550802  0.05508310       0.002
  -0.06826203  0.04550802  0.05508310       0.002
  -0.04550802  0.04550802  0.05508310       0.002
  -0.02275401  0.04550802  0.05508310       0.002
   0.00000000  0.06826203  0.05508310       0.002
   0.02275401  0.06826203  0.05508310       0.002
   0.04550802  0.06826203  0.05508310       0.002
   0.06826203  0.06826203  0.05508310       0.002
   0.09101604  0.06826203  0.05508310       0.002
  -0.09101604  0.06826203  0.05508310       0.002
  -0.06826203  0.06826203  0.05508310       0.002
  -0.04550802  0.06826203  0.05508310       0.002
  -0.02275401  0.06826203  0.05508310       0.002
   0.00000000  0.09101604  0.05508310       0.002
   0.02275401  0.09101604  0.05508310       0.002
   0.04550802  0.09101604  0.05508310       0.002
   0.06826203  0.09101604  0.05508310       0.002
   0.09101604  0.09101604  0.05508310       0.002
  -0.09101604  0.09101604  0.05508310       0.002
  -0.06826203  0.09101604  0.05508310       0.002
  -0.04550802  0.09101604  0.05508310       0.002
  -0.02275401  0.09101604  0.05508310       0.002
   0.00000000 -0.09101604  0.05508310       0.002
   0.02275401 -0.09101604  0.05508310       0.002
   0.04550802 -0.09101604  0.05508310       0.002
   0.06826203 -0.09101604  0.05508310       0.002
   0.09101604 -0.09101604  0.05508310       0.002
  -0.09101604 -0.09101604  0.05508310       0.002
  -0.06826203 -0.09101604  0.05508310       0.002
  -0.04550802 -0.09101604  0.05508310       0.002
  -0.02275401 -0.09101604  0.05508310       0.002
   0.00000000 -0.06826203  0.05508310       0.002
   0.02275401 -0.06826203  0.05508310       0.002
   0.04550802 -0.06826203  0.05508310       0.002
   0.06826203 -0.06826203  0.05508310       0.002
   0.09101604 -0.06826203  0.05508310       0.002
  -0.09101604 -0.06826203  0.05508310       0.002
  -0.06826203 -0.06826203  0.05508310       0.002
  -0.04550802 -0.06826203  0.05508310       0.002
  -0.02275401 -0.06826203  0.05508310       0.002
   0.00000000 -0.04550802  0.05508310       0.002
   0.02275401 -0.04550802  0.05508310       0.002
   0.04550802 -0.04550802  0.05508310       0.002
   0.06826203 -0.04550802  0.05508310       0.002
   0.09101604 -0.04550802  0.05508310       0.002
  -0.09101604 -0.04550802  0.05508310       0.002
  -0.06826203 -0.04550802  0.05508310       0.002
  -0.04550802 -0.04550802  0.05508310       0.002
  -0.02275401 -0.04550802  0.05508310       0.002
   0.00000000 -0.02275401  0.05508310       0.002
   0.02275401 -0.02275401  0.05508310       0.002
   0.04550802 -0.02275401  0.05508310       0.002
   0.06826203 -0.02275401  0.05508310       0.002
   0.09101604 -0.02275401  0.05508310       0.002
  -0.09101604 -0.02275401  0.05508310       0.002
  -0.06826203 -0.02275401  0.05508310       0.002
  -0.04550802 -0.02275401  0.05508310       0.002
  -0.02275401 -0.02275401  0.05508310       0.002
   0.00000000  0.00000000  0.08262466       0.002
   0.02275401  0.00000000  0.08262466       0.002
   0.04550802  0.00000000  0.08262466       0.002
   0.06826203  0.00000000  0.08262466       0.002
   0.09101604  0.00000000  0.08262466       0.002
  -0.09101604  0.00000000  0.08262466       0.002
  -0.06826203  0.00000000  0.08262466       0.002
  -0.04550802  0.00000000  0.08262466       0.002
  -0.02275401  0.00000000  0.08262466       0.002
   0.00000000  0.02275401  0.08262466       0.002
   0.02275401  0.02275401  0.08262466       0.002
   0.04550802  0.02275401  0.08262466       0.002
   0.06826203  0.02275401  0.08262466       0.002
   0.09101604  0.02275401  0.08262466       0.002
  -0.09101604  0.02275401  0.08262466       0.002
  -0.06826203  0.02275401  0.08262466       0.002
  -0.04550802  0.02275401  0.08262466       0.002
  -0.02275401  0.02275401  0.08262466       0.002
   0.00000000  0.04550802  0.08262466       0.002
   0.02275401  0.04550802  0.08262466       0.002
   0.04550802  0.04550802  0.08262466       0.002
   0.06826203  0.04550802  0.08262466       0.002
   0.09101604  0.04550802  0.08262466       0.002
  -0.09101604  0.04550802  0.08262466       0.002
  -0.06826203  0.04550802  0.08262466       0.002
  -0.04550802  0.04550802  0.08262466       0.002
  -0.02275401  0.04550802  0.08262466       0.002
   0.00000000  0.06826203  0.08262466       0.002
   0.02275401  0.06826203  0.08262466       0.002
   0.04550802  0.06826203  0.08262466       0.002
   0.06826203  0.06826203  0.08262466       0.002
   0.09101604  0.06826203  0.08262466       0.002
  -0.09101604  0.06826203  0.08262466       0.002
  -0.06826203  0.06826203  0.08262466       0.002
  -0.04550802  0.06826203  0.08262466       0.002
  -0.02275401  0.06826203  0.08262466       0.002
   0.00000000  0.09101604  0.08262466       0.002
   0.02275401  0.09101604  0.08262466       0.002
   0.04550802  0.09101604  0.08262466       0.002
   0.06826203  0.09101604  0.08262466       0.002
   0.09101604  0.09101604  0.08262466       0.002
  -0.09101604  0.09101604  0.08262466       0.002
  -0.06826203  0.09101604  0.08262466       0.002
  -0.04550802  0.09101604  0.08262466       0.002
  -0.02275401  0.09101604  0.08262466       0.002
   0.00000000 -0.09101604  0.08262466       0.002
   0.02275401 -0.09101604  0.08262466       0.002
   0.04550802 -0.09101604  0.08262466       0.002
   0.06826203 -0.09101604  0.08262466       0.002
   0.09101604 -0.09101604  0.08262466       0.002
  -0.09101604 -0.09101604  0.08262466       0.002
  -0.06826203 -0.09101604  0.08262466       0.002
  -0.04550802 -0.09101604  0.08262466       0.002
  -0.02275401 -0.09101604  0.08262466       0.002
   0.00000000 -0.06826203  0.08262466       0.002
   0.02275401 -0.06826203  0.08262466       0.002
   0.04550802 -0.06826203  0.08262466       0.002
   0.06826203 -0.06826203  0.08262466       0.002
   0.09101604 -0.06826203  0.08262466       0.002
  -0.09101604 -0.06826203  0.08262466       0.002
  -0.06826203 -0.06826203  0.08262466       0.002
  -0.04550802 -0.06826203  0.08262466       0.002
  -0.02275401 -0.06826203  0.08262466       0.002
   0.00000000 -0.04550802  0.08262466       0.002
   0.02275401 -0.04550802  0.08262466       0.002
   0.04550802 -0.04550802  0.08262466       0.002
   0.06826203 -0.04550802  0.08262466       0.002
   0.09101604 -0.04550802  0.08262466       0.002
  -0.09101604 -0.04550802  0.08262466       0.002
  -0.06826203 -0.04550802  0.08262466       0.002
  -0.04550802 -0.04550802  0.08262466       0.002
  -0.02275401 -0.04550802  0.08262466       0.002
   0.00000000 -0.02275401  0.08262466       0.002
   0.02275401 -0.02275401  0.08262466       0.002
   0.04550802 -0.02275401  0.08262466       0.002
   0.06826203 -0.02275401  0.08262466       0.002
   0.09101604 -0.02275401  0.08262466       0.002
  -0.09101604 -0.02275401  0.08262466       0.002
  -0.06826203 -0.02275401  0.08262466       0.002
  -0.04550802 -0.02275401  0.08262466       0.002
  -0.02275401 -0.02275401  0.08262466       0.002
   0.00000000  0.00000000  0.11016621       0.002
   0.02275401  0.00000000  0.11016621       0.002
   0.04550802  0.00000000  0.11016621       0.002
   0.06826203  0.00000000  0.11016621       0.002
   0.09101604  0.00000000  0.11016621       0.002
  -0.09101604  0.00000000  0.11016621       0.002
  -0.06826203  0.00000000  0.11016621       0.002
  -0.04550802  0.00000000  0.11016621       0.002
  -0.02275401  0.00000000  0.11016621       0.002
   0.00000000  0.02275401  0.11016621       0.002
   0.02275401  0.02275401  0.11016621       0.002
   0.04550802  0.02275401  0.11016621       0.002
   0.06826203  0.02275401  0.11016621       0.002
   0.09101604  0.02275401  0.11016621       0.002
  -0.09101604  0.02275401  0.11016621       0.002
  -0.06826203  0.02275401  0.11016621       0.002
  -0.04550802  0.02275401  0.11016621       0.002
  -0.02275401  0.02275401  0.11016621       0.002
   0.00000000  0.04550802  0.11016621       0.002
   0.02275401  0.04550802  0.11016621       0.002
   0.04550802  0.04550802  0.11016621       0.002
   0.06826203  0.04550802  0.11016621       0.002
   0.09101604  0.04550802  0.11016621       0.002
  -0.09101604  0.04550802  0.11016621       0.002
  -0.06826203  0.04550802  0.11016621       0.002
  -0.04550802  0.04550802  0.11016621       0.002
  -0.02275401  0.04550802  0.11016621       0.002
   0.00000000  0.06826203  0.11016621       0.002
   0.02275401  0.06826203  0.11016621       0.002
   0.04550802  0.06826203  0.11016621       0.002
   0.06826203  0.06826203  0.11016621       0.002
   0.09101604  0.06826203  0.11016621       0.002
  -0.09101604  0.06826203  0.11016621       0.002
  -0.06826203  0.06826203  0.11016621       0.002
  -0.04550802  0.06826203  0.11016621       0.002
  -0.02275401  0.06826203  0.11016621       0.002
   0.00000000  0.09101604  0.11016621       0.002
   0.02275401  0.09101604  0.11016621       0.002
   0.04550802  0.09101604  0.11016621       0.002
   0.06826203  0.09101604  0.11016621       0.002
   0.09101604  0.09101604  0.11016621       0.002
  -0.09101604  0.09101604  0.11016621       0.002
  -0.06826203  0.09101604  0.11016621       0.002
  -0.04550802  0.09101604  0.11016621       0.002
  -0.02275401  0.09101604  0.11016621       0.002
   0.00000000 -0.09101604  0.11016621       0.002
   0.02275401 -0.09101604  0.11016621       0.002
   0.04550802 -0.09101604  0.11016621       0.002
   0.06826203 -0.09101604  0.11016621       0.002
   0.09101604 -0.09101604  0.11016621       0.002
  -0.09101604 -0.09101604  0.11016621       0.002
  -0.06826203 -0.09101604  0.11016621       0.002
  -0.04550802 -0.09101604  0.11016621       0.002
  -0.02275401 -0.09101604  0.11016621       0.002
   0.00000000 -0.06826203  0.11016621       0.002
   0.02275401 -0.06826203  0.11016621       0.002
   0.04550802 -0.06826203  0.11016621       0.002
   0.06826203 -0.06826203  0.11016621       0.002
   0.09101604 -0.06826203  0.11016621       0.002
  -0.09101604 -0.06826203  0.11016621       0.002
  -0.06826203 -0.06826203  0.11016621       0.002
  -0.04550802 -0.06826203  0.11016621       0.002
  -0.02275401 -0.06826203  0.11016621       0.002
   0.00000000 -0.04550802  0.11016621       0.002
   0.02275401 -0.04550802  0.11016621       0.002
   0.04550802 -0.04550802  0.11016621       0.002
   0.06826203 -0.04550802  0.11016621       0.002
   0.09101604 -0.04550802  0.11016621       0.002
  -0.09101604 -0.04550802  0.11016621       0.002
  -0.06826203 -0.04550802  0.11016621       0.002
  -0.04550802 -0.04550802  0.11016621       0.002
  -0.02275401 -0.04550802  0.11016621       0.002
   0.00000000 -0.02275401  0.11016621       0.002
   0.02275401 -0.02275401  0.11016621       0.002
   0.04550802 -0.02275401  0.11016621       0.002
   0.06826203 -0.02275401  0.11016621       0.002
   0.09101604 -0.02275401  0.11016621       0.002
  -0.09101604 -0.02275401  0.11016621       0.002
  -0.06826203 -0.02275401  0.11016621       0.002
  -0.04550802 -0.02275401  0.11016621       0.002
  -0.02275401 -0.02275401  0.11016621       0.002
   0.00000000  0.00000000  0.13770776       0.002
   0.02275401  0.00000000  0.13770776       0.002
   0.04550802  0.00000000  0.13770776       0.002
   0.06826203  0.00000000  0.13770776       0.002
   0.09101604  0.00000000  0.13770776       0.002
  -0.09101604  0.00000000  0.13770776       0.002
  -0.06826203  0.00000000  0.13770776       0.002
  -0.04550802  0.00000000  0.13770776       0.002
  -0.02275401  0.00000000  0.13770776       0.002
   0.00000000  0.02275401  0.13770776       0.002
   0.02275401  0.02275401  0.13770776       0.002
   0.04550802  0.02275401  0.13770776       0.002
   0.06826203  0.02275401  0.13770776       0.002
   0.09101604  0.02275401  0.13770776       0.002
  -0.09101604  0.02275401  0.13770776       0.002
  -0.06826203  0.02275401  0.13770776       0.002
  -0.04550802  0.02275401  0.13770776       0.002
  -0.02275401  0.02275401  0.13770776       0.002
   0.00000000  0.04550802  0.13770776       0.002
   0.02275401  0.04550802  0.13770776       0.002
   0.04550802  0.04550802  0.13770776       0.002
   0.06826203  0.04550802  0.13770776       0.002
   0.09101604  0.04550802  0.13770776       0.002
  -0.09101604  0.04550802  0.13770776       0.002
  -0.06826203  0.04550802  0.13770776       0.002
  -0.04550802  0.04550802  0.13770776       0.002
  -0.02275401  0.04550802  0.13770776       0.002
   0.00000000  0.06826203  0.13770776       0.002
   0.02275401  0.06826203  0.13770776       0.002
   0.04550802  0.06826203  0.13770776       0.002
[...]
 k-point ** :   0.2222 0.2222 0.1818  plane waves:    2631
 k-point ** :   0.3333 0.2222 0.1818  plane waves:    2624
 k-point ** :   0.4444 0.2222 0.1818  plane waves:    2627
 k-point ** :  -0.4444 0.2222 0.1818  plane waves:    2627
 k-point ** :  -0.3333 0.2222 0.1818  plane waves:    2624
 k-point ** :  -0.2222 0.2222 0.1818  plane waves:    2631
 k-point ** :  -0.1111 0.2222 0.1818  plane waves:    2632
 k-point ** :   0.0000 0.3333 0.1818  plane waves:    2631
 k-point ** :   0.1111 0.3333 0.1818  plane waves:    2628
 k-point ** :   0.2222 0.3333 0.1818  plane waves:    2624
 k-point ** :   0.3333 0.3333 0.1818  plane waves:    2632
 k-point ** :   0.4444 0.3333 0.1818  plane waves:    2635
 k-point ** :  -0.4444 0.3333 0.1818  plane waves:    2635
 k-point ** :  -0.3333 0.3333 0.1818  plane waves:    2632
 k-point ** :  -0.2222 0.3333 0.1818  plane waves:    2624
 k-point ** :  -0.1111 0.3333 0.1818  plane waves:    2628
 k-point ** :   0.0000 0.4444 0.1818  plane waves:    2640
 k-point ** :   0.1111 0.4444 0.1818  plane waves:    2628
 k-point ** :   0.2222 0.4444 0.1818  plane waves:    2627
 k-point ** :   0.3333 0.4444 0.1818  plane waves:    2635
 k-point ** :   0.4444 0.4444 0.1818  plane waves:    2635
 k-point ** :  -0.4444 0.4444 0.1818  plane waves:    2635
 k-point ** :  -0.3333 0.4444 0.1818  plane waves:    2635
 k-point ** :  -0.2222 0.4444 0.1818  plane waves:    2627
 k-point ** :  -0.1111 0.4444 0.1818  plane waves:    2628
 k-point ** :   0.0000-0.4444 0.1818  plane waves:    2640
 k-point ** :   0.1111-0.4444 0.1818  plane waves:    2628
 k-point ** :   0.2222-0.4444 0.1818  plane waves:    2627
 k-point ** :   0.3333-0.4444 0.1818  plane waves:    2635
 k-point ** :   0.4444-0.4444 0.1818  plane waves:    2635
 k-point ** :  -0.4444-0.4444 0.1818  plane waves:    2635
 k-point ** :  -0.3333-0.4444 0.1818  plane waves:    2635
 k-point ** :  -0.2222-0.4444 0.1818  plane waves:    2627
 k-point ** :  -0.1111-0.4444 0.1818  plane waves:    2628
 k-point ** :   0.0000-0.3333 0.1818  plane waves:    2631
 k-point ** :   0.1111-0.3333 0.1818  plane waves:    2628
 k-point ** :   0.2222-0.3333 0.1818  plane waves:    2624
 k-point ** :   0.3333-0.3333 0.1818  plane waves:    2632
 k-point ** :   0.4444-0.3333 0.1818  plane waves:    2635
 k-point ** :  -0.4444-0.3333 0.1818  plane waves:    2635
 k-point ** :  -0.3333-0.3333 0.1818  plane waves:    2632
 k-point ** :  -0.2222-0.3333 0.1818  plane waves:    2624
 k-point ** :  -0.1111-0.3333 0.1818  plane waves:    2628
 k-point ** :   0.0000-0.2222 0.1818  plane waves:    2633
 k-point ** :   0.1111-0.2222 0.1818  plane waves:    2632
 k-point ** :   0.2222-0.2222 0.1818  plane waves:    2631
 k-point ** :   0.3333-0.2222 0.1818  plane waves:    2624
 k-point ** :   0.4444-0.2222 0.1818  plane waves:    2627
 k-point ** :  -0.4444-0.2222 0.1818  plane waves:    2627
 k-point ** :  -0.3333-0.2222 0.1818  plane waves:    2624
 k-point ** :  -0.2222-0.2222 0.1818  plane waves:    2631
 k-point ** :  -0.1111-0.2222 0.1818  plane waves:    2632
 k-point ** :   0.0000-0.1111 0.1818  plane waves:    2633
 k-point ** :   0.1111-0.1111 0.1818  plane waves:    2633
 k-point ** :   0.2222-0.1111 0.1818  plane waves:    2632
 k-point ** :   0.3333-0.1111 0.1818  plane waves:    2628
 k-point ** :   0.4444-0.1111 0.1818  plane waves:    2628
 k-point ** :  -0.4444-0.1111 0.1818  plane waves:    2628
 k-point ** :  -0.3333-0.1111 0.1818  plane waves:    2628
 k-point ** :  -0.2222-0.1111 0.1818  plane waves:    2632
 k-point ** :  -0.1111-0.1111 0.1818  plane waves:    2633
 k-point ** :   0.0000 0.0000 0.2727  plane waves:    2605
 k-point ** :   0.1111 0.0000 0.2727  plane waves:    2615
 k-point ** :   0.2222 0.0000 0.2727  plane waves:    2630
 k-point ** :   0.3333 0.0000 0.2727  plane waves:    2636
 k-point ** :   0.4444 0.0000 0.2727  plane waves:    2629
 k-point ** :  -0.4444 0.0000 0.2727  plane waves:    2629
 k-point ** :  -0.3333 0.0000 0.2727  plane waves:    2636
 k-point ** :  -0.2222 0.0000 0.2727  plane waves:    2630
 k-point ** :  -0.1111 0.0000 0.2727  plane waves:    2615
 k-point ** :   0.0000 0.1111 0.2727  plane waves:    2615
 k-point ** :   0.1111 0.1111 0.2727  plane waves:    2619
 k-point ** :   0.2222 0.1111 0.2727  plane waves:    2621
 k-point ** :   0.3333 0.1111 0.2727  plane waves:    2629
 k-point ** :   0.4444 0.1111 0.2727  plane waves:    2620
 k-point ** :  -0.4444 0.1111 0.2727  plane waves:    2620
 k-point ** :  -0.3333 0.1111 0.2727  plane waves:    2629
 k-point ** :  -0.2222 0.1111 0.2727  plane waves:    2621
 k-point ** :  -0.1111 0.1111 0.2727  plane waves:    2619
 k-point ** :   0.0000 0.2222 0.2727  plane waves:    2630
 k-point ** :   0.1111 0.2222 0.2727  plane waves:    2621
 k-point ** :   0.2222 0.2222 0.2727  plane waves:    2627
 k-point ** :   0.3333 0.2222 0.2727  plane waves:    2633
 k-point ** :   0.4444 0.2222 0.2727  plane waves:    2625
 k-point ** :  -0.4444 0.2222 0.2727  plane waves:    2625
 k-point ** :  -0.3333 0.2222 0.2727  plane waves:    2633
 k-point ** :  -0.2222 0.2222 0.2727  plane waves:    2627
 k-point ** :  -0.1111 0.2222 0.2727  plane waves:    2621
 k-point ** :   0.0000 0.3333 0.2727  plane waves:    2636
 k-point ** :   0.1111 0.3333 0.2727  plane waves:    2629
 k-point ** :   0.2222 0.3333 0.2727  plane waves:    2633
 k-point ** :   0.3333 0.3333 0.2727  plane waves:    2635
 k-point ** :   0.4444 0.3333 0.2727  plane waves:    2630
 k-point ** :  -0.4444 0.3333 0.2727  plane waves:    2630
 k-point ** :  -0.3333 0.3333 0.2727  plane waves:    2635
 k-point ** :  -0.2222 0.3333 0.2727  plane waves:    2633
 k-point ** :  -0.1111 0.3333 0.2727  plane waves:    2629
 k-point ** :   0.0000 0.4444 0.2727  plane waves:    2629
 k-point ** :   0.1111 0.4444 0.2727  plane waves:    2620
 k-point ** :   0.2222 0.4444 0.2727  plane waves:    2625
 k-point ** :   0.3333 0.4444 0.2727  plane waves:    2630
 k-point ** :   0.4444 0.4444 0.2727  plane waves:    2641
 k-point ** :  -0.4444 0.4444 0.2727  plane waves:    2641
 k-point ** :  -0.3333 0.4444 0.2727  plane waves:    2630
 k-point ** :  -0.2222 0.4444 0.2727  plane waves:    2625
 k-point ** :  -0.1111 0.4444 0.2727  plane waves:    2620
 k-point ** :   0.0000-0.4444 0.2727  plane waves:    2629
 k-point ** :   0.1111-0.4444 0.2727  plane waves:    2620
 k-point ** :   0.2222-0.4444 0.2727  plane waves:    2625
 k-point ** :   0.3333-0.4444 0.2727  plane waves:    2630
 k-point ** :   0.4444-0.4444 0.2727  plane waves:    2641
 k-point ** :  -0.4444-0.4444 0.2727  plane waves:    2641
 k-point ** :  -0.3333-0.4444 0.2727  plane waves:    2630
 k-point ** :  -0.2222-0.4444 0.2727  plane waves:    2625
 k-point ** :  -0.1111-0.4444 0.2727  plane waves:    2620
 k-point ** :   0.0000-0.3333 0.2727  plane waves:    2636
 k-point ** :   0.1111-0.3333 0.2727  plane waves:    2629
 k-point ** :   0.2222-0.3333 0.2727  plane waves:    2633
 k-point ** :   0.3333-0.3333 0.2727  plane waves:    2635
 k-point ** :   0.4444-0.3333 0.2727  plane waves:    2630
 k-point ** :  -0.4444-0.3333 0.2727  plane waves:    2630
 k-point ** :  -0.3333-0.3333 0.2727  plane waves:    2635
 k-point ** :  -0.2222-0.3333 0.2727  plane waves:    2633
 k-point ** :  -0.1111-0.3333 0.2727  plane waves:    2629
 k-point ** :   0.0000-0.2222 0.2727  plane waves:    2630
 k-point ** :   0.1111-0.2222 0.2727  plane waves:    2621
 k-point ** :   0.2222-0.2222 0.2727  plane waves:    2627
 k-point ** :   0.3333-0.2222 0.2727  plane waves:    2633
 k-point ** :   0.4444-0.2222 0.2727  plane waves:    2625
 k-point ** :  -0.4444-0.2222 0.2727  plane waves:    2625
 k-point ** :  -0.3333-0.2222 0.2727  plane waves:    2633
 k-point ** :  -0.2222-0.2222 0.2727  plane waves:    2627
 k-point ** :  -0.1111-0.2222 0.2727  plane waves:    2621
 k-point ** :   0.0000-0.1111 0.2727  plane waves:    2615
 k-point ** :   0.1111-0.1111 0.2727  plane waves:    2619
 k-point ** :   0.2222-0.1111 0.2727  plane waves:    2621
 k-point ** :   0.3333-0.1111 0.2727  plane waves:    2629
 k-point ** :   0.4444-0.1111 0.2727  plane waves:    2620
 k-point ** :  -0.4444-0.1111 0.2727  plane waves:    2620
 k-point ** :  -0.3333-0.1111 0.2727  plane waves:    2629
 k-point ** :  -0.2222-0.1111 0.2727  plane waves:    2621
 k-point ** :  -0.1111-0.1111 0.2727  plane waves:    2619
 k-point ** :   0.0000 0.0000 0.3636  plane waves:    2625
 k-point ** :   0.1111 0.0000 0.3636  plane waves:    2611
 k-point ** :   0.2222 0.0000 0.3636  plane waves:    2620
 k-point ** :   0.3333 0.0000 0.3636  plane waves:    2622
 k-point ** :   0.4444 0.0000 0.3636  plane waves:    2629
 k-point ** :  -0.4444 0.0000 0.3636  plane waves:    2629
 k-point ** :  -0.3333 0.0000 0.3636  plane waves:    2622
 k-point ** :  -0.2222 0.0000 0.3636  plane waves:    2620
 k-point ** :  -0.1111 0.0000 0.3636  plane waves:    2611
 k-point ** :   0.0000 0.1111 0.3636  plane waves:    2611
 k-point ** :   0.1111 0.1111 0.3636  plane waves:    2622
 k-point ** :   0.2222 0.1111 0.3636  plane waves:    2622
 k-point ** :   0.3333 0.1111 0.3636  plane waves:    2623
 k-point ** :   0.4444 0.1111 0.3636  plane waves:    2623
 k-point ** :  -0.4444 0.1111 0.3636  plane waves:    2623
 k-point ** :  -0.3333 0.1111 0.3636  plane waves:    2623
 k-point ** :  -0.2222 0.1111 0.3636  plane waves:    2622
 k-point ** :  -0.1111 0.1111 0.3636  plane waves:    2622
 k-point ** :   0.0000 0.2222 0.3636  plane waves:    2620
 k-point ** :   0.1111 0.2222 0.3636  plane waves:    2622
 k-point ** :   0.2222 0.2222 0.3636  plane waves:    2620
 k-point ** :   0.3333 0.2222 0.3636  plane waves:    2620
 k-point ** :   0.4444 0.2222 0.3636  plane waves:    2626
 k-point ** :  -0.4444 0.2222 0.3636  plane waves:    2626
 k-point ** :  -0.3333 0.2222 0.3636  plane waves:    2620
 k-point ** :  -0.2222 0.2222 0.3636  plane waves:    2620
 k-point ** :  -0.1111 0.2222 0.3636  plane waves:    2622
 k-point ** :   0.0000 0.3333 0.3636  plane waves:    2622
 k-point ** :   0.1111 0.3333 0.3636  plane waves:    2623
 k-point ** :   0.2222 0.3333 0.3636  plane waves:    2620
 k-point ** :   0.3333 0.3333 0.3636  plane waves:    2626
 k-point ** :   0.4444 0.3333 0.3636  plane waves:    2620
 k-point ** :  -0.4444 0.3333 0.3636  plane waves:    2620
 k-point ** :  -0.3333 0.3333 0.3636  plane waves:    2626
 k-point ** :  -0.2222 0.3333 0.3636  plane waves:    2620
 k-point ** :  -0.1111 0.3333 0.3636  plane waves:    2623
 k-point ** :   0.0000 0.4444 0.3636  plane waves:    2629
 k-point ** :   0.1111 0.4444 0.3636  plane waves:    2623
 k-point ** :   0.2222 0.4444 0.3636  plane waves:    2626
 k-point ** :   0.3333 0.4444 0.3636  plane waves:    2620
 k-point ** :   0.4444 0.4444 0.3636  plane waves:    2612
 k-point ** :  -0.4444 0.4444 0.3636  plane waves:    2612
 k-point ** :  -0.3333 0.4444 0.3636  plane waves:    2620
 k-point ** :  -0.2222 0.4444 0.3636  plane waves:    2626
 k-point ** :  -0.1111 0.4444 0.3636  plane waves:    2623
 k-point ** :   0.0000-0.4444 0.3636  plane waves:    2629
 k-point ** :   0.1111-0.4444 0.3636  plane waves:    2623
 k-point ** :   0.2222-0.4444 0.3636  plane waves:    2626
 k-point ** :   0.3333-0.4444 0.3636  plane waves:    2620
 k-point ** :   0.4444-0.4444 0.3636  plane waves:    2612
 k-point ** :  -0.4444-0.4444 0.3636  plane waves:    2612
 k-point ** :  -0.3333-0.4444 0.3636  plane waves:    2620
 k-point ** :  -0.2222-0.4444 0.3636  plane waves:    2626
 k-point ** :  -0.1111-0.4444 0.3636  plane waves:    2623
 k-point ** :   0.0000-0.3333 0.3636  plane waves:    2622
 k-point ** :   0.1111-0.3333 0.3636  plane waves:    2623
 k-point ** :   0.2222-0.3333 0.3636  plane waves:    2620
 k-point ** :   0.3333-0.3333 0.3636  plane waves:    2626
 k-point ** :   0.4444-0.3333 0.3636  plane waves:    2620
 k-point ** :  -0.4444-0.3333 0.3636  plane waves:    2620
 k-point ** :  -0.3333-0.3333 0.3636  plane waves:    2626
 k-point ** :  -0.2222-0.3333 0.3636  plane waves:    2620
 k-point ** :  -0.1111-0.3333 0.3636  plane waves:    2623
 k-point ** :   0.0000-0.2222 0.3636  plane waves:    2620
 k-point ** :   0.1111-0.2222 0.3636  plane waves:    2622
 k-point ** :   0.2222-0.2222 0.3636  plane waves:    2620
 k-point ** :   0.3333-0.2222 0.3636  plane waves:    2620
 k-point ** :   0.4444-0.2222 0.3636  plane waves:    2626
 k-point ** :  -0.4444-0.2222 0.3636  plane waves:    2626
 k-point ** :  -0.3333-0.2222 0.3636  plane waves:    2620
 k-point ** :  -0.2222-0.2222 0.3636  plane waves:    2620
 k-point ** :  -0.1111-0.2222 0.3636  plane waves:    2622
 k-point ** :   0.0000-0.1111 0.3636  plane waves:    2611
 k-point ** :   0.1111-0.1111 0.3636  plane waves:    2622
 k-point ** :   0.2222-0.1111 0.3636  plane waves:    2622
 k-point ** :   0.3333-0.1111 0.3636  plane waves:    2623
 k-point ** :   0.4444-0.1111 0.3636  plane waves:    2623
 k-point ** :  -0.4444-0.1111 0.3636  plane waves:    2623
 k-point ** :  -0.3333-0.1111 0.3636  plane waves:    2623
 k-point ** :  -0.2222-0.1111 0.3636  plane waves:    2622
 k-point ** :  -0.1111-0.1111 0.3636  plane waves:    2622
 k-point ** :   0.0000 0.0000 0.4545  plane waves:    2610
 k-point ** :   0.1111 0.0000 0.4545  plane waves:    2620
 k-point ** :   0.2222 0.0000 0.4545  plane waves:    2612
 k-point ** :   0.3333 0.0000 0.4545  plane waves:    2625
 k-point ** :   0.4444 0.0000 0.4545  plane waves:    2625
 k-point ** :  -0.4444 0.0000 0.4545  plane waves:    2625
 k-point ** :  -0.3333 0.0000 0.4545  plane waves:    2625
 k-point ** :  -0.2222 0.0000 0.4545  plane waves:    2612
 k-point ** :  -0.1111 0.0000 0.4545  plane waves:    2620
 k-point ** :   0.0000 0.1111 0.4545  plane waves:    2620
 k-point ** :   0.1111 0.1111 0.4545  plane waves:    2624
 k-point ** :   0.2222 0.1111 0.4545  plane waves:    2625
 k-point ** :   0.3333 0.1111 0.4545  plane waves:    2619
 k-point ** :   0.4444 0.1111 0.4545  plane waves:    2623
 k-point ** :  -0.4444 0.1111 0.4545  plane waves:    2623
 k-point ** :  -0.3333 0.1111 0.4545  plane waves:    2619
 k-point ** :  -0.2222 0.1111 0.4545  plane waves:    2625
 k-point ** :  -0.1111 0.1111 0.4545  plane waves:    2624
 k-point ** :   0.0000 0.2222 0.4545  plane waves:    2612
 k-point ** :   0.1111 0.2222 0.4545  plane waves:    2625
 k-point ** :   0.2222 0.2222 0.4545  plane waves:    2610
 k-point ** :   0.3333 0.2222 0.4545  plane waves:    2617
 k-point ** :   0.4444 0.2222 0.4545  plane waves:    2621
 k-point ** :  -0.4444 0.2222 0.4545  plane waves:    2621
 k-point ** :  -0.3333 0.2222 0.4545  plane waves:    2617
 k-point ** :  -0.2222 0.2222 0.4545  plane waves:    2610
 k-point ** :  -0.1111 0.2222 0.4545  plane waves:    2625
 k-point ** :   0.0000 0.3333 0.4545  plane waves:    2625
 k-point ** :   0.1111 0.3333 0.4545  plane waves:    2619
 k-point ** :   0.2222 0.3333 0.4545  plane waves:    2617
 k-point ** :   0.3333 0.3333 0.4545  plane waves:    2625
 k-point ** :   0.4444 0.3333 0.4545  plane waves:    2611
 k-point ** :  -0.4444 0.3333 0.4545  plane waves:    2611
 k-point ** :  -0.3333 0.3333 0.4545  plane waves:    2625
 k-point ** :  -0.2222 0.3333 0.4545  plane waves:    2617
 k-point ** :  -0.1111 0.3333 0.4545  plane waves:    2619
 k-point ** :   0.0000 0.4444 0.4545  plane waves:    2625
 k-point ** :   0.1111 0.4444 0.4545  plane waves:    2623
 k-point ** :   0.2222 0.4444 0.4545  plane waves:    2621
 k-point ** :   0.3333 0.4444 0.4545  plane waves:    2611
 k-point ** :   0.4444 0.4444 0.4545  plane waves:    2614
 k-point ** :  -0.4444 0.4444 0.4545  plane waves:    2614
 k-point ** :  -0.3333 0.4444 0.4545  plane waves:    2611
 k-point ** :  -0.2222 0.4444 0.4545  plane waves:    2621
 k-point ** :  -0.1111 0.4444 0.4545  plane waves:    2623
 k-point ** :   0.0000-0.4444 0.4545  plane waves:    2625
 k-point ** :   0.1111-0.4444 0.4545  plane waves:    2623
 k-point ** :   0.2222-0.4444 0.4545  plane waves:    2621
 k-point ** :   0.3333-0.4444 0.4545  plane waves:    2611
 k-point ** :   0.4444-0.4444 0.4545  plane waves:    2614
 k-point ** :  -0.4444-0.4444 0.4545  plane waves:    2614
 k-point ** :  -0.3333-0.4444 0.4545  plane waves:    2611
 k-point ** :  -0.2222-0.4444 0.4545  plane waves:    2621
 k-point ** :  -0.1111-0.4444 0.4545  plane waves:    2623
 k-point ** :   0.0000-0.3333 0.4545  plane waves:    2625
 k-point ** :   0.1111-0.3333 0.4545  plane waves:    2619
 k-point ** :   0.2222-0.3333 0.4545  plane waves:    2617
 k-point ** :   0.3333-0.3333 0.4545  plane waves:    2625
 k-point ** :   0.4444-0.3333 0.4545  plane waves:    2611
 k-point ** :  -0.4444-0.3333 0.4545  plane waves:    2611
 k-point ** :  -0.3333-0.3333 0.4545  plane waves:    2625
 k-point ** :  -0.2222-0.3333 0.4545  plane waves:    2617
 k-point ** :  -0.1111-0.3333 0.4545  plane waves:    2619
 k-point ** :   0.0000-0.2222 0.4545  plane waves:    2612
 k-point ** :   0.1111-0.2222 0.4545  plane waves:    2625
 k-point ** :   0.2222-0.2222 0.4545  plane waves:    2610
 k-point ** :   0.3333-0.2222 0.4545  plane waves:    2617
 k-point ** :   0.4444-0.2222 0.4545  plane waves:    2621
 k-point ** :  -0.4444-0.2222 0.4545  plane waves:    2621
 k-point ** :  -0.3333-0.2222 0.4545  plane waves:    2617
 k-point ** :  -0.2222-0.2222 0.4545  plane waves:    2610
 k-point ** :  -0.1111-0.2222 0.4545  plane waves:    2625
 k-point ** :   0.0000-0.1111 0.4545  plane waves:    2620
 k-point ** :   0.1111-0.1111 0.4545  plane waves:    2624
 k-point ** :   0.2222-0.1111 0.4545  plane waves:    2625
 k-point ** :   0.3333-0.1111 0.4545  plane waves:    2619
 k-point ** :   0.4444-0.1111 0.4545  plane waves:    2623
 k-point ** :  -0.4444-0.1111 0.4545  plane waves:    2623
 k-point ** :  -0.3333-0.1111 0.4545  plane waves:    2619
 k-point ** :  -0.2222-0.1111 0.4545  plane waves:    2625
 k-point ** :  -0.1111-0.1111 0.4545  plane waves:    2624

 maximum and minimum number of plane-waves per node :      2657     2605

 maximum number of plane-waves:      2657
 maximum index in each direction: 
   IXMAX=   10   IYMAX=   10   IZMAX=    6
   IXMIN=  -10   IYMIN=  -10   IZMIN=   -7


 serial   3D FFT for wavefunctions
 parallel 3D FFT for charge:
    minimum data exchange during FFTs selected (reduces bandwidth)


 total amount of memory used by VASP MPI-rank0   693512. kBytes
=======================================================================

   base      :      30000. kBytes
   nonl-proj :     341927. kBytes
   fftplans  :       5463. kBytes
   grid      :       4464. kBytes
   one-center:        186. kBytes
   wavefun   :     311472. kBytes
 
     INWAV:  cpu time    3.0652: real time    3.0652
 Broyden mixing: mesh for mixing (old mesh)
   NGX = 19   NGY = 19   NGZ = 13
  (NGX  = 60   NGY  = 60   NGZ  = 40)
  gives a total of   4693 points

 charge density for first step will be calculated from the start-wavefunctions


--------------------------------------------------------------------------------------------------------


 Maximum index for augmentation-charges        13439 (set IRDMAX)


--------------------------------------------------------------------------------------------------------


 BZINTS: Fermi energy:  1.336511; 54.000000 electrons
         Band energy:-762.112390;  BLOECHL correction:  0.000000
Calculating partial charge density.
Open file   1 INCAR for input.
NDMOD =  -3
Energy range vs. Fermi energy from INCAR:    0.000   3.600
Efermi =    1.337
Use   1 KPOINTS:           1

*****************************************************
* Parameters from pardens
*****************************************************

NBMOD is set to  -3
Selected energy range (EINT)    1.3365   4.9365
Selected     1 kpoints to calculate charge density.
Selected k-points:     1
Seperate output for each kpoint.
k-point no.    1; bands inside the range    1
  28
Finished calculating partial charge density.
VASP will stop now.
