       N       E                     dE             d eps       ncg     rms          rms(c)
DAV:   1     0.904176157426E+03    0.90418E+03   -0.34246E+04  1344   0.177E+03
DAV:   2     0.396899999589E+03   -0.50728E+03   -0.48690E+03  1488   0.466E+02
DAV:   3     0.366235887687E+03   -0.30664E+02   -0.30228E+02  1512   0.123E+02
DAV:   4     0.365879126082E+03   -0.35676E+00   -0.35647E+00  1524   0.144E+01
DAV:   5     0.365873341101E+03   -0.57850E-02   -0.57847E-02  1512   0.171E+00    0.588E+01
DAV:   6    -0.691619511439E+02   -0.43504E+03   -0.26677E+02  1572   0.208E+02    0.625E+01
DAV:   7    -0.715345254396E+02   -0.23726E+01   -0.47961E+01  1356   0.435E+01    0.171E+01
DAV:   8    -0.686320774186E+02    0.29024E+01   -0.69664E+00  1560   0.217E+01    0.657E+00
DAV:   9    -0.681635984312E+02    0.46848E+00   -0.50046E+00  1488   0.190E+01    0.815E+00
DAV:  10    -0.681168953213E+02    0.46703E-01   -0.43430E-01  1416   0.545E+00    0.602E+00
DAV:  11    -0.680755990861E+02    0.41296E-01   -0.11631E+00  1548   0.802E+00    0.199E+00
DAV:  12    -0.680376078595E+02    0.37991E-01   -0.10587E-01  1584   0.327E+00    0.122E+00
DAV:  13    -0.680302172517E+02    0.73906E-02   -0.69719E-02  1488   0.154E+00    0.105E+00
DAV:  14    -0.680257922928E+02    0.44250E-02   -0.50252E-02  1296   0.240E+00    0.404E-01
DAV:  15    -0.680264675553E+02   -0.67526E-03   -0.37526E-03  1488   0.462E-01    0.390E-01
DAV:  16    -0.680256600679E+02    0.80749E-03   -0.35239E-03  1404   0.383E-01    0.131E-01
DAV:  17    -0.680256580413E+02    0.20265E-05   -0.26885E-03  1404   0.373E-01    0.986E-02
DAV:  18    -0.680254307367E+02    0.22730E-03   -0.18043E-04  1368   0.976E-02    0.302E-02
DAV:  19    -0.680254189191E+02    0.11818E-04   -0.10349E-04  1464   0.681E-02    0.652E-03
DAV:  20    -0.680254417291E+02   -0.22810E-04   -0.67956E-06  1512   0.153E-02    0.884E-03
DAV:  21    -0.680254435177E+02   -0.17886E-05   -0.22716E-06  1380   0.104E-02    0.398E-03
DAV:  22    -0.680254418539E+02    0.16638E-05   -0.11682E-06  1452   0.643E-03    0.172E-03
DAV:  23    -0.680254442024E+02   -0.23485E-05   -0.83486E-08   672   0.222E-03    0.915E-04
DAV:  24    -0.680254446889E+02   -0.48656E-06   -0.12180E-08   648   0.996E-04    0.322E-04
DAV:  25    -0.680254450882E+02   -0.39926E-06   -0.10658E-08   648   0.727E-04    0.201E-04
DAV:  26    -0.680254452810E+02   -0.19282E-06   -0.94551E-10   648   0.209E-04    0.738E-05
DAV:  27    -0.680254451950E+02    0.86041E-07   -0.20128E-10   648   0.120E-04
   1 F= -.68025445E+02 E0= -.68025445E+02  d E =-.680254E+02  mag=    -0.0000
       N       E                     dE             d eps       ncg     rms          rms(c)
DAV:   1    -0.680258655040E+02   -0.42022E-03   -0.94510E-03  1296   0.868E-01    0.179E-01
DAV:   2    -0.680255954332E+02    0.27007E-03   -0.79273E-04  1296   0.234E-01    0.108E-01
DAV:   3    -0.680254995239E+02    0.95909E-04   -0.29665E-04  1392   0.120E-01    0.389E-02
DAV:   4    -0.680254421224E+02    0.57402E-04   -0.15791E-05  1500   0.359E-02    0.318E-02
DAV:   5    -0.680254437991E+02   -0.16767E-05   -0.37347E-05  1632   0.391E-02    0.205E-02
DAV:   6    -0.680254414544E+02    0.23447E-05   -0.66786E-06  1452   0.193E-02    0.701E-03
DAV:   7    -0.680254414742E+02   -0.19808E-07   -0.12653E-05  1512   0.212E-02    0.875E-03
DAV:   8    -0.680254421456E+02   -0.67139E-06   -0.17016E-06  1320   0.100E-02    0.279E-03
DAV:   9    -0.680254426982E+02   -0.55259E-06   -0.10261E-06  1548   0.568E-03    0.594E-04
DAV:  10    -0.680254429448E+02   -0.24658E-06   -0.71802E-08   708   0.153E-03    0.891E-04
DAV:  11    -0.680254428646E+02    0.80189E-07   -0.99875E-09   648   0.609E-04
   2 F= -.68025443E+02 E0= -.68025443E+02  d E =0.233039E-05  mag=     0.0000
