 vasp.5.4.4.18Apr17-6-g9f103f2a35 (build Apr 27 2017 11:13:10) complex          
  
 executed on           IFC91_ompi date 2020.05.13  11:38:37
 running on   12 total cores
 distrk:  each k-point on   12 cores,    1 groups
 distr:  one band on NCORES_PER_BAND=   1 cores,   12 groups


--------------------------------------------------------------------------------------------------------


 INCAR:
 POTCAR:    PAW_PBE Mn_pv 02Aug2007               
 POTCAR:    PAW_PBE F 08Apr2002                   

 ----------------------------------------------------------------------------- 
|                                                                             |
|           W    W    AA    RRRRR   N    N  II  N    N   GGGG   !!!           |
|           W    W   A  A   R    R  NN   N  II  NN   N  G    G  !!!           |
|           W    W  A    A  R    R  N N  N  II  N N  N  G       !!!           |
|           W WW W  AAAAAA  RRRRR   N  N N  II  N  N N  G  GGG   !            |
|           WW  WW  A    A  R   R   N   NN  II  N   NN  G    G                |
|           W    W  A    A  R    R  N    N  II  N    N   GGGG   !!!           |
|                                                                             |
|      For optimal performance we recommend to set                            |
|        NCORE= 4 - approx SQRT( number of cores)                             |
|      NCORE specifies how many cores store one orbital (NPAR=cpu/NCORE).     |
|      This setting can  greatly improve the performance of VASP for DFT.     |
|      The default,   NCORE=1            might be grossly inefficient         |
|      on modern multi-core architectures or massively parallel machines.     |
|      Do your own testing !!!!                                               |
|      Unfortunately you need to use the default for GW and RPA calculations. |
|      (for HF NCORE is supported but not extensively tested yet)             |
|                                                                             |
 ----------------------------------------------------------------------------- 

 POTCAR:    PAW_PBE Mn_pv 02Aug2007               
   VRHFIN =Mn: 3p4s3d                                                           
   LEXCH  = PE                                                                  
   EATOM  =  2025.2664 eV,  148.8529 Ry                                         
                                                                                
   TITEL  = PAW_PBE Mn_pv 02Aug2007                                             
   LULTRA =        F    use ultrasoft PP ?                                      
   IUNSCR =        1    unscreen: 0-lin 1-nonlin 2-no                           
   RPACOR =    2.080    partial core radius                                     
   POMASS =   54.938; ZVAL   =   13.000    mass and valenz                      
   RCORE  =    2.300    outmost cutoff radius                                   
   RWIGS  =    2.500; RWIGS  =    1.323    wigner-seitz radius (au A)           
   ENMAX  =  269.864; ENMIN  =  202.398 eV                                      
   ICORE  =        3    local potential                                         
   LCOR   =        T    correct aug charges                                     
   LPAW   =        T    paw PP                                                  
   EAUG   =  569.085                                                            
   DEXC   =    0.000                                                            
   RMAX   =    2.343    core radius for proj-oper                               
   RAUG   =    1.300    factor for augmentation sphere                          
   RDEP   =    2.338    radius for radial grids                                 
   RDEPT  =    1.798    core radius for aug-charge                              
                                                                                
   Atomic configuration                                                         
    8 entries                                                                   
     n  l   j            E        occ.                                          
     1  0  0.50     -6424.8287   2.0000                                         
     2  0  0.50      -739.1154   2.0000                                         
     2  1  1.50      -625.3949   6.0000                                         
     3  0  0.50       -81.6100   2.0000                                         
     3  1  1.50       -50.4667   6.0000                                         
     3  2  2.50        -3.3745   6.0000                                         
     4  0  0.50        -4.1331   1.0000                                         
     4  3  2.50        -1.3606   0.0000                                         
   Description                                                                  
     l       E           TYP  RCUT    TYP  RCUT                                 
     1    -50.4666628     23  2.000                                             
     1     -1.3605826     23  2.000                                             
     2     -3.3744729     23  2.300                                             
     2     -4.7350555     23  2.300                                             
     0     -4.1331431     23  2.300                                             
     0      7.6656591     23  2.300                                             
     3      9.5240782     23  2.300                                             
  local pseudopotential read in
  partial core-charges read in
  partial kinetic energy density read in
  atomic valenz-charges read in
  non local Contribution for L=           1  read in
    real space projection operators read in
  non local Contribution for L=           1  read in
    real space projection operators read in
  non local Contribution for L=           2  read in
    real space projection operators read in
  non local Contribution for L=           2  read in
    real space projection operators read in
  non local Contribution for L=           0  read in
    real space projection operators read in
  non local Contribution for L=           0  read in
    real space projection operators read in
    PAW grid and wavefunctions read in
 
   number of l-projection  operators is LMAX  =           6
   number of lm-projection operators is LMMAX =          18
 
 POTCAR:    PAW_PBE F 08Apr2002                   
   VRHFIN =F: s2p5                                                              
   LEXCH  = PE                                                                  
   EATOM  =   659.6475 eV,   48.4827 Ry                                         
                                                                                
   TITEL  = PAW_PBE F 08Apr2002                                                 
   LULTRA =        F    use ultrasoft PP ?                                      
   IUNSCR =        1    unscreen: 0-lin 1-nonlin 2-no                           
   RPACOR =    1.200    partial core radius                                     
   POMASS =   18.998; ZVAL   =    7.000    mass and valenz                      
   RCORE  =    1.520    outmost cutoff radius                                   
   RWIGS  =    1.500; RWIGS  =    0.794    wigner-seitz radius (au A)           
   ENMAX  =  400.000; ENMIN  =  300.000 eV                                      
   ICORE  =        2    local potential                                         
   LCOR   =        T    correct aug charges                                     
   LPAW   =        T    paw PP                                                  
   EAUG   =  613.614                                                            
   RMAX   =    1.555    core radius for proj-oper                               
   RAUG   =    1.300    factor for augmentation sphere                          
   RDEP   =    1.539    radius for radial grids                                 
   RDEPT  =    1.299    core radius for aug-charge                              
                                                                                
   Atomic configuration                                                         
    4 entries                                                                   
     n  l   j            E        occ.                                          
     1  0  0.50      -663.3661   2.0000                                         
     2  0  0.50       -29.8995   2.0000                                         
     2  1  0.50       -11.1114   5.0000                                         
     3  2  1.50       -10.8847   0.0000                                         
   Description                                                                  
     l       E           TYP  RCUT    TYP  RCUT                                 
     0    -29.8995018     23  1.200                                             
     0     -9.5240782     23  1.200                                             
     1    -11.1113914     23  1.520                                             
     1      1.3605826     23  1.520                                             
     2    -10.8846608      7  1.500                                             
  local pseudopotential read in
  partial core-charges read in
  partial kinetic energy density read in
  atomic valenz-charges read in
  non local Contribution for L=           0  read in
    real space projection operators read in
  non local Contribution for L=           0  read in
    real space projection operators read in
  non local Contribution for L=           1  read in
    real space projection operators read in
  non local Contribution for L=           1  read in
    real space projection operators read in
    PAW grid and wavefunctions read in
 
   number of l-projection  operators is LMAX  =           4
   number of lm-projection operators is LMMAX =           8
 
  PAW_PBE Mn_pv 02Aug2007               :
 energy of atom  1       EATOM=-2025.2664
 kinetic energy error for atom=    0.0062 (will be added to EATOM!!)
  PAW_PBE F 08Apr2002                   :
 energy of atom  2       EATOM= -659.6475
 kinetic energy error for atom=    0.0354 (will be added to EATOM!!)
 
 
 POSCAR: Mn  F                                   
  positions in cartesian coordinates
  No initial velocities read in

 METAGGA = SCAN     LMAXTAU =  6    LMIXTAU =  F

 exchange correlation table for  LEXCH =        8
   RHO(1)=    0.500       N(1)  =     2000
   RHO(2)=  100.500       N(2)  =     4000
 


--------------------------------------------------------------------------------------------------------


 ion  position               nearest neighbor table
   1  0.500  0.500  0.500-   3 2.08   4 2.08   5 2.12   6 2.12   5 2.12   6 2.12
   2  0.000  0.000  0.000-   5 2.08   6 2.08   3 2.12   4 2.12   3 2.12   4 2.12
   3  0.196  0.804  0.500-   1 2.08   2 2.12   2 2.12
   4  0.804  0.196  0.500-   1 2.08   2 2.12   2 2.12
   5  0.304  0.304  0.000-   2 2.08   1 2.12   1 2.12
   6  0.696  0.696  0.000-   2 2.08   1 2.12   1 2.12
 
  LATTYP: Found a simple tetragonal cell.
 ALAT       =     4.8502445889
 C/A-ratio  =     0.6775984108
  
  Lattice vectors:
  
 A1 = (   4.8502445889,   0.0000000000,   0.0000000000)
 A2 = (   0.0000000000,   4.8502445889,   0.0000000000)
 A3 = (   0.0000000000,   0.0000000000,   3.2865180254)


Analysis of symmetry for initial positions (statically):
=====================================================================
 Subroutine PRICEL returns:
 Original cell was already a primitive cell.
 

 Routine SETGRP: Setting up the symmetry group for a 
 simple tetragonal supercell.


 Subroutine GETGRP returns: Found 16 space group operations
 (whereof  8 operations were pure point group operations)
 out of a pool of 16 trial point group operations.


The static configuration has the point symmetry D_2h.
 The point group associated with its full space group is D_4h.


Analysis of symmetry for dynamics (positions and initial velocities):
=====================================================================
 Subroutine PRICEL returns:
 Original cell was already a primitive cell.
 

 Routine SETGRP: Setting up the symmetry group for a 
 simple tetragonal supercell.


 Subroutine GETGRP returns: Found 16 space group operations
 (whereof  8 operations were pure point group operations)
 out of a pool of 16 trial point group operations.


The dynamic configuration has the point symmetry D_2h.
 The point group associated with its full space group is D_4h.


Analysis of structural, dynamic, and magnetic symmetry:
=====================================================================
 Subroutine PRICEL returns:
 Original cell was already a primitive cell.
 

 Routine SETGRP: Setting up the symmetry group for a 
 simple tetragonal supercell.


 Subroutine GETGRP returns: Found 16 space group operations
 (whereof  8 operations were pure point group operations)
 out of a pool of 16 trial point group operations.


The magnetic configuration has the point symmetry D_2h.
 The point group associated with its full space group is D_4h.


 Subroutine INISYM returns: Found 16 space group operations
 (whereof  8 operations are pure point group operations),
 and found     1 'primitive' translations

 
 
 KPOINTS: KPOINTS created by Atomic Simulation Env

Automatic generation of k-mesh.
Space group operators:
 irot       det(A)        alpha          n_x          n_y          n_z        tau_x        tau_y        tau_z
    1     1.000000     0.000000     1.000000     0.000000     0.000000     0.000000     0.000000     0.000000
    2    -1.000000     0.000000     1.000000     0.000000     0.000000     0.000000     0.000000     0.000000
    3     1.000000   180.000000     0.000000     0.000000     1.000000     0.000000     0.000000     0.000000
    4    -1.000000   180.000000     0.000000     0.000000     1.000000     0.000000     0.000000     0.000000
    5     1.000000   180.000000     0.707107     0.707107     0.000000     0.000000     0.000000     0.000000
    6    -1.000000   180.000000     0.707107     0.707107     0.000000     0.000000     0.000000     0.000000
    7     1.000000   180.000000     0.707107    -0.707107     0.000000     0.000000     0.000000     0.000000
    8    -1.000000   180.000000     0.707107    -0.707107     0.000000     0.000000     0.000000     0.000000
    9     1.000000    90.000000     0.000000     0.000000    -1.000000     0.500000     0.500000     0.500000
   10    -1.000000    90.000000     0.000000     0.000000    -1.000000     0.500000     0.500000     0.500000
   11     1.000000    90.000000     0.000000     0.000000     1.000000     0.500000     0.500000     0.500000
   12    -1.000000    90.000000     0.000000     0.000000     1.000000     0.500000     0.500000     0.500000
   13     1.000000   180.000000     0.000000     1.000000     0.000000     0.500000     0.500000     0.500000
   14    -1.000000   180.000000     0.000000     1.000000     0.000000     0.500000     0.500000     0.500000
   15     1.000000   180.000000     1.000000     0.000000     0.000000     0.500000     0.500000     0.500000
   16    -1.000000   180.000000     1.000000     0.000000     0.000000     0.500000     0.500000     0.500000
 
 Subroutine IBZKPT returns following result:
 ===========================================
 
 Found      9 irreducible k-points:
 
 Following reciprocal coordinates:
            Coordinates               Weight
  0.125000  0.125000  0.083333      8.000000
  0.375000  0.125000  0.083333     16.000000
  0.375000  0.375000  0.083333      8.000000
  0.125000  0.125000  0.250000      8.000000
  0.375000  0.125000  0.250000     16.000000
  0.375000  0.375000  0.250000      8.000000
  0.125000  0.125000  0.416667      8.000000
  0.375000  0.125000  0.416667     16.000000
  0.375000  0.375000  0.416667      8.000000
 
 Following cartesian coordinates:
            Coordinates               Weight
  0.025772  0.025772  0.025356      8.000000
  0.077316  0.025772  0.025356     16.000000
  0.077316  0.077316  0.025356      8.000000
  0.025772  0.025772  0.076068      8.000000
  0.077316  0.025772  0.076068     16.000000
  0.077316  0.077316  0.076068      8.000000
  0.025772  0.025772  0.126781      8.000000
  0.077316  0.025772  0.126781     16.000000
  0.077316  0.077316  0.126781      8.000000
 
 TETIRR: Found    106 inequivalent tetrahedra from      576


--------------------------------------------------------------------------------------------------------




 Dimension of arrays:
   k-points           NKPTS =      9   k-points in BZ     NKDIM =      9   number of bands    NBANDS=     36
   number of dos      NEDOS =    301   number of ions     NIONS =      6
   non local maximal  LDIM  =      6   non local SUM 2l+1 LMDIM =     18
   total plane-waves  NPLWV =  14112
   max r-space proj   IRMAX =      1   max aug-charges    IRDMAX=  44501
   dimension x,y,z NGX =    28 NGY =   28 NGZ =   18
   dimension x,y,z NGXF=    56 NGYF=   56 NGZF=   36
   support grid    NGXF=   112 NGYF=  112 NGZF=   72
   ions per type =               2   4
   NGX,Y,Z   is equivalent  to a cutoff of   9.60,  9.60,  9.11 a.u.
   NGXF,Y,Z  is equivalent  to a cutoff of  19.19, 19.19, 18.21 a.u.

 SYSTEM =  unknown system                          
 POSCAR =  Mn  F                                   

 Startparameter for this run:
   NWRITE =      2    write-flag & timer
   PREC   = normal    normal or accurate (medium, high low for compatibility)
   ISTART =      0    job   : 0-new  1-cont  2-samecut
   ICHARG =      2    charge: 1-file 2-atom 10-const
   ISPIN  =      2    spin polarized calculation?
   LNONCOLLINEAR =      F non collinear calculations
   LSORBIT =      F    spin-orbit coupling
   INIWAV =      1    electr: 0-lowe 1-rand  2-diag
   LASPH  =      T    aspherical Exc in radial PAW
   METAGGA=      F    non-selfconsistent MetaGGA calc.

 Electronic Relaxation 1
   ENCUT  =  500.0 eV  36.75 Ry    6.06 a.u.   8.84  8.84  5.99*2*pi/ulx,y,z
   ENINI  =  500.0     initial cutoff
   ENAUG  =  613.6 eV  augmentation charge cutoff
   NELM   =     60;   NELMIN=  2; NELMDL= -5     # of ELM steps 
   EDIFF  = 0.1E-06   stopping-criterion for ELM
   LREAL  =      F    real-space projection
   NLSPLINE    = F    spline interpolate recip. space projectors
   LCOMPAT=      F    compatible to vasp.4.4
   GGA_COMPAT  = T    GGA compatible to vasp.4.4-vasp.4.6
   LMAXPAW     = -100 max onsite density
   LMAXMIX     =    4 max onsite mixed and CHGCAR
   VOSKOWN=      0    Vosko Wilk Nusair interpolation
   ROPT   =    0.00000   0.00000
 Ionic relaxation
   EDIFFG = -.5E-02   stopping-criterion for IOM
   NSW    =     50    number of steps for IOM
   NBLOCK =      1;   KBLOCK =     50    inner block; outer block 
   IBRION =      2    ionic relax: 0-MD 1-quasi-New 2-CG
   NFREE  =      1    steps in history (QN), initial steepest desc. (CG)
   ISIF   =      3    stress and relaxation
   IWAVPR =     11    prediction:  0-non 1-charg 2-wave 3-comb
   ISYM   =      2    0-nonsym 1-usesym 2-fastsym
   LCORR  =      T    Harris-Foulkes like correction to forces

   POTIM  = 0.5000    time-step for ionic-motion
   TEIN   =    0.0    initial temperature
   TEBEG  =    0.0;   TEEND  =   0.0 temperature during run
   SMASS  =  -3.00    Nose mass-parameter (am)
   estimated Nose-frequenzy (Omega)   =  0.10E-29 period in steps =****** mass=  -0.538E-27a.u.
   SCALEE = 1.0000    scale energy and forces
   NPACO  =    256;   APACO  = 16.0  distance and # of slots for P.C.
   PSTRESS=    0.0 pullay stress

  Mass of Ions in am
   POMASS =  54.94 19.00
  Ionic Valenz
   ZVAL   =  13.00  7.00
  Atomic Wigner-Seitz radii
   RWIGS  =  -1.00 -1.00
  virtual crystal weights 
   VCA    =   1.00  1.00
   NELECT =      54.0000    total number of electrons
   NUPDOWN=      -1.0000    fix difference up-down

 DOS related values:
   EMIN   =  10.00;   EMAX   =-10.00  energy-range for DOS
   EFERMI =   0.00
   ISMEAR =    -5;   SIGMA  =   0.20  broadening in eV -4-tet -1-fermi 0-gaus

 Electronic relaxation 2 (details)
   IALGO  =     38    algorithm
   LDIAG  =      T    sub-space diagonalisation (order eigenvalues)
   LSUBROT=      F    optimize rotation matrix (better conditioning)
   TURBO    =      0    0=normal 1=particle mesh
   IRESTART =      0    0=no restart 2=restart with 2 vectors
   NREBOOT  =      0    no. of reboots
   NMIN     =      0    reboot dimension
   EREF     =   0.00    reference energy to select bands
   IMIX   =      4    mixing-type and parameters
     AMIX     =   0.40;   BMIX     =  1.00
     AMIX_MAG =   1.60;   BMIX_MAG =  1.00
     AMIN     =   0.10
     WC   =   100.;   INIMIX=   1;  MIXPRE=   1;  MAXMIX= -45

 Intra band minimization:
   WEIMIN = 0.0010     energy-eigenvalue tresh-hold
   EBREAK =  0.69E-09  absolut break condition
   DEPER  =   0.30     relativ break condition  

   TIME   =   0.40     timestep for ELM

  volume/ion in A,a.u.               =      12.89        86.96
  Fermi-wavevector in a.u.,A,eV,Ry     =   1.452507  2.744841 28.705264  2.109777
  Thomas-Fermi vector in A             =   2.569881
 
 Write flags
   LWAVE        =      F    write WAVECAR
   LDOWNSAMPLE  =      F    k-point downsampling of WAVECAR
   LCHARG       =      F    write CHGCAR
   LVTOT        =      F    write LOCPOT, total local potential
   LVHAR        =      F    write LOCPOT, Hartree potential only
   LELF         =      F    write electronic localiz. function (ELF)
   LORBIT       =     11    0 simple, 1 ext, 2 COOP (PROOUT), +10 PAW based schemes


 Dipole corrections
   LMONO  =      F    monopole corrections only (constant potential shift)
   LDIPOL =      F    correct potential (dipole corrections)
   IDIPOL =      0    1-x, 2-y, 3-z, 4-all directions 
   EPSILON=  1.0000000 bulk dielectric constant

 LDA+U is selected, type is set to LDAUTYPE =  2
   angular momentum for each species LDAUL =     2   -1
   U (eV)           for each species LDAUU =   0.0  0.0
   J (eV)           for each species LDAUJ =   0.0  0.0
 Exchange correlation treatment:
   GGA     =    --    GGA type
   LEXCH   =     8    internal setting for exchange type
   VOSKOWN=      0    Vosko Wilk Nusair interpolation
   LHFCALC =     F    Hartree Fock is set to
   LHFONE  =     F    Hartree Fock one center treatment
   AEXX    =    0.0000 exact exchange contribution

 Linear response parameters
   LEPSILON=     F    determine dielectric tensor
   LRPA    =     F    only Hartree local field effects (RPA)
   LNABLA  =     F    use nabla operator in PAW spheres
   LVEL    =     F    velocity operator in full k-point grid
   LINTERFAST=   F  fast interpolation
   KINTER  =     0    interpolate to denser k-point grid
   CSHIFT  =0.1000    complex shift for real part using Kramers Kronig
   OMEGAMAX=  -1.0    maximum frequency
   DEG_THRESHOLD= 0.2000000E-02 threshold for treating states as degnerate
   RTIME   =   -0.100 relaxation time in fs
  (WPLASMAI=    0.000 imaginary part of plasma frequency in eV, 0.658/RTIME)
   DFIELD  = 0.0000000 0.0000000 0.0000000 field for delta impulse in time
 
 Orbital magnetization related:
   ORBITALMAG=     F  switch on orbital magnetization
   LCHIMAG   =     F  perturbation theory with respect to B field
   DQ        =  0.001000  dq finite difference perturbation B field
   LLRAUG    =     F  two centre corrections for induced B field



--------------------------------------------------------------------------------------------------------


 conjugate gradient relaxation of ions
 charge density and potential will be updated during run
 spin polarized calculation
 Variant of blocked Davidson
 Davidson routine will perform the subspace rotation
 perform sub-space diagonalisation
    after iterative eigenvector-optimisation
 modified Broyden-mixing scheme, WC =      100.0
 initial mixing is a Kerker type mixing with AMIX =  0.4000 and BMIX =      1.0000
 Hartree-type preconditioning will be used
 using additional bands            9
 reciprocal scheme for non local part
 use partial core corrections
 calculate Harris-corrections to forces 
   (improved forces if not selfconsistent)
 use gradient corrections 
 use of overlap-Matrix (Vanderbilt PP)
 Fermi weights with tetrahedron method with Bloechl corrections


--------------------------------------------------------------------------------------------------------


  energy-cutoff  :      500.00
  volume of cell :       77.31
      direct lattice vectors                 reciprocal lattice vectors
     4.850244589  0.000000000  0.000000000     0.206175169  0.000000000  0.000000000
     0.000000000  4.850244589  0.000000000     0.000000000  0.206175169  0.000000000
     0.000000000  0.000000000  3.286518025     0.000000000  0.000000000  0.304273396

  length of vectors
     4.850244589  4.850244589  3.286518025     0.206175169  0.206175169  0.304273396


 
 k-points in units of 2pi/SCALE and weight: KPOINTS created by Atomic Simulation Env
   0.02577190  0.02577190  0.02535612       0.083
   0.07731569  0.02577190  0.02535612       0.167
   0.07731569  0.07731569  0.02535612       0.083
   0.02577190  0.02577190  0.07606835       0.083
   0.07731569  0.02577190  0.07606835       0.167
   0.07731569  0.07731569  0.07606835       0.083
   0.02577190  0.02577190  0.12678058       0.083
   0.07731569  0.02577190  0.12678058       0.167
   0.07731569  0.07731569  0.12678058       0.083
 
 k-points in reciprocal lattice and weights: KPOINTS created by Atomic Simulation Env
   0.12500000  0.12500000  0.08333333       0.083
   0.37500000  0.12500000  0.08333333       0.167
   0.37500000  0.37500000  0.08333333       0.083
   0.12500000  0.12500000  0.25000000       0.083
   0.37500000  0.12500000  0.25000000       0.167
   0.37500000  0.37500000  0.25000000       0.083
   0.12500000  0.12500000  0.41666667       0.083
   0.37500000  0.12500000  0.41666667       0.167
   0.37500000  0.37500000  0.41666667       0.083
 
 position of ions in fractional coordinates (direct lattice) 
   0.50000000  0.50000000  0.50000000
   0.00000000  0.00000000  0.00000000
   0.19609917  0.80390083  0.50000000
   0.80390083  0.19609917  0.50000000
   0.30390083  0.30390083  0.00000000
   0.69609917  0.69609917  0.00000000
 
 position of ions in cartesian coordinates  (Angst):
   2.42512229  2.42512229  1.64325901
   0.00000000  0.00000000  0.00000000
   0.95112895  3.89911564  1.64325901
   3.89911564  0.95112895  1.64325901
   1.47399334  1.47399334  0.00000000
   3.37625125  3.37625125  0.00000000
 


--------------------------------------------------------------------------------------------------------


 k-point  1 :   0.1250 0.1250 0.0833  plane waves:    1952
 k-point  2 :   0.3750 0.1250 0.0833  plane waves:    1958
 k-point  3 :   0.3750 0.3750 0.0833  plane waves:    1955
 k-point  4 :   0.1250 0.1250 0.2500  plane waves:    1968
 k-point  5 :   0.3750 0.1250 0.2500  plane waves:    1960
 k-point  6 :   0.3750 0.3750 0.2500  plane waves:    1968
 k-point  7 :   0.1250 0.1250 0.4167  plane waves:    1968
 k-point  8 :   0.3750 0.1250 0.4167  plane waves:    1959
 k-point  9 :   0.3750 0.3750 0.4167  plane waves:    1986

 maximum and minimum number of plane-waves per node :      1986     1952

 maximum number of plane-waves:      1986
 maximum index in each direction: 
   IXMAX=    8   IYMAX=    8   IZMAX=    5
   IXMIN=   -9   IYMIN=   -9   IZMIN=   -6


 serial   3D FFT for wavefunctions
 parallel 3D FFT for charge:
    minimum data exchange during FFTs selected (reduces bandwidth)


 total amount of memory used by VASP MPI-rank0    41943. kBytes
=======================================================================

   base      :      30000. kBytes
   nonl-proj :       5354. kBytes
   fftplans  :       1551. kBytes
   grid      :       3069. kBytes
   one-center:        186. kBytes
   wavefun   :       1783. kBytes
 
     INWAV:  cpu time    0.0000: real time    0.0000
 Broyden mixing: mesh for mixing (old mesh)
   NGX = 17   NGY = 17   NGZ = 11
  (NGX  = 56   NGY  = 56   NGZ  = 36)
  gives a total of   3179 points

 initial charge density was supplied:
 charge density of overlapping atoms calculated
 number of electron      54.0000000 magnetization       0.0000000
 keeping initial charge density in first step


--------------------------------------------------------------------------------------------------------


 Maximum index for augmentation-charges         4578 (set IRDMAX)


--------------------------------------------------------------------------------------------------------


 First call to EWALD:  gamma=   0.416
 Maximum number of real-space cells 2x 2x 3
 Maximum number of reciprocal cells 3x 3x 2

    FEWALD:  cpu time    0.0010: real time    0.0010


--------------------------------------- Iteration      1(   1)  ---------------------------------------


    POTLOK:  cpu time    0.0301: real time    0.0301
    SETDIJ:  cpu time    0.7751: real time    0.7751
atom =   1  type =  1  l = 2
 
 onsite density matrix
 
spin component  1
 
  0.2835  0.0000  0.0000  0.0000  0.0000
  0.0000  0.2835  0.0000  0.0000  0.0000
  0.0000  0.0000  0.2835  0.0000  0.0000
  0.0000  0.0000  0.0000  0.2835  0.0000
  0.0000  0.0000  0.0000  0.0000  0.2835
 
spin component  2
 
  0.7694  0.0000  0.0000  0.0000  0.0000
  0.0000  0.7694  0.0000  0.0000  0.0000
  0.0000  0.0000  0.7694  0.0000  0.0000
  0.0000  0.0000  0.0000  0.7694  0.0000
  0.0000  0.0000  0.0000  0.0000  0.7694
 
 occupancies and eigenvectors
 
  o =  0.2835  v =  1.0000  0.0000  0.0000  0.0000  0.0000  0.0000  0.0000  0.0000  0.0000  0.0000      0.0000  0.0000  0.0000  0.0000  0.0000  0.0000  0.0000  0.0000  0.0000  0.0000
  o =  0.2835  v =  0.0000  1.0000  0.0000  0.0000  0.0000  0.0000  0.0000  0.0000  0.0000  0.0000      0.0000  0.0000  0.0000  0.0000  0.0000  0.0000  0.0000  0.0000  0.0000  0.0000
  o =  0.2835  v =  0.0000  0.0000  1.0000  0.0000  0.0000  0.0000  0.0000  0.0000  0.0000  0.0000      0.0000  0.0000  0.0000  0.0000  0.0000  0.0000  0.0000  0.0000  0.0000  0.0000
  o =  0.2835  v =  0.0000  0.0000  0.0000  1.0000  0.0000  0.0000  0.0000  0.0000  0.0000  0.0000      0.0000  0.0000  0.0000  0.0000  0.0000  0.0000  0.0000  0.0000  0.0000  0.0000
  o =  0.2835  v =  0.0000  0.0000  0.0000  0.0000  1.0000  0.0000  0.0000  0.0000  0.0000  0.0000      0.0000  0.0000  0.0000  0.0000  0.0000  0.0000  0.0000  0.0000  0.0000  0.0000
  o =  0.7694  v =  0.0000  0.0000  0.0000  0.0000  0.0000  1.0000  0.0000  0.0000  0.0000  0.0000      0.0000  0.0000  0.0000  0.0000  0.0000  0.0000  0.0000  0.0000  0.0000  0.0000
  o =  0.7694  v =  0.0000  0.0000  0.0000  0.0000  0.0000  0.0000  1.0000  0.0000  0.0000  0.0000      0.0000  0.0000  0.0000  0.0000  0.0000  0.0000  0.0000  0.0000  0.0000  0.0000
  o =  0.7694  v =  0.0000  0.0000  0.0000  0.0000  0.0000  0.0000  0.0000  1.0000  0.0000  0.0000      0.0000  0.0000  0.0000  0.0000  0.0000  0.0000  0.0000  0.0000  0.0000  0.0000
  o =  0.7694  v =  0.0000  0.0000  0.0000  0.0000  0.0000  0.0000  0.0000  0.0000  1.0000  0.0000      0.0000  0.0000  0.0000  0.0000  0.0000  0.0000  0.0000  0.0000  0.0000  0.0000
  o =  0.7694  v =  0.0000  0.0000  0.0000  0.0000  0.0000  0.0000  0.0000  0.0000  0.0000  1.0000      0.0000  0.0000  0.0000  0.0000  0.0000  0.0000  0.0000  0.0000  0.0000  0.0000
atom =   2  type =  1  l = 2
 
 onsite density matrix
 
spin component  1
 
  0.7694  0.0000  0.0000  0.0000  0.0000
  0.0000  0.7694  0.0000  0.0000  0.0000
  0.0000  0.0000  0.7694  0.0000  0.0000
  0.0000  0.0000  0.0000  0.7694  0.0000
  0.0000  0.0000  0.0000  0.0000  0.7694
 
spin component  2
 
  0.2835  0.0000  0.0000  0.0000  0.0000
  0.0000  0.2835  0.0000  0.0000  0.0000
  0.0000  0.0000  0.2835  0.0000  0.0000
  0.0000  0.0000  0.0000  0.2835  0.0000
  0.0000  0.0000  0.0000  0.0000  0.2835
 
 occupancies and eigenvectors
 
  o =  0.2835  v =  0.0000  0.0000  0.0000  0.0000  0.0000  1.0000  0.0000  0.0000  0.0000  0.0000      0.0000  0.0000  0.0000  0.0000  0.0000  0.0000  0.0000  0.0000  0.0000  0.0000
  o =  0.2835  v =  0.0000  0.0000  0.0000  0.0000  0.0000  0.0000  1.0000  0.0000  0.0000  0.0000      0.0000  0.0000  0.0000  0.0000  0.0000  0.0000  0.0000  0.0000  0.0000  0.0000
  o =  0.2835  v =  0.0000  0.0000  0.0000  0.0000  0.0000  0.0000  0.0000  1.0000  0.0000  0.0000      0.0000  0.0000  0.0000  0.0000  0.0000  0.0000  0.0000  0.0000  0.0000  0.0000
  o =  0.2835  v =  0.0000  0.0000  0.0000  0.0000  0.0000  0.0000  0.0000  0.0000  1.0000  0.0000      0.0000  0.0000  0.0000  0.0000  0.0000  0.0000  0.0000  0.0000  0.0000  0.0000
  o =  0.2835  v =  0.0000  0.0000  0.0000  0.0000  0.0000  0.0000  0.0000  0.0000  0.0000  1.0000      0.0000  0.0000  0.0000  0.0000  0.0000  0.0000  0.0000  0.0000  0.0000  0.0000
  o =  0.7694  v =  1.0000  0.0000  0.0000  0.0000  0.0000  0.0000  0.0000  0.0000  0.0000  0.0000      0.0000  0.0000  0.0000  0.0000  0.0000  0.0000  0.0000  0.0000  0.0000  0.0000
  o =  0.7694  v =  0.0000  1.0000  0.0000  0.0000  0.0000  0.0000  0.0000  0.0000  0.0000  0.0000      0.0000  0.0000  0.0000  0.0000  0.0000  0.0000  0.0000  0.0000  0.0000  0.0000
  o =  0.7694  v =  0.0000  0.0000  1.0000  0.0000  0.0000  0.0000  0.0000  0.0000  0.0000  0.0000      0.0000  0.0000  0.0000  0.0000  0.0000  0.0000  0.0000  0.0000  0.0000  0.0000
  o =  0.7694  v =  0.0000  0.0000  0.0000  1.0000  0.0000  0.0000  0.0000  0.0000  0.0000  0.0000      0.0000  0.0000  0.0000  0.0000  0.0000  0.0000  0.0000  0.0000  0.0000  0.0000
  o =  0.7694  v =  0.0000  0.0000  0.0000  0.0000  1.0000  0.0000  0.0000  0.0000  0.0000  0.0000      0.0000  0.0000  0.0000  0.0000  0.0000  0.0000  0.0000  0.0000  0.0000  0.0000
     EDDAV:  cpu time    0.5495: real time    0.5688
 BZINTS: Fermi energy: 23.997704; 54.000000 electrons
         Band energy: 315.649161;  BLOECHL correction: -0.271579
       DOS:  cpu time    0.0067: real time    0.0067
    --------------------------------------------
      LOOP:  cpu time    1.3614: real time    1.3807

 eigenvalue-minimisations  :  1344
 total energy-change (2. order) : 0.9041762E+03  (-0.3424594E+04)
 number of electron      54.0000000 magnetization       0.0000000
 augmentation part       54.0000000 magnetization       0.0000000

 Free energy of the ion-electron system (eV)
  ---------------------------------------------------
  alpha Z        PSCENC =       199.67022127
  Ewald energy   TEWEN  =     -4205.05624217
  -Hartree energ DENC   =     -2129.40008906
  -exchange      EXHF   =         0.00000000
  -V(xc)+E(xc)   XCENC  =        -3.96107846
  PAW double counting   =      5566.43601843    -5528.13058630
  entropy T*S    EENTRO =         0.00000000
  eigenvalues    EBANDS =       315.64916060
  atomic energy  EATOM  =      6688.96875309
  Solvation  Ediel_sol  =         0.00000000
  ---------------------------------------------------
  free energy    TOTEN  =       904.17615743 eV

  energy without entropy =      904.17615743  energy(sigma->0) =      904.17615743


--------------------------------------------------------------------------------------------------------




--------------------------------------- Iteration      1(   2)  ---------------------------------------


     EDDAV:  cpu time    0.5858: real time    0.5858
 BZINTS: Fermi energy: 11.903804; 54.019226 electrons
         Band energy:-191.626997;  BLOECHL correction: -0.012872
       DOS:  cpu time    0.0085: real time    0.0085
    --------------------------------------------
      LOOP:  cpu time    0.5943: real time    0.5943

 eigenvalue-minimisations  :  1488
 total energy-change (2. order) :-0.5072762E+03  (-0.4869010E+03)
 number of electron      54.0000000 magnetization       0.0000000
 augmentation part       54.0000000 magnetization       0.0000000

 Free energy of the ion-electron system (eV)
  ---------------------------------------------------
  alpha Z        PSCENC =       199.67022127
  Ewald energy   TEWEN  =     -4205.05624217
  -Hartree energ DENC   =     -2129.40008906
  -exchange      EXHF   =         0.00000000
  -V(xc)+E(xc)   XCENC  =        -3.96107846
  PAW double counting   =      5566.43601843    -5528.13058630
  entropy T*S    EENTRO =         0.00000000
  eigenvalues    EBANDS =      -191.62699723
  atomic energy  EATOM  =      6688.96875309
  Solvation  Ediel_sol  =         0.00000000
  ---------------------------------------------------
  free energy    TOTEN  =       396.89999959 eV

  energy without entropy =      396.89999959  energy(sigma->0) =      396.89999959


--------------------------------------------------------------------------------------------------------




--------------------------------------- Iteration      1(   3)  ---------------------------------------


     EDDAV:  cpu time    0.5944: real time    0.5944
 BZINTS: Fermi energy:  9.973151; 54.000000 electrons
         Band energy:-222.291109;  BLOECHL correction:  0.000000
       DOS:  cpu time    0.0013: real time    0.0013
    --------------------------------------------
      LOOP:  cpu time    0.5957: real time    0.5957

 eigenvalue-minimisations  :  1512
 total energy-change (2. order) :-0.3066411E+02  (-0.3022784E+02)
 number of electron      54.0000000 magnetization       0.0000000
 augmentation part       54.0000000 magnetization       0.0000000

 Free energy of the ion-electron system (eV)
  ---------------------------------------------------
  alpha Z        PSCENC =       199.67022127
  Ewald energy   TEWEN  =     -4205.05624217
  -Hartree energ DENC   =     -2129.40008906
  -exchange      EXHF   =         0.00000000
  -V(xc)+E(xc)   XCENC  =        -3.96107846
  PAW double counting   =      5566.43601843    -5528.13058630
  entropy T*S    EENTRO =         0.00000000
  eigenvalues    EBANDS =      -222.29110913
  atomic energy  EATOM  =      6688.96875309
  Solvation  Ediel_sol  =         0.00000000
  ---------------------------------------------------
  free energy    TOTEN  =       366.23588769 eV

  energy without entropy =      366.23588769  energy(sigma->0) =      366.23588769


--------------------------------------------------------------------------------------------------------




--------------------------------------- Iteration      1(   4)  ---------------------------------------


     EDDAV:  cpu time    0.5941: real time    0.5941
 BZINTS: Fermi energy:  9.928607; 54.000000 electrons
         Band energy:-222.647871;  BLOECHL correction:  0.000000
       DOS:  cpu time    0.0013: real time    0.0013
    --------------------------------------------
      LOOP:  cpu time    0.5955: real time    0.5955

 eigenvalue-minimisations  :  1524
 total energy-change (2. order) :-0.3567616E+00  (-0.3564670E+00)
 number of electron      54.0000000 magnetization       0.0000000
 augmentation part       54.0000000 magnetization       0.0000000

 Free energy of the ion-electron system (eV)
  ---------------------------------------------------
  alpha Z        PSCENC =       199.67022127
  Ewald energy   TEWEN  =     -4205.05624217
  -Hartree energ DENC   =     -2129.40008906
  -exchange      EXHF   =         0.00000000
  -V(xc)+E(xc)   XCENC  =        -3.96107846
  PAW double counting   =      5566.43601843    -5528.13058630
  entropy T*S    EENTRO =         0.00000000
  eigenvalues    EBANDS =      -222.64787074
  atomic energy  EATOM  =      6688.96875309
  Solvation  Ediel_sol  =         0.00000000
  ---------------------------------------------------
  free energy    TOTEN  =       365.87912608 eV

  energy without entropy =      365.87912608  energy(sigma->0) =      365.87912608


--------------------------------------------------------------------------------------------------------




--------------------------------------- Iteration      1(   5)  ---------------------------------------


     EDDAV:  cpu time    0.5907: real time    0.5907
 BZINTS: Fermi energy:  9.938058; 54.000000 electrons
         Band energy:-222.653656;  BLOECHL correction:  0.000000
       DOS:  cpu time    0.0013: real time    0.0013
    CHARGE:  cpu time    0.1135: real time    0.1135
    MIXING:  cpu time    0.0004: real time    0.0004
    --------------------------------------------
      LOOP:  cpu time    0.7060: real time    0.7060

 eigenvalue-minimisations  :  1512
 total energy-change (2. order) :-0.5784981E-02  (-0.5784716E-02)
 number of electron      53.9999996 magnetization      -0.0000000
 augmentation part       22.6061258 magnetization      -0.0000000

 Broyden mixing:
  rms(total) = 0.58772E+01    rms(broyden)= 0.58758E+01
  rms(prec ) = 0.60988E+01
  weight for this iteration     100.00

 Free energy of the ion-electron system (eV)
  ---------------------------------------------------
  alpha Z        PSCENC =       199.67022127
  Ewald energy   TEWEN  =     -4205.05624217
  -Hartree energ DENC   =     -2129.40008906
  -exchange      EXHF   =         0.00000000
  -V(xc)+E(xc)   XCENC  =        -3.96107846
  PAW double counting   =      5566.43601843    -5528.13058630
  entropy T*S    EENTRO =         0.00000000
  eigenvalues    EBANDS =      -222.65365572
  atomic energy  EATOM  =      6688.96875309
  Solvation  Ediel_sol  =         0.00000000
  ---------------------------------------------------
  free energy    TOTEN  =       365.87334110 eV

  energy without entropy =      365.87334110  energy(sigma->0) =      365.87334110


--------------------------------------------------------------------------------------------------------




--------------------------------------- Iteration      1(   6)  ---------------------------------------


    POTLOK:  cpu time    0.0275: real time    0.0275
    SETDIJ:  cpu time    0.7887: real time    0.7887
atom =   1  type =  1  l = 2
 
 onsite density matrix
 
spin component  1
 
  0.0292  0.0000  0.0645  0.0000 -0.0000
  0.0000  0.0033  0.0000  0.0596  0.0000
  0.0645  0.0000 -0.0072  0.0000  0.0000
  0.0000  0.0596  0.0000  0.0033  0.0000
 -0.0000  0.0000  0.0000  0.0000 -0.0707
 
spin component  2
 
  1.0603  0.0000 -0.0304  0.0000  0.0000
  0.0000  1.0735  0.0000 -0.0284  0.0000
 -0.0304  0.0000  1.0768  0.0000 -0.0000
  0.0000 -0.0284  0.0000  1.0735  0.0000
  0.0000  0.0000 -0.0000  0.0000  1.1090
 
 occupancies and eigenvectors
 
  o = -0.0707  v =  0.0000  0.0000 -0.0000  0.0000  1.0000  0.0000  0.0000  0.0000  0.0000  0.0000      0.0000  0.0000  0.0000  0.0000  0.0000  0.0000  0.0000  0.0000  0.0000  0.0000
  o = -0.0563  v =  0.0000  0.7071  0.0000 -0.7071 -0.0000  0.0000  0.0000  0.0000  0.0000  0.0000      0.0000  0.0000  0.0000  0.0000  0.0000  0.0000  0.0000  0.0000  0.0000  0.0000
  o = -0.0560  v = -0.6032  0.0000  0.7976  0.0000  0.0000  0.0000  0.0000  0.0000  0.0000  0.0000      0.0000  0.0000  0.0000  0.0000  0.0000  0.0000  0.0000  0.0000  0.0000  0.0000
  o =  0.0629  v =  0.0000 -0.7071  0.0000 -0.7071  0.0000  0.0000  0.0000  0.0000  0.0000  0.0000      0.0000  0.0000  0.0000  0.0000  0.0000  0.0000  0.0000  0.0000  0.0000  0.0000
  o =  0.0780  v =  0.7976  0.0000  0.6032  0.0000  0.0000  0.0000  0.0000  0.0000  0.0000  0.0000      0.0000  0.0000  0.0000  0.0000  0.0000  0.0000  0.0000  0.0000  0.0000  0.0000
  o =  1.0370  v =  0.0000  0.0000  0.0000  0.0000  0.0000  0.7947 -0.0000  0.6070 -0.0000  0.0000      0.0000  0.0000  0.0000  0.0000  0.0000  0.0000  0.0000  0.0000  0.0000  0.0000
  o =  1.0451  v =  0.0000  0.0000  0.0000  0.0000  0.0000 -0.0000 -0.7071 -0.0000 -0.7071 -0.0000      0.0000  0.0000  0.0000  0.0000  0.0000  0.0000  0.0000  0.0000  0.0000  0.0000
  o =  1.1001  v =  0.0000  0.0000  0.0000  0.0000  0.0000 -0.6070 -0.0000  0.7947  0.0000  0.0000      0.0000  0.0000  0.0000  0.0000  0.0000  0.0000  0.0000  0.0000  0.0000  0.0000
  o =  1.1020  v =  0.0000  0.0000  0.0000  0.0000  0.0000  0.0000 -0.7071 -0.0000  0.7071 -0.0000      0.0000  0.0000  0.0000  0.0000  0.0000  0.0000  0.0000  0.0000  0.0000  0.0000
  o =  1.1090  v =  0.0000  0.0000  0.0000  0.0000  0.0000 -0.0000  0.0000  0.0000 -0.0000 -1.0000      0.0000  0.0000  0.0000  0.0000  0.0000  0.0000  0.0000  0.0000  0.0000  0.0000
atom =   2  type =  1  l = 2
 
 onsite density matrix
 
spin component  1
 
  1.0603  0.0000  0.0304  0.0000 -0.0000
  0.0000  1.0735  0.0000  0.0284  0.0000
  0.0304  0.0000  1.0768  0.0000  0.0000
  0.0000  0.0284  0.0000  1.0735  0.0000
 -0.0000  0.0000  0.0000  0.0000  1.1090
 
spin component  2
 
  0.0292  0.0000 -0.0645  0.0000  0.0000
  0.0000  0.0033  0.0000 -0.0596  0.0000
 -0.0645  0.0000 -0.0072  0.0000  0.0000
  0.0000 -0.0596  0.0000  0.0033  0.0000
  0.0000  0.0000  0.0000  0.0000 -0.0707
 
 occupancies and eigenvectors
 
  o = -0.0707  v =  0.0000  0.0000  0.0000  0.0000  0.0000  0.0000  0.0000  0.0000  0.0000 -1.0000      0.0000  0.0000  0.0000  0.0000  0.0000  0.0000  0.0000  0.0000  0.0000  0.0000
  o = -0.0563  v =  0.0000  0.0000  0.0000  0.0000  0.0000  0.0000  0.7071  0.0000  0.7071  0.0000      0.0000  0.0000  0.0000  0.0000  0.0000  0.0000  0.0000  0.0000  0.0000  0.0000
  o = -0.0560  v =  0.0000  0.0000  0.0000  0.0000  0.0000 -0.6032  0.0000 -0.7976  0.0000 -0.0000      0.0000  0.0000  0.0000  0.0000  0.0000  0.0000  0.0000  0.0000  0.0000  0.0000
  o =  0.0629  v =  0.0000  0.0000  0.0000  0.0000  0.0000  0.0000  0.7071  0.0000 -0.7071  0.0000      0.0000  0.0000  0.0000  0.0000  0.0000  0.0000  0.0000  0.0000  0.0000  0.0000
  o =  0.0780  v =  0.0000  0.0000  0.0000  0.0000  0.0000  0.7976  0.0000 -0.6032  0.0000 -0.0000      0.0000  0.0000  0.0000  0.0000  0.0000  0.0000  0.0000  0.0000  0.0000  0.0000
  o =  1.0370  v = -0.7947  0.0000  0.6070  0.0000 -0.0000  0.0000  0.0000  0.0000  0.0000  0.0000      0.0000  0.0000  0.0000  0.0000  0.0000  0.0000  0.0000  0.0000  0.0000  0.0000
  o =  1.0451  v =  0.0000 -0.7071 -0.0000  0.7071 -0.0000  0.0000  0.0000  0.0000  0.0000  0.0000      0.0000  0.0000  0.0000  0.0000  0.0000  0.0000  0.0000  0.0000  0.0000  0.0000
  o =  1.1001  v = -0.6070  0.0000 -0.7947  0.0000  0.0000  0.0000  0.0000  0.0000  0.0000  0.0000      0.0000  0.0000  0.0000  0.0000  0.0000  0.0000  0.0000  0.0000  0.0000  0.0000
  o =  1.1020  v =  0.0000 -0.7071 -0.0000 -0.7071 -0.0000  0.0000  0.0000  0.0000  0.0000  0.0000      0.0000  0.0000  0.0000  0.0000  0.0000  0.0000  0.0000  0.0000  0.0000  0.0000
  o =  1.1090  v =  0.0000  0.0000 -0.0000  0.0000 -1.0000  0.0000  0.0000  0.0000  0.0000  0.0000      0.0000  0.0000  0.0000  0.0000  0.0000  0.0000  0.0000  0.0000  0.0000  0.0000
     EDDAV:  cpu time    0.6077: real time    0.6077
 BZINTS: Fermi energy:  6.916318; 54.000000 electrons
         Band energy:-734.824613;  BLOECHL correction: -0.009208
       DOS:  cpu time    0.0067: real time    0.0067
    CHARGE:  cpu time    0.1134: real time    0.1134
    MIXING:  cpu time    0.0004: real time    0.0004
    --------------------------------------------
      LOOP:  cpu time    1.5444: real time    1.5445

 eigenvalue-minimisations  :  1572
 total energy-change (2. order) :-0.4350353E+03  (-0.2667734E+02)
 number of electron      53.9999996 magnetization      -0.0000000
 augmentation part       19.7059002 magnetization      -0.0000000

 Broyden mixing:
  rms(total) = 0.62485E+01    rms(broyden)= 0.62483E+01
  rms(prec ) = 0.67281E+01
  weight for this iteration     100.00

 eigenvalues of (default mixing * dielectric matrix)
  average eigenvalue GAMMA=   0.4173
  0.4173

 Free energy of the ion-electron system (eV)
  ---------------------------------------------------
  alpha Z        PSCENC =       199.67022127
  Ewald energy   TEWEN  =     -4205.05624217
  -Hartree energ DENC   =     -2196.03369976
  -exchange      EXHF   =         0.00000000
  -V(xc)+E(xc)   XCENC  =       144.57463648
  PAW double counting   =      6434.17158518    -6400.63259228
  entropy T*S    EENTRO =         0.00000000
  eigenvalues    EBANDS =      -734.82461296
  atomic energy  EATOM  =      6688.96875309
  Solvation  Ediel_sol  =         0.00000000
  ---------------------------------------------------
  free energy    TOTEN  =       -69.16195114 eV

  energy without entropy =      -69.16195114  energy(sigma->0) =      -69.16195114


--------------------------------------------------------------------------------------------------------




--------------------------------------- Iteration      1(   7)  ---------------------------------------


    POTLOK:  cpu time    0.0277: real time    0.0277
    SETDIJ:  cpu time    0.7747: real time    0.7747
atom =   1  type =  1  l = 2
 
 onsite density matrix
 
spin component  1
 
  0.0815  0.0000  0.0349  0.0000 -0.0000
  0.0000  0.0534  0.0000  0.0243  0.0000
  0.0349  0.0000  0.0559  0.0000  0.0000
  0.0000  0.0243  0.0000  0.0534  0.0000
 -0.0000  0.0000  0.0000  0.0000  0.0197
 
spin component  2
 
  0.9763  0.0000 -0.0043  0.0000 -0.0000
  0.0000  1.0027  0.0000  0.0081  0.0000
 -0.0043  0.0000  0.9895  0.0000 -0.0000
  0.0000  0.0081  0.0000  1.0027  0.0000
 -0.0000  0.0000 -0.0000  0.0000  0.9980
 
 occupancies and eigenvectors
 
  o =  0.0197  v =  0.0000  0.0000 -0.0000  0.0000  1.0000  0.0000  0.0000  0.0000  0.0000  0.0000      0.0000  0.0000  0.0000  0.0000  0.0000  0.0000  0.0000  0.0000  0.0000  0.0000
  o =  0.0290  v =  0.0000  0.7071  0.0000 -0.7071 -0.0000  0.0000  0.0000  0.0000  0.0000  0.0000      0.0000  0.0000  0.0000  0.0000  0.0000  0.0000  0.0000  0.0000  0.0000  0.0000
  o =  0.0315  v = -0.5722  0.0000  0.8201  0.0000  0.0000  0.0000  0.0000  0.0000  0.0000  0.0000      0.0000  0.0000  0.0000  0.0000  0.0000  0.0000  0.0000  0.0000  0.0000  0.0000
  o =  0.0777  v =  0.0000 -0.7071  0.0000 -0.7071  0.0000  0.0000  0.0000  0.0000  0.0000  0.0000      0.0000  0.0000  0.0000  0.0000  0.0000  0.0000  0.0000  0.0000  0.0000  0.0000
  o =  0.1058  v = -0.8201 -0.0000 -0.5722  0.0000 -0.0000  0.0000  0.0000  0.0000  0.0000  0.0000      0.0000  0.0000  0.0000  0.0000  0.0000  0.0000  0.0000  0.0000  0.0000  0.0000
  o =  0.9751  v =  0.0000  0.0000  0.0000  0.0000  0.0000 -0.9583  0.0000 -0.2857  0.0000 -0.0000      0.0000  0.0000  0.0000  0.0000  0.0000  0.0000  0.0000  0.0000  0.0000  0.0000
  o =  0.9908  v =  0.0000  0.0000  0.0000  0.0000  0.0000 -0.2857  0.0000  0.9583  0.0000  0.0000      0.0000  0.0000  0.0000  0.0000  0.0000  0.0000  0.0000  0.0000  0.0000  0.0000
  o =  0.9945  v =  0.0000  0.0000  0.0000  0.0000  0.0000  0.0000 -0.7071  0.0000  0.7071  0.0000      0.0000  0.0000  0.0000  0.0000  0.0000  0.0000  0.0000  0.0000  0.0000  0.0000
  o =  0.9980  v =  0.0000  0.0000  0.0000  0.0000  0.0000  0.0000  0.0000 -0.0000  0.0000  1.0000      0.0000  0.0000  0.0000  0.0000  0.0000  0.0000  0.0000  0.0000  0.0000  0.0000
  o =  1.0108  v =  0.0000  0.0000  0.0000  0.0000  0.0000  0.0000 -0.7071  0.0000 -0.7071  0.0000      0.0000  0.0000  0.0000  0.0000  0.0000  0.0000  0.0000  0.0000  0.0000  0.0000
atom =   2  type =  1  l = 2
 
 onsite density matrix
 
spin component  1
 
  0.9763  0.0000  0.0043  0.0000 -0.0000
  0.0000  1.0027  0.0000 -0.0081  0.0000
  0.0043  0.0000  0.9895  0.0000  0.0000
  0.0000 -0.0081  0.0000  1.0027  0.0000
 -0.0000  0.0000  0.0000  0.0000  0.9980
 
spin component  2
 
  0.0815  0.0000 -0.0349  0.0000 -0.0000
  0.0000  0.0534  0.0000 -0.0243  0.0000
 -0.0349  0.0000  0.0559  0.0000  0.0000
  0.0000 -0.0243  0.0000  0.0534  0.0000
 -0.0000  0.0000  0.0000  0.0000  0.0197
 
 occupancies and eigenvectors
 
  o =  0.0197  v =  0.0000  0.0000  0.0000  0.0000  0.0000  0.0000  0.0000  0.0000  0.0000 -1.0000      0.0000  0.0000  0.0000  0.0000  0.0000  0.0000  0.0000  0.0000  0.0000  0.0000
  o =  0.0290  v =  0.0000  0.0000  0.0000  0.0000  0.0000 -0.0000  0.7071 -0.0000  0.7071  0.0000      0.0000  0.0000  0.0000  0.0000  0.0000  0.0000  0.0000  0.0000  0.0000  0.0000
  o =  0.0315  v =  0.0000  0.0000  0.0000  0.0000  0.0000 -0.5722 -0.0000 -0.8201 -0.0000 -0.0000      0.0000  0.0000  0.0000  0.0000  0.0000  0.0000  0.0000  0.0000  0.0000  0.0000
  o =  0.0777  v =  0.0000  0.0000  0.0000  0.0000  0.0000  0.0000  0.7071  0.0000 -0.7071  0.0000      0.0000  0.0000  0.0000  0.0000  0.0000  0.0000  0.0000  0.0000  0.0000  0.0000
  o =  0.1058  v =  0.0000  0.0000  0.0000  0.0000  0.0000 -0.8201  0.0000  0.5722 -0.0000  0.0000      0.0000  0.0000  0.0000  0.0000  0.0000  0.0000  0.0000  0.0000  0.0000  0.0000
  o =  0.9751  v = -0.9583  0.0000  0.2857  0.0000 -0.0000  0.0000  0.0000  0.0000  0.0000  0.0000      0.0000  0.0000  0.0000  0.0000  0.0000  0.0000  0.0000  0.0000  0.0000  0.0000
  o =  0.9908  v = -0.2857  0.0000 -0.9583  0.0000  0.0000  0.0000  0.0000  0.0000  0.0000  0.0000      0.0000  0.0000  0.0000  0.0000  0.0000  0.0000  0.0000  0.0000  0.0000  0.0000
  o =  0.9945  v =  0.0000  0.7071 -0.0000  0.7071 -0.0000  0.0000  0.0000  0.0000  0.0000  0.0000      0.0000  0.0000  0.0000  0.0000  0.0000  0.0000  0.0000  0.0000  0.0000  0.0000
  o =  0.9980  v =  0.0000  0.0000  0.0000  0.0000  1.0000  0.0000  0.0000  0.0000  0.0000  0.0000      0.0000  0.0000  0.0000  0.0000  0.0000  0.0000  0.0000  0.0000  0.0000  0.0000
  o =  1.0108  v =  0.0000 -0.7071 -0.0000  0.7071 -0.0000  0.0000  0.0000  0.0000  0.0000  0.0000      0.0000  0.0000  0.0000  0.0000  0.0000  0.0000  0.0000  0.0000  0.0000  0.0000
     EDDAV:  cpu time    0.5517: real time    0.5517
 BZINTS: Fermi energy:  4.940299; 54.000000 electrons
         Band energy:-778.019433;  BLOECHL correction:  0.000000
       DOS:  cpu time    0.0012: real time    0.0012
    CHARGE:  cpu time    0.1098: real time    0.1098
    MIXING:  cpu time    0.0005: real time    0.0005
    --------------------------------------------
      LOOP:  cpu time    1.4655: real time    1.4655

 eigenvalue-minimisations  :  1356
 total energy-change (2. order) :-0.2372574E+01  (-0.4796086E+01)
 number of electron      53.9999997 magnetization      -0.0000000
 augmentation part       19.7113225 magnetization      -0.0000000

 Broyden mixing:
  rms(total) = 0.17092E+01    rms(broyden)= 0.17085E+01
  rms(prec ) = 0.25134E+01
  weight for this iteration     100.00

 eigenvalues of (default mixing * dielectric matrix)
  average eigenvalue GAMMA=   0.6954
  0.6954  0.6954

 Free energy of the ion-electron system (eV)
  ---------------------------------------------------
  alpha Z        PSCENC =       199.67022127
  Ewald energy   TEWEN  =     -4205.05624217
  -Hartree energ DENC   =     -2177.99656746
  -exchange      EXHF   =         0.00000000
  -V(xc)+E(xc)   XCENC  =       167.70724426
  PAW double counting   =      6492.23302739    -6459.04152931
  entropy T*S    EENTRO =         0.00000000
  eigenvalues    EBANDS =      -778.01943251
  atomic energy  EATOM  =      6688.96875309
  Solvation  Ediel_sol  =         0.00000000
  ---------------------------------------------------
  free energy    TOTEN  =       -71.53452544 eV

  energy without entropy =      -71.53452544  energy(sigma->0) =      -71.53452544


--------------------------------------------------------------------------------------------------------




--------------------------------------- Iteration      1(   8)  ---------------------------------------


    POTLOK:  cpu time    0.0276: real time    0.0276
    SETDIJ:  cpu time    0.7745: real time    0.7745
atom =   1  type =  1  l = 2
 
 onsite density matrix
 
spin component  1
 
  0.0460  0.0000  0.0149  0.0000  0.0000
  0.0000  0.0493  0.0000  0.0211  0.0000
  0.0149  0.0000  0.0425  0.0000  0.0000
  0.0000  0.0211  0.0000  0.0493  0.0000
  0.0000  0.0000  0.0000  0.0000  0.0241
 
spin component  2
 
  0.9915  0.0000  0.0221  0.0000 -0.0000
  0.0000  0.9817  0.0000  0.0124  0.0000
  0.0221  0.0000  0.9785  0.0000  0.0000
  0.0000  0.0124  0.0000  0.9817  0.0000
 -0.0000  0.0000  0.0000  0.0000  0.9685
 
 occupancies and eigenvectors
 
  o =  0.0241  v = -0.0000 -0.0000  0.0000  0.0000 -1.0000  0.0000  0.0000  0.0000  0.0000  0.0000      0.0000  0.0000  0.0000  0.0000  0.0000  0.0000  0.0000  0.0000  0.0000  0.0000
  o =  0.0282  v = -0.0000  0.7071  0.0000 -0.7071  0.0000  0.0000  0.0000  0.0000  0.0000  0.0000      0.0000  0.0000  0.0000  0.0000  0.0000  0.0000  0.0000  0.0000  0.0000  0.0000
  o =  0.0293  v = -0.6646 -0.0000  0.7472  0.0000  0.0000  0.0000  0.0000  0.0000  0.0000  0.0000      0.0000  0.0000  0.0000  0.0000  0.0000  0.0000  0.0000  0.0000  0.0000  0.0000
  o =  0.0592  v = -0.7472 -0.0000 -0.6646 -0.0000 -0.0000  0.0000  0.0000  0.0000  0.0000  0.0000      0.0000  0.0000  0.0000  0.0000  0.0000  0.0000  0.0000  0.0000  0.0000  0.0000
  o =  0.0704  v = -0.0000  0.7071 -0.0000  0.7071  0.0000  0.0000  0.0000  0.0000  0.0000  0.0000      0.0000  0.0000  0.0000  0.0000  0.0000  0.0000  0.0000  0.0000  0.0000  0.0000
  o =  0.9619  v =  0.0000  0.0000  0.0000  0.0000  0.0000 -0.5990  0.0000  0.8008  0.0000 -0.0000      0.0000  0.0000  0.0000  0.0000  0.0000  0.0000  0.0000  0.0000  0.0000  0.0000
  o =  0.9685  v =  0.0000  0.0000  0.0000  0.0000  0.0000  0.0000  0.0000  0.0000  0.0000  1.0000      0.0000  0.0000  0.0000  0.0000  0.0000  0.0000  0.0000  0.0000  0.0000  0.0000
  o =  0.9694  v =  0.0000  0.0000  0.0000  0.0000  0.0000  0.0000  0.7071  0.0000 -0.7071 -0.0000      0.0000  0.0000  0.0000  0.0000  0.0000  0.0000  0.0000  0.0000  0.0000  0.0000
  o =  0.9941  v =  0.0000  0.0000  0.0000  0.0000  0.0000  0.0000 -0.7071  0.0000 -0.7071  0.0000      0.0000  0.0000  0.0000  0.0000  0.0000  0.0000  0.0000  0.0000  0.0000  0.0000
  o =  1.0081  v =  0.0000  0.0000  0.0000  0.0000  0.0000 -0.8008  0.0000 -0.5990  0.0000  0.0000      0.0000  0.0000  0.0000  0.0000  0.0000  0.0000  0.0000  0.0000  0.0000  0.0000
atom =   2  type =  1  l = 2
 
 onsite density matrix
 
spin component  1
 
  0.9915  0.0000 -0.0221  0.0000 -0.0000
  0.0000  0.9817  0.0000 -0.0124  0.0000
 -0.0221  0.0000  0.9785  0.0000  0.0000
  0.0000 -0.0124  0.0000  0.9817  0.0000
 -0.0000  0.0000  0.0000  0.0000  0.9685
 
spin component  2
 
  0.0460  0.0000 -0.0149  0.0000 -0.0000
  0.0000  0.0493  0.0000 -0.0211  0.0000
 -0.0149  0.0000  0.0425  0.0000  0.0000
  0.0000 -0.0211  0.0000  0.0493  0.0000
 -0.0000  0.0000  0.0000  0.0000  0.0241
 
 occupancies and eigenvectors
 
  o =  0.0241  v =  0.0000  0.0000  0.0000  0.0000  0.0000  0.0000 -0.0000  0.0000  0.0000 -1.0000      0.0000  0.0000  0.0000  0.0000  0.0000  0.0000  0.0000  0.0000  0.0000  0.0000
  o =  0.0282  v =  0.0000  0.0000  0.0000  0.0000  0.0000  0.0000  0.7071  0.0000  0.7071 -0.0000      0.0000  0.0000  0.0000  0.0000  0.0000  0.0000  0.0000  0.0000  0.0000  0.0000
  o =  0.0293  v =  0.0000  0.0000  0.0000  0.0000  0.0000 -0.6646 -0.0000 -0.7472  0.0000 -0.0000      0.0000  0.0000  0.0000  0.0000  0.0000  0.0000  0.0000  0.0000  0.0000  0.0000
  o =  0.0592  v =  0.0000  0.0000  0.0000  0.0000  0.0000 -0.7472  0.0000  0.6646  0.0000  0.0000      0.0000  0.0000  0.0000  0.0000  0.0000  0.0000  0.0000  0.0000  0.0000  0.0000
  o =  0.0704  v =  0.0000  0.0000  0.0000  0.0000  0.0000  0.0000  0.7071  0.0000 -0.7071 -0.0000      0.0000  0.0000  0.0000  0.0000  0.0000  0.0000  0.0000  0.0000  0.0000  0.0000
  o =  0.9619  v = -0.5990  0.0000 -0.8008  0.0000 -0.0000  0.0000  0.0000  0.0000  0.0000  0.0000      0.0000  0.0000  0.0000  0.0000  0.0000  0.0000  0.0000  0.0000  0.0000  0.0000
  o =  0.9685  v =  0.0000 -0.0000  0.0000  0.0000 -1.0000  0.0000  0.0000  0.0000  0.0000  0.0000      0.0000  0.0000  0.0000  0.0000  0.0000  0.0000  0.0000  0.0000  0.0000  0.0000
  o =  0.9694  v =  0.0000  0.7071  0.0000  0.7071 -0.0000  0.0000  0.0000  0.0000  0.0000  0.0000      0.0000  0.0000  0.0000  0.0000  0.0000  0.0000  0.0000  0.0000  0.0000  0.0000
  o =  0.9941  v =  0.0000  0.7071  0.0000 -0.7071 -0.0000  0.0000  0.0000  0.0000  0.0000  0.0000      0.0000  0.0000  0.0000  0.0000  0.0000  0.0000  0.0000  0.0000  0.0000  0.0000
  o =  1.0081  v = -0.8008  0.0000  0.5990  0.0000  0.0000  0.0000  0.0000  0.0000  0.0000  0.0000      0.0000  0.0000  0.0000  0.0000  0.0000  0.0000  0.0000  0.0000  0.0000  0.0000
     EDDAV:  cpu time    0.6020: real time    0.6020
 BZINTS: Fermi energy:  3.301779; 54.000000 electrons
         Band energy:-787.326209;  BLOECHL correction:  0.000000
       DOS:  cpu time    0.0012: real time    0.0012
    CHARGE:  cpu time    0.1094: real time    0.1094
    MIXING:  cpu time    0.0005: real time    0.0005
    --------------------------------------------
      LOOP:  cpu time    1.5151: real time    1.5151

 eigenvalue-minimisations  :  1560
 total energy-change (2. order) : 0.2902448E+01  (-0.6966414E+00)
 number of electron      53.9999997 magnetization      -0.0000000
 augmentation part       19.8672648 magnetization      -0.0000000

 Broyden mixing:
  rms(total) = 0.65685E+00    rms(broyden)= 0.65631E+00
  rms(prec ) = 0.98823E+00
  weight for this iteration     100.00

 eigenvalues of (default mixing * dielectric matrix)
  average eigenvalue GAMMA=   0.7747
  1.0090  0.6575  0.6575

 Free energy of the ion-electron system (eV)
  ---------------------------------------------------
  alpha Z        PSCENC =       199.67022127
  Ewald energy   TEWEN  =     -4205.05624217
  -Hartree energ DENC   =     -2170.43514486
  -exchange      EXHF   =         0.00000000
  -V(xc)+E(xc)   XCENC  =       170.51073010
  PAW double counting   =      6421.71820766    -6386.68239342
  entropy T*S    EENTRO =         0.00000000
  eigenvalues    EBANDS =      -787.32620910
  atomic energy  EATOM  =      6688.96875309
  Solvation  Ediel_sol  =         0.00000000
  ---------------------------------------------------
  free energy    TOTEN  =       -68.63207742 eV

  energy without entropy =      -68.63207742  energy(sigma->0) =      -68.63207742


--------------------------------------------------------------------------------------------------------




--------------------------------------- Iteration      1(   9)  ---------------------------------------


    POTLOK:  cpu time    0.0274: real time    0.0274
    SETDIJ:  cpu time    0.7742: real time    0.7742
atom =   1  type =  1  l = 2
 
 onsite density matrix
 
spin component  1
 
  0.0686  0.0000  0.0362  0.0000 -0.0000
  0.0000  0.0479  0.0000  0.0201  0.0000
  0.0362  0.0000  0.0477  0.0000 -0.0000
  0.0000  0.0201  0.0000  0.0479  0.0000
 -0.0000  0.0000 -0.0000  0.0000  0.0230
 
spin component  2
 
  0.9489  0.0000  0.0075  0.0000  0.0000
  0.0000  0.9576  0.0000  0.0158  0.0000
  0.0075  0.0000  0.9474  0.0000  0.0000
  0.0000  0.0158  0.0000  0.9576  0.0000
  0.0000  0.0000  0.0000  0.0000  0.9428
 
 occupancies and eigenvectors
 
  o =  0.0205  v = -0.6008  0.0000  0.7994  0.0000  0.0000  0.0000  0.0000  0.0000  0.0000  0.0000      0.0000  0.0000  0.0000  0.0000  0.0000  0.0000  0.0000  0.0000  0.0000  0.0000
  o =  0.0230  v = -0.0000 -0.0000  0.0000  0.0000 -1.0000  0.0000  0.0000  0.0000  0.0000  0.0000      0.0000  0.0000  0.0000  0.0000  0.0000  0.0000  0.0000  0.0000  0.0000  0.0000
  o =  0.0278  v =  0.0000  0.7071  0.0000 -0.7071 -0.0000  0.0000  0.0000  0.0000  0.0000  0.0000      0.0000  0.0000  0.0000  0.0000  0.0000  0.0000  0.0000  0.0000  0.0000  0.0000
  o =  0.0680  v =  0.0000  0.7071  0.0000  0.7071 -0.0000  0.0000  0.0000  0.0000  0.0000  0.0000      0.0000  0.0000  0.0000  0.0000  0.0000  0.0000  0.0000  0.0000  0.0000  0.0000
  o =  0.0958  v = -0.7994  0.0000 -0.6008  0.0000  0.0000  0.0000  0.0000  0.0000  0.0000  0.0000      0.0000  0.0000  0.0000  0.0000  0.0000  0.0000  0.0000  0.0000  0.0000  0.0000
  o =  0.9406  v =  0.0000  0.0000  0.0000  0.0000  0.0000 -0.6712 -0.0000  0.7413  0.0000 -0.0000      0.0000  0.0000  0.0000  0.0000  0.0000  0.0000  0.0000  0.0000  0.0000  0.0000
  o =  0.9417  v =  0.0000  0.0000  0.0000  0.0000  0.0000  0.0000  0.7071  0.0000 -0.7071 -0.0000      0.0000  0.0000  0.0000  0.0000  0.0000  0.0000  0.0000  0.0000  0.0000  0.0000
  o =  0.9428  v =  0.0000  0.0000  0.0000  0.0000  0.0000 -0.0000  0.0000  0.0000 -0.0000  1.0000      0.0000  0.0000  0.0000  0.0000  0.0000  0.0000  0.0000  0.0000  0.0000  0.0000
  o =  0.9556  v =  0.0000  0.0000  0.0000  0.0000  0.0000  0.7413  0.0000  0.6712 -0.0000  0.0000      0.0000  0.0000  0.0000  0.0000  0.0000  0.0000  0.0000  0.0000  0.0000  0.0000
  o =  0.9734  v =  0.0000  0.0000  0.0000  0.0000  0.0000  0.0000  0.7071 -0.0000  0.7071  0.0000      0.0000  0.0000  0.0000  0.0000  0.0000  0.0000  0.0000  0.0000  0.0000  0.0000
atom =   2  type =  1  l = 2
 
 onsite density matrix
 
spin component  1
 
  0.9489  0.0000 -0.0075  0.0000 -0.0000
  0.0000  0.9576  0.0000 -0.0158  0.0000
 -0.0075  0.0000  0.9474  0.0000 -0.0000
  0.0000 -0.0158  0.0000  0.9576  0.0000
 -0.0000  0.0000 -0.0000  0.0000  0.9428
 
spin component  2
 
  0.0686  0.0000 -0.0362  0.0000  0.0000
  0.0000  0.0479  0.0000 -0.0201  0.0000
 -0.0362  0.0000  0.0477  0.0000  0.0000
  0.0000 -0.0201  0.0000  0.0479  0.0000
  0.0000  0.0000  0.0000  0.0000  0.0230
 
 occupancies and eigenvectors
 
  o =  0.0205  v =  0.0000  0.0000  0.0000  0.0000  0.0000 -0.6008 -0.0000 -0.7994  0.0000  0.0000      0.0000  0.0000  0.0000  0.0000  0.0000  0.0000  0.0000  0.0000  0.0000  0.0000
  o =  0.0230  v =  0.0000  0.0000  0.0000  0.0000  0.0000 -0.0000  0.0000 -0.0000  0.0000 -1.0000      0.0000  0.0000  0.0000  0.0000  0.0000  0.0000  0.0000  0.0000  0.0000  0.0000
  o =  0.0278  v =  0.0000  0.0000  0.0000  0.0000  0.0000  0.0000 -0.7071  0.0000 -0.7071 -0.0000      0.0000  0.0000  0.0000  0.0000  0.0000  0.0000  0.0000  0.0000  0.0000  0.0000
  o =  0.0680  v =  0.0000  0.0000  0.0000  0.0000  0.0000  0.0000 -0.7071  0.0000  0.7071 -0.0000      0.0000  0.0000  0.0000  0.0000  0.0000  0.0000  0.0000  0.0000  0.0000  0.0000
  o =  0.0958  v =  0.0000  0.0000  0.0000  0.0000  0.0000 -0.7994 -0.0000  0.6008  0.0000  0.0000      0.0000  0.0000  0.0000  0.0000  0.0000  0.0000  0.0000  0.0000  0.0000  0.0000
  o =  0.9406  v = -0.6712  0.0000 -0.7413  0.0000 -0.0000  0.0000  0.0000  0.0000  0.0000  0.0000      0.0000  0.0000  0.0000  0.0000  0.0000  0.0000  0.0000  0.0000  0.0000  0.0000
  o =  0.9417  v = -0.0000 -0.7071 -0.0000 -0.7071  0.0000  0.0000  0.0000  0.0000  0.0000  0.0000      0.0000  0.0000  0.0000  0.0000  0.0000  0.0000  0.0000  0.0000  0.0000  0.0000
  o =  0.9428  v = -0.0000  0.0000 -0.0000  0.0000  1.0000  0.0000  0.0000  0.0000  0.0000  0.0000      0.0000  0.0000  0.0000  0.0000  0.0000  0.0000  0.0000  0.0000  0.0000  0.0000
  o =  0.9556  v = -0.7413  0.0000  0.6712  0.0000 -0.0000  0.0000  0.0000  0.0000  0.0000  0.0000      0.0000  0.0000  0.0000  0.0000  0.0000  0.0000  0.0000  0.0000  0.0000  0.0000
  o =  0.9734  v =  0.0000 -0.7071 -0.0000  0.7071  0.0000  0.0000  0.0000  0.0000  0.0000  0.0000      0.0000  0.0000  0.0000  0.0000  0.0000  0.0000  0.0000  0.0000  0.0000  0.0000
     EDDAV:  cpu time    0.5841: real time    0.5841
 BZINTS: Fermi energy:  2.168436; 54.000000 electrons
         Band energy:-794.302399;  BLOECHL correction:  0.000000
       DOS:  cpu time    0.0012: real time    0.0012
    CHARGE:  cpu time    0.1096: real time    0.1096
    MIXING:  cpu time    0.0005: real time    0.0005
    --------------------------------------------
      LOOP:  cpu time    1.4970: real time    1.4971

 eigenvalue-minimisations  :  1488
 total energy-change (2. order) : 0.4684790E+00  (-0.5004573E+00)
 number of electron      53.9999998 magnetization       0.0000000
 augmentation part       19.9988954 magnetization       0.0000000

 Broyden mixing:
  rms(total) = 0.81534E+00    rms(broyden)= 0.81523E+00
  rms(prec ) = 0.89762E+00
  weight for this iteration     100.00

 eigenvalues of (default mixing * dielectric matrix)
  average eigenvalue GAMMA=   0.9448
  1.7185  0.5727  0.7439  0.7439

 Free energy of the ion-electron system (eV)
  ---------------------------------------------------
  alpha Z        PSCENC =       199.67022127
  Ewald energy   TEWEN  =     -4205.05624217
  -Hartree energ DENC   =     -2162.20135524
  -exchange      EXHF   =         0.00000000
  -V(xc)+E(xc)   XCENC  =       168.53128841
  PAW double counting   =      6443.53021621    -6407.30408052
  entropy T*S    EENTRO =         0.00000000
  eigenvalues    EBANDS =      -794.30239950
  atomic energy  EATOM  =      6688.96875309
  Solvation  Ediel_sol  =         0.00000000
  ---------------------------------------------------
  free energy    TOTEN  =       -68.16359843 eV

  energy without entropy =      -68.16359843  energy(sigma->0) =      -68.16359843


--------------------------------------------------------------------------------------------------------




--------------------------------------- Iteration      1(  10)  ---------------------------------------


    POTLOK:  cpu time    0.0274: real time    0.0274
    SETDIJ:  cpu time    0.7756: real time    0.7757
atom =   1  type =  1  l = 2
 
 onsite density matrix
 
spin component  1
 
  0.0476  0.0000  0.0166  0.0000  0.0000
  0.0000  0.0510  0.0000  0.0206  0.0000
  0.0166  0.0000  0.0421  0.0000  0.0000
  0.0000  0.0206  0.0000  0.0510  0.0000
  0.0000  0.0000  0.0000  0.0000  0.0288
 
spin component  2
 
  0.9669  0.0000  0.0289  0.0000 -0.0000
  0.0000  0.9518  0.0000  0.0171  0.0000
  0.0289  0.0000  0.9494  0.0000 -0.0000
  0.0000  0.0171  0.0000  0.9518  0.0000
 -0.0000  0.0000 -0.0000  0.0000  0.9327
 
 occupancies and eigenvectors
 
  o =  0.0280  v = -0.6460  0.0000  0.7633  0.0000 -0.0000  0.0000  0.0000  0.0000  0.0000  0.0000      0.0000  0.0000  0.0000  0.0000  0.0000  0.0000  0.0000  0.0000  0.0000  0.0000
  o =  0.0288  v = -0.0000 -0.0000  0.0000  0.0000  1.0000  0.0000  0.0000  0.0000  0.0000  0.0000      0.0000  0.0000  0.0000  0.0000  0.0000  0.0000  0.0000  0.0000  0.0000  0.0000
  o =  0.0303  v =  0.0000 -0.7071  0.0000  0.7071 -0.0000  0.0000  0.0000  0.0000  0.0000  0.0000      0.0000  0.0000  0.0000  0.0000  0.0000  0.0000  0.0000  0.0000  0.0000  0.0000
  o =  0.0617  v = -0.7633  0.0000 -0.6460  0.0000 -0.0000  0.0000  0.0000  0.0000  0.0000  0.0000      0.0000  0.0000  0.0000  0.0000  0.0000  0.0000  0.0000  0.0000  0.0000  0.0000
  o =  0.0716  v =  0.0000 -0.7071  0.0000 -0.7071 -0.0000  0.0000  0.0000  0.0000  0.0000  0.0000      0.0000  0.0000  0.0000  0.0000  0.0000  0.0000  0.0000  0.0000  0.0000  0.0000
  o =  0.9279  v =  0.0000  0.0000  0.0000  0.0000  0.0000 -0.5957  0.0000  0.8032 -0.0000  0.0000      0.0000  0.0000  0.0000  0.0000  0.0000  0.0000  0.0000  0.0000  0.0000  0.0000
  o =  0.9327  v =  0.0000  0.0000  0.0000  0.0000  0.0000  0.0000  0.0000 -0.0000 -0.0000  1.0000      0.0000  0.0000  0.0000  0.0000  0.0000  0.0000  0.0000  0.0000  0.0000  0.0000
  o =  0.9347  v =  0.0000  0.0000  0.0000  0.0000  0.0000  0.0000  0.7071 -0.0000 -0.7071 -0.0000      0.0000  0.0000  0.0000  0.0000  0.0000  0.0000  0.0000  0.0000  0.0000  0.0000
  o =  0.9689  v =  0.0000  0.0000  0.0000  0.0000  0.0000  0.0000  0.7071  0.0000  0.7071  0.0000      0.0000  0.0000  0.0000  0.0000  0.0000  0.0000  0.0000  0.0000  0.0000  0.0000
  o =  0.9884  v =  0.0000  0.0000  0.0000  0.0000  0.0000 -0.8032  0.0000 -0.5957  0.0000  0.0000      0.0000  0.0000  0.0000  0.0000  0.0000  0.0000  0.0000  0.0000  0.0000  0.0000
atom =   2  type =  1  l = 2
 
 onsite density matrix
 
spin component  1
 
  0.9669  0.0000 -0.0289  0.0000 -0.0000
  0.0000  0.9518  0.0000 -0.0171  0.0000
 -0.0289  0.0000  0.9494  0.0000  0.0000
  0.0000 -0.0171  0.0000  0.9518  0.0000
 -0.0000  0.0000  0.0000  0.0000  0.9327
 
spin component  2
 
  0.0476  0.0000 -0.0166  0.0000  0.0000
  0.0000  0.0510  0.0000 -0.0206  0.0000
 -0.0166  0.0000  0.0421  0.0000  0.0000
  0.0000 -0.0206  0.0000  0.0510  0.0000
  0.0000  0.0000  0.0000  0.0000  0.0288
 
 occupancies and eigenvectors
 
  o =  0.0280  v =  0.0000  0.0000  0.0000  0.0000  0.0000 -0.6460 -0.0000 -0.7633  0.0000  0.0000      0.0000  0.0000  0.0000  0.0000  0.0000  0.0000  0.0000  0.0000  0.0000  0.0000
  o =  0.0288  v =  0.0000  0.0000  0.0000  0.0000  0.0000 -0.0000  0.0000 -0.0000  0.0000 -1.0000      0.0000  0.0000  0.0000  0.0000  0.0000  0.0000  0.0000  0.0000  0.0000  0.0000
  o =  0.0303  v =  0.0000  0.0000  0.0000  0.0000  0.0000  0.0000 -0.7071  0.0000 -0.7071  0.0000      0.0000  0.0000  0.0000  0.0000  0.0000  0.0000  0.0000  0.0000  0.0000  0.0000
  o =  0.0617  v =  0.0000  0.0000  0.0000  0.0000  0.0000 -0.7633 -0.0000  0.6460  0.0000  0.0000      0.0000  0.0000  0.0000  0.0000  0.0000  0.0000  0.0000  0.0000  0.0000  0.0000
  o =  0.0716  v =  0.0000  0.0000  0.0000  0.0000  0.0000  0.0000 -0.7071  0.0000  0.7071  0.0000      0.0000  0.0000  0.0000  0.0000  0.0000  0.0000  0.0000  0.0000  0.0000  0.0000
  o =  0.9279  v = -0.5957  0.0000 -0.8032  0.0000 -0.0000  0.0000  0.0000  0.0000  0.0000  0.0000      0.0000  0.0000  0.0000  0.0000  0.0000  0.0000  0.0000  0.0000  0.0000  0.0000
  o =  0.9327  v =  0.0000 -0.0000  0.0000 -0.0000 -1.0000  0.0000  0.0000  0.0000  0.0000  0.0000      0.0000  0.0000  0.0000  0.0000  0.0000  0.0000  0.0000  0.0000  0.0000  0.0000
  o =  0.9347  v =  0.0000  0.7071  0.0000  0.7071 -0.0000  0.0000  0.0000  0.0000  0.0000  0.0000      0.0000  0.0000  0.0000  0.0000  0.0000  0.0000  0.0000  0.0000  0.0000  0.0000
  o =  0.9689  v =  0.0000 -0.7071 -0.0000  0.7071  0.0000  0.0000  0.0000  0.0000  0.0000  0.0000      0.0000  0.0000  0.0000  0.0000  0.0000  0.0000  0.0000  0.0000  0.0000  0.0000
  o =  0.9884  v = -0.8032  0.0000  0.5957  0.0000  0.0000  0.0000  0.0000  0.0000  0.0000  0.0000      0.0000  0.0000  0.0000  0.0000  0.0000  0.0000  0.0000  0.0000  0.0000  0.0000
     EDDAV:  cpu time    0.5661: real time    0.5661
 BZINTS: Fermi energy:  2.230609; 54.000000 electrons
         Band energy:-796.532613;  BLOECHL correction:  0.000000
       DOS:  cpu time    0.0013: real time    0.0013
    CHARGE:  cpu time    0.1127: real time    0.1127
    MIXING:  cpu time    0.0005: real time    0.0005
    --------------------------------------------
      LOOP:  cpu time    1.4837: real time    1.4838

 eigenvalue-minimisations  :  1416
 total energy-change (2. order) : 0.4670311E-01  (-0.4343001E-01)
 number of electron      53.9999997 magnetization       0.0000000
 augmentation part       19.9929809 magnetization       0.0000000

 Broyden mixing:
  rms(total) = 0.60203E+00    rms(broyden)= 0.60203E+00
  rms(prec ) = 0.67472E+00
  weight for this iteration     100.00

 eigenvalues of (default mixing * dielectric matrix)
  average eigenvalue GAMMA=   1.2118
  2.8622  0.9950  0.9950  0.6034  0.6034

 Free energy of the ion-electron system (eV)
  ---------------------------------------------------
  alpha Z        PSCENC =       199.67022127
  Ewald energy   TEWEN  =     -4205.05624217
  -Hartree energ DENC   =     -2155.93108605
  -exchange      EXHF   =         0.00000000
  -V(xc)+E(xc)   XCENC  =       165.73069176
  PAW double counting   =      6508.31516760    -6473.28178735
  entropy T*S    EENTRO =         0.00000000
  eigenvalues    EBANDS =      -796.53261348
  atomic energy  EATOM  =      6688.96875309
  Solvation  Ediel_sol  =         0.00000000
  ---------------------------------------------------
  free energy    TOTEN  =       -68.11689532 eV

  energy without entropy =      -68.11689532  energy(sigma->0) =      -68.11689532


--------------------------------------------------------------------------------------------------------




--------------------------------------- Iteration      1(  11)  ---------------------------------------


    POTLOK:  cpu time    0.0274: real time    0.0274
    SETDIJ:  cpu time    0.7745: real time    0.7745
atom =   1  type =  1  l = 2
 
 onsite density matrix
 
spin component  1
 
  0.0516  0.0000  0.0307  0.0000 -0.0000
  0.0000  0.0439  0.0000  0.0255  0.0000
  0.0307  0.0000  0.0374  0.0000  0.0000
  0.0000  0.0255  0.0000  0.0439  0.0000
 -0.0000  0.0000  0.0000  0.0000  0.0145
 
spin component  2
 
  0.9637  0.0000  0.0190  0.0000  0.0000
  0.0000  0.9593  0.0000  0.0169  0.0000
  0.0190  0.0000  0.9521  0.0000 -0.0000
  0.0000  0.0169  0.0000  0.9593  0.0000
  0.0000  0.0000 -0.0000  0.0000  0.9433
 
 occupancies and eigenvectors
 
  o =  0.0130  v = -0.6222 -0.0000  0.7829  0.0000 -0.0000  0.0000  0.0000  0.0000  0.0000  0.0000      0.0000  0.0000  0.0000  0.0000  0.0000  0.0000  0.0000  0.0000  0.0000  0.0000
  o =  0.0145  v = -0.0000  0.0000  0.0000  0.0000  1.0000  0.0000  0.0000  0.0000  0.0000  0.0000      0.0000  0.0000  0.0000  0.0000  0.0000  0.0000  0.0000  0.0000  0.0000  0.0000
  o =  0.0185  v =  0.0000  0.7071  0.0000 -0.7071 -0.0000  0.0000  0.0000  0.0000  0.0000  0.0000      0.0000  0.0000  0.0000  0.0000  0.0000  0.0000  0.0000  0.0000  0.0000  0.0000
  o =  0.0694  v =  0.0000 -0.7071  0.0000 -0.7071  0.0000  0.0000  0.0000  0.0000  0.0000  0.0000      0.0000  0.0000  0.0000  0.0000  0.0000  0.0000  0.0000  0.0000  0.0000  0.0000
  o =  0.0760  v = -0.7829 -0.0000 -0.6222  0.0000 -0.0000  0.0000  0.0000  0.0000  0.0000  0.0000      0.0000  0.0000  0.0000  0.0000  0.0000  0.0000  0.0000  0.0000  0.0000  0.0000
  o =  0.9380  v =  0.0000  0.0000  0.0000  0.0000  0.0000  0.5951  0.0000 -0.8037  0.0000 -0.0000      0.0000  0.0000  0.0000  0.0000  0.0000  0.0000  0.0000  0.0000  0.0000  0.0000
  o =  0.9425  v =  0.0000  0.0000  0.0000  0.0000  0.0000 -0.0000  0.7071  0.0000 -0.7071 -0.0000      0.0000  0.0000  0.0000  0.0000  0.0000  0.0000  0.0000  0.0000  0.0000  0.0000
  o =  0.9433  v =  0.0000  0.0000  0.0000  0.0000  0.0000 -0.0000 -0.0000  0.0000  0.0000 -1.0000      0.0000  0.0000  0.0000  0.0000  0.0000  0.0000  0.0000  0.0000  0.0000  0.0000
  o =  0.9762  v =  0.0000  0.0000  0.0000  0.0000  0.0000  0.0000  0.7071  0.0000  0.7071  0.0000      0.0000  0.0000  0.0000  0.0000  0.0000  0.0000  0.0000  0.0000  0.0000  0.0000
  o =  0.9777  v =  0.0000  0.0000  0.0000  0.0000  0.0000  0.8037 -0.0000  0.5951  0.0000 -0.0000      0.0000  0.0000  0.0000  0.0000  0.0000  0.0000  0.0000  0.0000  0.0000  0.0000
atom =   2  type =  1  l = 2
 
 onsite density matrix
 
spin component  1
 
  0.9637  0.0000 -0.0190  0.0000  0.0000
  0.0000  0.9593  0.0000 -0.0169  0.0000
 -0.0190  0.0000  0.9521  0.0000 -0.0000
  0.0000 -0.0169  0.0000  0.9593  0.0000
  0.0000  0.0000 -0.0000  0.0000  0.9433
 
spin component  2
 
  0.0516  0.0000 -0.0307  0.0000 -0.0000
  0.0000  0.0439  0.0000 -0.0255  0.0000
 -0.0307  0.0000  0.0374  0.0000 -0.0000
  0.0000 -0.0255  0.0000  0.0439  0.0000
 -0.0000  0.0000 -0.0000  0.0000  0.0145
 
 occupancies and eigenvectors
 
  o =  0.0130  v =  0.0000  0.0000  0.0000  0.0000  0.0000 -0.6222 -0.0000 -0.7829  0.0000 -0.0000      0.0000  0.0000  0.0000  0.0000  0.0000  0.0000  0.0000  0.0000  0.0000  0.0000
  o =  0.0145  v =  0.0000  0.0000  0.0000  0.0000  0.0000 -0.0000  0.0000 -0.0000  0.0000  1.0000      0.0000  0.0000  0.0000  0.0000  0.0000  0.0000  0.0000  0.0000  0.0000  0.0000
  o =  0.0185  v =  0.0000  0.0000  0.0000  0.0000  0.0000  0.0000 -0.7071  0.0000 -0.7071  0.0000      0.0000  0.0000  0.0000  0.0000  0.0000  0.0000  0.0000  0.0000  0.0000  0.0000
  o =  0.0694  v =  0.0000  0.0000  0.0000  0.0000  0.0000  0.0000  0.7071  0.0000 -0.7071 -0.0000      0.0000  0.0000  0.0000  0.0000  0.0000  0.0000  0.0000  0.0000  0.0000  0.0000
  o =  0.0760  v =  0.0000  0.0000  0.0000  0.0000  0.0000 -0.7829 -0.0000  0.6222  0.0000 -0.0000      0.0000  0.0000  0.0000  0.0000  0.0000  0.0000  0.0000  0.0000  0.0000  0.0000
  o =  0.9380  v = -0.5951  0.0000 -0.8037  0.0000 -0.0000  0.0000  0.0000  0.0000  0.0000  0.0000      0.0000  0.0000  0.0000  0.0000  0.0000  0.0000  0.0000  0.0000  0.0000  0.0000
  o =  0.9425  v = -0.0000  0.7071 -0.0000  0.7071  0.0000  0.0000  0.0000  0.0000  0.0000  0.0000      0.0000  0.0000  0.0000  0.0000  0.0000  0.0000  0.0000  0.0000  0.0000  0.0000
  o =  0.9433  v =  0.0000  0.0000  0.0000  0.0000 -1.0000  0.0000  0.0000  0.0000  0.0000  0.0000      0.0000  0.0000  0.0000  0.0000  0.0000  0.0000  0.0000  0.0000  0.0000  0.0000
[...]
     16      -3.4818      1.00000
     17      -3.0991      1.00000
     18      -2.9191      1.00000
     19      -2.7891      1.00000
     20      -2.3813      1.00000
     21      -2.2914      1.00000
     22      -2.2338      1.00000
     23       0.8117      1.00000
     24       0.8558      1.00000
     25       1.1001      1.00000
     26       1.7290      1.00000
     27       2.0793      1.00000
     28       6.4184      0.00000
     29       6.4467      0.00000
     30       6.5542      0.00000
     31       7.4071      0.00000
     32       7.6997      0.00000
     33       9.0185      0.00000
     34      11.3160      0.00000
     35      12.7755      0.00000
     36      13.1465      0.00000

 k-point     8 :       0.3750    0.1250    0.4167
  band No.  band energies     occupation 
      1     -49.2187      1.00000
      2     -49.1791      1.00000
      3     -49.1586      1.00000
      4     -42.7111      1.00000
      5     -42.6671      1.00000
      6     -42.6377      1.00000
      7     -22.5998      1.00000
      8     -22.5429      1.00000
      9     -22.4926      1.00000
     10     -22.4232      1.00000
     11      -4.4951      1.00000
     12      -4.2412      1.00000
     13      -4.1562      1.00000
     14      -3.9793      1.00000
     15      -3.6079      1.00000
     16      -3.3713      1.00000
     17      -3.1971      1.00000
     18      -3.0915      1.00000
     19      -2.5228      1.00000
     20      -2.3630      1.00000
     21      -2.1829      1.00000
     22      -2.0807      1.00000
     23       0.7991      1.00000
     24       0.8281      1.00000
     25       1.0390      1.00000
     26       1.6859      1.00000
     27       2.2083      1.00000
     28       6.4063      0.00000
     29       6.4398      0.00000
     30       6.6102      0.00000
     31       7.3621      0.00000
     32       7.8811      0.00000
     33       9.6449      0.00000
     34      11.1708      0.00000
     35      11.6946      0.00000
     36      13.0067      0.00000

 k-point     9 :       0.3750    0.3750    0.4167
  band No.  band energies     occupation 
      1     -49.2189      1.00000
      2     -49.1791      1.00000
      3     -49.1588      1.00000
      4     -42.7112      1.00000
      5     -42.6671      1.00000
      6     -42.6379      1.00000
      7     -22.5930      1.00000
      8     -22.5516      1.00000
      9     -22.4936      1.00000
     10     -22.4179      1.00000
     11      -4.7305      1.00000
     12      -4.5224      1.00000
     13      -4.1520      1.00000
     14      -4.0942      1.00000
     15      -3.5807      1.00000
     16      -3.3035      1.00000
     17      -3.1350      1.00000
     18      -2.8990      1.00000
     19      -2.3118      1.00000
     20      -2.2177      1.00000
     21      -2.1042      1.00000
     22      -2.0288      1.00000
     23       0.7969      1.00000
     24       0.8204      1.00000
     25       1.0246      1.00000
     26       1.7202      1.00000
     27       2.1837      1.00000
     28       6.4127      0.00000
     29       6.4370      0.00000
     30       6.6281      0.00000
     31       7.3379      0.00000
     32       7.7847      0.00000
     33      10.1398      0.00000
     34      11.7245      0.00000
     35      11.7562      0.00000
     36      11.9910      0.00000


--------------------------------------------------------------------------------------------------------


 soft charge-density along one line, spin component           1
         0         1         2         3         4         5         6         7         8         9
 total charge-density along one line
 
 soft charge-density along one line, spin component           2
         0         1         2         3         4         5         6         7         8         9
 total charge-density along one line
 
 pseudopotential strength for first ion, spin component:           1
-45.209   0.000  -0.038   7.790  -0.000   0.016  -0.000   0.000
  0.000 -45.175  -0.000  -0.000   7.776   0.000  -0.000   0.000
 -0.038  -0.000 -45.209   0.016   0.000   7.790   0.000  -0.000
  7.790  -0.000   0.016   5.592   0.000   0.004  -0.000  -0.000
 -0.000   7.776   0.000   0.000   5.586  -0.000   0.000   0.000
  0.016   0.000   7.790   0.004  -0.000   5.592  -0.000   0.000
 -0.000  -0.000   0.000  -0.000   0.000  -0.000  -2.969  -0.000
  0.000   0.000  -0.000  -0.000   0.000   0.000  -0.000  -2.951
 -0.000   0.000   0.000   0.000  -0.000   0.000   0.020   0.000
 -0.000   0.000   0.000   0.000   0.000  -0.000   0.000  -0.018
  0.000  -0.000  -0.000  -0.000   0.000  -0.000  -0.000  -0.000
 -0.000  -0.000   0.000  -0.000   0.000  -0.000  -3.485  -0.000
  0.000   0.000  -0.000  -0.000   0.000   0.000  -0.000  -3.467
 -0.000   0.000   0.000   0.000  -0.000   0.000   0.019   0.000
 -0.000   0.000   0.000   0.000   0.000  -0.000   0.000  -0.018
  0.000  -0.000  -0.000  -0.000   0.000  -0.000  -0.000  -0.000
  0.000  -0.000   0.000   0.000  -0.000  -0.000   0.012  -0.000
  0.000  -0.000   0.000   0.000  -0.000  -0.000   0.022  -0.000
 pseudopotential strength for first ion, spin component:           2
-50.962   0.000  -0.005   9.790  -0.000   0.016   0.000   0.000
  0.000 -50.962  -0.000  -0.000   9.775   0.000  -0.000   0.000
 -0.005  -0.000 -50.962   0.016   0.000   9.790  -0.000  -0.000
  9.790  -0.000   0.016   4.709  -0.000   0.001  -0.000  -0.000
 -0.000   9.775   0.000  -0.000   4.708  -0.000   0.000  -0.000
  0.016   0.000   9.790   0.001  -0.000   4.709  -0.000   0.000
  0.000  -0.000  -0.000  -0.000   0.000  -0.000  -7.321  -0.000
  0.000   0.000  -0.000  -0.000  -0.000   0.000  -0.000  -7.312
  0.000   0.000  -0.000  -0.000  -0.000   0.000  -0.009  -0.000
 -0.000  -0.000   0.000   0.000   0.000  -0.000   0.000  -0.028
 -0.000  -0.000   0.000  -0.000   0.000  -0.000   0.000  -0.000
  0.000  -0.000  -0.000  -0.000   0.000  -0.000  -7.792  -0.000
  0.000   0.000  -0.000  -0.000  -0.000   0.000  -0.000  -7.783
  0.000   0.000  -0.000  -0.000  -0.000   0.000  -0.009  -0.000
 -0.000  -0.000   0.000   0.000   0.000  -0.000   0.000  -0.027
 -0.000  -0.000   0.000  -0.000   0.000  -0.000   0.000  -0.000
  0.000  -0.000  -0.000  -0.000  -0.000   0.000   0.011  -0.000
  0.000  -0.000  -0.000  -0.000  -0.000   0.000   0.023  -0.000
 total augmentation occupancy for first ion, spin component:           1
  2.001   0.000   0.000  -0.012   0.000   0.001   0.000   0.000   0.000   0.000   0.000   0.000   0.000   0.000   0.000   0.000
  0.000   2.001   0.000   0.000  -0.012   0.000   0.000   0.000   0.000   0.000   0.000   0.000   0.000   0.000   0.000   0.000
  0.000   0.000   2.001   0.001   0.000  -0.012   0.000   0.000   0.000   0.000   0.000   0.000   0.000   0.000   0.000   0.000
 -0.012   0.000   0.001   0.081   0.000  -0.009   0.000   0.000   0.000   0.000   0.000   0.000   0.000   0.000   0.000   0.000
  0.000  -0.012   0.000   0.000   0.090   0.000   0.000   0.000   0.000   0.000   0.000   0.000   0.000   0.000   0.000   0.000
  0.001   0.000  -0.012  -0.009   0.000   0.081   0.000   0.000   0.000   0.000   0.000   0.000   0.000   0.000   0.000   0.000
  0.000   0.000   0.000   0.000   0.000   0.000   7.778   0.000   3.015   0.000  -0.000  -5.807   0.000  -2.836   0.000   0.000
  0.000   0.000   0.000   0.000   0.000   0.000   0.000   6.578   0.000   2.546   0.000   0.000  -4.651   0.000  -2.392   0.000
  0.000   0.000   0.000   0.000   0.000   0.000   3.015   0.000   5.967   0.000  -0.000  -2.837   0.000  -4.110   0.000   0.000
  0.000   0.000   0.000   0.000   0.000   0.000   0.000   2.546   0.000   6.578   0.000   0.000  -2.392   0.000  -4.651   0.000
  0.000   0.000   0.000   0.000   0.000   0.000  -0.000   0.000  -0.000   0.000   3.894   0.000   0.000   0.000   0.000  -2.115
  0.000   0.000   0.000   0.000   0.000   0.000  -5.807   0.000  -2.837   0.000   0.000   5.010   0.000   2.701   0.000  -0.000
  0.000   0.000   0.000   0.000   0.000   0.000   0.000  -4.651   0.000  -2.392   0.000   0.000   3.888   0.000   2.275   0.000
  0.000   0.000   0.000   0.000   0.000   0.000  -2.836   0.000  -4.110   0.000   0.000   2.701   0.000   3.401   0.000  -0.000
  0.000   0.000   0.000   0.000   0.000   0.000   0.000  -2.392   0.000  -4.651   0.000   0.000   2.275   0.000   3.888   0.000
  0.000   0.000   0.000   0.000   0.000   0.000   0.000   0.000   0.000   0.000  -2.115   0.000   0.000  -0.000   0.000   1.460
  0.000   0.000   0.000   0.000   0.000   0.000   0.445   0.000  -0.298   0.000   0.000  -0.422   0.000   0.277   0.000  -0.000
  0.000   0.000   0.000   0.000   0.000   0.000  -0.093   0.000   0.069   0.000  -0.000   0.098   0.000  -0.068   0.000  -0.000
 total augmentation occupancy for first ion, spin component:           2
  0.004   0.000  -0.000   0.017   0.000  -0.001   0.000   0.000   0.000   0.000   0.000   0.000   0.000   0.000   0.000   0.000
  0.000   0.004   0.000   0.000   0.018   0.000   0.000   0.000   0.000   0.000   0.000   0.000   0.000   0.000   0.000   0.000
 -0.000   0.000   0.004  -0.001   0.000   0.017   0.000   0.000   0.000   0.000   0.000   0.000   0.000   0.000   0.000   0.000
  0.017   0.000  -0.001  -0.011   0.000  -0.000   0.000   0.000   0.000   0.000   0.000   0.000   0.000   0.000   0.000   0.000
  0.000   0.018   0.000   0.000  -0.010   0.000   0.000   0.000   0.000   0.000   0.000   0.000   0.000   0.000   0.000   0.000
 -0.001   0.000   0.017  -0.000   0.000  -0.011   0.000   0.000   0.000   0.000   0.000   0.000   0.000   0.000   0.000   0.000
  0.000   0.000   0.000   0.000   0.000   0.000  -5.102   0.000  -1.501   0.000   0.000   2.728   0.000   1.103   0.000  -0.000
  0.000   0.000   0.000   0.000   0.000   0.000   0.000  -4.548   0.000  -1.277   0.000   0.000   2.299   0.000   0.939   0.000
  0.000   0.000   0.000   0.000   0.000   0.000  -1.501   0.000  -4.148   0.000   0.000   1.103   0.000   2.012   0.000   0.000
  0.000   0.000   0.000   0.000   0.000   0.000   0.000  -1.277   0.000  -4.548   0.000   0.000   0.939   0.000   2.299   0.000
  0.000   0.000   0.000   0.000   0.000   0.000   0.000   0.000   0.000   0.000  -3.251  -0.000   0.000  -0.000   0.000   1.352
  0.000   0.000   0.000   0.000   0.000   0.000   2.728   0.000   1.103   0.000  -0.000  -1.456   0.000  -0.710   0.000   0.000
  0.000   0.000   0.000   0.000   0.000   0.000   0.000   2.299   0.000   0.939   0.000   0.000  -1.154   0.000  -0.607   0.000
  0.000   0.000   0.000   0.000   0.000   0.000   1.103   0.000   2.012   0.000  -0.000  -0.710   0.000  -0.975   0.000   0.000
  0.000   0.000   0.000   0.000   0.000   0.000   0.000   0.939   0.000   2.299   0.000   0.000  -0.607   0.000  -1.154   0.000
  0.000   0.000   0.000   0.000   0.000   0.000  -0.000   0.000   0.000   0.000   1.352   0.000   0.000   0.000   0.000  -0.555
  0.000   0.000   0.000   0.000   0.000   0.000  -0.101   0.000   0.056   0.000  -0.000   0.024   0.000   0.001   0.000   0.000
  0.000   0.000   0.000   0.000   0.000   0.000   0.001   0.000  -0.006   0.000  -0.000   0.008   0.000  -0.003   0.000   0.000


------------------------ aborting loop because EDIFF is reached ----------------------------------------


 


 total charge     
 
# of ion       s       p       d       tot
------------------------------------------
    1        0.168   6.150   4.966  11.284
    2        0.173   6.146   4.972  11.291
    3        1.736   4.400   0.000   6.135
    4        1.736   4.400   0.000   6.135
    5        1.735   4.396   0.000   6.131
    6        1.735   4.396   0.000   6.131
--------------------------------------------------
tot          7.283  29.888   9.938  47.109
 


 magnetization (x)
 
# of ion       s       p       d       tot
------------------------------------------
    1       -0.022  -0.018  -4.581  -4.621
    2        0.023   0.016   4.578   4.617
    3        0.003   0.025   0.000   0.027
    4        0.003   0.025   0.000   0.027
    5       -0.003  -0.021   0.000  -0.024
    6       -0.003  -0.021   0.000  -0.024
--------------------------------------------------
tot         -0.001   0.006  -0.003   0.003
 
    CHARGE:  cpu time    0.0276: real time    0.0276
    FORLOC:  cpu time    0.0007: real time    0.0007
    FORNL :  cpu time    0.1328: real time    0.1328
    STRESS:  cpu time    1.7263: real time    1.7264
    FORCOR:  cpu time    0.0253: real time    0.0253
    FORHAR:  cpu time    0.0018: real time    0.0018
    MIXING:  cpu time    0.0007: real time    0.0007
    OFIELD:  cpu time    0.0000: real time    0.0000

  FORCE on cell =-STRESS in cart. coord.  units (eV):
  Direction    XX          YY          ZZ          XY          YZ          ZX
  --------------------------------------------------------------------------------------
  Alpha Z   199.82290   199.82290   199.82290
  Ewald   -1587.11197 -1587.11197 -1031.98746    -0.00000    -0.00000    -0.00000
  Hartree   593.54104   593.54104   968.66967    -0.00000    -0.00000    -0.00000
  E(xc)    -150.53950  -150.51682  -150.65330    -0.01642    -0.02598    -0.02764
  Local     164.98310   164.98310  -758.35555     0.00000     0.00000    -0.00000
  n-local  -310.13445  -310.41686  -309.35696     0.01542     0.10905     0.11139
  augment   158.50123   158.50123   158.00831    -0.00000     0.00000    -0.00000
  Kinetic   930.77990   931.34777   923.86943    -0.43997    -0.81330    -0.84877
  Fock        0.00000     0.00000     0.00000     0.00000     0.00000     0.00000
  -------------------------------------------------------------------------------------
  Total      -0.00367    -0.00367     0.01704    -0.00000     0.00000     0.00000
  in kB      -0.07616    -0.07616     0.35339    -0.00000     0.00000     0.00000
  external pressure =        0.07 kB  Pullay stress =        0.00 kB


 VOLUME and BASIS-vectors are now :
 -----------------------------------------------------------------------------
  energy-cutoff  :      500.00
  volume of cell :       77.26
      direct lattice vectors                 reciprocal lattice vectors
     4.848720795  0.000000000  0.000000000     0.206239964  0.000000000  0.000000000
    -0.000000000  4.848720795  0.000000000    -0.000000000  0.206239964  0.000000000
     0.000000000  0.000000000  3.286071323     0.000000000  0.000000000  0.304314758

  length of vectors
     4.848720795  4.848720795  3.286071323     0.206239964  0.206239964  0.304314758


 FORCES acting on ions
    electron-ion (+dipol)            ewald-force                    non-local-force                 convergence-correction
 -----------------------------------------------------------------------------------------------
   0.218E-11 0.518E-11 0.450E-11   0.142E-12 0.227E-12 0.144E-13   0.165E-25 0.000E+00 0.000E+00   0.821E-15 0.587E-14 0.625E-13
   -.532E-13 -.315E-13 0.436E-13   -.568E-13 -.171E-12 0.127E-13   -.161E-25 0.000E+00 0.000E+00   0.155E-13 0.344E-13 -.461E-13
   -.325E+02 0.325E+02 0.316E-11   0.337E+02 -.337E+02 -.366E-14   -.120E+01 0.120E+01 0.434E-18   -.568E-04 0.568E-04 0.530E-14
   0.325E+02 -.325E+02 -.130E-10   -.337E+02 0.337E+02 -.418E-14   0.120E+01 -.120E+01 -.434E-18   0.568E-04 -.568E-04 0.469E-13
   0.325E+02 0.325E+02 -.171E-07   -.337E+02 -.337E+02 -.723E-14   0.120E+01 0.120E+01 0.434E-18   0.568E-04 0.568E-04 0.204E-11
   -.325E+02 -.325E+02 0.171E-07   0.337E+02 0.337E+02 -.714E-14   -.120E+01 -.120E+01 -.434E-18   -.568E-04 -.568E-04 -.207E-11
 -----------------------------------------------------------------------------------------------
   0.516E-11 0.242E-10 0.227E-11   0.000E+00 0.000E+00 0.499E-14   0.000E+00 -.222E-15 0.000E+00   0.333E-13 0.240E-13 0.393E-13
 
 
 POSITION                                       TOTAL-FORCE (eV/Angst)
 -----------------------------------------------------------------------------------
      2.42436      2.42436      1.64304         0.000000     -0.000000      0.000000
      0.00000      0.00000     -0.00000        -0.000000     -0.000000      0.000000
      0.95088      3.89784      1.64304         0.000985     -0.000985      0.000000
      3.89784      0.95088      1.64304        -0.000985      0.000985      0.000000
      1.47348      1.47348     -0.00000        -0.000985     -0.000985     -0.000000
      3.37524      3.37524      0.00000         0.000985      0.000985      0.000000
 -----------------------------------------------------------------------------------
    total drift:                                0.000000      0.000000      0.000000


--------------------------------------------------------------------------------------------------------



  FREE ENERGIE OF THE ION-ELECTRON SYSTEM (eV)
  ---------------------------------------------------
  free  energy   TOTEN  =       -68.02544286 eV

  energy  without entropy=      -68.02544286  energy(sigma->0) =      -68.02544286
 
 d Force = 0.4493776E-06[ 0.422E-06, 0.477E-06]  d Energy =-0.2330389E-05 0.278E-05
 d Force = 0.1444883E-01[ 0.144E-01, 0.145E-01]  d Ewald  = 0.1151998E+01-0.114E+01


--------------------------------------------------------------------------------------------------------


    POTLOK:  cpu time    1.3969: real time    1.3969


--------------------------------------------------------------------------------------------------------


 Steepest descent step on ions:
 trial-energy change:    0.000002  1 .order   -0.000014   -0.000027   -0.000000
  (g-gl).g = 0.273E-04      g.g   = 0.273E-04  gl.gl    = 0.000E+00
 g(Force)  = 0.477E-06   g(Stress)= 0.268E-04 ortho     = 0.000E+00
 gamma     =   0.00000
 trial     =   1.00000
 opt step  =   1.01538  (harmonic =   1.01538) maximal distance =0.00005444
 next E    =   -68.025459   (d E  =  -0.00001)


--------------------------------------------------------------------------------------------------------


  
 reached required accuracy - stopping structural energy minimisation
     LOOP+:  cpu time   23.8662: real time   23.8666
    4ORBIT:  cpu time    0.0000: real time    0.0000
 


 total charge     
 
# of ion       s       p       d       tot
------------------------------------------
    1        0.168   6.150   4.966  11.284
    2        0.173   6.146   4.972  11.291
    3        1.736   4.400   0.000   6.135
    4        1.736   4.400   0.000   6.135
    5        1.735   4.396   0.000   6.131
    6        1.735   4.396   0.000   6.131
--------------------------------------------------
tot          7.283  29.888   9.938  47.109
 


 magnetization (x)
 
# of ion       s       p       d       tot
------------------------------------------
    1       -0.022  -0.018  -4.581  -4.621
    2        0.023   0.016   4.578   4.617
    3        0.003   0.025   0.000   0.027
    4        0.003   0.025   0.000   0.027
    5       -0.003  -0.021   0.000  -0.024
    6       -0.003  -0.021   0.000  -0.024
--------------------------------------------------
tot         -0.001   0.006  -0.003   0.003
 
 BZINTS: Fermi energy:  2.329494; 54.000000 electrons
         Band energy:-795.316357;  BLOECHL correction:  0.000000

 total amount of memory used by VASP MPI-rank0    41943. kBytes
=======================================================================

   base      :      30000. kBytes
   nonl-proj :       5354. kBytes
   fftplans  :       1551. kBytes
   grid      :       3069. kBytes
   one-center:        186. kBytes
   wavefun   :       1783. kBytes
 
  
  
 General timing and accounting informations for this job:
 ========================================================
  
                  Total CPU time used (sec):       64.392
                            User time (sec):       45.039
                          System time (sec):       19.353
                         Elapsed time (sec):       64.456
  
                   Maximum memory used (kb):       58680.
                   Average memory used (kb):           0.
  
                          Minor page faults:        10936
                          Major page faults:           10
                 Voluntary context switches:          278
