       N       E                     dE             d eps       ncg     rms          rms(c)
DAV:   1     0.791266934040E+03    0.79127E+03   -0.41964E+04  1296   0.250E+03
DAV:   2     0.207627199317E+02   -0.77050E+03   -0.74425E+03  1500   0.592E+02
DAV:   3    -0.391379781350E+02   -0.59901E+02   -0.59468E+02  1500   0.171E+02
DAV:   4    -0.401019359454E+02   -0.96396E+00   -0.96361E+00  1452   0.230E+01
DAV:   5    -0.401165929664E+02   -0.14657E-01   -0.14657E-01  1524   0.285E+00    0.225E+01
DAV:   6    -0.382298535406E+02    0.18867E+01   -0.15536E+01  1596   0.316E+01    0.143E+01
DAV:   7    -0.389466004760E+02   -0.71675E+00   -0.18356E+00  1548   0.109E+01    0.113E+01
DAV:   8    -0.390108714178E+02   -0.64271E-01   -0.41726E-01  1488   0.552E+00    0.523E+00
DAV:   9    -0.391688030504E+02   -0.15793E+00   -0.48610E-02  1332   0.219E+00    0.127E+00
DAV:  10    -0.391700307584E+02   -0.12277E-02   -0.20089E-02  1608   0.125E+00    0.283E-01
DAV:  11    -0.391702563189E+02   -0.22556E-03   -0.28383E-03  1380   0.358E-01    0.139E-01
DAV:  12    -0.391704073804E+02   -0.15106E-03   -0.10652E-04  1584   0.125E-01    0.556E-02
DAV:  13    -0.391704617880E+02   -0.54408E-04   -0.92556E-05  1368   0.561E-02    0.211E-02
DAV:  14    -0.391704704684E+02   -0.86803E-05   -0.82512E-06  1536   0.217E-02    0.900E-03
DAV:  15    -0.391704702791E+02    0.18922E-06   -0.14549E-06  1416   0.737E-03    0.266E-03
DAV:  16    -0.391704705525E+02   -0.27339E-06   -0.23536E-07  1428   0.290E-03    0.183E-03
DAV:  17    -0.391704705129E+02    0.39603E-07   -0.17000E-08   924   0.106E-03
   1 F= -.39170471E+02 E0= -.39170471E+02  d E =-.391705E+02  mag=     0.0000
       N       E                     dE             d eps       ncg     rms          rms(c)
DAV:   1    -0.391851064483E+02   -0.14636E-01   -0.29518E-01  1296   0.495E+00    0.105E+00
DAV:   2    -0.391714114374E+02    0.13695E-01   -0.42437E-02  1296   0.146E+00    0.592E-01
DAV:   3    -0.391711306977E+02    0.28074E-03   -0.35098E-03  1296   0.660E-01    0.232E-01
DAV:   4    -0.391709460071E+02    0.18469E-03   -0.33149E-04  1560   0.152E-01    0.157E-01
DAV:   5    -0.391708707624E+02    0.75245E-04   -0.71809E-05  1524   0.706E-02    0.558E-02
DAV:   6    -0.391708756534E+02   -0.48910E-05   -0.64025E-06  1764   0.296E-02    0.571E-03
DAV:   7    -0.391708757197E+02   -0.66309E-07   -0.11287E-06  1524   0.773E-03    0.264E-03
DAV:   8    -0.391708757728E+02   -0.53070E-07   -0.18938E-07  1224   0.542E-03
   2 F= -.39170876E+02 E0= -.39170876E+02  d E =-.405260E-03  mag=     0.0000
       N       E                     dE             d eps       ncg     rms          rms(c)
DAV:   1    -0.391710365702E+02   -0.16085E-03   -0.32115E-03  1296   0.515E-01    0.109E-01
DAV:   2    -0.391708864737E+02    0.15010E-03   -0.46592E-04  1296   0.153E-01    0.615E-02
DAV:   3    -0.391708835685E+02    0.29052E-05   -0.38737E-05  1296   0.686E-02    0.241E-02
DAV:   4    -0.391708815474E+02    0.20211E-05   -0.35444E-06  1572   0.156E-02    0.162E-02
DAV:   5    -0.391708810637E+02    0.48367E-06   -0.77098E-07  1512   0.730E-03    0.576E-03
DAV:   6    -0.391708810225E+02    0.41260E-07   -0.58276E-08   972   0.306E-03
   3 F= -.39170881E+02 E0= -.39170881E+02  d E =-.410510E-03  mag=    -0.0000
       N       E                     dE             d eps       ncg     rms          rms(c)
DAV:   1    -0.391709229699E+02   -0.41906E-04   -0.58455E-03  1296   0.523E-01    0.522E-02
DAV:   2    -0.391709080599E+02    0.14910E-04   -0.16008E-04  1548   0.913E-02    0.317E-02
DAV:   3    -0.391709006458E+02    0.74141E-05   -0.67670E-06  1524   0.231E-02    0.171E-02
DAV:   4    -0.391708977833E+02    0.28624E-05   -0.37267E-06  1584   0.140E-02    0.544E-03
DAV:   5    -0.391708976790E+02    0.10436E-06   -0.64970E-07  1452   0.592E-03    0.281E-03
DAV:   6    -0.391708976916E+02   -0.12589E-07   -0.35710E-08   660   0.174E-03
   4 F= -.39170898E+02 E0= -.39170898E+02  d E =-.166691E-04  mag=    -0.0000
