 vasp.5.4.4.18Apr17-6-g9f103f2a35 (build Apr 24 2018 11:19:41) complex          
  
 executed on         CrayXC-Intel date 2021.08.20  15:44:55
 running on  192 total cores
 distrk:  each k-point on   48 cores,    4 groups
 distr:  one band on NCORES_PER_BAND=  12 cores,    4 groups


--------------------------------------------------------------------------------------------------------


 INCAR:
 POTCAR:    PAW_PBE Mn_pv 02Aug2007               
 POTCAR:    PAW_PBE F 08Apr2002                   
 POTCAR:    PAW_PBE H 15Jun2001                   

 ----------------------------------------------------------------------------- 
|                                                                             |
|           W    W    AA    RRRRR   N    N  II  N    N   GGGG   !!!           |
|           W    W   A  A   R    R  NN   N  II  NN   N  G    G  !!!           |
|           W    W  A    A  R    R  N N  N  II  N N  N  G       !!!           |
|           W WW W  AAAAAA  RRRRR   N  N N  II  N  N N  G  GGG   !            |
|           WW  WW  A    A  R   R   N   NN  II  N   NN  G    G                |
|           W    W  A    A  R    R  N    N  II  N    N   GGGG   !!!           |
|                                                                             |
|      You have enabled k-point parallelism (KPAR>1).                         |
|      This developmental code was originally  written by Paul Kent at ORNL,  |
|      and carefully double checked in Vienna.                                |
|      GW as well as linear response parallelism added by Martijn Marsman     |
|      and Georg Kresse.                                                      |
|      Carefully verify results versus KPAR=1.                                |
|      Report problems to Paul Kent and Vienna.                               |
|                                                                             |
 ----------------------------------------------------------------------------- 

 POTCAR:    PAW_PBE Mn_pv 02Aug2007               
   VRHFIN =Mn: 3p4s3d                                                           
   LEXCH  = PE                                                                  
   EATOM  =  2025.2664 eV,  148.8529 Ry                                         
                                                                                
   TITEL  = PAW_PBE Mn_pv 02Aug2007                                             
   LULTRA =        F    use ultrasoft PP ?                                      
   IUNSCR =        1    unscreen: 0-lin 1-nonlin 2-no                           
   RPACOR =    2.080    partial core radius                                     
   POMASS =   54.938; ZVAL   =   13.000    mass and valenz                      
   RCORE  =    2.300    outmost cutoff radius                                   
   RWIGS  =    2.500; RWIGS  =    1.323    wigner-seitz radius (au A)           
   ENMAX  =  269.864; ENMIN  =  202.398 eV                                      
   ICORE  =        3    local potential                                         
   LCOR   =        T    correct aug charges                                     
   LPAW   =        T    paw PP                                                  
   EAUG   =  569.085                                                            
   DEXC   =    0.000                                                            
   RMAX   =    2.343    core radius for proj-oper                               
   RAUG   =    1.300    factor for augmentation sphere                          
   RDEP   =    2.338    radius for radial grids                                 
   RDEPT  =    1.798    core radius for aug-charge                              
                                                                                
   Atomic configuration                                                         
    8 entries                                                                   
     n  l   j            E        occ.                                          
     1  0  0.50     -6424.8287   2.0000                                         
     2  0  0.50      -739.1154   2.0000                                         
     2  1  1.50      -625.3949   6.0000                                         
     3  0  0.50       -81.6100   2.0000                                         
     3  1  1.50       -50.4667   6.0000                                         
     3  2  2.50        -3.3745   6.0000                                         
     4  0  0.50        -4.1331   1.0000                                         
     4  3  2.50        -1.3606   0.0000                                         
   Description                                                                  
     l       E           TYP  RCUT    TYP  RCUT                                 
     1    -50.4666628     23  2.000                                             
     1     -1.3605826     23  2.000                                             
     2     -3.3744729     23  2.300                                             
     2     -4.7350555     23  2.300                                             
     0     -4.1331431     23  2.300                                             
     0      7.6656591     23  2.300                                             
     3      9.5240782     23  2.300                                             
  local pseudopotential read in
  partial core-charges read in
  partial kinetic energy density read in
  atomic valenz-charges read in
  non local Contribution for L=           1  read in
    real space projection operators read in
  non local Contribution for L=           1  read in
    real space projection operators read in
  non local Contribution for L=           2  read in
    real space projection operators read in
  non local Contribution for L=           2  read in
    real space projection operators read in
  non local Contribution for L=           0  read in
    real space projection operators read in
  non local Contribution for L=           0  read in
    real space projection operators read in
    PAW grid and wavefunctions read in
 
   number of l-projection  operators is LMAX  =           6
   number of lm-projection operators is LMMAX =          18
 
 POTCAR:    PAW_PBE F 08Apr2002                   
   VRHFIN =F: s2p5                                                              
   LEXCH  = PE                                                                  
   EATOM  =   659.6475 eV,   48.4827 Ry                                         
                                                                                
   TITEL  = PAW_PBE F 08Apr2002                                                 
   LULTRA =        F    use ultrasoft PP ?                                      
   IUNSCR =        1    unscreen: 0-lin 1-nonlin 2-no                           
   RPACOR =    1.200    partial core radius                                     
   POMASS =   18.998; ZVAL   =    7.000    mass and valenz                      
   RCORE  =    1.520    outmost cutoff radius                                   
   RWIGS  =    1.500; RWIGS  =    0.794    wigner-seitz radius (au A)           
   ENMAX  =  400.000; ENMIN  =  300.000 eV                                      
   ICORE  =        2    local potential                                         
   LCOR   =        T    correct aug charges                                     
   LPAW   =        T    paw PP                                                  
   EAUG   =  613.614                                                            
   RMAX   =    1.555    core radius for proj-oper                               
   RAUG   =    1.300    factor for augmentation sphere                          
   RDEP   =    1.539    radius for radial grids                                 
   RDEPT  =    1.299    core radius for aug-charge                              
                                                                                
   Atomic configuration                                                         
    4 entries                                                                   
     n  l   j            E        occ.                                          
     1  0  0.50      -663.3661   2.0000                                         
     2  0  0.50       -29.8995   2.0000                                         
     2  1  0.50       -11.1114   5.0000                                         
     3  2  1.50       -10.8847   0.0000                                         
   Description                                                                  
     l       E           TYP  RCUT    TYP  RCUT                                 
     0    -29.8995018     23  1.200                                             
     0     -9.5240782     23  1.200                                             
     1    -11.1113914     23  1.520                                             
     1      1.3605826     23  1.520                                             
     2    -10.8846608      7  1.500                                             
  local pseudopotential read in
  partial core-charges read in
  partial kinetic energy density read in
  atomic valenz-charges read in
  non local Contribution for L=           0  read in
    real space projection operators read in
  non local Contribution for L=           0  read in
    real space projection operators read in
  non local Contribution for L=           1  read in
    real space projection operators read in
  non local Contribution for L=           1  read in
    real space projection operators read in
    PAW grid and wavefunctions read in
 
   number of l-projection  operators is LMAX  =           4
   number of lm-projection operators is LMMAX =           8
 
 POTCAR:    PAW_PBE H 15Jun2001                   
   VRHFIN =H: ultrasoft test                                                    
   LEXCH  = PE                                                                  
   EATOM  =    12.4884 eV,    0.9179 Ry                                         
                                                                                
   TITEL  = PAW_PBE H 15Jun2001                                                 
   LULTRA =        F    use ultrasoft PP ?                                      
   IUNSCR =        0    unscreen: 0-lin 1-nonlin 2-no                           
   RPACOR =    0.000    partial core radius                                     
   POMASS =    1.000; ZVAL   =    1.000    mass and valenz                      
   RCORE  =    1.100    outmost cutoff radius                                   
   RWIGS  =    0.700; RWIGS  =    0.370    wigner-seitz radius (au A)           
   ENMAX  =  250.000; ENMIN  =  200.000 eV                                      
   RCLOC  =    0.701    cutoff for local pot                                    
   LCOR   =        T    correct aug charges                                     
   LPAW   =        T    paw PP                                                  
   EAUG   =  400.000                                                            
   RMAX   =    1.123    core radius for proj-oper                               
   RAUG   =    1.200    factor for augmentation sphere                          
   RDEP   =    1.112    radius for radial grids                                 
   RDEPT  =    0.926    core radius for aug-charge                              
                                                                                
   Atomic configuration                                                         
    2 entries                                                                   
     n  l   j            E        occ.                                          
     1  0  0.50        -6.4927   1.0000                                         
     2  1  0.50        -3.4015   0.0000                                         
   Description                                                                  
     l       E           TYP  RCUT    TYP  RCUT                                 
     0     -6.4927494     23  1.100                                             
     0      6.8029130     23  1.100                                             
     1     -4.0817478     23  1.100                                             
  local pseudopotential read in
  atomic valenz-charges read in
  non local Contribution for L=           0  read in
    real space projection operators read in
  non local Contribution for L=           0  read in
    real space projection operators read in
  non local Contribution for L=           1  read in
    real space projection operators read in
    PAW grid and wavefunctions read in
 
   number of l-projection  operators is LMAX  =           3
   number of lm-projection operators is LMMAX =           5
 

 ----------------------------------------------------------------------------- 
|                                                                             |
|  ADVICE TO THIS USER RUNNING 'VASP/VAMP'   (HEAR YOUR MASTER'S VOICE ...):  |
|                                                                             |
|      You have a (more or less) 'large supercell' and for larger cells       |
|      it might be more efficient to use real space projection opertators     |
|      So try LREAL= Auto  in the INCAR   file.                               |
|      Mind:          For very  accurate calculation you might also keep the  |
|      reciprocal projection scheme          (i.e. LREAL=.FALSE.)             |
|                                                                             |
 ----------------------------------------------------------------------------- 


 ----------------------------------------------------------------------------- 
|                                                                             |
|  ADVICE TO THIS USER RUNNING 'VASP/VAMP'   (HEAR YOUR MASTER'S VOICE ...):  |
|                                                                             |
|      You enforced a specific xc-type in the INCAR file,                     |
|      a different type was found on the POTCAR file                          |
|          I HOPE YOU KNOW, WHAT YOU ARE  DOING                               |
|                                                                             |
 ----------------------------------------------------------------------------- 

  PAW_PBE Mn_pv 02Aug2007               :
 energy of atom  1       EATOM=-2025.2664
 kinetic energy error for atom=    0.0020 (will be added to EATOM!!)
  PAW_PBE F 08Apr2002                   :
 energy of atom  2       EATOM= -659.6475
 kinetic energy error for atom=    0.0140 (will be added to EATOM!!)
  PAW_PBE H 15Jun2001                   :
 energy of atom  3       EATOM=  -12.4884
 kinetic energy error for atom=    0.0002 (will be added to EATOM!!)
 
 
 POSCAR: Mn  F  H                                
  positions in direct lattice
  velocities in cartesian coordinates
 exchange correlation table for  LEXCH =       14
   RHO(1)=    0.500       N(1)  =     2000
   RHO(2)=  100.500       N(2)  =     4000
 


--------------------------------------------------------------------------------------------------------


 ion  position               nearest neighbor table
   1  0.165  0.165  0.125-  73 2.09  74 2.09  76 2.12  80 2.12  79 2.18  75 2.18
   2  0.000  1.000  0.971- 117 2.02 182 2.02 217 2.03  75 2.06 204 2.06 105 2.33 170 2.33   8 3.03

   3  0.168  0.168  0.376-  77 2.10  78 2.10  84 2.11  80 2.12  83 2.14  79 2.18
   4  0.000  1.000  0.279- 109 2.02 174 2.02 217 2.03  79 2.06 208 2.06 105 2.33 170 2.33   6 3.03

   5  0.167  0.167  0.625-  82 2.10  81 2.10  84 2.12  88 2.12  87 2.14  83 2.14
   6  0.000  1.000  0.508- 178 2.09 113 2.09 212 2.10  83 2.10 109 2.13 174 2.13   4 3.03   8 3.08

   7  0.168  0.168  0.874-  85 2.10  86 2.10  88 2.11  76 2.12  87 2.14  75 2.18
   8  1.000  1.000  0.742- 178 2.09 113 2.09 216 2.10  87 2.10 182 2.13 117 2.13   2 3.03   6 3.08

   9  0.167  0.500  0.125-  90 2.11  89 2.11  92 2.13  96 2.13  95 2.13  91 2.13
  10  0.000  0.333  1.000-  91 2.10 198 2.12 172 2.13 186 2.13  85 2.13  73 2.14
  11  0.167  0.500  0.375-  94 2.10  93 2.11  99 2.13 100 2.13  96 2.13  95 2.14
  12  0.000  0.333  0.250-  95 2.10 190 2.12 176 2.13 186 2.13  77 2.13  73 2.14
  13  0.167  0.500  0.625-  98 2.10  97 2.10 100 2.13 104 2.13 103 2.14  99 2.14
  14  1.000  0.334  0.500-  99 2.10 180 2.10 194 2.13  81 2.14 190 2.14  77 2.14
  15  0.167  0.500  0.875- 102 2.10 101 2.11 103 2.13 104 2.13  92 2.13  91 2.14
  16  1.000  0.334  0.750- 103 2.10 184 2.10 194 2.13  81 2.14 198 2.14  85 2.14
  17  0.169  0.831  0.125- 106 2.07 111 2.11 108 2.11 107 2.11 112 2.11 105 2.36
  18  1.000  0.667  1.000- 188 2.10 101 2.12 107 2.13  89 2.13 214 2.13 202 2.14
  19  0.170  0.830  0.376- 110 2.07 109 2.11 116 2.12 115 2.12 111 2.15 112 2.15
  20  1.000  0.667  0.250- 192 2.10  93 2.12 111 2.13  89 2.13 206 2.13 202 2.14
  21  0.170  0.830  0.625- 114 2.08 113 2.11 119 2.13 120 2.13 116 2.13 115 2.13
  22  0.000  0.666  0.500- 196 2.10 115 2.10  97 2.13 210 2.14  93 2.14 206 2.14
  23  0.170  0.830  0.874- 118 2.07 117 2.11 120 2.12 119 2.12 107 2.15 108 2.15
  24  0.000  0.666  0.750- 200 2.10 119 2.10  97 2.13 210 2.14 101 2.14 214 2.14
  25  0.500  0.167  0.125- 121 2.10 122 2.11 128 2.13 124 2.13 123 2.13 127 2.13
  26  0.333  0.000  0.000- 123 2.10 165 2.12 108 2.13 153 2.13  86 2.13  74 2.14
  27  0.500  0.167  0.375- 125 2.10 126 2.11 131 2.13 132 2.13 128 2.13 127 2.14
  28  0.333  0.000  0.250- 127 2.10 157 2.12 112 2.13 153 2.13  78 2.13  74 2.14
  29  0.500  0.167  0.625- 129 2.10 130 2.10 136 2.13 132 2.13 131 2.14 135 2.14
  30  0.334  1.000  0.500- 131 2.10 116 2.10 161 2.13  82 2.14 157 2.14  78 2.14
  31  0.500  0.167  0.875- 133 2.10 134 2.11 135 2.13 136 2.13 124 2.13 123 2.14
  32  0.334  1.000  0.750- 135 2.10 120 2.10 161 2.13  82 2.14 165 2.14  86 2.14
  33  0.500  0.500  0.125- 138 2.09 137 2.09 144 2.13 140 2.13 139 2.13 143 2.13
  34  0.333  0.333  0.000- 139 2.11  76 2.13 102 2.13 133 2.13 121 2.13  90 2.13
  35  0.500  0.500  0.375- 141 2.09 142 2.09 148 2.13 147 2.13 143 2.13 144 2.13
  36  0.333  0.333  0.250- 143 2.11  80 2.13  94 2.13 125 2.13  90 2.13 121 2.13
  37  0.500  0.500  0.625- 146 2.09 145 2.09 147 2.13 152 2.13 148 2.13 151 2.13
  38  0.334  0.334  0.500- 147 2.10  84 2.11 129 2.13  98 2.13 125 2.14  94 2.14
  39  0.500  0.500  0.875- 150 2.09 149 2.09 152 2.13 151 2.13 139 2.13 140 2.13
  40  0.334  0.334  0.750- 151 2.10  88 2.11  98 2.13 129 2.13 133 2.14 102 2.14
  41  0.500  0.833  0.125- 154 2.10 153 2.11 155 2.13 159 2.13 160 2.13 156 2.13
  42  0.335  0.665  0.000-  92 2.10 155 2.10 137 2.11 149 2.12 118 2.12 106 2.14
  43  0.500  0.833  0.375- 158 2.10 157 2.11 164 2.13 163 2.13 159 2.13 160 2.14
  44  0.335  0.665  0.250-  96 2.10 159 2.10 137 2.11 141 2.12 110 2.12 106 2.14
  45  0.500  0.833  0.625- 162 2.10 161 2.10 163 2.13 167 2.13 168 2.14 164 2.14
  46  0.335  0.665  0.500- 100 2.10 163 2.10 141 2.12 114 2.12 145 2.12 110 2.14
  47  0.500  0.833  0.875- 166 2.10 165 2.11 168 2.13 167 2.13 155 2.13 156 2.14
  48  0.335  0.665  0.750- 104 2.10 167 2.10 149 2.12 114 2.12 145 2.12 118 2.14
  49  0.831  0.169  0.125- 169 2.07 171 2.11 176 2.11 172 2.11 175 2.11 170 2.36
  50  0.667  1.000  1.000- 156 2.10 134 2.12 171 2.13 122 2.13 213 2.13 201 2.14
  51  0.830  0.170  0.376- 173 2.07 174 2.11 179 2.12 180 2.12 175 2.15 176 2.15
  52  0.667  1.000  0.250- 160 2.10 126 2.12 175 2.13 122 2.13 205 2.13 201 2.14
  53  0.831  0.169  0.625- 177 2.08 178 2.11 180 2.13 179 2.13 183 2.13 184 2.13
  54  0.666  0.000  0.500- 164 2.10 179 2.10 130 2.13 209 2.14 126 2.14 205 2.14
  55  0.830  0.170  0.874- 181 2.07 182 2.11 183 2.12 184 2.12 172 2.15 171 2.15
  56  0.666  0.000  0.750- 168 2.10 183 2.10 130 2.13 209 2.14 134 2.14 213 2.14
  57  0.833  0.500  0.125- 185 2.10 186 2.11 187 2.13 191 2.13 192 2.13 188 2.13
  58  0.665  0.335  0.000- 187 2.10 124 2.10 138 2.11 150 2.12 181 2.12 169 2.14
  59  0.833  0.500  0.375- 189 2.10 190 2.11 196 2.13 195 2.13 191 2.13 192 2.14
  60  0.665  0.335  0.250- 191 2.10 128 2.10 138 2.11 142 2.12 173 2.12 169 2.14
  61  0.833  0.500  0.625- 193 2.10 194 2.10 199 2.13 195 2.13 196 2.14 200 2.14
  62  0.665  0.335  0.500- 195 2.10 132 2.10 142 2.12 177 2.12 146 2.12 173 2.14
  63  0.833  0.500  0.875- 197 2.10 198 2.11 200 2.13 199 2.13 187 2.13 188 2.14
  64  0.665  0.335  0.750- 136 2.10 199 2.10 150 2.12 177 2.12 146 2.12 181 2.14
  65  0.835  0.835  0.125- 201 2.09 202 2.09 203 2.12 207 2.12 208 2.18 204 2.18
  66  0.667  0.667  0.000- 140 2.11 203 2.13 166 2.13 197 2.13 185 2.13 154 2.13
  67  0.832  0.832  0.376- 205 2.10 206 2.10 211 2.11 207 2.12 212 2.14 208 2.18
  68  0.667  0.667  0.250- 144 2.11 207 2.13 189 2.13 158 2.13 154 2.13 185 2.13
  69  0.833  0.832  0.625- 210 2.10 209 2.10 215 2.12 211 2.12 212 2.14 216 2.14
  70  0.666  0.666  0.500- 148 2.10 211 2.11 193 2.13 162 2.13 158 2.14 189 2.14
  71  0.832  0.832  0.874- 213 2.10 214 2.10 215 2.11 203 2.12 216 2.14 204 2.18
  72  0.666  0.666  0.750- 152 2.10 215 2.11 162 2.13 193 2.13 197 2.14 166 2.14
  73  0.064  0.265  0.125-   1 2.09  12 2.14  10 2.14
  74  0.265  0.064  0.125-   1 2.09  26 2.14  28 2.14
  75  0.098  0.098  0.997-   2 2.06   7 2.18   1 2.18
  76  0.230  0.230  0.001-   7 2.12   1 2.12  34 2.13
  77  0.064  0.267  0.375-   3 2.10  12 2.13  14 2.14
  78  0.267  0.064  0.375-   3 2.10  28 2.13  30 2.14
  79  0.098  0.098  0.253-   4 2.06   3 2.18   1 2.18
  80  0.230  0.230  0.249-   3 2.12   1 2.12  36 2.13
  81  0.064  0.268  0.625-   5 2.10  14 2.14  16 2.14
  82  0.268  0.064  0.625-   5 2.10  30 2.14  32 2.14
  83  0.101  0.101  0.500-   6 2.10   3 2.14   5 2.14
  84  0.232  0.232  0.500-  38 2.11   3 2.11   5 2.12
  85  0.064  0.267  0.875-   7 2.10  10 2.13  16 2.14
  86  0.267  0.064  0.875-   7 2.10  26 2.13  32 2.14
  87  0.101  0.101  0.750-   8 2.10   7 2.14   5 2.14
  88  0.232  0.232  0.750-  40 2.11   7 2.11   5 2.12
  89  0.066  0.604  0.125-   9 2.11  20 2.13  18 2.13
  90  0.267  0.398  0.125-   9 2.11  36 2.13  34 2.13
  91  0.101  0.435  0.000-  10 2.10   9 2.13  15 2.14
  92  0.232  0.565  0.000-  42 2.10   9 2.13  15 2.13
  93  0.066  0.603  0.374-  11 2.11  20 2.12  22 2.14
  94  0.267  0.397  0.375-  11 2.10  36 2.13  38 2.14
  95  0.101  0.435  0.250-  12 2.10   9 2.13  11 2.14
  96  0.232  0.565  0.250-  44 2.10   9 2.13  11 2.13
  97  0.065  0.601  0.625-  13 2.10  24 2.13  22 2.13
  98  0.268  0.398  0.625-  13 2.10  40 2.13  38 2.13
  99  0.101  0.435  0.500-  14 2.10  11 2.13  13 2.14
 100  0.232  0.565  0.500-  46 2.10  11 2.13  13 2.13
 101  0.066  0.603  0.876-  15 2.11  18 2.12  24 2.14
 102  0.267  0.397  0.876-  15 2.10  34 2.13  40 2.14
 103  0.101  0.435  0.751-  16 2.10  15 2.13  13 2.14
 104  0.232  0.565  0.750-  48 2.10  15 2.13  13 2.13
 105  0.055  0.945  0.125- 217 1.15   4 2.33   2 2.33  17 2.36
 106  0.269  0.731  0.125-  17 2.07  44 2.14  42 2.14
 107  0.099  0.773  0.001-  17 2.11  18 2.13  23 2.15
 108  0.227  0.901  0.001-  17 2.11  26 2.13  23 2.15
 109  0.068  0.932  0.388-   4 2.02  19 2.11   6 2.13
 110  0.270  0.730  0.374-  19 2.07  44 2.12  46 2.14
 111  0.099  0.773  0.249-  17 2.11  20 2.13  19 2.15
 112  0.227  0.901  0.249-  17 2.11  28 2.13  19 2.15
 113  0.068  0.932  0.625-   6 2.09   8 2.09  21 2.11
 114  0.270  0.730  0.625-  21 2.08  46 2.12  48 2.12
 115  0.104  0.765  0.500-  22 2.10  19 2.12  21 2.13
 116  0.235  0.896  0.500-  30 2.10  19 2.12  21 2.13
 117  0.068  0.932  0.862-   2 2.02  23 2.11   8 2.13
 118  0.270  0.730  0.877-  23 2.07  42 2.12  48 2.14
 119  0.104  0.765  0.750-  24 2.10  23 2.12  21 2.13
 120  0.235  0.896  0.750-  32 2.10  23 2.12  21 2.13
 121  0.398  0.267  0.125-  25 2.10  34 2.13  36 2.13
 122  0.604  0.066  0.125-  25 2.11  52 2.13  50 2.13
 123  0.435  0.101  0.000-  26 2.10  25 2.13  31 2.14
 124  0.565  0.232  0.000-  58 2.10  25 2.13  31 2.13
 125  0.397  0.267  0.375-  27 2.10  36 2.13  38 2.14
 126  0.603  0.066  0.374-  27 2.11  52 2.12  54 2.14
 127  0.435  0.101  0.250-  28 2.10  25 2.13  27 2.14
 128  0.565  0.232  0.250-  60 2.10  25 2.13  27 2.13
 129  0.398  0.268  0.625-  29 2.10  38 2.13  40 2.13
 130  0.601  0.065  0.625-  29 2.10  54 2.13  56 2.13
 131  0.435  0.101  0.500-  30 2.10  27 2.13  29 2.14
 132  0.565  0.232  0.500-  62 2.10  27 2.13  29 2.13
 133  0.398  0.267  0.876-  31 2.10  34 2.13  40 2.14
 134  0.603  0.066  0.876-  31 2.11  50 2.12  56 2.14
 135  0.435  0.101  0.751-  32 2.10  31 2.13  29 2.14
 136  0.565  0.232  0.750-  64 2.10  31 2.13  29 2.13
 137  0.399  0.601  0.125-  33 2.09  42 2.11  44 2.11
 138  0.601  0.399  0.125-  33 2.09  60 2.11  58 2.11
 139  0.435  0.434  0.000-  34 2.11  33 2.13  39 2.13
 140  0.565  0.565  0.000-  66 2.11  33 2.13  39 2.13
 141  0.399  0.601  0.375-  35 2.09  44 2.12  46 2.12
 142  0.601  0.399  0.375-  35 2.09  60 2.12  62 2.12
 143  0.435  0.434  0.250-  36 2.11  33 2.13  35 2.13
 144  0.565  0.565  0.250-  68 2.11  33 2.13  35 2.13
 145  0.399  0.601  0.625-  37 2.09  46 2.12  48 2.12
 146  0.601  0.399  0.625-  37 2.09  64 2.12  62 2.12
 147  0.435  0.435  0.500-  38 2.10  35 2.13  37 2.13
 148  0.565  0.565  0.500-  70 2.10  35 2.13  37 2.13
 149  0.399  0.601  0.875-  39 2.09  42 2.12  48 2.12
 150  0.601  0.399  0.875-  39 2.09  58 2.12  64 2.12
 151  0.435  0.435  0.750-  40 2.10  39 2.13  37 2.13
 152  0.565  0.565  0.750-  72 2.10  39 2.13  37 2.13
 153  0.396  0.934  0.125-  41 2.11  28 2.13  26 2.13
 154  0.602  0.733  0.125-  41 2.10  68 2.13  66 2.13
 155  0.435  0.768  0.000-  42 2.10  41 2.13  47 2.13
 156  0.565  0.899  0.000-  50 2.10  41 2.13  47 2.14
 157  0.397  0.934  0.374-  43 2.11  28 2.12  30 2.14
 158  0.603  0.733  0.375-  43 2.10  68 2.13  70 2.14
 159  0.435  0.768  0.250-  44 2.10  41 2.13  43 2.13
 160  0.565  0.899  0.250-  52 2.10  41 2.13  43 2.14
 161  0.399  0.935  0.625-  45 2.10  32 2.13  30 2.13
 162  0.602  0.732  0.625-  45 2.10  72 2.13  70 2.13
 163  0.435  0.768  0.500-  46 2.10  43 2.13  45 2.13
 164  0.565  0.899  0.500-  54 2.10  43 2.13  45 2.14
 165  0.397  0.934  0.876-  47 2.11  26 2.12  32 2.14
 166  0.603  0.733  0.875-  47 2.10  66 2.13  72 2.14
 167  0.435  0.768  0.750-  48 2.10  47 2.13  45 2.13
 168  0.565  0.899  0.751-  56 2.10  47 2.13  45 2.14
 169  0.731  0.269  0.125-  49 2.07  58 2.14  60 2.14
 170  0.945  0.055  0.125- 217 1.14   2 2.33   4 2.33  49 2.36
 171  0.773  0.099  0.001-  49 2.11  50 2.13  55 2.15
 172  0.901  0.227  0.001-  49 2.11  10 2.13  55 2.15
 173  0.730  0.270  0.374-  51 2.07  60 2.12  62 2.14
 174  0.932  0.068  0.388-   4 2.02  51 2.11   6 2.13
 175  0.773  0.099  0.249-  49 2.11  52 2.13  51 2.15
 176  0.901  0.227  0.249-  49 2.11  12 2.13  51 2.15
 177  0.730  0.270  0.625-  53 2.08  62 2.12  64 2.12
 178  0.932  0.068  0.625-   8 2.09   6 2.09  53 2.11
 179  0.765  0.104  0.500-  54 2.10  51 2.12  53 2.13
 180  0.896  0.235  0.500-  14 2.10  51 2.12  53 2.13
 181  0.730  0.270  0.876-  55 2.07  58 2.12  64 2.14
 182  0.932  0.068  0.862-   2 2.02  55 2.11   8 2.13
 183  0.765  0.104  0.750-  56 2.10  55 2.12  53 2.13
 184  0.896  0.235  0.750-  16 2.10  55 2.12  53 2.13
 185  0.733  0.602  0.125-  57 2.10  68 2.13  66 2.13
 186  0.934  0.396  0.125-  57 2.11  12 2.13  10 2.13
 187  0.768  0.435  0.000-  58 2.10  57 2.13  63 2.13
 188  0.899  0.565  0.000-  18 2.10  57 2.13  63 2.14
 189  0.733  0.602  0.375-  59 2.10  68 2.13  70 2.14
 190  0.934  0.397  0.374-  59 2.11  12 2.12  14 2.14
 191  0.768  0.435  0.250-  60 2.10  57 2.13  59 2.13
 192  0.899  0.565  0.250-  20 2.10  57 2.13  59 2.14
 193  0.732  0.602  0.625-  61 2.10  72 2.13  70 2.13
 194  0.935  0.399  0.625-  61 2.10  16 2.13  14 2.13
 195  0.768  0.435  0.500-  62 2.10  59 2.13  61 2.13
 196  0.899  0.565  0.499-  22 2.10  59 2.13  61 2.14
 197  0.733  0.602  0.876-  63 2.10  66 2.13  72 2.14
 198  0.934  0.397  0.876-  63 2.11  10 2.12  16 2.14
 199  0.768  0.435  0.750-  64 2.10  63 2.13  61 2.13
 200  0.899  0.565  0.751-  24 2.10  63 2.13  61 2.14
 201  0.735  0.936  0.125-  65 2.09  50 2.14  52 2.14
 202  0.936  0.735  0.125-  65 2.09  20 2.14  18 2.14
 203  0.770  0.770  0.001-  71 2.12  65 2.12  66 2.13
 204  0.902  0.902  0.997-   2 2.06  71 2.18  65 2.18
 205  0.733  0.936  0.375-  67 2.10  52 2.13  54 2.14
 206  0.936  0.733  0.375-  67 2.10  20 2.13  22 2.14
 207  0.770  0.770  0.249-  67 2.12  65 2.12  68 2.13
 208  0.902  0.902  0.253-   4 2.06  67 2.18  65 2.18
 209  0.732  0.935  0.625-  69 2.10  56 2.14  54 2.14
 210  0.936  0.732  0.625-  69 2.10  24 2.14  22 2.14
 211  0.768  0.768  0.500-  70 2.11  67 2.11  69 2.12
 212  0.899  0.899  0.500-   6 2.10  67 2.14  69 2.14
 213  0.733  0.936  0.875-  71 2.10  50 2.13  56 2.14
 214  0.936  0.733  0.875-  71 2.10  18 2.13  24 2.14
 215  0.768  0.768  0.750-  72 2.11  71 2.11  69 2.12
 216  0.899  0.899  0.750-   8 2.10  71 2.14  69 2.14
 217  1.000  0.000  0.125- 170 1.14 105 1.15   4 2.03   2 2.03
 

IMPORTANT INFORMATION: All symmetrisations will be switched off!
NOSYMM: (Re-)initialisation of all symmetry stuff for point group C_1.

 
 
 KPOINTS: KPOINTS created by Atomic Simulation Env

Automatic generation of k-mesh.
Space group operators:
 irot       det(A)        alpha          n_x          n_y          n_z        tau_x        tau_y        tau_z
    1     1.000000     0.000000     1.000000     0.000000     0.000000     0.000000     0.000000     0.000000
 
 Subroutine IBZKPT returns following result:
 ===========================================
 
 Found      4 irreducible k-points:
 
 Following reciprocal coordinates:
            Coordinates               Weight
  0.250000  0.250000  0.250000      2.000000
 -0.250000  0.250000  0.250000      2.000000
  0.250000 -0.250000  0.250000      2.000000
 -0.250000 -0.250000  0.250000      2.000000
 
 Following cartesian coordinates:
            Coordinates               Weight
  0.017066  0.017066  0.018935      2.000000
 -0.017066  0.017066  0.018935      2.000000
  0.017066 -0.017066  0.018935      2.000000
 -0.017066 -0.017066  0.018935      2.000000
 


--------------------------------------------------------------------------------------------------------




 Dimension of arrays:
   k-points           NKPTS =      4   k-points in BZ     NKDIM =      4   number of bands    NBANDS=   1168
   number of dos      NEDOS =    301   number of ions     NIONS =    217
   non local maximal  LDIM  =      6   non local SUM 2l+1 LMDIM =     18
   total plane-waves  NPLWV = 829440
   max r-space proj   IRMAX =      1   max aug-charges    IRDMAX=  71248
   dimension x,y,z NGX =    96 NGY =   96 NGZ =   90
   dimension x,y,z NGXF=   192 NGYF=  192 NGZF=  180
   support grid    NGXF=   384 NGYF=  384 NGZF=  360
   ions per type =              72 144   1
   NGX,Y,Z   is equivalent  to a cutoff of  10.89, 10.89, 11.33 a.u.
   NGXF,Y,Z  is equivalent  to a cutoff of  21.79, 21.79, 22.66 a.u.

 SYSTEM =  unknown system                          
 POSCAR =  Mn  F  H                                

 Startparameter for this run:
   NWRITE =      2    write-flag & timer
   PREC   = normal    normal or accurate (medium, high low for compatibility)
   ISTART =      1    job   : 0-new  1-cont  2-samecut
   ICHARG =      1    charge: 1-file 2-atom 10-const
   ISPIN  =      2    spin polarized calculation?
   LNONCOLLINEAR =      F non collinear calculations
   LSORBIT =      F    spin-orbit coupling
   INIWAV =      1    electr: 0-lowe 1-rand  2-diag
   LASPH  =      T    aspherical Exc in radial PAW
   METAGGA=      F    non-selfconsistent MetaGGA calc.

 Electronic Relaxation 1
   ENCUT  =  700.0 eV  51.45 Ry    7.17 a.u.  31.60 31.60 28.48*2*pi/ulx,y,z
   ENINI  =  700.0     initial cutoff
   ENAUG  =  613.6 eV  augmentation charge cutoff
   NELM   =     60;   NELMIN=  2; NELMDL=  0     # of ELM steps 
   EDIFF  = 0.1E-06   stopping-criterion for ELM
   LREAL  =      F    real-space projection
   NLSPLINE    = F    spline interpolate recip. space projectors
   LCOMPAT=      F    compatible to vasp.4.4
   GGA_COMPAT  = T    GGA compatible to vasp.4.4-vasp.4.6
   LMAXPAW     = -100 max onsite density
   LMAXMIX     =    4 max onsite mixed and CHGCAR
   VOSKOWN=      0    Vosko Wilk Nusair interpolation
   ROPT   =    0.00000   0.00000   0.00000
 Ionic relaxation
   EDIFFG = -.5E-02   stopping-criterion for IOM
   NSW    =      0    number of steps for IOM
   NBLOCK =      1;   KBLOCK =      1    inner block; outer block 
   IBRION =     -1    ionic relax: 0-MD 1-quasi-New 2-CG
   NFREE  =      0    steps in history (QN), initial steepest desc. (CG)
   ISIF   =      2    stress and relaxation
   IWAVPR =     10    prediction:  0-non 1-charg 2-wave 3-comb
   ISYM   =      0    0-nonsym 1-usesym 2-fastsym
   LCORR  =      T    Harris-Foulkes like correction to forces

   POTIM  = 0.5000    time-step for ionic-motion
   TEIN   =    0.0    initial temperature
   TEBEG  =    0.0;   TEEND  =   0.0 temperature during run
   SMASS  =  -3.00    Nose mass-parameter (am)
   estimated Nose-frequenzy (Omega)   =  0.10E-29 period in steps =****** mass=  -0.490E-26a.u.
   SCALEE = 1.0000    scale energy and forces
   NPACO  =    256;   APACO  = 16.0  distance and # of slots for P.C.
   PSTRESS=    0.0 pullay stress

  Mass of Ions in am
   POMASS =  54.94 19.00  1.00
  Ionic Valenz
   ZVAL   =  13.00  7.00  1.00
  Atomic Wigner-Seitz radii
   RWIGS  =  -1.00 -1.00 -1.00
  virtual crystal weights 
   VCA    =   1.00  1.00  1.00
   NELECT =    1944.0000    total number of electrons
   NUPDOWN=      -1.0000    fix difference up-down

 DOS related values:
   EMIN   =  10.00;   EMAX   =-10.00  energy-range for DOS
   EFERMI =   0.00
   ISMEAR =     0;   SIGMA  =   0.01  broadening in eV -4-tet -1-fermi 0-gaus

 Electronic relaxation 2 (details)
   IALGO  =     68    algorithm
   LDIAG  =      T    sub-space diagonalisation (order eigenvalues)
   LSUBROT=      F    optimize rotation matrix (better conditioning)
   TURBO    =      0    0=normal 1=particle mesh
   IRESTART =      0    0=no restart 2=restart with 2 vectors
   NREBOOT  =      0    no. of reboots
   NMIN     =      0    reboot dimension
   EREF     =   0.00    reference energy to select bands
   IMIX   =      4    mixing-type and parameters
     AMIX     =   0.40;   BMIX     =  1.00
     AMIX_MAG =   1.60;   BMIX_MAG =  1.00
     AMIN     =   0.10
     WC   =   100.;   INIMIX=   1;  MIXPRE=   1;  MAXMIX= -45

 Intra band minimization:
   WEIMIN = 0.0000     energy-eigenvalue tresh-hold
   EBREAK =  0.21E-10  absolut break condition
   DEPER  =   0.30     relativ break condition  

   TIME   =   0.40     timestep for ELM

  volume/ion in A,a.u.               =      13.06        88.12
  Fermi-wavevector in a.u.,A,eV,Ry     =   1.443888  2.728552 28.365585  2.084812
  Thomas-Fermi vector in A             =   2.562245
 
 Write flags
   LWAVE        =      T    write WAVECAR
   LDOWNSAMPLE  =      F    k-point downsampling of WAVECAR
   LCHARG       =      T    write CHGCAR
   LVTOT        =      F    write LOCPOT, total local potential
   LVHAR        =      F    write LOCPOT, Hartree potential only
   LELF         =      F    write electronic localiz. function (ELF)
   LORBIT       =     11    0 simple, 1 ext, 2 COOP (PROOUT), +10 PAW based schemes


 Dipole corrections
   LMONO  =      F    monopole corrections only (constant potential shift)
   LDIPOL =      F    correct potential (dipole corrections)
   IDIPOL =      0    1-x, 2-y, 3-z, 4-all directions 
   EPSILON=  1.0000000 bulk dielectric constant

 LDA+U is selected, type is set to LDAUTYPE =  2
   angular momentum for each species LDAUL =     2   -1   -1
   U (eV)           for each species LDAUU =   4.0  0.0  0.0
   J (eV)           for each species LDAUJ =   0.0  0.0  0.0
 Exchange correlation treatment:
   GGA     =    PS    GGA type
   LEXCH   =    14    internal setting for exchange type
   VOSKOWN=      0    Vosko Wilk Nusair interpolation
   LHFCALC =     F    Hartree Fock is set to
   LHFONE  =     F    Hartree Fock one center treatment
   AEXX    =    0.0000 exact exchange contribution

 Linear response parameters
   LEPSILON=     F    determine dielectric tensor
   LRPA    =     F    only Hartree local field effects (RPA)
   LNABLA  =     F    use nabla operator in PAW spheres
   LVEL    =     F    velocity operator in full k-point grid
   LINTERFAST=   F  fast interpolation
   KINTER  =     0    interpolate to denser k-point grid
   CSHIFT  =0.1000    complex shift for real part using Kramers Kronig
   OMEGAMAX=  -1.0    maximum frequency
   DEG_THRESHOLD= 0.2000000E-02 threshold for treating states as degnerate
   RTIME   =   -0.100 relaxation time in fs
  (WPLASMAI=    0.000 imaginary part of plasma frequency in eV, 0.658/RTIME)
   DFIELD  = 0.0000000 0.0000000 0.0000000 field for delta impulse in time
 
 Orbital magnetization related:
   ORBITALMAG=     F  switch on orbital magnetization
   LCHIMAG   =     F  perturbation theory with respect to B field
   DQ        =  0.001000  dq finite difference perturbation B field
   LLRAUG    =     F  two centre corrections for induced B field



--------------------------------------------------------------------------------------------------------


 Static calculation
 charge density and potential will be updated during run
 spin polarized calculation
 RMM-DIIS sequential band-by-band and
  variant of blocked Davidson during initial phase
 perform sub-space diagonalisation
    before iterative eigenvector-optimisation
 modified Broyden-mixing scheme, WC =      100.0
 initial mixing is a Kerker type mixing with AMIX =  0.4000 and BMIX =      1.0000
 Hartree-type preconditioning will be used
 using additional bands          196
 reciprocal scheme for non local part
 use partial core corrections
 calculate Harris-corrections to forces 
   (improved forces if not selfconsistent)
 use gradient corrections 
 use of overlap-Matrix (Vanderbilt PP)
 Gauss-broadening in eV      SIGMA  =   0.01


--------------------------------------------------------------------------------------------------------


  energy-cutoff  :      700.00
  volume of cell :     2833.48
      direct lattice vectors                 reciprocal lattice vectors
    14.649432430  0.000000000  0.000000000     0.068262030  0.000000000  0.000000000
     0.000000000 14.649432430  0.000000000     0.000000000  0.068262030  0.000000000
     0.000000000  0.000000000 13.203190708     0.000000000  0.000000000  0.075739268

  length of vectors
    14.649432430 14.649432430 13.203190708     0.068262030  0.068262030  0.075739268


 
 old parameters found on file WAVECAR:
  energy-cutoff  :      700.00
  volume of cell :     2833.48
      direct lattice vectors                 reciprocal lattice vectors
    14.649432430  0.000000000  0.000000000     0.068262030  0.000000000  0.000000000
     0.000000000 14.649432430  0.000000000     0.000000000  0.068262030  0.000000000
     0.000000000  0.000000000 13.203190708     0.000000000  0.000000000  0.075739268

  length of vectors

 
 k-points in units of 2pi/SCALE and weight: KPOINTS created by Atomic Simulation Env
   0.01706551  0.01706551  0.01893482       0.250
  -0.01706551  0.01706551  0.01893482       0.250
   0.01706551 -0.01706551  0.01893482       0.250
  -0.01706551 -0.01706551  0.01893482       0.250
 
 k-points in reciprocal lattice and weights: KPOINTS created by Atomic Simulation Env
   0.25000000  0.25000000  0.25000000       0.250
  -0.25000000  0.25000000  0.25000000       0.250
   0.25000000 -0.25000000  0.25000000       0.250
  -0.25000000 -0.25000000  0.25000000       0.250
 
 position of ions in fractional coordinates (direct lattice) 
   0.16494218  0.16487967  0.12501589
   0.00019318  0.99980019  0.97140910
   0.16766623  0.16760713  0.37609767
   0.00015677  0.99984396  0.27863111
   0.16746462  0.16738973  0.62501441
   0.00001825  0.99993413  0.50824465
   0.16766628  0.16759910  0.87393241
   0.99998477  0.99996777  0.74180232
   0.16657460  0.50003245  0.12503740
   0.00011794  0.33280692  0.99997269
   0.16674269  0.49987114  0.37482665
   0.00012571  0.33279046  0.25003280
   0.16675891  0.49973556  0.62503158
   0.99972828  0.33380554  0.50010979
   0.16675292  0.49987892  0.87524665
   0.99975201  0.33379236  0.74990417
   0.16925335  0.83072718  0.12504975
   0.99992294  0.66711255  0.99998700
   0.16985314  0.83011947  0.37641188
   0.99990742  0.66711951  0.25005495
   0.16955382  0.83044492  0.62505320
   0.00030380  0.66608462  0.50012822
   0.16987303  0.83012247  0.87368818
   0.00031484  0.66608050  0.74991234
   0.50011069  0.16653057  0.12502008
   0.33286606  0.00008735  0.00000562
   0.49995188  0.16668647  0.37480901
   0.33287517  0.00006997  0.25006920
   0.49984173  0.16670847  0.62501841
   0.33388537  0.99968840  0.50014235
   0.49996050  0.16668658  0.87522546
   0.33390470  0.99967479  0.74992840
   0.50003612  0.49994901  0.12502691
   0.33279766  0.33271723  0.00028817
   0.50002297  0.49995215  0.37466198
   0.33278783  0.33273297  0.24976567
   0.50003157  0.49992770  0.62503076
   0.33379096  0.33370937  0.49995913
   0.50003720  0.49994140  0.87539933
   0.33377909  0.33371746  0.75010088
   0.49993188  0.83339621  0.12503777
   0.33524314  0.66472277  0.00021006
   0.50008595  0.83321185  0.37482851
   0.33522083  0.66473981  0.24988737
   0.50021139  0.83318232  0.62503299
   0.33460494  0.66534439  0.50002224
   0.50007709  0.83320814  0.87523520
   0.33459708  0.66534778  0.75007469
   0.83073938  0.16923094  0.12499790
   0.66716239  0.99982639  0.99998758
   0.83024552  0.16970078  0.37632773
   0.66715728  0.99984228  0.25004760
   0.83050821  0.16944864  0.62499652
   0.66616014  0.00021098  0.50012632
   0.83024437  0.16969962  0.87366962
   0.66616412  0.00020775  0.74991684
   0.83346838  0.49988839  0.12500543
   0.66484281  0.33515168  0.00015742
   0.83330258  0.50002382  0.37480514
   0.66482278  0.33518059  0.24987732
   0.83328309  0.50014560  0.62501431
   0.66547498  0.33450793  0.49997419
   0.83329143  0.50002305  0.87521783
   0.66546122  0.33451685  0.75004481
   0.83511400  0.83504043  0.12502157
   0.66723961  0.66721674  0.00028570
   0.83237968  0.83231477  0.37609833
   0.66726990  0.66717643  0.24976045
   0.83255839  0.83246987  0.62502057
   0.66624634  0.66617918  0.49994748
   0.83239035  0.83230247  0.87393977
   0.66626288  0.66616182  0.75009526
   0.06357442  0.26509651  0.12499683
   0.26519770  0.06354692  0.12504346
   0.09816372  0.09806788  0.99742781
   0.23018536  0.23009854  0.00103758
   0.06438456  0.26692832  0.37504852
   0.26700440  0.06433277  0.37507043
   0.09817474  0.09806178  0.25260094
   0.23016018  0.23013045  0.24899565
   0.06447428  0.26757453  0.62499443
   0.26766165  0.06441228  0.62504459
   0.10132026  0.10123225  0.50041752
   0.23207776  0.23201385  0.50025772
   0.06439912  0.26693520  0.87498110
   0.26701775  0.06433980  0.87497974
   0.10129474  0.10125675  0.74960939
   0.23206773  0.23201995  0.74977643
   0.06643712  0.60386660  0.12502993
   0.26734944  0.39760178  0.12501918
   0.10093364  0.43470993  0.00049684
   0.23205028  0.56486415  0.00032019
   0.06604269  0.60270631  0.37393540
   0.26740465  0.39743683  0.37455349
   0.10095902  0.43467530  0.24956434
   0.23205608  0.56484967  0.24976636
   0.06477601  0.60065785  0.62501930
   0.26802733  0.39816954  0.62502619
   0.10123236  0.43495007  0.49950810
   0.23200882  0.56477377  0.49977116
   0.06605786  0.60271122  0.87610483
   0.26740100  0.39743475  0.87552107
   0.10127459  0.43492033  0.75055577
   0.23199008  0.56479324  0.75029641
   0.05515822  0.94478308  0.12504267
   0.26914010  0.73085470  0.12504102
   0.09906828  0.77315664  0.00133390
   0.22681235  0.90094719  0.00135238
   0.06835963  0.93157568  0.38810829
   0.26974338  0.73022121  0.37360445
   0.09907677  0.77313491  0.24875237
   0.22683867  0.90091437  0.24875574
   0.06785160  0.93211025  0.62504715
   0.27013266  0.72987432  0.62504288
   0.10417781  0.76528352  0.50036650
   0.23466624  0.89583496  0.50034850
   0.06841827  0.93161511  0.86189506
   0.26974787  0.73020803  0.87651137
   0.10419995  0.76527101  0.74973744
   0.23471768  0.89579499  0.74974784
   0.39766906  0.26728616  0.12503111
   0.60388006  0.06633321  0.12501381
   0.43476971  0.10089685  0.00048086
   0.56494096  0.23199553  0.00028701
   0.39749970  0.26733105  0.37453863
   0.60275829  0.06595946  0.37395442
   0.43477361  0.10088696  0.24955629
   0.56492671  0.23201242  0.24975014
   0.39826395  0.26797311  0.62503479
   0.60079889  0.06474886  0.62502245
   0.43500017  0.10121876  0.49951302
   0.56488663  0.23192859  0.49973893
   0.39750757  0.26733341  0.87550188
   0.60276616  0.06595567  0.87608636
   0.43502108  0.10119947  0.75053355
   0.56487737  0.23193780  0.75029019
   0.39909615  0.60087053  0.12505648
   0.60097474  0.39903973  0.12500705
   0.43457956  0.43447265  0.00024869
   0.56546172  0.56545586  0.00024849
   0.39905044  0.60087966  0.37510079
   0.60099165  0.39901347  0.37510075
   0.43457108  0.43448288  0.24980841
   0.56548487  0.56542316  0.24980865
   0.39910462  0.60082817  0.62505160
   0.60095269  0.39902398  0.62500493
   0.43494182  0.43485195  0.49974373
   0.56508500  0.56504923  0.49974707
   0.39905917  0.60086851  0.87497719
   0.60099607  0.39899608  0.87494972
   0.43493558  0.43485715  0.75031986
   0.56512331  0.56501004  0.75031248
   0.39614550  0.93357956  0.12502897
   0.60239277  0.73265554  0.12504884
   0.43510319  0.76791549  0.00031675
   0.56529031  0.89898570  0.00048160
   0.39728115  0.93394860  0.37396309
   0.60251654  0.73254339  0.37452854
   0.43507917  0.76793770  0.24976237
   0.56526737  0.89901930  0.24957870
   0.39929847  0.93518307  0.62502581
   0.60177905  0.73191092  0.62503426
   0.43517494  0.76794527  0.49976209
   0.56503423  0.89868835  0.49951762
   0.39725684  0.93392272  0.87613164
   0.60251760  0.73255476  0.87548596
   0.43517331  0.76793960  0.75030350
   0.56500184  0.89871732  0.75054659
   0.73090381  0.26911375  0.12503209
   0.94458538  0.05537279  0.12499878
   0.77311084  0.09904470  0.00130610
   0.90092313  0.22683271  0.00128426
   0.73034303  0.26965186  0.37355253
   0.93176947  0.06821105  0.38795774
   0.77313812  0.09902523  0.24870113
   0.90095784  0.22679236  0.24870999
   0.72993705  0.26999648  0.62501498
   0.93215509  0.06775045  0.62500066
   0.76542476  0.10402270  0.50028723
   0.89588371  0.23457443  0.50028481
   0.73034299  0.26964910  0.87644557
   0.93173351  0.06816827  0.86212703
   0.76543017  0.10402151  0.74970896
   0.89593186  0.23452831  0.74971225
   0.73269342  0.60231491  0.12500046
   0.93363460  0.39608666  0.12501127
   0.76801082  0.43503817  0.00028392
   0.89910600  0.56521719  0.00046363
   0.73263723  0.60245349  0.37454202
   0.93402402  0.39721941  0.37392414
   0.76800261  0.43505835  0.24973789
   0.89909005  0.56522982  0.24954856
   0.73200055  0.60170181  0.62501096
   0.93525165  0.39920267  0.62502202
   0.76805995  0.43508832  0.49974602
   0.89878314  0.56495940  0.49949631
   0.73263213  0.60246335  0.87552770
   0.93401915  0.39721639  0.87606554
   0.76803947  0.43510251  0.75027568
   0.89877775  0.56496561  0.75053617
   0.73485201  0.93636548  0.12502316
   0.93645002  0.73478880  0.12501443
   0.76986304  0.76982097  0.00104104
   0.90195633  0.90178657  0.99743169
   0.73302946  0.93557033  0.37504582
   0.93566477  0.73298619  0.37507332
   0.76990728  0.76977165  0.24900038
   0.90190855  0.90183775  0.25260676
   0.73233806  0.93542451  0.62502336
   0.93554169  0.73228014  0.62502550
   0.76794373  0.76788523  0.50023728
   0.89872120  0.89863411  0.50044127
   0.73304281  0.93556420  0.87498659
   0.93567877  0.73298038  0.87496778
   0.76796970  0.76785887  0.74980132
   0.89871159  0.89864632  0.74960180
   0.99974141  0.00016651  0.12502014
 
 position of ions in cartesian coordinates  (Angst):
   2.41630934  2.41539362  1.65060861
   0.00282997 14.64650537 12.82569956
   2.45621516  2.45534936  4.96568926
   0.00229655 14.64714660  3.67881963
   2.45326162  2.45216456  8.25218441
   0.00026741 14.64846748  6.71045100
   2.45621590  2.45523173 11.53869634
  14.64920926 14.64896021  9.79415753
   2.44022340  7.32519161  1.65089263
   0.00172770  4.87543248 13.20283019
   2.44268570  7.32282845  4.94890772
   0.00184153  4.87519132  3.30123072
   2.44292342  7.32084229  8.25241119
  14.64545191  4.89006166  6.60304491
   2.44283557  7.32294247 11.55604839
  14.64579948  4.88986868  9.90112784
   2.47946551 12.16968167  1.65105564
  14.64830352  9.77282024 13.20301901
   2.48825205 12.16077909  4.96983779
  14.64807618  9.77292215  3.30152318
   2.48386725 12.16554678  8.25269659
   0.00445055  9.75776158  6.60328826
   2.48854351 12.16082301 11.53547171
   0.00461229  9.75770130  9.90123567
   7.32633776  2.43957838  1.65066391
   4.87629890  0.00127961  0.00007423
   7.32401132  2.44186217  4.94867478
   4.87643235  0.00102502  3.30171131
   7.32239761  2.44218452  8.25223723
   4.89123121 14.64486761  6.60347489
   7.32413759  2.44186377 11.55576873
   4.89151427 14.64466824  9.90144770
   7.32524534  7.32396919  1.65075419
   4.87529689  4.87411855  0.00380482
   7.32505266  7.32401517  4.94673363
   4.87515288  4.87434915  3.29770382
   7.32517869  7.32365709  8.25240036
   4.88984811  4.88865289  6.60105574
   7.32526117  7.32385774 11.55806431
   4.88967423  4.88877140  9.90372491
   7.32371828 12.20878150  1.65089750
   4.91112173  9.73781132  0.00277345
   7.32597529 12.20608064  4.94893232
   4.91079496  9.73806093  3.29931061
   7.32781298 12.20564805  8.25242971
   4.90177242  9.74691766  6.60188903
   7.32584559 12.20602639 11.55589721
   4.90165729  9.74696740  9.90337916
  12.16986035  2.47913724  1.65037115
   9.77355037 14.64688909 13.20302675
  12.16262571  2.48602013  4.96872683
   9.77347548 14.64712196  3.30142618
  12.16647395  2.48232647  8.25194826
   9.75886800  0.00309080  6.60326320
  12.16260881  2.48600309 11.53522667
   9.75892625  0.00304340  9.90129504
  12.20983871  7.32308114  1.65047052
   9.73956984  4.90978190  0.00207851
  12.20740983  7.32506520  4.94862376
   9.73927632  4.91020537  3.29917791
  12.20712428  7.32684920  8.25218318
   9.74883069  4.90035128  6.60125460
  12.20724647  7.32505389 11.55566792
   9.74862911  4.90048198  9.90298473
  12.23394619 12.23286832  1.65068362
   9.77468151  9.77434651  0.00377222
  12.19388989 12.19293893  4.96569803
   9.77512534  9.77375597  3.29763485
  12.19650793 12.19521114  8.25226578
   9.76013068  9.75914681  6.60090195
  12.19404618 12.19275883 11.53879345
   9.76037310  9.75889260  9.90365072
   0.93132911  3.88351340  1.65035695
   3.88499573  0.93092631  1.65097267
   1.43804280  1.43663878 13.16922959
   3.37208483  3.37081301  0.01369936
   0.94319731  3.91034835  4.95183709
   3.91146297  0.94243854  4.95212646
   1.43820427  1.43654947  3.33513833
   3.37171600  3.37128047  3.28753706
   0.94451154  3.91981498  8.25192061
   3.92109129  0.94360331  8.25258294
   1.48428428  1.48299501  6.60710797
   3.39980745  3.39887127  6.60499803
   0.94341062  3.91044925 11.55254228
   3.91165845  0.94254149 11.55252441
   1.48391049  1.48335386  9.89723571
   3.39966057  3.39896054  9.89944117
   0.97326614  8.84630292  1.65079397
   3.91651761  5.82464043  1.65065201
   1.47862059  6.36825379  0.00655989
   3.39940491  8.27493920  0.00422751
   0.96748791  8.82930544  4.93714038
   3.91732641  5.82222394  4.94530110
   1.47899231  6.36774647  3.29504556
   3.39948984  8.27472714  3.29771284
   0.94893180  8.79929652  8.25224897
   3.92644820  5.83295779  8.25233996
   1.48299664  6.37177168  6.59510073
   3.39879748  8.27361519  6.59857398
   0.96771009  8.82937734 11.56737916
   3.91727288  5.82219353 11.55967162
   1.48361526  6.37133600  9.90973100
   3.39852306  8.27390046  9.90630656
   0.80803656 13.84053596  1.65096215
   3.94274967 10.70660656  1.65094040
   1.45129412 11.32630594  0.01761177
   3.32267221 13.19836498  0.01785577
   1.00142985 13.64705494  5.12426780
   3.95158735 10.69732621  4.93277082
   1.45141842 11.32598755  3.28432493
   3.32305777 13.19788420  3.28436945
   0.99398742 13.65488609  8.25261670
   3.95729014 10.69224446  8.25256041
   1.52614574 11.21096916  6.60643436
   3.43772719 13.12347370  6.60619669
   1.00228884 13.64763265 11.37976488
   3.95165314 10.69713325 11.57274679
   1.52647009 11.21078590  9.89892646
   3.43848085 13.12288820  9.89906365
   5.82562598  3.91559054  1.65080964
   8.84650011  0.97174382  1.65058111
   6.36912950  1.47808162  0.00634884
   8.27606443  3.39860289  0.00378948
   5.82314507  3.91624818  4.94510500
   8.83006688  0.96626865  4.93739151
   6.36918663  1.47793677  3.29493925
   8.27585572  3.39885023  3.29749869
   5.83434077  3.92565395  8.25245351
   8.80136268  0.94853411  8.25229059
   6.37250553  1.48279735  6.59516564
   8.27526850  3.39762227  6.59814834
   5.82326025  3.91628270 11.55941827
   8.83018214  0.96621320 11.56713524
   6.37281191  1.48251483  9.90943756
   8.27513288  3.39775718  9.90622440
   5.84653214  8.80241229  1.65114459
   8.80393890  5.84570555  1.65049197
   6.36634383  6.36477777  0.00328355
   8.28369328  8.28360737  0.00328083
   5.84586251  8.80254598  4.95252729
   8.80418653  5.84532094  4.95252679
   6.36621962  6.36492761  3.29826811
   8.28403235  8.28312844  3.29827122
   5.84665610  8.80179165  8.25267544
   8.80361576  5.84547477  8.25205928
   6.37165082  6.37033424  6.59821174
   8.27817456  8.27765056  6.59825590
   5.84599029  8.80238267 11.55249076
   8.80425129  5.84506618 11.55212797
   6.37155936  6.37041044  9.90661618
   8.27873575  8.27707633  9.90651882
   5.80330669 13.67641065  1.65078135
   8.82471213 10.73298789  1.65104375
   6.37401475 11.24952603  0.00418216
   8.28118225 13.16963020  0.00635867
   5.81994342 13.68181688  4.93750601
   8.82652534 10.73134482  4.94497177
   6.37366294 11.24985148  3.29766026
   8.28084611 13.17012243  3.29523513
   5.84949589 13.69990117  8.25233493
   8.81572146 10.72207960  8.25244653
   6.37506582 11.24996234  6.59845417
   8.27743072 13.16527422  6.59522640
   5.81958722 13.68143781 11.56773316
   8.82654080 10.73151140 11.55920812
   6.37504195 11.24987925  9.90640023
   8.27695632 13.16569863  9.90960973
  10.70732593  3.94236374  1.65082255
  13.83763971  0.81117996  1.65038279
  11.32563503  1.45094861  0.01724467
  13.19801246  3.32297050  0.01695635
  10.69911094  3.95024664  4.93208532
  13.64989393  0.99925310  5.12228004
  11.32603469  1.45066343  3.28364845
  13.19852105  3.32237941  3.28376542
  10.69316346  3.95529514  8.25219200
  13.65554301  0.99250558  8.25200293
  11.21303830  1.52387351  6.60538777
  13.12418786  3.43638222  6.60535580
  10.69911024  3.95020621 11.57187802
  13.64936714  0.99862645 11.38282755
  11.21311748  1.52385609  9.89855034
  13.12489321  3.43570657  9.89859379
  10.73354278  8.82357157  1.65040489
  13.67721697  5.80244481  1.65054766
  11.25092258  6.37306227  0.00374869
  13.17139262  8.28011106  0.00612139
  10.73271964  8.82560163  4.94514968
  13.68292173  5.81903884  4.93699177
  11.25080232  6.37335795  3.29733703
  13.17115896  8.28029612  3.29483725
  10.72339263  8.81459007  8.25213886
  13.70090580  5.84809250  8.25228497
  11.25164233  6.37379694  6.59824206
  13.16666290  8.27633457  6.59494506
  10.73264495  8.82574615 11.55975922
  13.68285036  5.81899469 11.56686037
  11.25134234  6.37400480  9.90603290
  13.16658388  8.27642550  9.90947219
  10.76516483 13.71722284  1.65070467
  13.71846134 10.76423884  1.65058931
  11.27805664 11.27744031  0.01374500
  13.21314827 13.21066140 13.16928078
  10.73846560 13.70557432  4.95180151
  13.70695783 10.73783169  4.95216460
  11.27870472 11.27671778  3.28759950
  13.21244832 13.21141121  3.33521529
  10.72833695 13.70343816  8.25230260
  13.70515470 10.72748845  8.25233087
  11.24993980 11.24908275  6.60472819
  13.16575549 13.16447973  6.60742146
  10.73866105 13.70548457 11.55261483
  13.70716294 10.73774657 11.55236647
  11.25032030 11.24869669  9.89976987
  13.16561469 13.16465859  9.89713549
  14.64564420  0.00243922  1.65066477
 


--------------------------------------------------------------------------------------------------------


 k-point  1 :   0.2500 0.2500 0.2500  plane waves:  119170
 k-point  2 :  -0.2500 0.2500 0.2500  plane waves:  119170
 k-point  3 :   0.2500-0.2500 0.2500  plane waves:  119170
 k-point  4 :  -0.2500-0.2500 0.2500  plane waves:  119170

 maximum and minimum number of plane-waves per node :      9968     9893

 maximum number of plane-waves:    119170
 maximum index in each direction: 
   IXMAX=   31   IYMAX=   31   IZMAX=   28
   IXMIN=  -31   IYMIN=  -31   IZMIN=  -28


 parallel 3D FFT for wavefunctions:
    minimum data exchange during FFTs selected (reduces bandwidth)
 parallel 3D FFT for charge:
    minimum data exchange during FFTs selected (reduces bandwidth)


 total amount of memory used by VASP MPI-rank0   501409. kBytes
=======================================================================

   base      :      30000. kBytes
   nonl-proj :      51625. kBytes
   fftplans  :      22373. kBytes
   grid      :      17829. kBytes
   one-center:        590. kBytes
   wavefun   :     378992. kBytes
 
     INWAV:  cpu time   69.0737: real time   69.1353
 Broyden mixing: mesh for mixing (old mesh)
   NGX = 63   NGY = 63   NGZ = 57
  (NGX  =192   NGY  =192   NGZ  =180)
  gives a total of 226233 points

 initial charge density was supplied:
 number of electron    1944.0000061 magnetization       0.0000003
 keeping initial charge density in first step


--------------------------------------------------------------------------------------------------------


 Maximum index for augmentation-charges         2066 (set IRDMAX)


--------------------------------------------------------------------------------------------------------


 First call to EWALD:  gamma=   0.125
 Maximum number of real-space cells 3x 3x 3
 Maximum number of reciprocal cells 3x 3x 3

    FEWALD:  cpu time    0.3429: real time    0.3429


--------------------------------------- Iteration      1(   1)  ---------------------------------------


    POTLOK:  cpu time    0.2214: real time    0.2248
    SETDIJ:  cpu time    4.8995: real time    4.8997
atom =   1  type =  1  l = 2
 
 onsite density matrix
 
spin component  1
 
  0.9700  0.0000  0.0193 -0.0000 -0.0000
  0.0000  0.9632  0.0000  0.0157 -0.0000
  0.0193  0.0000  0.9583 -0.0000 -0.0000
 -0.0000  0.0157 -0.0000  0.9632 -0.0000
 -0.0000 -0.0000 -0.0000 -0.0000  0.9480
 
spin component  2
 
  0.0475  0.0000  0.0263 -0.0000 -0.0000
  0.0000  0.0357  0.0000  0.0197 -0.0000
  0.0263  0.0000  0.0312 -0.0000 -0.0000
 -0.0000  0.0197 -0.0000  0.0357 -0.0000
 -0.0000 -0.0000 -0.0000 -0.0000  0.0142
 
 occupancies and eigenvectors
 
  o =  0.0118  v =  0.0000  0.0000  0.0000  0.0000  0.0000  0.5934 -0.0001 -0.8049  0.0001 -0.0003      0.0000  0.0000  0.0000  0.0000  0.0000  0.0000  0.0000  0.0000  0.0000  0.0000
  o =  0.0142  v =  0.0000  0.0000  0.0000  0.0000  0.0000 -0.0004  0.0003  0.0001 -0.0004 -1.0000      0.0000  0.0000  0.0000  0.0000  0.0000  0.0000  0.0000  0.0000  0.0000  0.0000
  o =  0.0160  v =  0.0000  0.0000  0.0000  0.0000  0.0000 -0.0001  0.7070 -0.0003 -0.7072  0.0004      0.0000  0.0000  0.0000  0.0000  0.0000  0.0000  0.0000  0.0000  0.0000  0.0000
  o =  0.0555  v =  0.0000  0.0000  0.0000  0.0000  0.0000  0.0003  0.7072  0.0002  0.7070 -0.0001      0.0000  0.0000  0.0000  0.0000  0.0000  0.0000  0.0000  0.0000  0.0000  0.0000
  o =  0.0669  v =  0.0000  0.0000  0.0000  0.0000  0.0000 -0.8049  0.0001 -0.5934  0.0004  0.0003      0.0000  0.0000  0.0000  0.0000  0.0000  0.0000  0.0000  0.0000  0.0000  0.0000
  o =  0.9440  v = -0.5964  0.0001  0.8027 -0.0000  0.0001  0.0000  0.0000  0.0000  0.0000  0.0000      0.0000  0.0000  0.0000  0.0000  0.0000  0.0000  0.0000  0.0000  0.0000  0.0000
  o =  0.9475  v = -0.0001  0.7070 -0.0002 -0.7072 -0.0010  0.0000  0.0000  0.0000  0.0000  0.0000      0.0000  0.0000  0.0000  0.0000  0.0000  0.0000  0.0000  0.0000  0.0000  0.0000
  o =  0.9480  v = -0.0003 -0.0008 -0.0001  0.0007 -1.0000  0.0000  0.0000  0.0000  0.0000  0.0000      0.0000  0.0000  0.0000  0.0000  0.0000  0.0000  0.0000  0.0000  0.0000  0.0000
  o =  0.9790  v =  0.0004  0.7072  0.0003  0.7070 -0.0001  0.0000  0.0000  0.0000  0.0000  0.0000      0.0000  0.0000  0.0000  0.0000  0.0000  0.0000  0.0000  0.0000  0.0000  0.0000
  o =  0.9844  v = -0.8027  0.0002 -0.5964  0.0005  0.0003  0.0000  0.0000  0.0000  0.0000  0.0000      0.0000  0.0000  0.0000  0.0000  0.0000  0.0000  0.0000  0.0000  0.0000  0.0000
atom =   2  type =  1  l = 2
 
 onsite density matrix
 
spin component  1
 
  0.0549  0.0000 -0.0260 -0.0000 -0.0000
  0.0000  0.0419  0.0000 -0.0184 -0.0000
 -0.0260  0.0000  0.0350 -0.0000  0.0000
 -0.0000 -0.0184 -0.0000  0.0419 -0.0000
 -0.0000 -0.0000  0.0000 -0.0000  0.0180
 
spin component  2
 
  0.9696  0.0000 -0.0164 -0.0000 -0.0000
  0.0000  0.9621 -0.0001 -0.0126 -0.0000
 -0.0164 -0.0001  0.9569  0.0001  0.0000
 -0.0000 -0.0126  0.0001  0.9621 -0.0000
 -0.0000 -0.0000  0.0000 -0.0000  0.9501
 
 occupancies and eigenvectors
 
  o =  0.0171  v =  0.5670 -0.0003  0.8237  0.0005  0.0021  0.0000  0.0000  0.0000  0.0000  0.0000      0.0000  0.0000  0.0000  0.0000  0.0000  0.0000  0.0000  0.0000  0.0000  0.0000
  o =  0.0180  v =  0.0009 -0.0048  0.0020 -0.0046 -1.0000  0.0000  0.0000  0.0000  0.0000  0.0000      0.0000  0.0000  0.0000  0.0000  0.0000  0.0000  0.0000  0.0000  0.0000  0.0000
  o =  0.0235  v =  0.0001 -0.7074  0.0001 -0.7068  0.0067  0.0000  0.0000  0.0000  0.0000  0.0000      0.0000  0.0000  0.0000  0.0000  0.0000  0.0000  0.0000  0.0000  0.0000  0.0000
  o =  0.0603  v =  0.0016 -0.7068 -0.0018  0.7074  0.0001  0.0000  0.0000  0.0000  0.0000  0.0000      0.0000  0.0000  0.0000  0.0000  0.0000  0.0000  0.0000  0.0000  0.0000  0.0000
  o =  0.0728  v = -0.8237 -0.0017  0.5670  0.0017  0.0004  0.0000  0.0000  0.0000  0.0000  0.0000      0.0000  0.0000  0.0000  0.0000  0.0000  0.0000  0.0000  0.0000  0.0000  0.0000
  o =  0.9456  v =  0.0000  0.0000  0.0000  0.0000  0.0000 -0.5650 -0.0013 -0.8251  0.0016 -0.0003      0.0000  0.0000  0.0000  0.0000  0.0000  0.0000  0.0000  0.0000  0.0000  0.0000
  o =  0.9495  v =  0.0000  0.0000  0.0000  0.0000  0.0000 -0.0002 -0.7073 -0.0001 -0.7068 -0.0153      0.0000  0.0000  0.0000  0.0000  0.0000  0.0000  0.0000  0.0000  0.0000  0.0000
  o =  0.9501  v =  0.0000  0.0000  0.0000  0.0000  0.0000  0.0001 -0.0108 -0.0005 -0.0109  0.9999      0.0000  0.0000  0.0000  0.0000  0.0000  0.0000  0.0000  0.0000  0.0000  0.0000
  o =  0.9746  v =  0.0000  0.0000  0.0000  0.0000  0.0000  0.0139 -0.7068 -0.0071  0.7072  0.0001      0.0000  0.0000  0.0000  0.0000  0.0000  0.0000  0.0000  0.0000  0.0000  0.0000
  o =  0.9808  v =  0.0000  0.0000  0.0000  0.0000  0.0000 -0.8250 -0.0109  0.5650  0.0110  0.0004      0.0000  0.0000  0.0000  0.0000  0.0000  0.0000  0.0000  0.0000  0.0000  0.0000
atom =   3  type =  1  l = 2
 
 onsite density matrix
 
spin component  1
 
  0.9700  0.0000  0.0193  0.0000 -0.0000
  0.0000  0.9641 -0.0007  0.0167  0.0001
  0.0193 -0.0007  0.9582 -0.0007 -0.0000
  0.0000  0.0167 -0.0007  0.9641 -0.0001
 -0.0000  0.0001 -0.0000 -0.0001  0.9477
 
spin component  2
 
  0.0466 -0.0000  0.0256 -0.0000 -0.0000
 -0.0000  0.0371 -0.0012  0.0210  0.0001
  0.0256 -0.0012  0.0318 -0.0012 -0.0000
 -0.0000  0.0210 -0.0012  0.0371 -0.0001
 -0.0000  0.0001 -0.0000 -0.0001  0.0140
 
 occupancies and eigenvectors
 
  o =  0.0125  v =  0.0000  0.0000  0.0000  0.0000  0.0000  0.6008 -0.0205 -0.7989 -0.0200  0.0002      0.0000  0.0000  0.0000  0.0000  0.0000  0.0000  0.0000  0.0000  0.0000  0.0000
  o =  0.0140  v =  0.0000  0.0000  0.0000  0.0000  0.0000 -0.0000 -0.0624  0.0003  0.0624  0.9961      0.0000  0.0000  0.0000  0.0000  0.0000  0.0000  0.0000  0.0000  0.0000  0.0000
  o =  0.0160  v =  0.0000  0.0000  0.0000  0.0000  0.0000  0.0002  0.7042 -0.0003 -0.7045  0.0882      0.0000  0.0000  0.0000  0.0000  0.0000  0.0000  0.0000  0.0000  0.0000  0.0000
  o =  0.0580  v =  0.0000  0.0000  0.0000  0.0000  0.0000  0.1234  0.7007  0.0573  0.7004  0.0000      0.0000  0.0000  0.0000  0.0000  0.0000  0.0000  0.0000  0.0000  0.0000  0.0000
  o =  0.0660  v =  0.0000  0.0000  0.0000  0.0000  0.0000 -0.7898  0.0940 -0.5987  0.0941  0.0001      0.0000  0.0000  0.0000  0.0000  0.0000  0.0000  0.0000  0.0000  0.0000  0.0000
  o =  0.9439  v =  0.5946 -0.0163 -0.8037 -0.0163 -0.0001  0.0000  0.0000  0.0000  0.0000  0.0000      0.0000  0.0000  0.0000  0.0000  0.0000  0.0000  0.0000  0.0000  0.0000  0.0000
  o =  0.9473  v = -0.0001  0.6567 -0.0000 -0.6569 -0.3704  0.0000  0.0000  0.0000  0.0000  0.0000      0.0000  0.0000  0.0000  0.0000  0.0000  0.0000  0.0000  0.0000  0.0000  0.0000
  o =  0.9478  v = -0.0002 -0.2618  0.0000  0.2620 -0.9289  0.0000  0.0000  0.0000  0.0000  0.0000      0.0000  0.0000  0.0000  0.0000  0.0000  0.0000  0.0000  0.0000  0.0000  0.0000
  o =  0.9807  v =  0.1481  0.6971  0.0813  0.6968  0.0000  0.0000  0.0000  0.0000  0.0000  0.0000      0.0000  0.0000  0.0000  0.0000  0.0000  0.0000  0.0000  0.0000  0.0000  0.0000
  o =  0.9845  v = -0.7902  0.1183 -0.5895  0.1184  0.0002  0.0000  0.0000  0.0000  0.0000  0.0000      0.0000  0.0000  0.0000  0.0000  0.0000  0.0000  0.0000  0.0000  0.0000  0.0000
atom =   4  type =  1  l = 2
 
 onsite density matrix
 
spin component  1
 
  0.0549 -0.0000 -0.0260  0.0000  0.0000
 -0.0000  0.0419  0.0000 -0.0184  0.0000
 -0.0260  0.0000  0.0350 -0.0000 -0.0000
  0.0000 -0.0184 -0.0000  0.0419  0.0000
  0.0000  0.0000 -0.0000  0.0000  0.0180
 
spin component  2
 
  0.9696 -0.0000 -0.0164  0.0000  0.0000
 -0.0000  0.9621  0.0001 -0.0126  0.0000
 -0.0164  0.0001  0.9569 -0.0001 -0.0000
  0.0000 -0.0126 -0.0001  0.9621  0.0000
  0.0000  0.0000 -0.0000  0.0000  0.9501
 
 occupancies and eigenvectors
 
  o =  0.0171  v = -0.5670  0.0000 -0.8237 -0.0001  0.0003  0.0000  0.0000  0.0000  0.0000  0.0000      0.0000  0.0000  0.0000  0.0000  0.0000  0.0000  0.0000  0.0000  0.0000  0.0000
  o =  0.0180  v = -0.0000 -0.0038  0.0003 -0.0035  1.0000  0.0000  0.0000  0.0000  0.0000  0.0000      0.0000  0.0000  0.0000  0.0000  0.0000  0.0000  0.0000  0.0000  0.0000  0.0000
  o =  0.0235  v =  0.0000 -0.7070  0.0000 -0.7072 -0.0052  0.0000  0.0000  0.0000  0.0000  0.0000      0.0000  0.0000  0.0000  0.0000  0.0000  0.0000  0.0000  0.0000  0.0000  0.0000
  o =  0.0603  v =  0.0032  0.7072 -0.0021 -0.7070  0.0003  0.0000  0.0000  0.0000  0.0000  0.0000      0.0000  0.0000  0.0000  0.0000  0.0000  0.0000  0.0000  0.0000  0.0000  0.0000
  o =  0.0728  v = -0.8237  0.0027  0.5670 -0.0026 -0.0002  0.0000  0.0000  0.0000  0.0000  0.0000      0.0000  0.0000  0.0000  0.0000  0.0000  0.0000  0.0000  0.0000  0.0000  0.0000
  o =  0.9456  v =  0.0000  0.0000  0.0000  0.0000  0.0000 -0.5650  0.0013 -0.8251 -0.0018  0.0000      0.0000  0.0000  0.0000  0.0000  0.0000  0.0000  0.0000  0.0000  0.0000  0.0000
  o =  0.9495  v =  0.0000  0.0000  0.0000  0.0000  0.0000  0.0002 -0.7070  0.0002 -0.7072  0.0081      0.0000  0.0000  0.0000  0.0000  0.0000  0.0000  0.0000  0.0000  0.0000  0.0000
  o =  0.9501  v =  0.0000  0.0000  0.0000  0.0000  0.0000 -0.0001  0.0056  0.0001  0.0059  1.0000      0.0000  0.0000  0.0000  0.0000  0.0000  0.0000  0.0000  0.0000  0.0000  0.0000
  o =  0.9746  v =  0.0000  0.0000  0.0000  0.0000  0.0000 -0.0160 -0.7071  0.0083  0.7069 -0.0002      0.0000  0.0000  0.0000  0.0000  0.0000  0.0000  0.0000  0.0000  0.0000  0.0000
  o =  0.9808  v =  0.0000  0.0000  0.0000  0.0000  0.0000 -0.8249  0.0126  0.5650 -0.0127 -0.0002      0.0000  0.0000  0.0000  0.0000  0.0000  0.0000  0.0000  0.0000  0.0000  0.0000
atom =   5  type =  1  l = 2
 
 onsite density matrix
 
spin component  1
 
  0.9700  0.0000  0.0192 -0.0000 -0.0000
  0.0000  0.9644  0.0000  0.0171 -0.0000
  0.0192  0.0000  0.9583 -0.0000 -0.0000
 -0.0000  0.0171 -0.0000  0.9644 -0.0000
 -0.0000 -0.0000 -0.0000 -0.0000  0.9477
 
spin component  2
 
  0.0460  0.0000  0.0253 -0.0000 -0.0000
  0.0000  0.0375  0.0000  0.0216 -0.0000
  0.0253  0.0000  0.0318 -0.0000 -0.0000
 -0.0000  0.0216 -0.0000  0.0375 -0.0000
 -0.0000 -0.0000 -0.0000 -0.0000  0.0139
 
 occupancies and eigenvectors
 
  o =  0.0126  v =  0.0000  0.0000  0.0000  0.0000  0.0000  0.6044 -0.0001 -0.7966  0.0002 -0.0001      0.0000  0.0000  0.0000  0.0000  0.0000  0.0000  0.0000  0.0000  0.0000  0.0000
  o =  0.0139  v =  0.0000  0.0000  0.0000  0.0000  0.0000  0.0001 -0.0000 -0.0000  0.0002  1.0000      0.0000  0.0000  0.0000  0.0000  0.0000  0.0000  0.0000  0.0000  0.0000  0.0000
  o =  0.0159  v =  0.0000  0.0000  0.0000  0.0000  0.0000 -0.0001  0.7071 -0.0003 -0.7071  0.0001      0.0000  0.0000  0.0000  0.0000  0.0000  0.0000  0.0000  0.0000  0.0000  0.0000
  o =  0.0592  v =  0.0000  0.0000  0.0000  0.0000  0.0000  0.0001  0.7071  0.0001  0.7071 -0.0001      0.0000  0.0000  0.0000  0.0000  0.0000  0.0000  0.0000  0.0000  0.0000  0.0000
  o =  0.0652  v =  0.0000  0.0000  0.0000  0.0000  0.0000 -0.7966 -0.0000 -0.6044  0.0003  0.0001      0.0000  0.0000  0.0000  0.0000  0.0000  0.0000  0.0000  0.0000  0.0000  0.0000
  o =  0.9441  v = -0.5947  0.0001  0.8039 -0.0001 -0.0000  0.0000  0.0000  0.0000  0.0000  0.0000      0.0000  0.0000  0.0000  0.0000  0.0000  0.0000  0.0000  0.0000  0.0000  0.0000
  o =  0.9473  v = -0.0001  0.7071 -0.0002 -0.7071 -0.0006  0.0000  0.0000  0.0000  0.0000  0.0000      0.0000  0.0000  0.0000  0.0000  0.0000  0.0000  0.0000  0.0000  0.0000  0.0000
  o =  0.9477  v =  0.0000  0.0005  0.0001 -0.0003  1.0000  0.0000  0.0000  0.0000  0.0000  0.0000      0.0000  0.0000  0.0000  0.0000  0.0000  0.0000  0.0000  0.0000  0.0000  0.0000
  o =  0.9815  v =  0.0002  0.7071  0.0002  0.7071 -0.0001  0.0000  0.0000  0.0000  0.0000  0.0000      0.0000  0.0000  0.0000  0.0000  0.0000  0.0000  0.0000  0.0000  0.0000  0.0000
  o =  0.9842  v = -0.8039  0.0000 -0.5947  0.0004  0.0001  0.0000  0.0000  0.0000  0.0000  0.0000      0.0000  0.0000  0.0000  0.0000  0.0000  0.0000  0.0000  0.0000  0.0000  0.0000
atom =   6  type =  1  l = 2
 
 onsite density matrix
 
spin component  1
 
  0.0501 -0.0000 -0.0251  0.0000 -0.0000
 -0.0000  0.0414 -0.0000 -0.0242  0.0000
 -0.0251 -0.0000  0.0323  0.0000  0.0000
  0.0000 -0.0242  0.0000  0.0414 -0.0000
 -0.0000  0.0000  0.0000 -0.0000  0.0150
 
spin component  2
 
  0.9737 -0.0000 -0.0177  0.0000 -0.0000
 -0.0000  0.9658 -0.0000 -0.0194  0.0000
 -0.0177 -0.0000  0.9561  0.0000 -0.0000
  0.0000 -0.0194  0.0000  0.9658 -0.0000
 -0.0000  0.0000 -0.0000 -0.0000  0.9484
 
 occupancies and eigenvectors
 
  o =  0.0146  v = -0.5764 -0.0008 -0.8171  0.0001 -0.0005  0.0000  0.0000  0.0000  0.0000  0.0000      0.0000  0.0000  0.0000  0.0000  0.0000  0.0000  0.0000  0.0000  0.0000  0.0000
  o =  0.0150  v = -0.0003  0.0010 -0.0004  0.0012  1.0000  0.0000  0.0000  0.0000  0.0000  0.0000      0.0000  0.0000  0.0000  0.0000  0.0000  0.0000  0.0000  0.0000  0.0000  0.0000
  o =  0.0172  v =  0.0002 -0.7071  0.0004 -0.7071  0.0016  0.0000  0.0000  0.0000  0.0000  0.0000      0.0000  0.0000  0.0000  0.0000  0.0000  0.0000  0.0000  0.0000  0.0000  0.0000
  o =  0.0655  v =  0.0042  0.7071 -0.0038 -0.7071  0.0001  0.0000  0.0000  0.0000  0.0000  0.0000      0.0000  0.0000  0.0000  0.0000  0.0000  0.0000  0.0000  0.0000  0.0000  0.0000
  o =  0.0678  v = -0.8171  0.0040  0.5764 -0.0039  0.0000  0.0000  0.0000  0.0000  0.0000  0.0000      0.0000  0.0000  0.0000  0.0000  0.0000  0.0000  0.0000  0.0000  0.0000  0.0000
  o =  0.9451  v =  0.0000  0.0000  0.0000  0.0000  0.0000 -0.5267 -0.0010 -0.8501  0.0001 -0.0001      0.0000  0.0000  0.0000  0.0000  0.0000  0.0000  0.0000  0.0000  0.0000  0.0000
  o =  0.9464  v =  0.0000  0.0000  0.0000  0.0000  0.0000  0.0003 -0.7071  0.0006 -0.7071 -0.0006      0.0000  0.0000  0.0000  0.0000  0.0000  0.0000  0.0000  0.0000  0.0000  0.0000
  o =  0.9484  v =  0.0000  0.0000  0.0000  0.0000  0.0000 -0.0000 -0.0005 -0.0001 -0.0004  1.0000      0.0000  0.0000  0.0000  0.0000  0.0000  0.0000  0.0000  0.0000  0.0000  0.0000
  o =  0.9847  v =  0.0000  0.0000  0.0000  0.0000  0.0000 -0.8499 -0.0124  0.5266  0.0124  0.0000      0.0000  0.0000  0.0000  0.0000  0.0000  0.0000  0.0000  0.0000  0.0000  0.0000
  o =  0.9852  v =  0.0000  0.0000  0.0000  0.0000  0.0000  0.0153 -0.7070 -0.0086  0.7070 -0.0001      0.0000  0.0000  0.0000  0.0000  0.0000  0.0000  0.0000  0.0000  0.0000  0.0000
atom =   7  type =  1  l = 2
 
 onsite density matrix
 
spin component  1
 
  0.9700 -0.0000  0.0193 -0.0000 -0.0000
 -0.0000  0.9641  0.0007  0.0167 -0.0001
  0.0193  0.0007  0.9582  0.0007 -0.0000
 -0.0000  0.0167  0.0007  0.9641  0.0001
 -0.0000 -0.0001 -0.0000  0.0001  0.9477
 
spin component  2
 
  0.0466  0.0000  0.0256  0.0000 -0.0000
  0.0000  0.0371  0.0012  0.0210 -0.0001
  0.0256  0.0012  0.0318  0.0012 -0.0000
  0.0000  0.0210  0.0012  0.0371  0.0001
 -0.0000 -0.0001 -0.0000  0.0001  0.0140
 
 occupancies and eigenvectors
 
  o =  0.0125  v =  0.0000  0.0000  0.0000  0.0000  0.0000 -0.6008 -0.0200  0.7989 -0.0206  0.0001      0.0000  0.0000  0.0000  0.0000  0.0000  0.0000  0.0000  0.0000  0.0000  0.0000
  o =  0.0140  v =  0.0000  0.0000  0.0000  0.0000  0.0000  0.0002  0.0620 -0.0001 -0.0622  0.9961      0.0000  0.0000  0.0000  0.0000  0.0000  0.0000  0.0000  0.0000  0.0000  0.0000
  o =  0.0160  v =  0.0000  0.0000  0.0000  0.0000  0.0000  0.0003  0.7044 -0.0003 -0.7044 -0.0878      0.0000  0.0000  0.0000  0.0000  0.0000  0.0000  0.0000  0.0000  0.0000  0.0000
  o =  0.0580  v =  0.0000  0.0000  0.0000  0.0000  0.0000  0.1232 -0.7006  0.0571 -0.7006 -0.0002      0.0000  0.0000  0.0000  0.0000  0.0000  0.0000  0.0000  0.0000  0.0000  0.0000
  o =  0.0660  v =  0.0000  0.0000  0.0000  0.0000  0.0000 -0.7899 -0.0937 -0.5987 -0.0939  0.0000      0.0000  0.0000  0.0000  0.0000  0.0000  0.0000  0.0000  0.0000  0.0000  0.0000
  o =  0.9439  v = -0.5946 -0.0163  0.8037 -0.0163  0.0005  0.0000  0.0000  0.0000  0.0000  0.0000      0.0000  0.0000  0.0000  0.0000  0.0000  0.0000  0.0000  0.0000  0.0000  0.0000
  o =  0.9473  v = -0.0002 -0.6568  0.0000  0.6569 -0.3704  0.0000  0.0000  0.0000  0.0000  0.0000      0.0000  0.0000  0.0000  0.0000  0.0000  0.0000  0.0000  0.0000  0.0000  0.0000
  o =  0.9478  v =  0.0003 -0.2620 -0.0004  0.2618  0.9289  0.0000  0.0000  0.0000  0.0000  0.0000      0.0000  0.0000  0.0000  0.0000  0.0000  0.0000  0.0000  0.0000  0.0000  0.0000
  o =  0.9807  v =  0.1478 -0.6970  0.0810 -0.6970 -0.0002  0.0000  0.0000  0.0000  0.0000  0.0000      0.0000  0.0000  0.0000  0.0000  0.0000  0.0000  0.0000  0.0000  0.0000  0.0000
  o =  0.9845  v = -0.7903 -0.1180 -0.5895 -0.1181  0.0000  0.0000  0.0000  0.0000  0.0000  0.0000      0.0000  0.0000  0.0000  0.0000  0.0000  0.0000  0.0000  0.0000  0.0000  0.0000
atom =   8  type =  1  l = 2
 
 onsite density matrix
 
spin component  1
 
  0.0502  0.0000 -0.0251 -0.0000 -0.0000
  0.0000  0.0413  0.0000 -0.0242 -0.0000
 -0.0251  0.0000  0.0323 -0.0000  0.0000
 -0.0000 -0.0242 -0.0000  0.0414  0.0000
 -0.0000 -0.0000  0.0000  0.0000  0.0150
 
spin component  2
 
  0.9737  0.0000 -0.0177 -0.0000 -0.0000
  0.0000  0.9658  0.0000 -0.0194 -0.0000
 -0.0177  0.0000  0.9561 -0.0000  0.0000
 -0.0000 -0.0194 -0.0000  0.9658  0.0000
 -0.0000 -0.0000  0.0000  0.0000  0.9484
 
 occupancies and eigenvectors
 
  o =  0.0146  v =  0.5764 -0.0007  0.8172  0.0002  0.0013  0.0000  0.0000  0.0000  0.0000  0.0000      0.0000  0.0000  0.0000  0.0000  0.0000  0.0000  0.0000  0.0000  0.0000  0.0000
  o =  0.0150  v = -0.0006 -0.0007 -0.0012 -0.0009  1.0000  0.0000  0.0000  0.0000  0.0000  0.0000      0.0000  0.0000  0.0000  0.0000  0.0000  0.0000  0.0000  0.0000  0.0000  0.0000
  o =  0.0172  v = -0.0002 -0.7073 -0.0003 -0.7069 -0.0011  0.0000  0.0000  0.0000  0.0000  0.0000      0.0000  0.0000  0.0000  0.0000  0.0000  0.0000  0.0000  0.0000  0.0000  0.0000
  o =  0.0655  v =  0.0012 -0.7069 -0.0016  0.7073  0.0001  0.0000  0.0000  0.0000  0.0000  0.0000      0.0000  0.0000  0.0000  0.0000  0.0000  0.0000  0.0000  0.0000  0.0000  0.0000
  o =  0.0678  v = -0.8172 -0.0013  0.5764  0.0014  0.0002  0.0000  0.0000  0.0000  0.0000  0.0000      0.0000  0.0000  0.0000  0.0000  0.0000  0.0000  0.0000  0.0000  0.0000  0.0000
  o =  0.9451  v =  0.0000  0.0000  0.0000  0.0000  0.0000  0.5267 -0.0010  0.8501  0.0001  0.0001      0.0000  0.0000  0.0000  0.0000  0.0000  0.0000  0.0000  0.0000  0.0000  0.0000
  o =  0.9464  v =  0.0000  0.0000  0.0000  0.0000  0.0000 -0.0004 -0.7073 -0.0005 -0.7069  0.0001      0.0000  0.0000  0.0000  0.0000  0.0000  0.0000  0.0000  0.0000  0.0000  0.0000
  o =  0.9484  v =  0.0000  0.0000  0.0000  0.0000  0.0000 -0.0002 -0.0001  0.0002  0.0000 -1.0000      0.0000  0.0000  0.0000  0.0000  0.0000  0.0000  0.0000  0.0000  0.0000  0.0000
  o =  0.9847  v =  0.0000  0.0000  0.0000  0.0000  0.0000 -0.8501  0.0020  0.5267 -0.0019  0.0003      0.0000  0.0000  0.0000  0.0000  0.0000  0.0000  0.0000  0.0000  0.0000  0.0000
  o =  0.9852  v =  0.0000  0.0000  0.0000  0.0000  0.0000  0.0028  0.7069 -0.0008 -0.7073 -0.0001      0.0000  0.0000  0.0000  0.0000  0.0000  0.0000  0.0000  0.0000  0.0000  0.0000
atom =   9  type =  1  l = 2
 
 onsite density matrix
 
spin component  1
 
  0.9700 -0.0000  0.0189 -0.0000  0.0004
 -0.0000  0.9644 -0.0000  0.0173  0.0000
  0.0189 -0.0000  0.9582  0.0000  0.0004
 -0.0000  0.0173  0.0000  0.9646  0.0000
  0.0004  0.0000  0.0004  0.0000  0.9476
 
spin component  2
 
  0.0453 -0.0000  0.0249 -0.0000  0.0007
 -0.0000  0.0376 -0.0000  0.0220  0.0000
  0.0249 -0.0000  0.0316  0.0000  0.0005
 -0.0000  0.0220  0.0000  0.0379  0.0000
  0.0007  0.0000  0.0005  0.0000  0.0137
 
 occupancies and eigenvectors
 
  o =  0.0127  v =  0.0000  0.0000  0.0000  0.0000  0.0000 -0.6058  0.0001  0.7955 -0.0002 -0.0156      0.0000  0.0000  0.0000  0.0000  0.0000  0.0000  0.0000  0.0000  0.0000  0.0000
  o =  0.0136  v =  0.0000  0.0000  0.0000  0.0000  0.0000 -0.0228 -0.0005  0.0023  0.0003  0.9997      0.0000  0.0000  0.0000  0.0000  0.0000  0.0000  0.0000  0.0000  0.0000  0.0000
  o =  0.0157  v =  0.0000  0.0000  0.0000  0.0000  0.0000  0.0002  0.7091 -0.0001 -0.7051  0.0006      0.0000  0.0000  0.0000  0.0000  0.0000  0.0000  0.0000  0.0000  0.0000  0.0000
  o =  0.0597  v =  0.0000  0.0000  0.0000  0.0000  0.0000  0.0008  0.7051  0.0007  0.7091  0.0001      0.0000  0.0000  0.0000  0.0000  0.0000  0.0000  0.0000  0.0000  0.0000  0.0000
  o =  0.0643  v =  0.0000  0.0000  0.0000  0.0000  0.0000 -0.7953  0.0008 -0.6060  0.0007 -0.0168      0.0000  0.0000  0.0000  0.0000  0.0000  0.0000  0.0000  0.0000  0.0000  0.0000
  o =  0.9443  v = -0.5925 -0.0001  0.8052 -0.0000 -0.0247  0.0000  0.0000  0.0000  0.0000  0.0000      0.0000  0.0000  0.0000  0.0000  0.0000  0.0000  0.0000  0.0000  0.0000  0.0000
  o =  0.9472  v =  0.0001  0.7090  0.0001 -0.7052 -0.0021  0.0000  0.0000  0.0000  0.0000  0.0000      0.0000  0.0000  0.0000  0.0000  0.0000  0.0000  0.0000  0.0000  0.0000  0.0000
  o =  0.9476  v = -0.0277  0.0014  0.0103 -0.0016  0.9996  0.0000  0.0000  0.0000  0.0000  0.0000      0.0000  0.0000  0.0000  0.0000  0.0000  0.0000  0.0000  0.0000  0.0000  0.0000
  o =  0.9818  v =  0.0011  0.7052  0.0009  0.7090  0.0002  0.0000  0.0000  0.0000  0.0000  0.0000      0.0000  0.0000  0.0000  0.0000  0.0000  0.0000  0.0000  0.0000  0.0000  0.0000
[...]
    1        0.164   6.147   4.948  11.260
    2        0.179   6.169   4.972  11.320
    3        0.166   6.150   4.952  11.268
    4        0.179   6.169   4.972  11.320
    5        0.166   6.150   4.953  11.269
    6        0.173   6.162   4.970  11.305
    7        0.166   6.150   4.952  11.268
    8        0.173   6.162   4.970  11.305
    9        0.166   6.150   4.952  11.268
   10        0.165   6.149   4.951  11.266
   11        0.166   6.149   4.951  11.266
   12        0.165   6.149   4.951  11.266
   13        0.165   6.149   4.951  11.266
   14        0.166   6.150   4.951  11.267
   15        0.166   6.149   4.951  11.266
   16        0.166   6.150   4.951  11.267
   17        0.166   6.148   4.947  11.262
   18        0.165   6.149   4.951  11.266
   19        0.167   6.152   4.954  11.272
   20        0.165   6.149   4.951  11.266
   21        0.167   6.152   4.955  11.273
   22        0.166   6.150   4.951  11.267
   23        0.167   6.152   4.954  11.272
   24        0.166   6.150   4.951  11.267
   25        0.166   6.150   4.952  11.267
   26        0.165   6.149   4.951  11.266
   27        0.166   6.149   4.951  11.266
   28        0.165   6.149   4.951  11.266
   29        0.165   6.149   4.951  11.266
   30        0.166   6.150   4.951  11.267
   31        0.166   6.149   4.951  11.266
   32        0.166   6.150   4.951  11.267
   33        0.167   6.152   4.955  11.274
   34        0.165   6.149   4.951  11.265
   35        0.167   6.152   4.955  11.274
   36        0.165   6.149   4.951  11.265
   37        0.167   6.152   4.955  11.273
   38        0.166   6.150   4.952  11.268
   39        0.167   6.152   4.955  11.274
   40        0.166   6.150   4.952  11.268
   41        0.166   6.150   4.952  11.267
   42        0.167   6.152   4.956  11.275
   43        0.166   6.149   4.951  11.266
   44        0.167   6.152   4.956  11.275
   45        0.165   6.149   4.951  11.266
   46        0.166   6.151   4.953  11.271
   47        0.166   6.149   4.951  11.266
   48        0.166   6.151   4.953  11.271
   49        0.166   6.148   4.948  11.262
   50        0.165   6.149   4.951  11.266
   51        0.167   6.151   4.954  11.272
   52        0.165   6.149   4.951  11.266
   53        0.167   6.152   4.955  11.273
   54        0.166   6.150   4.951  11.267
   55        0.167   6.151   4.954  11.272
   56        0.166   6.150   4.951  11.267
   57        0.166   6.150   4.952  11.267
   58        0.167   6.152   4.956  11.275
   59        0.166   6.149   4.951  11.266
   60        0.167   6.152   4.956  11.275
   61        0.165   6.149   4.951  11.266
   62        0.166   6.151   4.953  11.271
   63        0.166   6.149   4.951  11.266
   64        0.166   6.151   4.953  11.271
   65        0.164   6.147   4.948  11.260
   66        0.165   6.149   4.951  11.265
   67        0.166   6.150   4.952  11.268
   68        0.165   6.149   4.951  11.265
   69        0.166   6.150   4.953  11.269
   70        0.166   6.150   4.952  11.268
   71        0.166   6.150   4.952  11.268
   72        0.166   6.150   4.952  11.268
   73        1.725   4.366   0.000   6.091
   74        1.725   4.366   0.000   6.091
   75        1.725   4.362   0.000   6.087
   76        1.726   4.365   0.000   6.090
   77        1.726   4.365   0.000   6.091
   78        1.726   4.365   0.000   6.091
   79        1.725   4.362   0.000   6.087
   80        1.726   4.365   0.000   6.090
   81        1.725   4.365   0.000   6.090
   82        1.725   4.365   0.000   6.090
   83        1.726   4.364   0.000   6.090
   84        1.726   4.367   0.000   6.093
   85        1.726   4.365   0.000   6.091
   86        1.726   4.365   0.000   6.091
   87        1.726   4.364   0.000   6.090
   88        1.726   4.367   0.000   6.093
   89        1.726   4.365   0.000   6.090
   90        1.726   4.366   0.000   6.091
   91        1.725   4.365   0.000   6.090
   92        1.726   4.366   0.000   6.091
   93        1.726   4.365   0.000   6.091
   94        1.726   4.365   0.000   6.091
   95        1.725   4.365   0.000   6.090
   96        1.726   4.366   0.000   6.091
   97        1.726   4.366   0.000   6.092
   98        1.726   4.366   0.000   6.091
   99        1.726   4.365   0.000   6.091
  100        1.726   4.365   0.000   6.091
  101        1.726   4.365   0.000   6.091
  102        1.726   4.365   0.000   6.091
  103        1.726   4.365   0.000   6.091
  104        1.726   4.365   0.000   6.091
  105        1.732   4.375   0.000   6.107
  106        1.726   4.367   0.000   6.093
  107        1.726   4.364   0.000   6.090
  108        1.726   4.364   0.000   6.090
  109        1.727   4.374   0.000   6.100
  110        1.726   4.369   0.000   6.094
  111        1.726   4.364   0.000   6.090
  112        1.726   4.364   0.000   6.090
  113        1.726   4.372   0.000   6.098
  114        1.726   4.369   0.000   6.095
  115        1.726   4.367   0.000   6.092
  116        1.726   4.367   0.000   6.092
  117        1.727   4.374   0.000   6.100
  118        1.726   4.369   0.000   6.094
  119        1.726   4.367   0.000   6.092
  120        1.726   4.367   0.000   6.092
  121        1.726   4.366   0.000   6.091
  122        1.726   4.365   0.000   6.090
  123        1.725   4.365   0.000   6.091
  124        1.726   4.366   0.000   6.091
  125        1.726   4.365   0.000   6.091
  126        1.726   4.365   0.000   6.091
  127        1.725   4.365   0.000   6.091
  128        1.726   4.366   0.000   6.091
  129        1.726   4.366   0.000   6.091
  130        1.726   4.366   0.000   6.092
  131        1.726   4.365   0.000   6.091
  132        1.726   4.365   0.000   6.091
  133        1.726   4.365   0.000   6.091
  134        1.726   4.365   0.000   6.091
  135        1.726   4.365   0.000   6.091
  136        1.726   4.365   0.000   6.091
  137        1.726   4.370   0.000   6.096
  138        1.726   4.370   0.000   6.096
  139        1.726   4.365   0.000   6.090
  140        1.726   4.365   0.000   6.090
  141        1.726   4.369   0.000   6.095
  142        1.726   4.369   0.000   6.095
  143        1.726   4.365   0.000   6.090
  144        1.726   4.365   0.000   6.090
  145        1.726   4.368   0.000   6.094
  146        1.726   4.368   0.000   6.094
  147        1.726   4.366   0.000   6.092
  148        1.726   4.366   0.000   6.092
  149        1.726   4.369   0.000   6.095
  150        1.726   4.369   0.000   6.095
  151        1.726   4.366   0.000   6.092
  152        1.726   4.366   0.000   6.092
  153        1.726   4.365   0.000   6.090
  154        1.726   4.366   0.000   6.091
  155        1.726   4.366   0.000   6.091
  156        1.725   4.365   0.000   6.091
  157        1.726   4.365   0.000   6.091
  158        1.726   4.365   0.000   6.091
  159        1.726   4.366   0.000   6.091
  160        1.725   4.365   0.000   6.091
  161        1.726   4.366   0.000   6.092
  162        1.726   4.366   0.000   6.091
  163        1.726   4.365   0.000   6.091
  164        1.726   4.365   0.000   6.091
  165        1.726   4.365   0.000   6.091
  166        1.726   4.365   0.000   6.091
  167        1.726   4.365   0.000   6.091
  168        1.726   4.365   0.000   6.091
  169        1.726   4.367   0.000   6.093
  170        1.732   4.375   0.000   6.108
  171        1.726   4.364   0.000   6.090
  172        1.726   4.364   0.000   6.090
  173        1.726   4.369   0.000   6.094
  174        1.727   4.373   0.000   6.100
  175        1.726   4.364   0.000   6.090
  176        1.726   4.364   0.000   6.090
  177        1.726   4.369   0.000   6.095
  178        1.726   4.372   0.000   6.098
  179        1.726   4.367   0.000   6.092
  180        1.726   4.367   0.000   6.092
  181        1.726   4.369   0.000   6.094
  182        1.727   4.373   0.000   6.100
  183        1.726   4.367   0.000   6.092
  184        1.726   4.367   0.000   6.092
  185        1.726   4.366   0.000   6.091
  186        1.726   4.365   0.000   6.090
  187        1.726   4.366   0.000   6.091
  188        1.725   4.365   0.000   6.090
  189        1.726   4.365   0.000   6.091
  190        1.726   4.365   0.000   6.091
  191        1.726   4.366   0.000   6.091
  192        1.725   4.365   0.000   6.091
  193        1.726   4.366   0.000   6.091
  194        1.726   4.366   0.000   6.092
  195        1.726   4.365   0.000   6.091
  196        1.726   4.366   0.000   6.091
  197        1.726   4.365   0.000   6.091
  198        1.726   4.365   0.000   6.091
  199        1.726   4.365   0.000   6.091
  200        1.726   4.365   0.000   6.091
  201        1.725   4.366   0.000   6.091
  202        1.725   4.366   0.000   6.091
  203        1.726   4.365   0.000   6.090
  204        1.725   4.362   0.000   6.087
  205        1.726   4.365   0.000   6.091
  206        1.726   4.365   0.000   6.091
  207        1.726   4.365   0.000   6.090
  208        1.725   4.362   0.000   6.087
  209        1.725   4.365   0.000   6.090
  210        1.725   4.365   0.000   6.090
  211        1.726   4.367   0.000   6.093
  212        1.726   4.364   0.000   6.090
  213        1.726   4.365   0.000   6.091
  214        1.726   4.365   0.000   6.091
  215        1.726   4.367   0.000   6.093
  216        1.726   4.364   0.000   6.090
  217        0.474   0.133   0.000   0.607
--------------------------------------------------
tot        260.9601071.715 356.6271689.301
 


 magnetization (x)
 
# of ion       s       p       d       tot
------------------------------------------
    1        0.018   0.018   4.629   4.665
    2       -0.019  -0.025  -4.599  -4.643
    3        0.018   0.019   4.628   4.665
    4       -0.019  -0.025  -4.599  -4.643
    5        0.018   0.019   4.628   4.665
    6       -0.017  -0.018  -4.620  -4.655
    7        0.018   0.019   4.628   4.665
    8       -0.017  -0.018  -4.620  -4.655
    9        0.018   0.018   4.629   4.666
   10       -0.018  -0.018  -4.629  -4.666
   11        0.018   0.018   4.629   4.666
   12       -0.018  -0.018  -4.629  -4.666
   13        0.018   0.018   4.629   4.666
   14       -0.018  -0.018  -4.629  -4.666
   15        0.018   0.018   4.629   4.666
   16       -0.018  -0.018  -4.629  -4.666
   17        0.020   0.021   4.624   4.665
   18       -0.018  -0.019  -4.629  -4.666
   19        0.018   0.019   4.627   4.664
   20       -0.018  -0.019  -4.629  -4.666
   21        0.018   0.018   4.627   4.664
   22       -0.018  -0.018  -4.629  -4.666
   23        0.018   0.019   4.627   4.664
   24       -0.018  -0.018  -4.629  -4.666
   25        0.018   0.018   4.629   4.666
   26       -0.018  -0.019  -4.629  -4.666
   27        0.018   0.018   4.629   4.666
   28       -0.018  -0.018  -4.629  -4.666
   29        0.018   0.018   4.629   4.666
   30       -0.018  -0.018  -4.629  -4.666
   31        0.018   0.018   4.629   4.666
   32       -0.018  -0.018  -4.629  -4.666
   33        0.018   0.019   4.627   4.664
   34       -0.018  -0.018  -4.629  -4.666
   35        0.018   0.019   4.627   4.664
   36       -0.018  -0.018  -4.629  -4.666
   37        0.018   0.019   4.627   4.664
   38       -0.018  -0.018  -4.629  -4.665
   39        0.018   0.019   4.627   4.664
   40       -0.018  -0.018  -4.629  -4.665
   41        0.018   0.018   4.629   4.666
   42       -0.018  -0.019  -4.627  -4.664
   43        0.018   0.018   4.629   4.666
   44       -0.018  -0.019  -4.627  -4.664
   45        0.018   0.018   4.629   4.666
   46       -0.018  -0.019  -4.628  -4.665
   47        0.018   0.018   4.629   4.666
   48       -0.018  -0.019  -4.628  -4.665
   49        0.020   0.021   4.624   4.665
   50       -0.018  -0.018  -4.629  -4.666
   51        0.018   0.019   4.627   4.664
   52       -0.018  -0.018  -4.629  -4.666
   53        0.018   0.018   4.627   4.664
   54       -0.018  -0.018  -4.629  -4.666
   55        0.018   0.019   4.627   4.664
   56       -0.018  -0.018  -4.629  -4.666
   57        0.018   0.018   4.629   4.666
   58       -0.018  -0.019  -4.627  -4.664
   59        0.018   0.018   4.629   4.666
   60       -0.018  -0.019  -4.627  -4.664
   61        0.018   0.018   4.629   4.666
   62       -0.018  -0.019  -4.628  -4.665
   63        0.018   0.018   4.629   4.666
   64       -0.018  -0.019  -4.628  -4.665
   65        0.018   0.018   4.629   4.665
   66       -0.018  -0.018  -4.629  -4.666
   67        0.018   0.019   4.628   4.665
   68       -0.018  -0.018  -4.629  -4.666
   69        0.018   0.019   4.628   4.665
   70       -0.018  -0.018  -4.629  -4.665
   71        0.018   0.019   4.628   4.665
   72       -0.018  -0.018  -4.629  -4.665
   73       -0.002  -0.013   0.000  -0.015
   74       -0.002  -0.013   0.000  -0.015
   75        0.002   0.008   0.000   0.010
   76        0.002   0.018   0.000   0.020
   77       -0.002  -0.014   0.000  -0.016
   78       -0.002  -0.014   0.000  -0.016
   79        0.002   0.008   0.000   0.010
   80        0.002   0.018   0.000   0.020
   81       -0.002  -0.015   0.000  -0.017
   82       -0.002  -0.015   0.000  -0.017
   83        0.002   0.013   0.000   0.015
   84        0.002   0.017   0.000   0.019
   85       -0.002  -0.014   0.000  -0.016
   86       -0.002  -0.014   0.000  -0.016
   87        0.002   0.013   0.000   0.015
   88        0.002   0.017   0.000   0.019
   89       -0.002  -0.016   0.000  -0.018
   90       -0.002  -0.015   0.000  -0.017
   91        0.002   0.014   0.000   0.016
   92        0.002   0.015   0.000   0.017
   93       -0.002  -0.016   0.000  -0.017
   94       -0.002  -0.015   0.000  -0.017
   95        0.002   0.014   0.000   0.016
   96        0.002   0.015   0.000   0.017
   97       -0.002  -0.016   0.000  -0.017
   98       -0.002  -0.015   0.000  -0.017
   99        0.002   0.014   0.000   0.016
  100        0.002   0.015   0.000   0.017
  101       -0.002  -0.016   0.000  -0.017
  102       -0.002  -0.015   0.000  -0.017
  103        0.002   0.014   0.000   0.016
  104        0.002   0.015   0.000   0.017
  105       -0.001  -0.016   0.000  -0.017
  106       -0.002  -0.007   0.000  -0.009
  107        0.002   0.016   0.000   0.017
  108        0.002   0.016   0.000   0.017
  109       -0.002  -0.030   0.000  -0.032
  110       -0.002  -0.012   0.000  -0.014
  111        0.002   0.016   0.000   0.017
  112        0.002   0.016   0.000   0.017
  113       -0.002  -0.024   0.000  -0.026
  114       -0.002  -0.014   0.000  -0.016
  115        0.002   0.016   0.000   0.018
  116        0.002   0.016   0.000   0.018
  117       -0.002  -0.030   0.000  -0.032
  118       -0.002  -0.012   0.000  -0.014
  119        0.002   0.016   0.000   0.018
  120        0.002   0.016   0.000   0.018
  121       -0.002  -0.015   0.000  -0.017
  122       -0.002  -0.016   0.000  -0.018
  123        0.002   0.014   0.000   0.016
  124        0.002   0.015   0.000   0.017
  125       -0.002  -0.015   0.000  -0.017
  126       -0.002  -0.016   0.000  -0.017
  127        0.002   0.014   0.000   0.016
  128        0.002   0.015   0.000   0.017
  129       -0.002  -0.015   0.000  -0.017
  130       -0.002  -0.016   0.000  -0.017
  131        0.002   0.014   0.000   0.016
  132        0.002   0.015   0.000   0.017
  133       -0.002  -0.015   0.000  -0.017
  134       -0.002  -0.016   0.000  -0.017
  135        0.002   0.014   0.000   0.016
  136        0.002   0.015   0.000   0.017
  137       -0.002  -0.016   0.000  -0.018
  138       -0.002  -0.016   0.000  -0.018
  139        0.002   0.015   0.000   0.017
  140        0.002   0.015   0.000   0.017
  141       -0.002  -0.016   0.000  -0.017
  142       -0.002  -0.016   0.000  -0.017
  143        0.002   0.015   0.000   0.017
  144        0.002   0.015   0.000   0.017
  145       -0.002  -0.015   0.000  -0.017
  146       -0.002  -0.015   0.000  -0.017
  147        0.002   0.015   0.000   0.016
  148        0.002   0.015   0.000   0.016
  149       -0.002  -0.016   0.000  -0.017
  150       -0.002  -0.016   0.000  -0.017
  151        0.002   0.015   0.000   0.016
  152        0.002   0.015   0.000   0.016
  153       -0.002  -0.016   0.000  -0.018
  154       -0.002  -0.015   0.000  -0.017
  155        0.002   0.015   0.000   0.017
  156        0.002   0.014   0.000   0.016
  157       -0.002  -0.016   0.000  -0.017
  158       -0.002  -0.015   0.000  -0.017
  159        0.002   0.015   0.000   0.017
  160        0.002   0.014   0.000   0.016
  161       -0.002  -0.016   0.000  -0.017
  162       -0.002  -0.015   0.000  -0.017
  163        0.002   0.015   0.000   0.017
  164        0.002   0.014   0.000   0.016
  165       -0.002  -0.016   0.000  -0.017
  166       -0.002  -0.015   0.000  -0.017
  167        0.002   0.015   0.000   0.017
  168        0.002   0.014   0.000   0.016
  169       -0.002  -0.007   0.000  -0.009
  170       -0.001  -0.016   0.000  -0.016
  171        0.002   0.016   0.000   0.017
  172        0.002   0.016   0.000   0.017
  173       -0.002  -0.012   0.000  -0.014
  174       -0.002  -0.030   0.000  -0.031
  175        0.002   0.016   0.000   0.017
  176        0.002   0.016   0.000   0.017
  177       -0.002  -0.014   0.000  -0.015
  178       -0.002  -0.024   0.000  -0.026
  179        0.002   0.016   0.000   0.018
  180        0.002   0.016   0.000   0.018
  181       -0.002  -0.012   0.000  -0.014
  182       -0.002  -0.030   0.000  -0.032
  183        0.002   0.016   0.000   0.018
  184        0.002   0.016   0.000   0.018
  185       -0.002  -0.015   0.000  -0.017
  186       -0.002  -0.016   0.000  -0.018
  187        0.002   0.015   0.000   0.017
  188        0.002   0.014   0.000   0.016
  189       -0.002  -0.015   0.000  -0.017
  190       -0.002  -0.016   0.000  -0.017
  191        0.002   0.015   0.000   0.017
  192        0.002   0.014   0.000   0.016
  193       -0.002  -0.015   0.000  -0.017
  194       -0.002  -0.016   0.000  -0.017
  195        0.002   0.015   0.000   0.017
  196        0.002   0.014   0.000   0.016
  197       -0.002  -0.015   0.000  -0.017
  198       -0.002  -0.016   0.000  -0.017
  199        0.002   0.015   0.000   0.017
  200        0.002   0.014   0.000   0.016
  201       -0.002  -0.013   0.000  -0.015
  202       -0.002  -0.013   0.000  -0.015
  203        0.002   0.018   0.000   0.020
  204        0.002   0.008   0.000   0.010
  205       -0.002  -0.014   0.000  -0.016
  206       -0.002  -0.014   0.000  -0.016
  207        0.002   0.018   0.000   0.020
  208        0.002   0.008   0.000   0.010
  209       -0.002  -0.015   0.000  -0.017
  210       -0.002  -0.015   0.000  -0.017
  211        0.002   0.017   0.000   0.019
  212        0.002   0.013   0.000   0.015
  213       -0.002  -0.014   0.000  -0.016
  214       -0.002  -0.014   0.000  -0.016
  215        0.002   0.017   0.000   0.019
  216        0.002   0.013   0.000   0.015
  217        0.005  -0.000   0.000   0.005
--------------------------------------------------
tot          0.010  -0.071   0.051  -0.010
 

 total amount of memory used by VASP MPI-rank0   501409. kBytes
=======================================================================

   base      :      30000. kBytes
   nonl-proj :      51625. kBytes
   fftplans  :      22373. kBytes
   grid      :      17829. kBytes
   one-center:        590. kBytes
   wavefun   :     378992. kBytes
 
  
  
 General timing and accounting informations for this job:
 ========================================================
  
                  Total CPU time used (sec):      978.403
                            User time (sec):      958.997
                          System time (sec):       19.406
                         Elapsed time (sec):     1065.991
  
                   Maximum memory used (kb):      720740.
                   Average memory used (kb):           0.
  
                          Minor page faults:       198515
                          Major page faults:           25
                 Voluntary context switches:        10256
