       N       E                     dE             d eps       ncg     rms          rms(c)
DAV:   1     0.693650962706E+03    0.69365E+03   -0.35889E+04  1296   0.200E+03
DAV:   2     0.811436851013E+01   -0.68554E+03   -0.66345E+03  1464   0.527E+02
DAV:   3    -0.407390440950E+02   -0.48853E+02   -0.48653E+02  1548   0.155E+02
DAV:   4    -0.414063099788E+02   -0.66727E+00   -0.66708E+00  1464   0.196E+01
DAV:   5    -0.414169271811E+02   -0.10617E-01   -0.10617E-01  1488   0.239E+00    0.248E+01
DAV:   6    -0.393476614101E+02    0.20693E+01   -0.15637E+01  1620   0.319E+01    0.159E+01
DAV:   7    -0.399843407166E+02   -0.63668E+00   -0.15691E+00  1524   0.107E+01    0.118E+01
DAV:   8    -0.398992047199E+02    0.85136E-01   -0.52377E-01  1524   0.600E+00    0.473E+00
DAV:   9    -0.401756534209E+02   -0.27645E+00   -0.74147E-02  1416   0.260E+00    0.137E+00
DAV:  10    -0.401761863551E+02   -0.53293E-03   -0.16166E-02  1548   0.102E+00    0.251E-01
DAV:  11    -0.401761465144E+02    0.39841E-04   -0.15501E-03  1356   0.271E-01    0.140E-01
DAV:  12    -0.401761901728E+02   -0.43658E-04   -0.39127E-05  1788   0.837E-02    0.635E-02
DAV:  13    -0.401761961860E+02   -0.60132E-05   -0.38734E-05  1380   0.341E-02    0.214E-02
DAV:  14    -0.401761976258E+02   -0.14398E-05   -0.19227E-06  1200   0.141E-02    0.399E-03
DAV:  15    -0.401761978155E+02   -0.18969E-06   -0.14875E-07   648   0.338E-03
   1 F= -.40176198E+02 E0= -.40176198E+02  d E =0.000000E+00  mag=     0.0000
