 vasp.5.4.4.18Apr17-6-g9f103f2a35 (build Apr 27 2017 11:13:10) complex          
  
 executed on           IFC91_ompi date 2020.05.13  11:12:51
 running on   12 total cores
 distrk:  each k-point on   12 cores,    1 groups
 distr:  one band on NCORES_PER_BAND=   1 cores,   12 groups


--------------------------------------------------------------------------------------------------------


 INCAR:
 POTCAR:    PAW Mn_pv 02Aug2007                   
 POTCAR:    PAW F 31May2000                       

 ----------------------------------------------------------------------------- 
|                                                                             |
|           W    W    AA    RRRRR   N    N  II  N    N   GGGG   !!!           |
|           W    W   A  A   R    R  NN   N  II  NN   N  G    G  !!!           |
|           W    W  A    A  R    R  N N  N  II  N N  N  G       !!!           |
|           W WW W  AAAAAA  RRRRR   N  N N  II  N  N N  G  GGG   !            |
|           WW  WW  A    A  R   R   N   NN  II  N   NN  G    G                |
|           W    W  A    A  R    R  N    N  II  N    N   GGGG   !!!           |
|                                                                             |
|      For optimal performance we recommend to set                            |
|        NCORE= 4 - approx SQRT( number of cores)                             |
|      NCORE specifies how many cores store one orbital (NPAR=cpu/NCORE).     |
|      This setting can  greatly improve the performance of VASP for DFT.     |
|      The default,   NCORE=1            might be grossly inefficient         |
|      on modern multi-core architectures or massively parallel machines.     |
|      Do your own testing !!!!                                               |
|      Unfortunately you need to use the default for GW and RPA calculations. |
|      (for HF NCORE is supported but not extensively tested yet)             |
|                                                                             |
 ----------------------------------------------------------------------------- 

 POTCAR:    PAW Mn_pv 02Aug2007                   
   VRHFIN =Mn: 3p4s3d                                                           
   LEXCH  = CA                                                                  
   EATOM  =  2028.0466 eV,  149.0572 Ry                                         
                                                                                
   TITEL  = PAW Mn_pv 02Aug2007                                                 
   LULTRA =        F    use ultrasoft PP ?                                      
   IUNSCR =        1    unscreen: 0-lin 1-nonlin 2-no                           
   RPACOR =    2.080    partial core radius                                     
   POMASS =   54.938; ZVAL   =   13.000    mass and valenz                      
   RCORE  =    2.300    outmost cutoff radius                                   
   RWIGS  =    2.500; RWIGS  =    1.323    wigner-seitz radius (au A)           
   ENMAX  =  269.944; ENMIN  =  202.458 eV                                      
   ICORE  =        3    local potential                                         
   LCOR   =        T    correct aug charges                                     
   LPAW   =        T    paw PP                                                  
   EAUG   =  569.085                                                            
   DEXC   =    0.000                                                            
   RMAX   =    2.343    core radius for proj-oper                               
   RAUG   =    1.300    factor for augmentation sphere                          
   RDEP   =    2.338    radius for radial grids                                 
   RDEPT  =    1.798    core radius for aug-charge                              
                                                                                
   Atomic configuration                                                         
    8 entries                                                                   
     n  l   j            E        occ.                                          
     1  0  0.50     -6393.6057   2.0000                                         
     2  0  0.50      -735.9993   2.0000                                         
     2  1  1.50      -624.3417   6.0000                                         
     3  0  0.50       -80.9782   2.0000                                         
     3  1  1.50       -50.3144   6.0000                                         
     3  2  2.50        -3.6171   6.0000                                         
     4  0  0.50        -4.3304   1.0000                                         
     4  3  2.50        -1.3606   0.0000                                         
   Description                                                                  
     l       E           TYP  RCUT    TYP  RCUT                                 
     1    -50.3143634     23  2.000                                             
     1     -1.3605826     23  2.000                                             
     2     -3.6171470     23  2.300                                             
     2     -4.9777296     23  2.300                                             
     0     -4.3303688     23  2.300                                             
     0      7.3408788     23  2.300                                             
     3      9.5240782     23  2.300                                             
  local pseudopotential read in
  partial core-charges read in
  partial kinetic energy density read in
  atomic valenz-charges read in
  non local Contribution for L=           1  read in
    real space projection operators read in
  non local Contribution for L=           1  read in
    real space projection operators read in
  non local Contribution for L=           2  read in
    real space projection operators read in
  non local Contribution for L=           2  read in
    real space projection operators read in
  non local Contribution for L=           0  read in
    real space projection operators read in
  non local Contribution for L=           0  read in
    real space projection operators read in
    PAW grid and wavefunctions read in
 
   number of l-projection  operators is LMAX  =           6
   number of lm-projection operators is LMMAX =          18
 
 POTCAR:    PAW F 31May2000                       
   VRHFIN =F: s2p5                                                              
   LEXCH  = CA                                                                  
   EATOM  =   658.3685 eV,   48.3887 Ry                                         
                                                                                
   TITEL  = PAW F 31May2000                                                     
   LULTRA =        F    use ultrasoft PP ?                                      
   IUNSCR =        1    unscreen: 0-lin 1-nonlin 2-no                           
   RPACOR =    1.200    partial core radius                                     
   POMASS =   18.998; ZVAL   =    7.000    mass and valenz                      
   RCORE  =    1.520    outmost cutoff radius                                   
   RWIGS  =    1.500; RWIGS  =    0.794    wigner-seitz radius (au A)           
   ENMAX  =  400.000; ENMIN  =  300.000 eV                                      
   ICORE  =        2    local potential                                         
   LCOR   =        T    correct aug charges                                     
   LPAW   =        T    paw PP                                                  
   EAUG   =  613.614                                                            
   DEXC   =    0.000                                                            
   RMAX   =    1.555    core radius for proj-oper                               
   RAUG   =    1.300    factor for augmentation sphere                          
   RDEP   =    1.539    radius for radial grids                                 
   RDEPT  =    1.299    core radius for aug-charge                              
                                                                                
   Atomic configuration                                                         
    4 entries                                                                   
     n  l   j            E        occ.                                          
     1  0  0.50      -658.3386   2.0000                                         
     2  0  0.50       -29.6221   2.0000                                         
     2  1  0.50       -11.2952   5.0000                                         
     3  2  1.50       -12.2452   0.0000                                         
   Description                                                                  
     l       E           TYP  RCUT    TYP  RCUT                                 
     0    -29.6221019     23  1.200                                             
     0     -9.5240782     23  1.200                                             
     1    -11.2951545     23  1.520                                             
     1      1.3605826     23  1.520                                             
     2    -12.2452434      7  1.500                                             
  local pseudopotential read in
  partial core-charges read in
  partial kinetic energy density read in
  kinetic energy density of atom read in
  atomic valenz-charges read in
  non local Contribution for L=           0  read in
    real space projection operators read in
  non local Contribution for L=           0  read in
    real space projection operators read in
  non local Contribution for L=           1  read in
    real space projection operators read in
  non local Contribution for L=           1  read in
    real space projection operators read in
    PAW grid and wavefunctions read in
 
   number of l-projection  operators is LMAX  =           4
   number of lm-projection operators is LMMAX =           8
 
  PAW Mn_pv 02Aug2007                   :
 energy of atom  1       EATOM=-2028.0466
 kinetic energy error for atom=    0.0033 (will be added to EATOM!!)
  PAW F 31May2000                       :
 energy of atom  2       EATOM= -658.3685
 kinetic energy error for atom=    0.0194 (will be added to EATOM!!)
 
 
 POSCAR: Mn  F                                   
  positions in cartesian coordinates
  No initial velocities read in
 exchange correlation table for  LEXCH =        2
   RHO(1)=    0.500       N(1)  =     2000
   RHO(2)=  100.500       N(2)  =     4000
 


--------------------------------------------------------------------------------------------------------


 ion  position               nearest neighbor table
   1  0.500  0.500  0.500-   3 2.06   4 2.06   5 2.10   6 2.10   5 2.10   6 2.10
   2  0.000  0.000  0.000-   5 2.06   6 2.06   3 2.10   4 2.10   3 2.10   4 2.10
   3  0.196  0.804  0.500-   1 2.06   2 2.10   2 2.10
   4  0.804  0.196  0.500-   1 2.06   2 2.10   2 2.10
   5  0.304  0.304  0.000-   2 2.06   1 2.10   1 2.10
   6  0.696  0.696  0.000-   2 2.06   1 2.10   1 2.10
 
  LATTYP: Found a simple tetragonal cell.
 ALAT       =     4.7939751571
 C/A-ratio  =     0.6772199594
  
  Lattice vectors:
  
 A1 = (   4.7939751571,   0.0000000000,   0.0000000000)
 A2 = (   0.0000000000,   4.7939751571,   0.0000000000)
 A3 = (   0.0000000000,   0.0000000000,   3.2465756614)


Analysis of symmetry for initial positions (statically):
=====================================================================
 Subroutine PRICEL returns:
 Original cell was already a primitive cell.
 

 Routine SETGRP: Setting up the symmetry group for a 
 simple tetragonal supercell.


 Subroutine GETGRP returns: Found 16 space group operations
 (whereof  8 operations were pure point group operations)
 out of a pool of 16 trial point group operations.


The static configuration has the point symmetry D_2h.
 The point group associated with its full space group is D_4h.


Analysis of symmetry for dynamics (positions and initial velocities):
=====================================================================
 Subroutine PRICEL returns:
 Original cell was already a primitive cell.
 

 Routine SETGRP: Setting up the symmetry group for a 
 simple tetragonal supercell.


 Subroutine GETGRP returns: Found 16 space group operations
 (whereof  8 operations were pure point group operations)
 out of a pool of 16 trial point group operations.


The dynamic configuration has the point symmetry D_2h.
 The point group associated with its full space group is D_4h.


Analysis of structural, dynamic, and magnetic symmetry:
=====================================================================
 Subroutine PRICEL returns:
 Original cell was already a primitive cell.
 

 Routine SETGRP: Setting up the symmetry group for a 
 simple tetragonal supercell.


 Subroutine GETGRP returns: Found 16 space group operations
 (whereof  8 operations were pure point group operations)
 out of a pool of 16 trial point group operations.


The magnetic configuration has the point symmetry D_2h.
 The point group associated with its full space group is D_4h.


 Subroutine INISYM returns: Found 16 space group operations
 (whereof  8 operations are pure point group operations),
 and found     1 'primitive' translations

 
 
 KPOINTS: KPOINTS created by Atomic Simulation Env

Automatic generation of k-mesh.
Space group operators:
 irot       det(A)        alpha          n_x          n_y          n_z        tau_x        tau_y        tau_z
    1     1.000000     0.000001     1.000000     0.000000     0.000000     0.000000     0.000000     0.000000
    2    -1.000000     0.000001     1.000000     0.000000     0.000000     0.000000     0.000000     0.000000
    3     1.000000   180.000000     0.000000     0.000000     1.000000     0.000000     0.000000     0.000000
    4    -1.000000   180.000000     0.000000     0.000000     1.000000     0.000000     0.000000     0.000000
    5     1.000000   180.000000     0.707107     0.707107     0.000000     0.000000     0.000000     0.000000
    6    -1.000000   180.000000     0.707107     0.707107     0.000000     0.000000     0.000000     0.000000
    7     1.000000   180.000000     0.707107    -0.707107     0.000000     0.000000     0.000000     0.000000
    8    -1.000000   180.000000     0.707107    -0.707107     0.000000     0.000000     0.000000     0.000000
    9     1.000000    90.000000     0.000000     0.000000    -1.000000     0.500000     0.500000     0.500000
   10    -1.000000    90.000000     0.000000     0.000000    -1.000000     0.500000     0.500000     0.500000
   11     1.000000    90.000000     0.000000     0.000000     1.000000     0.500000     0.500000     0.500000
   12    -1.000000    90.000000     0.000000     0.000000     1.000000     0.500000     0.500000     0.500000
   13     1.000000   180.000000     0.000000     1.000000     0.000000     0.500000     0.500000     0.500000
   14    -1.000000   180.000000     0.000000     1.000000     0.000000     0.500000     0.500000     0.500000
   15     1.000000   180.000000     1.000000     0.000000     0.000000     0.500000     0.500000     0.500000
   16    -1.000000   180.000000     1.000000     0.000000     0.000000     0.500000     0.500000     0.500000
 
 Subroutine IBZKPT returns following result:
 ===========================================
 
 Found      9 irreducible k-points:
 
 Following reciprocal coordinates:
            Coordinates               Weight
  0.125000  0.125000  0.083333      8.000000
  0.375000  0.125000  0.083333     16.000000
  0.375000  0.375000  0.083333      8.000000
  0.125000  0.125000  0.250000      8.000000
  0.375000  0.125000  0.250000     16.000000
  0.375000  0.375000  0.250000      8.000000
  0.125000  0.125000  0.416667      8.000000
  0.375000  0.125000  0.416667     16.000000
  0.375000  0.375000  0.416667      8.000000
 
 Following cartesian coordinates:
            Coordinates               Weight
  0.026074  0.026074  0.025668      8.000000
  0.078223  0.026074  0.025668     16.000000
  0.078223  0.078223  0.025668      8.000000
  0.026074  0.026074  0.077004      8.000000
  0.078223  0.026074  0.077004     16.000000
  0.078223  0.078223  0.077004      8.000000
  0.026074  0.026074  0.128340      8.000000
  0.078223  0.026074  0.128340     16.000000
  0.078223  0.078223  0.128340      8.000000
 
 TETIRR: Found    106 inequivalent tetrahedra from      576


--------------------------------------------------------------------------------------------------------




 Dimension of arrays:
   k-points           NKPTS =      9   k-points in BZ     NKDIM =      9   number of bands    NBANDS=     36
   number of dos      NEDOS =    301   number of ions     NIONS =      6
   non local maximal  LDIM  =      6   non local SUM 2l+1 LMDIM =     18
   total plane-waves  NPLWV =  18000
   max r-space proj   IRMAX =      1   max aug-charges    IRDMAX=  58752
   dimension x,y,z NGX =    30 NGY =   30 NGZ =   20
   dimension x,y,z NGXF=    60 NGYF=   60 NGZF=   40
   support grid    NGXF=   120 NGYF=  120 NGZF=   80
   ions per type =               2   4
   NGX,Y,Z   is equivalent  to a cutoff of  10.40, 10.40, 10.24 a.u.
   NGXF,Y,Z  is equivalent  to a cutoff of  20.81, 20.81, 20.48 a.u.

 SYSTEM =  unknown system                          
 POSCAR =  Mn  F                                   

 Startparameter for this run:
   NWRITE =      2    write-flag & timer
   PREC   = normal    normal or accurate (medium, high low for compatibility)
   ISTART =      0    job   : 0-new  1-cont  2-samecut
   ICHARG =      2    charge: 1-file 2-atom 10-const
   ISPIN  =      2    spin polarized calculation?
   LNONCOLLINEAR =      F non collinear calculations
   LSORBIT =      F    spin-orbit coupling
   INIWAV =      1    electr: 0-lowe 1-rand  2-diag
   LASPH  =      T    aspherical Exc in radial PAW
   METAGGA=      F    non-selfconsistent MetaGGA calc.

 Electronic Relaxation 1
   ENCUT  =  650.0 eV  47.77 Ry    6.91 a.u.   9.97  9.97  6.75*2*pi/ulx,y,z
   ENINI  =  650.0     initial cutoff
   ENAUG  =  613.6 eV  augmentation charge cutoff
   NELM   =     60;   NELMIN=  2; NELMDL= -5     # of ELM steps 
   EDIFF  = 0.1E-05   stopping-criterion for ELM
   LREAL  =      F    real-space projection
   NLSPLINE    = F    spline interpolate recip. space projectors
   LCOMPAT=      F    compatible to vasp.4.4
   GGA_COMPAT  = T    GGA compatible to vasp.4.4-vasp.4.6
   LMAXPAW     = -100 max onsite density
   LMAXMIX     =    4 max onsite mixed and CHGCAR
   VOSKOWN=      0    Vosko Wilk Nusair interpolation
   ROPT   =    0.00000   0.00000
 Ionic relaxation
   EDIFFG = 0.1E-04   stopping-criterion for IOM
   NSW    =      0    number of steps for IOM
   NBLOCK =      1;   KBLOCK =      1    inner block; outer block 
   IBRION =     -1    ionic relax: 0-MD 1-quasi-New 2-CG
   NFREE  =      0    steps in history (QN), initial steepest desc. (CG)
   ISIF   =      2    stress and relaxation
   IWAVPR =     10    prediction:  0-non 1-charg 2-wave 3-comb
   ISYM   =      2    0-nonsym 1-usesym 2-fastsym
   LCORR  =      T    Harris-Foulkes like correction to forces

   POTIM  = 0.5000    time-step for ionic-motion
   TEIN   =    0.0    initial temperature
   TEBEG  =    0.0;   TEEND  =   0.0 temperature during run
   SMASS  =  -3.00    Nose mass-parameter (am)
   estimated Nose-frequenzy (Omega)   =  0.10E-29 period in steps =****** mass=  -0.525E-27a.u.
   SCALEE = 1.0000    scale energy and forces
   NPACO  =    256;   APACO  = 16.0  distance and # of slots for P.C.
   PSTRESS=    0.0 pullay stress

  Mass of Ions in am
   POMASS =  54.94 19.00
  Ionic Valenz
   ZVAL   =  13.00  7.00
  Atomic Wigner-Seitz radii
   RWIGS  =  -1.00 -1.00
  virtual crystal weights 
   VCA    =   1.00  1.00
   NELECT =      54.0000    total number of electrons
   NUPDOWN=      -1.0000    fix difference up-down

 DOS related values:
   EMIN   =  10.00;   EMAX   =-10.00  energy-range for DOS
   EFERMI =   0.00
   ISMEAR =    -5;   SIGMA  =   0.20  broadening in eV -4-tet -1-fermi 0-gaus

 Electronic relaxation 2 (details)
   IALGO  =     38    algorithm
   LDIAG  =      T    sub-space diagonalisation (order eigenvalues)
   LSUBROT=      F    optimize rotation matrix (better conditioning)
   TURBO    =      0    0=normal 1=particle mesh
   IRESTART =      0    0=no restart 2=restart with 2 vectors
   NREBOOT  =      0    no. of reboots
   NMIN     =      0    reboot dimension
   EREF     =   0.00    reference energy to select bands
   IMIX   =      4    mixing-type and parameters
     AMIX     =   0.40;   BMIX     =  1.00
     AMIX_MAG =   1.60;   BMIX_MAG =  1.00
     AMIN     =   0.10
     WC   =   100.;   INIMIX=   1;  MIXPRE=   1;  MAXMIX= -45

 Intra band minimization:
   WEIMIN = 0.0000     energy-eigenvalue tresh-hold
   EBREAK =  0.69E-08  absolut break condition
   DEPER  =   0.30     relativ break condition  

   TIME   =   0.40     timestep for ELM

  volume/ion in A,a.u.               =      12.44        83.92
  Fermi-wavevector in a.u.,A,eV,Ry     =   1.469830  2.777576 29.394023  2.160400
  Thomas-Fermi vector in A             =   2.585160
 
 Write flags
   LWAVE        =      T    write WAVECAR
   LDOWNSAMPLE  =      F    k-point downsampling of WAVECAR
   LCHARG       =      T    write CHGCAR
   LVTOT        =      F    write LOCPOT, total local potential
   LVHAR        =      F    write LOCPOT, Hartree potential only
   LELF         =      F    write electronic localiz. function (ELF)
   LORBIT       =     11    0 simple, 1 ext, 2 COOP (PROOUT), +10 PAW based schemes


 Dipole corrections
   LMONO  =      F    monopole corrections only (constant potential shift)
   LDIPOL =      F    correct potential (dipole corrections)
   IDIPOL =      0    1-x, 2-y, 3-z, 4-all directions 
   EPSILON=  1.0000000 bulk dielectric constant

 LDA+U is selected, type is set to LDAUTYPE =  2
   angular momentum for each species LDAUL =     2   -1
   U (eV)           for each species LDAUU =   4.0  0.0
   J (eV)           for each species LDAUJ =   0.0  0.0
 Exchange correlation treatment:
   GGA     =    --    GGA type
   LEXCH   =     2    internal setting for exchange type
   VOSKOWN=      0    Vosko Wilk Nusair interpolation
   LHFCALC =     F    Hartree Fock is set to
   LHFONE  =     F    Hartree Fock one center treatment
   AEXX    =    0.0000 exact exchange contribution

 Linear response parameters
   LEPSILON=     F    determine dielectric tensor
   LRPA    =     F    only Hartree local field effects (RPA)
   LNABLA  =     F    use nabla operator in PAW spheres
   LVEL    =     F    velocity operator in full k-point grid
   LINTERFAST=   F  fast interpolation
   KINTER  =     0    interpolate to denser k-point grid
   CSHIFT  =0.1000    complex shift for real part using Kramers Kronig
   OMEGAMAX=  -1.0    maximum frequency
   DEG_THRESHOLD= 0.2000000E-02 threshold for treating states as degnerate
   RTIME   =   -0.100 relaxation time in fs
  (WPLASMAI=    0.000 imaginary part of plasma frequency in eV, 0.658/RTIME)
   DFIELD  = 0.0000000 0.0000000 0.0000000 field for delta impulse in time
 
 Orbital magnetization related:
   ORBITALMAG=     F  switch on orbital magnetization
   LCHIMAG   =     F  perturbation theory with respect to B field
   DQ        =  0.001000  dq finite difference perturbation B field
   LLRAUG    =     F  two centre corrections for induced B field



--------------------------------------------------------------------------------------------------------


 Static calculation
 charge density and potential will be updated during run
 spin polarized calculation
 Variant of blocked Davidson
 Davidson routine will perform the subspace rotation
 perform sub-space diagonalisation
    after iterative eigenvector-optimisation
 modified Broyden-mixing scheme, WC =      100.0
 initial mixing is a Kerker type mixing with AMIX =  0.4000 and BMIX =      1.0000
 Hartree-type preconditioning will be used
 using additional bands            9
 reciprocal scheme for non local part
 use partial core corrections
 calculate Harris-corrections to forces 
   (improved forces if not selfconsistent)
 use of overlap-Matrix (Vanderbilt PP)
 Fermi weights with tetrahedron method with Bloechl corrections


--------------------------------------------------------------------------------------------------------


  energy-cutoff  :      650.00
  volume of cell :       74.61
      direct lattice vectors                 reciprocal lattice vectors
     4.793975157  0.000000000  0.000000000     0.208595157  0.000000000  0.000000000
     0.000000000  4.793975157  0.000000000     0.000000000  0.208595157  0.000000000
     0.000000000  0.000000000  3.246575661     0.000000000  0.000000000  0.308016847

  length of vectors
     4.793975157  4.793975157  3.246575661     0.208595157  0.208595157  0.308016847


 
 k-points in units of 2pi/SCALE and weight: KPOINTS created by Atomic Simulation Env
   0.02607439  0.02607439  0.02566807       0.083
   0.07822318  0.02607439  0.02566807       0.167
   0.07822318  0.07822318  0.02566807       0.083
   0.02607439  0.02607439  0.07700421       0.083
   0.07822318  0.02607439  0.07700421       0.167
   0.07822318  0.07822318  0.07700421       0.083
   0.02607439  0.02607439  0.12834035       0.083
   0.07822318  0.02607439  0.12834035       0.167
   0.07822318  0.07822318  0.12834035       0.083
 
 k-points in reciprocal lattice and weights: KPOINTS created by Atomic Simulation Env
   0.12500000  0.12500000  0.08333333       0.083
   0.37500000  0.12500000  0.08333333       0.167
   0.37500000  0.37500000  0.08333333       0.083
   0.12500000  0.12500000  0.25000000       0.083
   0.37500000  0.12500000  0.25000000       0.167
   0.37500000  0.37500000  0.25000000       0.083
   0.12500000  0.12500000  0.41666667       0.083
   0.37500000  0.12500000  0.41666667       0.167
   0.37500000  0.37500000  0.41666667       0.083
 
 position of ions in fractional coordinates (direct lattice) 
   0.50000000  0.50000000  0.50000000
   0.00000000  0.00000000  0.00000000
   0.19590526  0.80409474  0.50000000
   0.80409474  0.19590526  0.50000000
   0.30409474  0.30409474  0.00000000
   0.69590526  0.69590526  0.00000000
 
 position of ions in cartesian coordinates  (Angst):
   2.39698758  2.39698758  1.62328783
   0.00000000  0.00000000  0.00000000
   0.93916494  3.85481022  1.62328783
   3.85481022  0.93916494  1.62328783
   1.45782264  1.45782264  0.00000000
   3.33615252  3.33615252  0.00000000
 


--------------------------------------------------------------------------------------------------------


 k-point  1 :   0.1250 0.1250 0.0833  plane waves:    2793
 k-point  2 :   0.3750 0.1250 0.0833  plane waves:    2804
 k-point  3 :   0.3750 0.3750 0.0833  plane waves:    2824
 k-point  4 :   0.1250 0.1250 0.2500  plane waves:    2793
 k-point  5 :   0.3750 0.1250 0.2500  plane waves:    2807
 k-point  6 :   0.3750 0.3750 0.2500  plane waves:    2803
 k-point  7 :   0.1250 0.1250 0.4167  plane waves:    2814
 k-point  8 :   0.3750 0.1250 0.4167  plane waves:    2814
 k-point  9 :   0.3750 0.3750 0.4167  plane waves:    2805

 maximum and minimum number of plane-waves per node :      2824     2793

 maximum number of plane-waves:      2824
 maximum index in each direction: 
   IXMAX=    9   IYMAX=    9   IZMAX=    6
   IXMIN=  -10   IYMIN=  -10   IZMIN=   -7


 serial   3D FFT for wavefunctions
 parallel 3D FFT for charge:
    minimum data exchange during FFTs selected (reduces bandwidth)


 total amount of memory used by VASP MPI-rank0    44649. kBytes
=======================================================================

   base      :      30000. kBytes
   nonl-proj :       7612. kBytes
   fftplans  :       1875. kBytes
   grid      :       2467. kBytes
   one-center:        186. kBytes
   wavefun   :       2509. kBytes
 
     INWAV:  cpu time    0.0000: real time    0.0000
 Broyden mixing: mesh for mixing (old mesh)
   NGX = 19   NGY = 19   NGZ = 13
  (NGX  = 60   NGY  = 60   NGZ  = 40)
  gives a total of   4693 points

 initial charge density was supplied:
 charge density of overlapping atoms calculated
 number of electron      54.0000000 magnetization       0.0000000
 keeping initial charge density in first step


--------------------------------------------------------------------------------------------------------


 Maximum index for augmentation-charges         4447 (set IRDMAX)


--------------------------------------------------------------------------------------------------------


 First call to EWALD:  gamma=   0.421
 Maximum number of real-space cells 2x 2x 3
 Maximum number of reciprocal cells 3x 3x 2

    FEWALD:  cpu time    0.0010: real time    0.0010


--------------------------------------- Iteration      1(   1)  ---------------------------------------


    POTLOK:  cpu time    0.0062: real time    0.0062
    SETDIJ:  cpu time    0.4277: real time    0.4277
atom =   1  type =  1  l = 2
 
 onsite density matrix
 
spin component  1
 
  0.2837  0.0000  0.0000  0.0000  0.0000
  0.0000  0.2837  0.0000  0.0000  0.0000
  0.0000  0.0000  0.2837  0.0000  0.0000
  0.0000  0.0000  0.0000  0.2837  0.0000
  0.0000  0.0000  0.0000  0.0000  0.2837
 
spin component  2
 
  0.7701  0.0000  0.0000  0.0000  0.0000
  0.0000  0.7701  0.0000  0.0000  0.0000
  0.0000  0.0000  0.7701  0.0000  0.0000
  0.0000  0.0000  0.0000  0.7701  0.0000
  0.0000  0.0000  0.0000  0.0000  0.7701
 
 occupancies and eigenvectors
 
  o =  0.2837  v =  1.0000  0.0000  0.0000  0.0000  0.0000  0.0000  0.0000  0.0000  0.0000  0.0000      0.0000  0.0000  0.0000  0.0000  0.0000  0.0000  0.0000  0.0000  0.0000  0.0000
  o =  0.2837  v =  0.0000  1.0000  0.0000  0.0000  0.0000  0.0000  0.0000  0.0000  0.0000  0.0000      0.0000  0.0000  0.0000  0.0000  0.0000  0.0000  0.0000  0.0000  0.0000  0.0000
  o =  0.2837  v =  0.0000  0.0000  1.0000  0.0000  0.0000  0.0000  0.0000  0.0000  0.0000  0.0000      0.0000  0.0000  0.0000  0.0000  0.0000  0.0000  0.0000  0.0000  0.0000  0.0000
  o =  0.2837  v =  0.0000  0.0000  0.0000  1.0000  0.0000  0.0000  0.0000  0.0000  0.0000  0.0000      0.0000  0.0000  0.0000  0.0000  0.0000  0.0000  0.0000  0.0000  0.0000  0.0000
  o =  0.2837  v =  0.0000  0.0000  0.0000  0.0000  1.0000  0.0000  0.0000  0.0000  0.0000  0.0000      0.0000  0.0000  0.0000  0.0000  0.0000  0.0000  0.0000  0.0000  0.0000  0.0000
  o =  0.7701  v =  0.0000  0.0000  0.0000  0.0000  0.0000  1.0000  0.0000  0.0000  0.0000  0.0000      0.0000  0.0000  0.0000  0.0000  0.0000  0.0000  0.0000  0.0000  0.0000  0.0000
  o =  0.7701  v =  0.0000  0.0000  0.0000  0.0000  0.0000  0.0000  1.0000  0.0000  0.0000  0.0000      0.0000  0.0000  0.0000  0.0000  0.0000  0.0000  0.0000  0.0000  0.0000  0.0000
  o =  0.7701  v =  0.0000  0.0000  0.0000  0.0000  0.0000  0.0000  0.0000  1.0000  0.0000  0.0000      0.0000  0.0000  0.0000  0.0000  0.0000  0.0000  0.0000  0.0000  0.0000  0.0000
  o =  0.7701  v =  0.0000  0.0000  0.0000  0.0000  0.0000  0.0000  0.0000  0.0000  1.0000  0.0000      0.0000  0.0000  0.0000  0.0000  0.0000  0.0000  0.0000  0.0000  0.0000  0.0000
  o =  0.7701  v =  0.0000  0.0000  0.0000  0.0000  0.0000  0.0000  0.0000  0.0000  0.0000  1.0000      0.0000  0.0000  0.0000  0.0000  0.0000  0.0000  0.0000  0.0000  0.0000  0.0000
atom =   2  type =  1  l = 2
 
 onsite density matrix
 
spin component  1
 
  0.7701  0.0000  0.0000  0.0000  0.0000
  0.0000  0.7701  0.0000  0.0000  0.0000
  0.0000  0.0000  0.7701  0.0000  0.0000
  0.0000  0.0000  0.0000  0.7701  0.0000
  0.0000  0.0000  0.0000  0.0000  0.7701
 
spin component  2
 
  0.2837  0.0000  0.0000  0.0000  0.0000
  0.0000  0.2837  0.0000  0.0000  0.0000
  0.0000  0.0000  0.2837  0.0000  0.0000
  0.0000  0.0000  0.0000  0.2837  0.0000
  0.0000  0.0000  0.0000  0.0000  0.2837
 
 occupancies and eigenvectors
 
  o =  0.2837  v =  0.0000  0.0000  0.0000  0.0000  0.0000  1.0000  0.0000  0.0000  0.0000  0.0000      0.0000  0.0000  0.0000  0.0000  0.0000  0.0000  0.0000  0.0000  0.0000  0.0000
  o =  0.2837  v =  0.0000  0.0000  0.0000  0.0000  0.0000  0.0000  1.0000  0.0000  0.0000  0.0000      0.0000  0.0000  0.0000  0.0000  0.0000  0.0000  0.0000  0.0000  0.0000  0.0000
  o =  0.2837  v =  0.0000  0.0000  0.0000  0.0000  0.0000  0.0000  0.0000  1.0000  0.0000  0.0000      0.0000  0.0000  0.0000  0.0000  0.0000  0.0000  0.0000  0.0000  0.0000  0.0000
  o =  0.2837  v =  0.0000  0.0000  0.0000  0.0000  0.0000  0.0000  0.0000  0.0000  1.0000  0.0000      0.0000  0.0000  0.0000  0.0000  0.0000  0.0000  0.0000  0.0000  0.0000  0.0000
  o =  0.2837  v =  0.0000  0.0000  0.0000  0.0000  0.0000  0.0000  0.0000  0.0000  0.0000  1.0000      0.0000  0.0000  0.0000  0.0000  0.0000  0.0000  0.0000  0.0000  0.0000  0.0000
  o =  0.7701  v =  1.0000  0.0000  0.0000  0.0000  0.0000  0.0000  0.0000  0.0000  0.0000  0.0000      0.0000  0.0000  0.0000  0.0000  0.0000  0.0000  0.0000  0.0000  0.0000  0.0000
  o =  0.7701  v =  0.0000  1.0000  0.0000  0.0000  0.0000  0.0000  0.0000  0.0000  0.0000  0.0000      0.0000  0.0000  0.0000  0.0000  0.0000  0.0000  0.0000  0.0000  0.0000  0.0000
  o =  0.7701  v =  0.0000  0.0000  1.0000  0.0000  0.0000  0.0000  0.0000  0.0000  0.0000  0.0000      0.0000  0.0000  0.0000  0.0000  0.0000  0.0000  0.0000  0.0000  0.0000  0.0000
  o =  0.7701  v =  0.0000  0.0000  0.0000  1.0000  0.0000  0.0000  0.0000  0.0000  0.0000  0.0000      0.0000  0.0000  0.0000  0.0000  0.0000  0.0000  0.0000  0.0000  0.0000  0.0000
  o =  0.7701  v =  0.0000  0.0000  0.0000  0.0000  1.0000  0.0000  0.0000  0.0000  0.0000  0.0000      0.0000  0.0000  0.0000  0.0000  0.0000  0.0000  0.0000  0.0000  0.0000  0.0000
     EDDAV:  cpu time    0.3613: real time    0.3800
 BZINTS: Fermi energy: 19.054187; 54.000000 electrons
         Band energy: -31.688737;  BLOECHL correction: -0.209308
       DOS:  cpu time    0.0111: real time    0.0111
    --------------------------------------------
      LOOP:  cpu time    0.8064: real time    0.8251

 eigenvalue-minimisations  :  1296
 total energy-change (2. order) : 0.6936510E+03  (-0.3588888E+04)
 number of electron      54.0000000 magnetization       0.0000000
 augmentation part       54.0000000 magnetization       0.0000000

 Free energy of the ion-electron system (eV)
  ---------------------------------------------------
  alpha Z        PSCENC =       204.19688294
  Ewald energy   TEWEN  =     -4254.73589658
  -Hartree energ DENC   =     -2090.75035040
  -exchange      EXHF   =         0.00000000
  -V(xc)+E(xc)   XCENC  =       295.22288726
  PAW double counting   =      5431.03059579    -5549.10764102
  entropy T*S    EENTRO =         0.00000000
  eigenvalues    EBANDS =       -31.68873697
  atomic energy  EATOM  =      6689.48322167
  Solvation  Ediel_sol  =         0.00000000
  ---------------------------------------------------
  free energy    TOTEN  =       693.65096271 eV

  energy without entropy =      693.65096271  energy(sigma->0) =      693.65096271


--------------------------------------------------------------------------------------------------------




--------------------------------------- Iteration      1(   2)  ---------------------------------------


     EDDAV:  cpu time    0.3886: real time    0.3886
 BZINTS: Fermi energy:  4.329441; 54.000000 electrons
         Band energy:-717.225331;  BLOECHL correction:  0.000000
       DOS:  cpu time    0.0019: real time    0.0019
    --------------------------------------------
      LOOP:  cpu time    0.3905: real time    0.3905

 eigenvalue-minimisations  :  1464
 total energy-change (2. order) :-0.6855366E+03  (-0.6634502E+03)
 number of electron      54.0000000 magnetization       0.0000000
 augmentation part       54.0000000 magnetization       0.0000000

 Free energy of the ion-electron system (eV)
  ---------------------------------------------------
  alpha Z        PSCENC =       204.19688294
  Ewald energy   TEWEN  =     -4254.73589658
  -Hartree energ DENC   =     -2090.75035040
  -exchange      EXHF   =         0.00000000
  -V(xc)+E(xc)   XCENC  =       295.22288726
  PAW double counting   =      5431.03059579    -5549.10764102
  entropy T*S    EENTRO =         0.00000000
  eigenvalues    EBANDS =      -717.22533116
  atomic energy  EATOM  =      6689.48322167
  Solvation  Ediel_sol  =         0.00000000
  ---------------------------------------------------
  free energy    TOTEN  =         8.11436851 eV

  energy without entropy =        8.11436851  energy(sigma->0) =        8.11436851


--------------------------------------------------------------------------------------------------------




--------------------------------------- Iteration      1(   3)  ---------------------------------------


     EDDAV:  cpu time    0.4115: real time    0.4115
 BZINTS: Fermi energy:  3.515401; 54.000000 electrons
         Band energy:-766.078744;  BLOECHL correction:  0.000000
       DOS:  cpu time    0.0020: real time    0.0020
    --------------------------------------------
      LOOP:  cpu time    0.4136: real time    0.4136

 eigenvalue-minimisations  :  1548
 total energy-change (2. order) :-0.4885341E+02  (-0.4865320E+02)
 number of electron      54.0000000 magnetization       0.0000000
 augmentation part       54.0000000 magnetization       0.0000000

 Free energy of the ion-electron system (eV)
  ---------------------------------------------------
  alpha Z        PSCENC =       204.19688294
  Ewald energy   TEWEN  =     -4254.73589658
  -Hartree energ DENC   =     -2090.75035040
  -exchange      EXHF   =         0.00000000
  -V(xc)+E(xc)   XCENC  =       295.22288726
  PAW double counting   =      5431.03059579    -5549.10764102
  entropy T*S    EENTRO =         0.00000000
  eigenvalues    EBANDS =      -766.07874377
  atomic energy  EATOM  =      6689.48322167
  Solvation  Ediel_sol  =         0.00000000
  ---------------------------------------------------
  free energy    TOTEN  =       -40.73904410 eV

  energy without entropy =      -40.73904410  energy(sigma->0) =      -40.73904410


--------------------------------------------------------------------------------------------------------




--------------------------------------- Iteration      1(   4)  ---------------------------------------


     EDDAV:  cpu time    0.3905: real time    0.3906
 BZINTS: Fermi energy:  3.527888; 54.000000 electrons
         Band energy:-766.746010;  BLOECHL correction:  0.000000
       DOS:  cpu time    0.0017: real time    0.0017
    --------------------------------------------
      LOOP:  cpu time    0.3923: real time    0.3923

 eigenvalue-minimisations  :  1464
 total energy-change (2. order) :-0.6672659E+00  (-0.6670759E+00)
 number of electron      54.0000000 magnetization       0.0000000
 augmentation part       54.0000000 magnetization       0.0000000

 Free energy of the ion-electron system (eV)
  ---------------------------------------------------
  alpha Z        PSCENC =       204.19688294
  Ewald energy   TEWEN  =     -4254.73589658
  -Hartree energ DENC   =     -2090.75035040
  -exchange      EXHF   =         0.00000000
  -V(xc)+E(xc)   XCENC  =       295.22288726
  PAW double counting   =      5431.03059579    -5549.10764102
  entropy T*S    EENTRO =         0.00000000
  eigenvalues    EBANDS =      -766.74600965
  atomic energy  EATOM  =      6689.48322167
  Solvation  Ediel_sol  =         0.00000000
  ---------------------------------------------------
  free energy    TOTEN  =       -41.40630998 eV

  energy without entropy =      -41.40630998  energy(sigma->0) =      -41.40630998


--------------------------------------------------------------------------------------------------------




--------------------------------------- Iteration      1(   5)  ---------------------------------------


     EDDAV:  cpu time    0.3961: real time    0.3961
 BZINTS: Fermi energy:  3.513554; 54.000000 electrons
         Band energy:-766.756627;  BLOECHL correction:  0.000000
       DOS:  cpu time    0.0017: real time    0.0017
    CHARGE:  cpu time    0.0371: real time    0.0371
    MIXING:  cpu time    0.0005: real time    0.0005
    --------------------------------------------
      LOOP:  cpu time    0.4354: real time    0.4354

 eigenvalue-minimisations  :  1488
 total energy-change (2. order) :-0.1061720E-01  (-0.1061713E-01)
 number of electron      53.9999997 magnetization       0.0000000
 augmentation part       20.1219252 magnetization       0.0000000

 Broyden mixing:
  rms(total) = 0.24805E+01    rms(broyden)= 0.24805E+01
  rms(prec ) = 0.32138E+01
  weight for this iteration     100.00

 Free energy of the ion-electron system (eV)
  ---------------------------------------------------
  alpha Z        PSCENC =       204.19688294
  Ewald energy   TEWEN  =     -4254.73589658
  -Hartree energ DENC   =     -2090.75035040
  -exchange      EXHF   =         0.00000000
  -V(xc)+E(xc)   XCENC  =       295.22288726
  PAW double counting   =      5431.03059579    -5549.10764102
  entropy T*S    EENTRO =         0.00000000
  eigenvalues    EBANDS =      -766.75662685
  atomic energy  EATOM  =      6689.48322167
  Solvation  Ediel_sol  =         0.00000000
  ---------------------------------------------------
  free energy    TOTEN  =       -41.41692718 eV

  energy without entropy =      -41.41692718  energy(sigma->0) =      -41.41692718


--------------------------------------------------------------------------------------------------------




--------------------------------------- Iteration      1(   6)  ---------------------------------------


    POTLOK:  cpu time    0.0048: real time    0.0048
    SETDIJ:  cpu time    0.4275: real time    0.4275
atom =   1  type =  1  l = 2
 
 onsite density matrix
 
spin component  1
 
 -0.0728  0.0000  0.0050  0.0000 -0.0000
  0.0000 -0.0763  0.0000  0.0034  0.0000
  0.0050  0.0000 -0.0740  0.0000 -0.0000
  0.0000  0.0034  0.0000 -0.0763  0.0000
 -0.0000  0.0000 -0.0000  0.0000 -0.0828
 
spin component  2
 
  1.1008  0.0000  0.0137  0.0000 -0.0000
  0.0000  1.0986  0.0000  0.0123  0.0000
  0.0137  0.0000  1.0920  0.0000  0.0000
  0.0000  0.0123  0.0000  1.0986  0.0000
 -0.0000  0.0000  0.0000  0.0000  1.0887
 
 occupancies and eigenvectors
 
  o = -0.0828  v = -0.0000 -0.0000  0.0000 -0.0000  1.0000  0.0000  0.0000  0.0000  0.0000  0.0000      0.0000  0.0000  0.0000  0.0000  0.0000  0.0000  0.0000  0.0000  0.0000  0.0000
  o = -0.0797  v = -0.0000  0.7071  0.0000 -0.7071  0.0000  0.0000  0.0000  0.0000  0.0000  0.0000      0.0000  0.0000  0.0000  0.0000  0.0000  0.0000  0.0000  0.0000  0.0000  0.0000
  o = -0.0784  v =  0.6624  0.0000 -0.7491 -0.0000  0.0000  0.0000  0.0000  0.0000  0.0000  0.0000      0.0000  0.0000  0.0000  0.0000  0.0000  0.0000  0.0000  0.0000  0.0000  0.0000
  o = -0.0729  v = -0.0000 -0.7071  0.0000 -0.7071 -0.0000  0.0000  0.0000  0.0000  0.0000  0.0000      0.0000  0.0000  0.0000  0.0000  0.0000  0.0000  0.0000  0.0000  0.0000  0.0000
  o = -0.0683  v =  0.7491 -0.0000  0.6624 -0.0000 -0.0000  0.0000  0.0000  0.0000  0.0000  0.0000      0.0000  0.0000  0.0000  0.0000  0.0000  0.0000  0.0000  0.0000  0.0000  0.0000
  o =  1.0820  v =  0.0000  0.0000  0.0000  0.0000  0.0000  0.5885 -0.0000 -0.8085  0.0000  0.0000      0.0000  0.0000  0.0000  0.0000  0.0000  0.0000  0.0000  0.0000  0.0000  0.0000
  o =  1.0863  v =  0.0000  0.0000  0.0000  0.0000  0.0000 -0.0000 -0.7071  0.0000  0.7071  0.0000      0.0000  0.0000  0.0000  0.0000  0.0000  0.0000  0.0000  0.0000  0.0000  0.0000
  o =  1.0887  v =  0.0000  0.0000  0.0000  0.0000  0.0000 -0.0000  0.0000  0.0000 -0.0000  1.0000      0.0000  0.0000  0.0000  0.0000  0.0000  0.0000  0.0000  0.0000  0.0000  0.0000
  o =  1.1108  v =  0.0000  0.0000  0.0000  0.0000  0.0000  0.8085  0.0000  0.5885  0.0000  0.0000      0.0000  0.0000  0.0000  0.0000  0.0000  0.0000  0.0000  0.0000  0.0000  0.0000
  o =  1.1109  v =  0.0000  0.0000  0.0000  0.0000  0.0000  0.0000 -0.7071  0.0000 -0.7071 -0.0000      0.0000  0.0000  0.0000  0.0000  0.0000  0.0000  0.0000  0.0000  0.0000  0.0000
atom =   2  type =  1  l = 2
 
 onsite density matrix
 
spin component  1
 
  1.1008  0.0000 -0.0137  0.0000 -0.0000
  0.0000  1.0986  0.0000 -0.0123  0.0000
 -0.0137  0.0000  1.0920  0.0000  0.0000
  0.0000 -0.0123  0.0000  1.0986  0.0000
 -0.0000  0.0000  0.0000  0.0000  1.0887
 
spin component  2
 
 -0.0728  0.0000 -0.0050  0.0000  0.0000
  0.0000 -0.0763  0.0000 -0.0034  0.0000
 -0.0050  0.0000 -0.0740  0.0000  0.0000
  0.0000 -0.0034  0.0000 -0.0763  0.0000
  0.0000  0.0000  0.0000  0.0000 -0.0828
 
 occupancies and eigenvectors
 
  o = -0.0828  v =  0.0000  0.0000  0.0000  0.0000  0.0000  0.0000  0.0000  0.0000  0.0000  1.0000      0.0000  0.0000  0.0000  0.0000  0.0000  0.0000  0.0000  0.0000  0.0000  0.0000
  o = -0.0797  v =  0.0000  0.0000  0.0000  0.0000  0.0000  0.0000  0.7071 -0.0000  0.7071 -0.0000      0.0000  0.0000  0.0000  0.0000  0.0000  0.0000  0.0000  0.0000  0.0000  0.0000
  o = -0.0784  v =  0.0000  0.0000  0.0000  0.0000  0.0000  0.6624  0.0000  0.7491  0.0000 -0.0000      0.0000  0.0000  0.0000  0.0000  0.0000  0.0000  0.0000  0.0000  0.0000  0.0000
  o = -0.0729  v =  0.0000  0.0000  0.0000  0.0000  0.0000  0.0000  0.7071 -0.0000 -0.7071 -0.0000      0.0000  0.0000  0.0000  0.0000  0.0000  0.0000  0.0000  0.0000  0.0000  0.0000
  o = -0.0683  v =  0.0000  0.0000  0.0000  0.0000  0.0000 -0.7491  0.0000  0.6624  0.0000 -0.0000      0.0000  0.0000  0.0000  0.0000  0.0000  0.0000  0.0000  0.0000  0.0000  0.0000
  o =  1.0820  v = -0.5885  0.0000 -0.8085  0.0000 -0.0000  0.0000  0.0000  0.0000  0.0000  0.0000      0.0000  0.0000  0.0000  0.0000  0.0000  0.0000  0.0000  0.0000  0.0000  0.0000
  o =  1.0863  v =  0.0000  0.7071 -0.0000  0.7071  0.0000  0.0000  0.0000  0.0000  0.0000  0.0000      0.0000  0.0000  0.0000  0.0000  0.0000  0.0000  0.0000  0.0000  0.0000  0.0000
  o =  1.0887  v =  0.0000  0.0000  0.0000  0.0000 -1.0000  0.0000  0.0000  0.0000  0.0000  0.0000      0.0000  0.0000  0.0000  0.0000  0.0000  0.0000  0.0000  0.0000  0.0000  0.0000
  o =  1.1108  v = -0.8085  0.0000  0.5885  0.0000  0.0000  0.0000  0.0000  0.0000  0.0000  0.0000      0.0000  0.0000  0.0000  0.0000  0.0000  0.0000  0.0000  0.0000  0.0000  0.0000
  o =  1.1109  v =  0.0000 -0.7071 -0.0000  0.7071  0.0000  0.0000  0.0000  0.0000  0.0000  0.0000      0.0000  0.0000  0.0000  0.0000  0.0000  0.0000  0.0000  0.0000  0.0000  0.0000
     EDDAV:  cpu time    0.4292: real time    0.4293
 BZINTS: Fermi energy:  1.735321; 54.000000 electrons
         Band energy:-750.904653;  BLOECHL correction:  0.000000
       DOS:  cpu time    0.0020: real time    0.0020
    CHARGE:  cpu time    0.0377: real time    0.0377
    MIXING:  cpu time    0.0005: real time    0.0005
    --------------------------------------------
      LOOP:  cpu time    0.9018: real time    0.9018

 eigenvalue-minimisations  :  1620
 total energy-change (2. order) : 0.2069266E+01  (-0.1563691E+01)
 number of electron      53.9999997 magnetization      -0.0000000
 augmentation part       19.9699332 magnetization      -0.0000000

 Broyden mixing:
  rms(total) = 0.15944E+01    rms(broyden)= 0.15943E+01
  rms(prec ) = 0.16441E+01
  weight for this iteration     100.00

 eigenvalues of (default mixing * dielectric matrix)
  average eigenvalue GAMMA=   0.8134
  0.8134

 Free energy of the ion-electron system (eV)
  ---------------------------------------------------
  alpha Z        PSCENC =       204.19688294
  Ewald energy   TEWEN  =     -4254.73589658
  -Hartree energ DENC   =     -2113.59718677
  -exchange      EXHF   =         0.00000000
  -V(xc)+E(xc)   XCENC  =       295.83813065
  PAW double counting   =      5725.00019768    -5834.62835802
  entropy T*S    EENTRO =         0.00000000
  eigenvalues    EBANDS =      -750.90465299
  atomic energy  EATOM  =      6689.48322167
  Solvation  Ediel_sol  =         0.00000000
  ---------------------------------------------------
  free energy    TOTEN  =       -39.34766141 eV

  energy without entropy =      -39.34766141  energy(sigma->0) =      -39.34766141


--------------------------------------------------------------------------------------------------------




--------------------------------------- Iteration      1(   7)  ---------------------------------------


    POTLOK:  cpu time    0.0046: real time    0.0046
    SETDIJ:  cpu time    0.4271: real time    0.4272
atom =   1  type =  1  l = 2
 
 onsite density matrix
 
spin component  1
 
  0.1246  0.0000  0.0223  0.0000  0.0000
  0.0000  0.1175  0.0000  0.0184  0.0000
  0.0223  0.0000  0.1121  0.0000  0.0000
  0.0000  0.0184  0.0000  0.1175  0.0000
  0.0000  0.0000  0.0000  0.0000  0.0979
 
spin component  2
 
  0.8989  0.0000  0.0074  0.0000 -0.0000
  0.0000  0.8968  0.0000  0.0064  0.0000
  0.0074  0.0000  0.8952  0.0000 -0.0000
  0.0000  0.0064  0.0000  0.8968  0.0000
 -0.0000  0.0000 -0.0000  0.0000  0.8900
 
 occupancies and eigenvectors
 
  o =  0.0952  v = -0.6041 -0.0000  0.7969  0.0000 -0.0000  0.0000  0.0000  0.0000  0.0000  0.0000      0.0000  0.0000  0.0000  0.0000  0.0000  0.0000  0.0000  0.0000  0.0000  0.0000
  o =  0.0979  v = -0.0000  0.0000  0.0000 -0.0000  1.0000  0.0000  0.0000  0.0000  0.0000  0.0000      0.0000  0.0000  0.0000  0.0000  0.0000  0.0000  0.0000  0.0000  0.0000  0.0000
  o =  0.0991  v =  0.0000  0.7071 -0.0000 -0.7071 -0.0000  0.0000  0.0000  0.0000  0.0000  0.0000      0.0000  0.0000  0.0000  0.0000  0.0000  0.0000  0.0000  0.0000  0.0000  0.0000
  o =  0.1359  v =  0.0000  0.7071  0.0000  0.7071 -0.0000  0.0000  0.0000  0.0000  0.0000  0.0000      0.0000  0.0000  0.0000  0.0000  0.0000  0.0000  0.0000  0.0000  0.0000  0.0000
  o =  0.1415  v = -0.7969  0.0000 -0.6041  0.0000 -0.0000  0.0000  0.0000  0.0000  0.0000  0.0000      0.0000  0.0000  0.0000  0.0000  0.0000  0.0000  0.0000  0.0000  0.0000  0.0000
  o =  0.8894  v =  0.0000  0.0000  0.0000  0.0000  0.0000 -0.6135 -0.0000  0.7897  0.0000  0.0000      0.0000  0.0000  0.0000  0.0000  0.0000  0.0000  0.0000  0.0000  0.0000  0.0000
  o =  0.8900  v =  0.0000  0.0000  0.0000  0.0000  0.0000 -0.0000  0.0000  0.0000  0.0000 -1.0000      0.0000  0.0000  0.0000  0.0000  0.0000  0.0000  0.0000  0.0000  0.0000  0.0000
  o =  0.8904  v =  0.0000  0.0000  0.0000  0.0000  0.0000  0.0000  0.7071  0.0000 -0.7071  0.0000      0.0000  0.0000  0.0000  0.0000  0.0000  0.0000  0.0000  0.0000  0.0000  0.0000
  o =  0.9032  v =  0.0000  0.0000  0.0000  0.0000  0.0000  0.0000  0.7071  0.0000  0.7071  0.0000      0.0000  0.0000  0.0000  0.0000  0.0000  0.0000  0.0000  0.0000  0.0000  0.0000
  o =  0.9047  v =  0.0000  0.0000  0.0000  0.0000  0.0000 -0.7897  0.0000 -0.6135  0.0000  0.0000      0.0000  0.0000  0.0000  0.0000  0.0000  0.0000  0.0000  0.0000  0.0000  0.0000
atom =   2  type =  1  l = 2
 
 onsite density matrix
 
spin component  1
 
  0.8989  0.0000 -0.0074  0.0000  0.0000
  0.0000  0.8968  0.0000 -0.0064  0.0000
 -0.0074  0.0000  0.8952  0.0000 -0.0000
  0.0000 -0.0064  0.0000  0.8968  0.0000
  0.0000  0.0000 -0.0000  0.0000  0.8900
 
spin component  2
 
  0.1246  0.0000 -0.0223  0.0000  0.0000
  0.0000  0.1175  0.0000 -0.0184  0.0000
 -0.0223  0.0000  0.1121  0.0000  0.0000
  0.0000 -0.0184  0.0000  0.1175  0.0000
  0.0000  0.0000  0.0000  0.0000  0.0979
 
 occupancies and eigenvectors
 
  o =  0.0952  v =  0.0000  0.0000  0.0000  0.0000  0.0000 -0.6041 -0.0000 -0.7969  0.0000  0.0000      0.0000  0.0000  0.0000  0.0000  0.0000  0.0000  0.0000  0.0000  0.0000  0.0000
  o =  0.0979  v =  0.0000  0.0000  0.0000  0.0000  0.0000 -0.0000  0.0000 -0.0000  0.0000 -1.0000      0.0000  0.0000  0.0000  0.0000  0.0000  0.0000  0.0000  0.0000  0.0000  0.0000
  o =  0.0991  v =  0.0000  0.0000  0.0000  0.0000  0.0000  0.0000 -0.7071  0.0000 -0.7071 -0.0000      0.0000  0.0000  0.0000  0.0000  0.0000  0.0000  0.0000  0.0000  0.0000  0.0000
  o =  0.1359  v =  0.0000  0.0000  0.0000  0.0000  0.0000  0.0000 -0.7071  0.0000  0.7071 -0.0000      0.0000  0.0000  0.0000  0.0000  0.0000  0.0000  0.0000  0.0000  0.0000  0.0000
  o =  0.1415  v =  0.0000  0.0000  0.0000  0.0000  0.0000 -0.7969 -0.0000  0.6041  0.0000  0.0000      0.0000  0.0000  0.0000  0.0000  0.0000  0.0000  0.0000  0.0000  0.0000  0.0000
  o =  0.8894  v = -0.6135  0.0000 -0.7897  0.0000  0.0000  0.0000  0.0000  0.0000  0.0000  0.0000      0.0000  0.0000  0.0000  0.0000  0.0000  0.0000  0.0000  0.0000  0.0000  0.0000
  o =  0.8900  v =  0.0000 -0.0000  0.0000  0.0000  1.0000  0.0000  0.0000  0.0000  0.0000  0.0000      0.0000  0.0000  0.0000  0.0000  0.0000  0.0000  0.0000  0.0000  0.0000  0.0000
  o =  0.8904  v =  0.0000 -0.7071  0.0000 -0.7071 -0.0000  0.0000  0.0000  0.0000  0.0000  0.0000      0.0000  0.0000  0.0000  0.0000  0.0000  0.0000  0.0000  0.0000  0.0000  0.0000
  o =  0.9032  v =  0.0000  0.7071  0.0000 -0.7071  0.0000  0.0000  0.0000  0.0000  0.0000  0.0000      0.0000  0.0000  0.0000  0.0000  0.0000  0.0000  0.0000  0.0000  0.0000  0.0000
  o =  0.9047  v = -0.7897  0.0000  0.6135  0.0000 -0.0000  0.0000  0.0000  0.0000  0.0000  0.0000      0.0000  0.0000  0.0000  0.0000  0.0000  0.0000  0.0000  0.0000  0.0000  0.0000
     EDDAV:  cpu time    0.4155: real time    0.4155
 BZINTS: Fermi energy:  2.073576; 54.000000 electrons
         Band energy:-746.000407;  BLOECHL correction:  0.000000
       DOS:  cpu time    0.0018: real time    0.0018
    CHARGE:  cpu time    0.0377: real time    0.0377
    MIXING:  cpu time    0.0006: real time    0.0006
    --------------------------------------------
      LOOP:  cpu time    0.8873: real time    0.8873

 eigenvalue-minimisations  :  1524
 total energy-change (2. order) :-0.6366793E+00  (-0.1569087E+00)
 number of electron      53.9999997 magnetization       0.0000000
 augmentation part       19.9476119 magnetization       0.0000000

 Broyden mixing:
  rms(total) = 0.11843E+01    rms(broyden)= 0.11843E+01
  rms(prec ) = 0.12122E+01
  weight for this iteration     100.00

 eigenvalues of (default mixing * dielectric matrix)
  average eigenvalue GAMMA=   1.4420
  0.7013  2.1827

 Free energy of the ion-electron system (eV)
  ---------------------------------------------------
  alpha Z        PSCENC =       204.19688294
  Ewald energy   TEWEN  =     -4254.73589658
  -Hartree energ DENC   =     -2109.97025012
  -exchange      EXHF   =         0.00000000
  -V(xc)+E(xc)   XCENC  =       296.47760324
  PAW double counting   =      5979.25402003    -6098.68951448
  entropy T*S    EENTRO =         0.00000000
  eigenvalues    EBANDS =      -746.00040743
  atomic energy  EATOM  =      6689.48322167
  Solvation  Ediel_sol  =         0.00000000
  ---------------------------------------------------
  free energy    TOTEN  =       -39.98434072 eV

  energy without entropy =      -39.98434072  energy(sigma->0) =      -39.98434072


--------------------------------------------------------------------------------------------------------




--------------------------------------- Iteration      1(   8)  ---------------------------------------


    POTLOK:  cpu time    0.0047: real time    0.0047
    SETDIJ:  cpu time    0.3995: real time    0.3995
atom =   1  type =  1  l = 2
 
 onsite density matrix
 
spin component  1
 
 -0.0253  0.0000  0.0237  0.0000 -0.0000
  0.0000 -0.0332  0.0000  0.0184  0.0000
  0.0237  0.0000 -0.0361  0.0000 -0.0000
  0.0000  0.0184  0.0000 -0.0332  0.0000
 -0.0000  0.0000 -0.0000  0.0000 -0.0562
 
spin component  2
 
  1.0503  0.0000  0.0209  0.0000  0.0000
  0.0000  1.0441  0.0000  0.0192  0.0000
  0.0209  0.0000  1.0360  0.0000  0.0000
  0.0000  0.0192  0.0000  1.0441  0.0000
  0.0000  0.0000  0.0000  0.0000  1.0270
 
 occupancies and eigenvectors
 
  o = -0.0562  v =  0.0000 -0.0000 -0.0000  0.0000 -1.0000  0.0000  0.0000  0.0000  0.0000  0.0000      0.0000  0.0000  0.0000  0.0000  0.0000  0.0000  0.0000  0.0000  0.0000  0.0000
  o = -0.0551  v =  0.6236  0.0000 -0.7817 -0.0000  0.0000  0.0000  0.0000  0.0000  0.0000  0.0000      0.0000  0.0000  0.0000  0.0000  0.0000  0.0000  0.0000  0.0000  0.0000  0.0000
  o = -0.0516  v = -0.0000  0.7071  0.0000 -0.7071 -0.0000  0.0000  0.0000  0.0000  0.0000  0.0000      0.0000  0.0000  0.0000  0.0000  0.0000  0.0000  0.0000  0.0000  0.0000  0.0000
  o = -0.0148  v = -0.0000  0.7071 -0.0000  0.7071 -0.0000  0.0000  0.0000  0.0000  0.0000  0.0000      0.0000  0.0000  0.0000  0.0000  0.0000  0.0000  0.0000  0.0000  0.0000  0.0000
  o = -0.0064  v =  0.7817  0.0000  0.6236  0.0000 -0.0000  0.0000  0.0000  0.0000  0.0000  0.0000      0.0000  0.0000  0.0000  0.0000  0.0000  0.0000  0.0000  0.0000  0.0000  0.0000
  o =  1.0210  v =  0.0000  0.0000  0.0000  0.0000  0.0000 -0.5821  0.0000  0.8131 -0.0000 -0.0000      0.0000  0.0000  0.0000  0.0000  0.0000  0.0000  0.0000  0.0000  0.0000  0.0000
  o =  1.0249  v =  0.0000  0.0000  0.0000  0.0000  0.0000 -0.0000 -0.7071  0.0000  0.7071 -0.0000      0.0000  0.0000  0.0000  0.0000  0.0000  0.0000  0.0000  0.0000  0.0000  0.0000
  o =  1.0270  v =  0.0000  0.0000  0.0000  0.0000  0.0000 -0.0000 -0.0000  0.0000  0.0000  1.0000      0.0000  0.0000  0.0000  0.0000  0.0000  0.0000  0.0000  0.0000  0.0000  0.0000
  o =  1.0633  v =  0.0000  0.0000  0.0000  0.0000  0.0000 -0.0000 -0.7071 -0.0000 -0.7071  0.0000      0.0000  0.0000  0.0000  0.0000  0.0000  0.0000  0.0000  0.0000  0.0000  0.0000
  o =  1.0652  v =  0.0000  0.0000  0.0000  0.0000  0.0000 -0.8131  0.0000 -0.5821  0.0000 -0.0000      0.0000  0.0000  0.0000  0.0000  0.0000  0.0000  0.0000  0.0000  0.0000  0.0000
atom =   2  type =  1  l = 2
 
 onsite density matrix
 
spin component  1
 
  1.0503  0.0000 -0.0209  0.0000  0.0000
  0.0000  1.0441  0.0000 -0.0192  0.0000
 -0.0209  0.0000  1.0360  0.0000 -0.0000
  0.0000 -0.0192  0.0000  1.0441  0.0000
  0.0000  0.0000 -0.0000  0.0000  1.0270
 
spin component  2
 
 -0.0253  0.0000 -0.0237  0.0000 -0.0000
  0.0000 -0.0332  0.0000 -0.0184  0.0000
 -0.0237  0.0000 -0.0361  0.0000  0.0000
  0.0000 -0.0184  0.0000 -0.0332  0.0000
 -0.0000  0.0000  0.0000  0.0000 -0.0562
 
 occupancies and eigenvectors
 
  o = -0.0562  v =  0.0000  0.0000  0.0000  0.0000  0.0000  0.0000 -0.0000  0.0000  0.0000 -1.0000      0.0000  0.0000  0.0000  0.0000  0.0000  0.0000  0.0000  0.0000  0.0000  0.0000
  o = -0.0551  v =  0.0000  0.0000  0.0000  0.0000  0.0000 -0.6236 -0.0000 -0.7817  0.0000 -0.0000      0.0000  0.0000  0.0000  0.0000  0.0000  0.0000  0.0000  0.0000  0.0000  0.0000
  o = -0.0516  v =  0.0000  0.0000  0.0000  0.0000  0.0000  0.0000 -0.7071  0.0000 -0.7071  0.0000      0.0000  0.0000  0.0000  0.0000  0.0000  0.0000  0.0000  0.0000  0.0000  0.0000
  o = -0.0148  v =  0.0000  0.0000  0.0000  0.0000  0.0000  0.0000  0.7071  0.0000 -0.7071 -0.0000      0.0000  0.0000  0.0000  0.0000  0.0000  0.0000  0.0000  0.0000  0.0000  0.0000
  o = -0.0064  v =  0.0000  0.0000  0.0000  0.0000  0.0000  0.7817 -0.0000 -0.6236  0.0000 -0.0000      0.0000  0.0000  0.0000  0.0000  0.0000  0.0000  0.0000  0.0000  0.0000  0.0000
  o =  1.0210  v = -0.5821  0.0000 -0.8131  0.0000 -0.0000  0.0000  0.0000  0.0000  0.0000  0.0000      0.0000  0.0000  0.0000  0.0000  0.0000  0.0000  0.0000  0.0000  0.0000  0.0000
  o =  1.0249  v =  0.0000 -0.7071  0.0000 -0.7071 -0.0000  0.0000  0.0000  0.0000  0.0000  0.0000      0.0000  0.0000  0.0000  0.0000  0.0000  0.0000  0.0000  0.0000  0.0000  0.0000
  o =  1.0270  v = -0.0000 -0.0000 -0.0000  0.0000  1.0000  0.0000  0.0000  0.0000  0.0000  0.0000      0.0000  0.0000  0.0000  0.0000  0.0000  0.0000  0.0000  0.0000  0.0000  0.0000
  o =  1.0633  v =  0.0000  0.7071  0.0000 -0.7071  0.0000  0.0000  0.0000  0.0000  0.0000  0.0000      0.0000  0.0000  0.0000  0.0000  0.0000  0.0000  0.0000  0.0000  0.0000  0.0000
  o =  1.0652  v = -0.8131  0.0000  0.5821  0.0000 -0.0000  0.0000  0.0000  0.0000  0.0000  0.0000      0.0000  0.0000  0.0000  0.0000  0.0000  0.0000  0.0000  0.0000  0.0000  0.0000
     EDDAV:  cpu time    0.4044: real time    0.4044
 BZINTS: Fermi energy:  1.713098; 54.000000 electrons
         Band energy:-754.059016;  BLOECHL correction:  0.000000
       DOS:  cpu time    0.0017: real time    0.0017
    CHARGE:  cpu time    0.0378: real time    0.0378
    MIXING:  cpu time    0.0006: real time    0.0006
    --------------------------------------------
      LOOP:  cpu time    0.8488: real time    0.8488

 eigenvalue-minimisations  :  1524
 total energy-change (2. order) : 0.8513600E-01  (-0.5237689E-01)
 number of electron      53.9999997 magnetization       0.0000000
 augmentation part       19.9816385 magnetization       0.0000000

 Broyden mixing:
  rms(total) = 0.47348E+00    rms(broyden)= 0.47347E+00
  rms(prec ) = 0.50455E+00
  weight for this iteration     100.00

 eigenvalues of (default mixing * dielectric matrix)
  average eigenvalue GAMMA=   1.2512
  2.1010  1.0202  0.6323

 Free energy of the ion-electron system (eV)
  ---------------------------------------------------
  alpha Z        PSCENC =       204.19688294
  Ewald energy   TEWEN  =     -4254.73589658
  -Hartree energ DENC   =     -2104.51292322
  -exchange      EXHF   =         0.00000000
  -V(xc)+E(xc)   XCENC  =       295.80314033
  PAW double counting   =      6251.93256330    -6368.00717695
  entropy T*S    EENTRO =         0.00000000
  eigenvalues    EBANDS =      -754.05901621
  atomic energy  EATOM  =      6689.48322167
  Solvation  Ediel_sol  =         0.00000000
  ---------------------------------------------------
  free energy    TOTEN  =       -39.89920472 eV

  energy without entropy =      -39.89920472  energy(sigma->0) =      -39.89920472


--------------------------------------------------------------------------------------------------------




--------------------------------------- Iteration      1(   9)  ---------------------------------------


    POTLOK:  cpu time    0.0050: real time    0.0050
    SETDIJ:  cpu time    0.2298: real time    0.2298
atom =   1  type =  1  l = 2
 
 onsite density matrix
 
spin component  1
 
  0.0495  0.0000  0.0276  0.0000 -0.0000
  0.0000  0.0400  0.0000  0.0231  0.0000
  0.0276  0.0000  0.0342  0.0000  0.0000
  0.0000  0.0231  0.0000  0.0400  0.0000
 -0.0000  0.0000  0.0000  0.0000  0.0145
 
spin component  2
 
  0.9746  0.0000  0.0242  0.0000  0.0000
  0.0000  0.9676  0.0000  0.0207  0.0000
  0.0242  0.0000  0.9606  0.0000  0.0000
  0.0000  0.0207  0.0000  0.9676  0.0000
  0.0000  0.0000  0.0000  0.0000  0.9466
 
 occupancies and eigenvectors
 
  o =  0.0132  v = -0.6051  0.0000  0.7962 -0.0000 -0.0000  0.0000  0.0000  0.0000  0.0000  0.0000      0.0000  0.0000  0.0000  0.0000  0.0000  0.0000  0.0000  0.0000  0.0000  0.0000
  o =  0.0145  v = -0.0000 -0.0000  0.0000  0.0000  1.0000  0.0000  0.0000  0.0000  0.0000  0.0000      0.0000  0.0000  0.0000  0.0000  0.0000  0.0000  0.0000  0.0000  0.0000  0.0000
  o =  0.0169  v =  0.0000  0.7071 -0.0000 -0.7071  0.0000  0.0000  0.0000  0.0000  0.0000  0.0000      0.0000  0.0000  0.0000  0.0000  0.0000  0.0000  0.0000  0.0000  0.0000  0.0000
  o =  0.0631  v = -0.0000 -0.7071 -0.0000 -0.7071 -0.0000  0.0000  0.0000  0.0000  0.0000  0.0000      0.0000  0.0000  0.0000  0.0000  0.0000  0.0000  0.0000  0.0000  0.0000  0.0000
  o =  0.0705  v = -0.7962  0.0000 -0.6051  0.0000 -0.0000  0.0000  0.0000  0.0000  0.0000  0.0000      0.0000  0.0000  0.0000  0.0000  0.0000  0.0000  0.0000  0.0000  0.0000  0.0000
  o =  0.9424  v =  0.0000  0.0000  0.0000  0.0000  0.0000 -0.6006  0.0000  0.7995  0.0000  0.0000      0.0000  0.0000  0.0000  0.0000  0.0000  0.0000  0.0000  0.0000  0.0000  0.0000
  o =  0.9466  v =  0.0000  0.0000  0.0000  0.0000  0.0000  0.0000 -0.0000 -0.0000  0.0000  1.0000      0.0000  0.0000  0.0000  0.0000  0.0000  0.0000  0.0000  0.0000  0.0000  0.0000
  o =  0.9469  v =  0.0000  0.0000  0.0000  0.0000  0.0000  0.0000  0.7071  0.0000 -0.7071  0.0000      0.0000  0.0000  0.0000  0.0000  0.0000  0.0000  0.0000  0.0000  0.0000  0.0000
  o =  0.9882  v =  0.0000  0.0000  0.0000  0.0000  0.0000  0.0000 -0.7071  0.0000 -0.7071 -0.0000      0.0000  0.0000  0.0000  0.0000  0.0000  0.0000  0.0000  0.0000  0.0000  0.0000
  o =  0.9928  v =  0.0000  0.0000  0.0000  0.0000  0.0000 -0.7995  0.0000 -0.6006  0.0000 -0.0000      0.0000  0.0000  0.0000  0.0000  0.0000  0.0000  0.0000  0.0000  0.0000  0.0000
atom =   2  type =  1  l = 2
 
 onsite density matrix
 
spin component  1
 
  0.9746  0.0000 -0.0242  0.0000  0.0000
  0.0000  0.9676  0.0000 -0.0207  0.0000
 -0.0242  0.0000  0.9606  0.0000  0.0000
  0.0000 -0.0207  0.0000  0.9676  0.0000
  0.0000  0.0000  0.0000  0.0000  0.9466
 
spin component  2
 
  0.0495  0.0000 -0.0276  0.0000 -0.0000
  0.0000  0.0400  0.0000 -0.0231  0.0000
 -0.0276  0.0000  0.0342  0.0000 -0.0000
  0.0000 -0.0231  0.0000  0.0400  0.0000
 -0.0000  0.0000 -0.0000  0.0000  0.0145
 
 occupancies and eigenvectors
 
  o =  0.0132  v =  0.0000  0.0000  0.0000  0.0000  0.0000 -0.6051 -0.0000 -0.7962  0.0000 -0.0000      0.0000  0.0000  0.0000  0.0000  0.0000  0.0000  0.0000  0.0000  0.0000  0.0000
  o =  0.0145  v =  0.0000  0.0000  0.0000  0.0000  0.0000 -0.0000  0.0000 -0.0000  0.0000  1.0000      0.0000  0.0000  0.0000  0.0000  0.0000  0.0000  0.0000  0.0000  0.0000  0.0000
  o =  0.0169  v =  0.0000  0.0000  0.0000  0.0000  0.0000  0.0000 -0.7071  0.0000 -0.7071  0.0000      0.0000  0.0000  0.0000  0.0000  0.0000  0.0000  0.0000  0.0000  0.0000  0.0000
  o =  0.0631  v =  0.0000  0.0000  0.0000  0.0000  0.0000  0.0000  0.7071  0.0000 -0.7071 -0.0000      0.0000  0.0000  0.0000  0.0000  0.0000  0.0000  0.0000  0.0000  0.0000  0.0000
  o =  0.0705  v =  0.0000  0.0000  0.0000  0.0000  0.0000 -0.7962 -0.0000  0.6051  0.0000 -0.0000      0.0000  0.0000  0.0000  0.0000  0.0000  0.0000  0.0000  0.0000  0.0000  0.0000
  o =  0.9424  v = -0.6006  0.0000 -0.7995  0.0000  0.0000  0.0000  0.0000  0.0000  0.0000  0.0000      0.0000  0.0000  0.0000  0.0000  0.0000  0.0000  0.0000  0.0000  0.0000  0.0000
  o =  0.9466  v = -0.0000  0.0000 -0.0000  0.0000 -1.0000  0.0000  0.0000  0.0000  0.0000  0.0000      0.0000  0.0000  0.0000  0.0000  0.0000  0.0000  0.0000  0.0000  0.0000  0.0000
  o =  0.9469  v = -0.0000 -0.7071 -0.0000 -0.7071 -0.0000  0.0000  0.0000  0.0000  0.0000  0.0000      0.0000  0.0000  0.0000  0.0000  0.0000  0.0000  0.0000  0.0000  0.0000  0.0000
  o =  0.9882  v = -0.0000 -0.7071  0.0000  0.7071  0.0000  0.0000  0.0000  0.0000  0.0000  0.0000      0.0000  0.0000  0.0000  0.0000  0.0000  0.0000  0.0000  0.0000  0.0000  0.0000
  o =  0.9928  v = -0.7995  0.0000  0.6006 -0.0000  0.0000  0.0000  0.0000  0.0000  0.0000  0.0000      0.0000  0.0000  0.0000  0.0000  0.0000  0.0000  0.0000  0.0000  0.0000  0.0000
     EDDAV:  cpu time    0.3864: real time    0.3864
 BZINTS: Fermi energy:  1.837303; 54.000000 electrons
         Band energy:-750.250038;  BLOECHL correction:  0.000000
       DOS:  cpu time    0.0020: real time    0.0020
    CHARGE:  cpu time    0.0376: real time    0.0376
    MIXING:  cpu time    0.0006: real time    0.0006
    --------------------------------------------
      LOOP:  cpu time    0.6615: real time    0.6615

 eigenvalue-minimisations  :  1416
 total energy-change (2. order) :-0.2764487E+00  (-0.7414694E-02)
 number of electron      53.9999997 magnetization      -0.0000000
 augmentation part       19.9712011 magnetization      -0.0000000

 Broyden mixing:
  rms(total) = 0.13707E+00    rms(broyden)= 0.13707E+00
  rms(prec ) = 0.14663E+00
  weight for this iteration     100.00

 eigenvalues of (default mixing * dielectric matrix)
  average eigenvalue GAMMA=   1.2165
  2.6239  0.8084  0.8084  0.6252

 Free energy of the ion-electron system (eV)
  ---------------------------------------------------
  alpha Z        PSCENC =       204.19688294
  Ewald energy   TEWEN  =     -4254.73589658
  -Hartree energ DENC   =     -2104.69900367
  -exchange      EXHF   =         0.00000000
  -V(xc)+E(xc)   XCENC  =       296.09138599
  PAW double counting   =      6384.05385413    -6504.31605988
  entropy T*S    EENTRO =         0.00000000
  eigenvalues    EBANDS =      -750.25003802
  atomic energy  EATOM  =      6689.48322167
  Solvation  Ediel_sol  =         0.00000000
  ---------------------------------------------------
  free energy    TOTEN  =       -40.17565342 eV

  energy without entropy =      -40.17565342  energy(sigma->0) =      -40.17565342


--------------------------------------------------------------------------------------------------------




--------------------------------------- Iteration      1(  10)  ---------------------------------------


    POTLOK:  cpu time    0.0047: real time    0.0047
    SETDIJ:  cpu time    0.2303: real time    0.2303
atom =   1  type =  1  l = 2
 
 onsite density matrix
 
spin component  1
 
  0.0548  0.0000  0.0299  0.0000  0.0000
  0.0000  0.0448  0.0000  0.0245  0.0000
  0.0299  0.0000  0.0386  0.0000 -0.0000
  0.0000  0.0245  0.0000  0.0448  0.0000
  0.0000  0.0000 -0.0000  0.0000  0.0173
 
spin component  2
 
  0.9697  0.0000  0.0217  0.0000 -0.0000
  0.0000  0.9631  0.0000  0.0190  0.0000
  0.0217  0.0000  0.9566  0.0000 -0.0000
  0.0000  0.0190  0.0000  0.9631  0.0000
 -0.0000  0.0000 -0.0000  0.0000  0.9443
 
 occupancies and eigenvectors
 
  o =  0.0157  v = -0.6078 -0.0000  0.7941  0.0000  0.0000  0.0000  0.0000  0.0000  0.0000  0.0000      0.0000  0.0000  0.0000  0.0000  0.0000  0.0000  0.0000  0.0000  0.0000  0.0000
  o =  0.0173  v = -0.0000  0.0000  0.0000  0.0000 -1.0000  0.0000  0.0000  0.0000  0.0000  0.0000      0.0000  0.0000  0.0000  0.0000  0.0000  0.0000  0.0000  0.0000  0.0000  0.0000
  o =  0.0203  v =  0.0000 -0.7071  0.0000  0.7071 -0.0000  0.0000  0.0000  0.0000  0.0000  0.0000      0.0000  0.0000  0.0000  0.0000  0.0000  0.0000  0.0000  0.0000  0.0000  0.0000
  o =  0.0694  v =  0.0000 -0.7071  0.0000 -0.7071 -0.0000  0.0000  0.0000  0.0000  0.0000  0.0000      0.0000  0.0000  0.0000  0.0000  0.0000  0.0000  0.0000  0.0000  0.0000  0.0000
  o =  0.0777  v = -0.7941 -0.0000 -0.6078  0.0000  0.0000  0.0000  0.0000  0.0000  0.0000  0.0000      0.0000  0.0000  0.0000  0.0000  0.0000  0.0000  0.0000  0.0000  0.0000  0.0000
  o =  0.9405  v =  0.0000  0.0000  0.0000  0.0000  0.0000 -0.5957  0.0000  0.8032  0.0000 -0.0000      0.0000  0.0000  0.0000  0.0000  0.0000  0.0000  0.0000  0.0000  0.0000  0.0000
  o =  0.9441  v =  0.0000  0.0000  0.0000  0.0000  0.0000  0.0000 -0.7071  0.0000  0.7071  0.0000      0.0000  0.0000  0.0000  0.0000  0.0000  0.0000  0.0000  0.0000  0.0000  0.0000
  o =  0.9443  v =  0.0000  0.0000  0.0000  0.0000  0.0000  0.0000 -0.0000 -0.0000  0.0000 -1.0000      0.0000  0.0000  0.0000  0.0000  0.0000  0.0000  0.0000  0.0000  0.0000  0.0000
  o =  0.9822  v =  0.0000  0.0000  0.0000  0.0000  0.0000  0.0000  0.7071  0.0000  0.7071  0.0000      0.0000  0.0000  0.0000  0.0000  0.0000  0.0000  0.0000  0.0000  0.0000  0.0000
  o =  0.9858  v =  0.0000  0.0000  0.0000  0.0000  0.0000 -0.8032  0.0000 -0.5957  0.0000  0.0000      0.0000  0.0000  0.0000  0.0000  0.0000  0.0000  0.0000  0.0000  0.0000  0.0000
atom =   2  type =  1  l = 2
 
 onsite density matrix
 
spin component  1
 
  0.9697  0.0000 -0.0217  0.0000 -0.0000
  0.0000  0.9631  0.0000 -0.0190  0.0000
 -0.0217  0.0000  0.9566  0.0000 -0.0000
  0.0000 -0.0190  0.0000  0.9631  0.0000
 -0.0000  0.0000 -0.0000  0.0000  0.9443
 
spin component  2
 
  0.0548  0.0000 -0.0299  0.0000 -0.0000
  0.0000  0.0448  0.0000 -0.0245  0.0000
 -0.0299  0.0000  0.0386  0.0000 -0.0000
  0.0000 -0.0245  0.0000  0.0448  0.0000
 -0.0000  0.0000 -0.0000  0.0000  0.0173
 
 occupancies and eigenvectors
 
  o =  0.0157  v =  0.0000  0.0000  0.0000  0.0000  0.0000 -0.6078 -0.0000 -0.7941  0.0000 -0.0000      0.0000  0.0000  0.0000  0.0000  0.0000  0.0000  0.0000  0.0000  0.0000  0.0000
  o =  0.0173  v =  0.0000  0.0000  0.0000  0.0000  0.0000 -0.0000  0.0000 -0.0000  0.0000  1.0000      0.0000  0.0000  0.0000  0.0000  0.0000  0.0000  0.0000  0.0000  0.0000  0.0000
  o =  0.0203  v =  0.0000  0.0000  0.0000  0.0000  0.0000  0.0000 -0.7071  0.0000 -0.7071  0.0000      0.0000  0.0000  0.0000  0.0000  0.0000  0.0000  0.0000  0.0000  0.0000  0.0000
  o =  0.0694  v =  0.0000  0.0000  0.0000  0.0000  0.0000  0.0000  0.7071  0.0000 -0.7071 -0.0000      0.0000  0.0000  0.0000  0.0000  0.0000  0.0000  0.0000  0.0000  0.0000  0.0000
  o =  0.0777  v =  0.0000  0.0000  0.0000  0.0000  0.0000 -0.7941 -0.0000  0.6078  0.0000 -0.0000      0.0000  0.0000  0.0000  0.0000  0.0000  0.0000  0.0000  0.0000  0.0000  0.0000
  o =  0.9405  v = -0.5957  0.0000 -0.8032  0.0000 -0.0000  0.0000  0.0000  0.0000  0.0000  0.0000      0.0000  0.0000  0.0000  0.0000  0.0000  0.0000  0.0000  0.0000  0.0000  0.0000
  o =  0.9441  v =  0.0000 -0.7071  0.0000 -0.7071  0.0000  0.0000  0.0000  0.0000  0.0000  0.0000      0.0000  0.0000  0.0000  0.0000  0.0000  0.0000  0.0000  0.0000  0.0000  0.0000
  o =  0.9443  v =  0.0000  0.0000 -0.0000  0.0000  1.0000  0.0000  0.0000  0.0000  0.0000  0.0000      0.0000  0.0000  0.0000  0.0000  0.0000  0.0000  0.0000  0.0000  0.0000  0.0000
  o =  0.9822  v =  0.0000  0.7071  0.0000 -0.7071 -0.0000  0.0000  0.0000  0.0000  0.0000  0.0000      0.0000  0.0000  0.0000  0.0000  0.0000  0.0000  0.0000  0.0000  0.0000  0.0000
  o =  0.9858  v = -0.8032  0.0000  0.5957  0.0000  0.0000  0.0000  0.0000  0.0000  0.0000  0.0000      0.0000  0.0000  0.0000  0.0000  0.0000  0.0000  0.0000  0.0000  0.0000  0.0000
     EDDAV:  cpu time    0.4078: real time    0.4078
 BZINTS: Fermi energy:  1.832883; 54.000000 electrons
         Band energy:-749.561858;  BLOECHL correction:  0.000000
       DOS:  cpu time    0.0020: real time    0.0020
    CHARGE:  cpu time    0.0369: real time    0.0369
    MIXING:  cpu time    0.0007: real time    0.0007
    --------------------------------------------
      LOOP:  cpu time    0.6823: real time    0.6823

 eigenvalue-minimisations  :  1548
 total energy-change (2. order) :-0.5329342E-03  (-0.1616598E-02)
 number of electron      53.9999997 magnetization      -0.0000000
 augmentation part       19.9678810 magnetization      -0.0000000

 Broyden mixing:
  rms(total) = 0.25119E-01    rms(broyden)= 0.25114E-01
  rms(prec ) = 0.27737E-01
  weight for this iteration     100.00

 eigenvalues of (default mixing * dielectric matrix)
  average eigenvalue GAMMA=   1.1596
  2.5371  0.9631  0.9631  0.7295  0.6055

 Free energy of the ion-electron system (eV)
  ---------------------------------------------------
  alpha Z        PSCENC =       204.19688294
  Ewald energy   TEWEN  =     -4254.73589658
  -Hartree energ DENC   =     -2105.38860093
  -exchange      EXHF   =         0.00000000
  -V(xc)+E(xc)   XCENC  =       296.18626569
  PAW double counting   =      6371.60070690    -6491.95690805
  entropy T*S    EENTRO =         0.00000000
  eigenvalues    EBANDS =      -749.56185800
  atomic energy  EATOM  =      6689.48322167
  Solvation  Ediel_sol  =         0.00000000
  ---------------------------------------------------
  free energy    TOTEN  =       -40.17618636 eV

  energy without entropy =      -40.17618636  energy(sigma->0) =      -40.17618636


--------------------------------------------------------------------------------------------------------




--------------------------------------- Iteration      1(  11)  ---------------------------------------


    POTLOK:  cpu time    0.0046: real time    0.0046
    SETDIJ:  cpu time    0.2301: real time    0.2301
atom =   1  type =  1  l = 2
 
 onsite density matrix
 
spin component  1
 
  0.0533  0.0000  0.0296  0.0000 -0.0000
  0.0000  0.0434  0.0000  0.0244  0.0000
  0.0296  0.0000  0.0372  0.0000 -0.0000
  0.0000  0.0244  0.0000  0.0434  0.0000
 -0.0000  0.0000 -0.0000  0.0000  0.0162
 
spin component  2
 
  0.9720  0.0000  0.0217  0.0000 -0.0000
  0.0000  0.9655  0.0000  0.0190  0.0000
  0.0217  0.0000  0.9589  0.0000 -0.0000
  0.0000  0.0190  0.0000  0.9655  0.0000
 -0.0000  0.0000 -0.0000  0.0000  0.9467
 
 occupancies and eigenvectors
 
  o =  0.0145  v = -0.6070  0.0000  0.7947 -0.0000  0.0000  0.0000  0.0000  0.0000  0.0000  0.0000      0.0000  0.0000  0.0000  0.0000  0.0000  0.0000  0.0000  0.0000  0.0000  0.0000
  o =  0.0162  v = -0.0000  0.0000  0.0000 -0.0000 -1.0000  0.0000  0.0000  0.0000  0.0000  0.0000      0.0000  0.0000  0.0000  0.0000  0.0000  0.0000  0.0000  0.0000  0.0000  0.0000
  o =  0.0190  v = -0.0000 -0.7071  0.0000  0.7071 -0.0000  0.0000  0.0000  0.0000  0.0000  0.0000      0.0000  0.0000  0.0000  0.0000  0.0000  0.0000  0.0000  0.0000  0.0000  0.0000
  o =  0.0678  v = -0.0000 -0.7071 -0.0000 -0.7071 -0.0000  0.0000  0.0000  0.0000  0.0000  0.0000      0.0000  0.0000  0.0000  0.0000  0.0000  0.0000  0.0000  0.0000  0.0000  0.0000
  o =  0.0760  v = -0.7947  0.0000 -0.6070  0.0000  0.0000  0.0000  0.0000  0.0000  0.0000  0.0000      0.0000  0.0000  0.0000  0.0000  0.0000  0.0000  0.0000  0.0000  0.0000  0.0000
  o =  0.9428  v =  0.0000  0.0000  0.0000  0.0000  0.0000 -0.5961  0.0000  0.8029  0.0000 -0.0000      0.0000  0.0000  0.0000  0.0000  0.0000  0.0000  0.0000  0.0000  0.0000  0.0000
  o =  0.9465  v =  0.0000  0.0000  0.0000  0.0000  0.0000  0.0000  0.7071  0.0000 -0.7071 -0.0000      0.0000  0.0000  0.0000  0.0000  0.0000  0.0000  0.0000  0.0000  0.0000  0.0000
  o =  0.9467  v =  0.0000  0.0000  0.0000  0.0000  0.0000  0.0000 -0.0000 -0.0000  0.0000 -1.0000      0.0000  0.0000  0.0000  0.0000  0.0000  0.0000  0.0000  0.0000  0.0000  0.0000
  o =  0.9844  v =  0.0000  0.0000  0.0000  0.0000  0.0000  0.0000  0.7071  0.0000  0.7071 -0.0000      0.0000  0.0000  0.0000  0.0000  0.0000  0.0000  0.0000  0.0000  0.0000  0.0000
  o =  0.9881  v =  0.0000  0.0000  0.0000  0.0000  0.0000 -0.8029  0.0000 -0.5961  0.0000  0.0000      0.0000  0.0000  0.0000  0.0000  0.0000  0.0000  0.0000  0.0000  0.0000  0.0000
atom =   2  type =  1  l = 2
 
 onsite density matrix
 
spin component  1
 
  0.9720  0.0000 -0.0217  0.0000 -0.0000
  0.0000  0.9655  0.0000 -0.0190  0.0000
 -0.0217  0.0000  0.9589  0.0000 -0.0000
  0.0000 -0.0190  0.0000  0.9655  0.0000
 -0.0000  0.0000 -0.0000  0.0000  0.9467
 
spin component  2
 
  0.0533  0.0000 -0.0296  0.0000  0.0000
  0.0000  0.0434  0.0000 -0.0244  0.0000
 -0.0296  0.0000  0.0372  0.0000  0.0000
  0.0000 -0.0244  0.0000  0.0434  0.0000
  0.0000  0.0000  0.0000  0.0000  0.0162
 
 occupancies and eigenvectors
 
  o =  0.0145  v =  0.0000  0.0000  0.0000  0.0000  0.0000 -0.6070  0.0000 -0.7947  0.0000  0.0000      0.0000  0.0000  0.0000  0.0000  0.0000  0.0000  0.0000  0.0000  0.0000  0.0000
  o =  0.0162  v =  0.0000  0.0000  0.0000  0.0000  0.0000 -0.0000 -0.0000 -0.0000 -0.0000 -1.0000      0.0000  0.0000  0.0000  0.0000  0.0000  0.0000  0.0000  0.0000  0.0000  0.0000
  o =  0.0190  v =  0.0000  0.0000  0.0000  0.0000  0.0000  0.0000 -0.7071  0.0000 -0.7071  0.0000      0.0000  0.0000  0.0000  0.0000  0.0000  0.0000  0.0000  0.0000  0.0000  0.0000
  o =  0.0678  v =  0.0000  0.0000  0.0000  0.0000  0.0000  0.0000 -0.7071 -0.0000  0.7071  0.0000      0.0000  0.0000  0.0000  0.0000  0.0000  0.0000  0.0000  0.0000  0.0000  0.0000
  o =  0.0760  v =  0.0000  0.0000  0.0000  0.0000  0.0000 -0.7947 -0.0000  0.6070  0.0000  0.0000      0.0000  0.0000  0.0000  0.0000  0.0000  0.0000  0.0000  0.0000  0.0000  0.0000
  o =  0.9428  v = -0.5961 -0.0000 -0.8029  0.0000 -0.0000  0.0000  0.0000  0.0000  0.0000  0.0000      0.0000  0.0000  0.0000  0.0000  0.0000  0.0000  0.0000  0.0000  0.0000  0.0000
  o =  0.9465  v =  0.0000 -0.7071  0.0000 -0.7071  0.0000  0.0000  0.0000  0.0000  0.0000  0.0000      0.0000  0.0000  0.0000  0.0000  0.0000  0.0000  0.0000  0.0000  0.0000  0.0000
  o =  0.9467  v = -0.0000  0.0000 -0.0000  0.0000  1.0000  0.0000  0.0000  0.0000  0.0000  0.0000      0.0000  0.0000  0.0000  0.0000  0.0000  0.0000  0.0000  0.0000  0.0000  0.0000
[...]
     33       8.9845      0.00000
     34      10.1985      0.00000
     35      10.4669      0.00000
     36      11.5597      0.00000

 k-point     7 :       0.1250    0.1250    0.4167
  band No.  band energies     occupation 
      1     -45.9516      1.00000
      2     -45.9217      1.00000
      3     -45.8947      1.00000
      4     -41.3647      1.00000
      5     -41.3447      1.00000
      6     -41.3097      1.00000
      7     -20.5740      1.00000
      8     -20.4218      1.00000
      9     -20.3738      1.00000
     10     -20.2634      1.00000
     11      -4.3139      1.00000
     12      -4.0225      1.00000
     13      -3.6572      1.00000
     14      -3.5757      1.00000
     15      -3.4691      1.00000
     16      -3.1999      1.00000
     17      -2.7088      1.00000
     18      -2.4942      1.00000
     19      -2.4688      1.00000
     20      -1.9496      1.00000
     21      -1.8054      1.00000
     22      -1.7501      1.00000
     23       0.0000      1.00000
     24       0.1962      1.00000
     25       0.5268      1.00000
     26       1.1066      1.00000
     27       1.4549      1.00000
     28       7.0829      0.00000
     29       7.0950      0.00000
     30       7.2100      0.00000
     31       8.0291      0.00000
     32       8.2433      0.00000
     33       8.9175      0.00000
     34      11.0888      0.00000
     35      12.5031      0.00000
     36      12.7330      0.00000

 k-point     8 :       0.3750    0.1250    0.4167
  band No.  band energies     occupation 
      1     -45.9516      1.00000
      2     -45.9217      1.00000
      3     -45.8947      1.00000
      4     -41.3647      1.00000
      5     -41.3447      1.00000
      6     -41.3097      1.00000
      7     -20.5059      1.00000
      8     -20.4391      1.00000
      9     -20.3889      1.00000
     10     -20.2984      1.00000
     11      -4.2130      1.00000
     12      -4.0752      1.00000
     13      -3.9938      1.00000
     14      -3.6787      1.00000
     15      -3.4361      1.00000
     16      -3.0181      1.00000
     17      -2.8374      1.00000
     18      -2.6699      1.00000
     19      -2.2085      1.00000
     20      -1.9076      1.00000
     21      -1.6844      1.00000
     22      -1.5581      1.00000
     23       0.0095      1.00000
     24       0.1272      1.00000
     25       0.4181      1.00000
     26       1.0538      1.00000
     27       1.6589      1.00000
     28       7.0773      0.00000
     29       7.0836      0.00000
     30       7.3294      0.00000
     31       7.9533      0.00000
     32       8.4781      0.00000
     33       9.4676      0.00000
     34      10.8468      0.00000
     35      11.4736      0.00000
     36      12.5275      0.00000

 k-point     9 :       0.3750    0.3750    0.4167
  band No.  band energies     occupation 
      1     -45.9516      1.00000
      2     -45.9216      1.00000
      3     -45.8947      1.00000
      4     -41.3648      1.00000
      5     -41.3447      1.00000
      6     -41.3097      1.00000
      7     -20.4784      1.00000
      8     -20.4692      1.00000
      9     -20.3919      1.00000
     10     -20.2876      1.00000
     11      -4.4861      1.00000
     12      -4.2461      1.00000
     13      -3.9594      1.00000
     14      -3.9049      1.00000
     15      -3.4774      1.00000
     16      -2.9978      1.00000
     17      -2.6997      1.00000
     18      -2.4444      1.00000
     19      -1.9862      1.00000
     20      -1.7204      1.00000
     21      -1.6051      1.00000
     22      -1.4977      1.00000
     23       0.0100      1.00000
     24       0.1251      1.00000
     25       0.3771      1.00000
     26       1.1047      1.00000
     27       1.6136      1.00000
     28       7.0796      0.00000
     29       7.1027      0.00000
     30       7.3621      0.00000
     31       7.9273      0.00000
     32       8.3594      0.00000
     33       9.9782      0.00000
     34      11.4266      0.00000
     35      11.4275      0.00000
     36      11.5995      0.00000


--------------------------------------------------------------------------------------------------------


 soft charge-density along one line, spin component           1
         0         1         2         3         4         5         6         7         8         9
 total charge-density along one line
 
 soft charge-density along one line, spin component           2
         0         1         2         3         4         5         6         7         8         9
 total charge-density along one line
 
 pseudopotential strength for first ion, spin component:           1
-41.880  -0.000  -0.031   7.895   0.000   0.013   0.000  -0.000
 -0.000 -41.854  -0.000   0.000   7.885   0.000  -0.000  -0.000
 -0.031  -0.000 -41.880   0.013   0.000   7.895  -0.000  -0.000
  7.895   0.000   0.013   5.349  -0.000  -0.005  -0.000   0.000
  0.000   7.885   0.000  -0.000   5.353  -0.000   0.000  -0.000
  0.013   0.000   7.895  -0.005  -0.000   5.349  -0.000   0.000
  0.000  -0.000  -0.000  -0.000   0.000  -0.000  -1.372  -0.000
 -0.000  -0.000  -0.000   0.000  -0.000   0.000  -0.000  -1.326
  0.000  -0.000  -0.000   0.000   0.000  -0.000  -0.075   0.000
 -0.000  -0.000  -0.000   0.000  -0.000   0.000  -0.000  -0.090
  0.000  -0.000  -0.000   0.000   0.000   0.000   0.000   0.000
  0.000  -0.000  -0.000  -0.000   0.000  -0.000  -1.815  -0.000
 -0.000  -0.000  -0.000   0.000  -0.000   0.000  -0.000  -1.769
  0.000  -0.000  -0.000   0.000   0.000  -0.000  -0.079   0.000
 -0.000  -0.000  -0.000   0.000  -0.000   0.000  -0.000  -0.093
  0.000  -0.000  -0.000   0.000   0.000   0.000   0.000   0.000
 -0.000   0.000   0.000  -0.000   0.000   0.000   0.006   0.000
 -0.000   0.000   0.000  -0.000   0.000   0.000   0.012   0.000
 pseudopotential strength for first ion, spin component:           2
-44.949  -0.000  -0.024   9.381   0.000   0.009   0.000  -0.000
 -0.000 -44.931  -0.000   0.000   9.374   0.000  -0.000  -0.000
 -0.024  -0.000 -44.949   0.009   0.000   9.381  -0.000  -0.000
  9.381   0.000   0.009   4.854  -0.000  -0.003   0.000   0.000
  0.000   9.374   0.000  -0.000   4.857  -0.000   0.000  -0.000
  0.009   0.000   9.381  -0.003  -0.000   4.854  -0.000   0.000
  0.000  -0.000  -0.000   0.000   0.000  -0.000  -7.374  -0.000
 -0.000  -0.000  -0.000   0.000  -0.000   0.000  -0.000  -7.343
  0.000  -0.000  -0.000   0.000   0.000  -0.000  -0.053   0.000
 -0.000  -0.000  -0.000   0.000  -0.000   0.000  -0.000  -0.073
  0.000  -0.000  -0.000   0.000   0.000  -0.000   0.000   0.000
  0.000  -0.000  -0.000   0.000   0.000  -0.000  -7.868  -0.000
 -0.000  -0.000  -0.000   0.000  -0.000   0.000  -0.000  -7.835
  0.000  -0.000  -0.000   0.000   0.000  -0.000  -0.055   0.000
 -0.000  -0.000  -0.000   0.000  -0.000   0.000  -0.000  -0.075
  0.000  -0.000  -0.000   0.000   0.000  -0.000   0.000   0.000
 -0.000   0.000   0.000  -0.000   0.000   0.000   0.004   0.000
 -0.000   0.000   0.000  -0.000   0.000   0.000   0.007   0.000
 total augmentation occupancy for first ion, spin component:           1
  1.998   0.000  -0.000  -0.013   0.000   0.000   0.000   0.000   0.000   0.000   0.000   0.000   0.000   0.000   0.000   0.000
  0.000   1.998   0.000   0.000  -0.013   0.000   0.000   0.000   0.000   0.000   0.000   0.000   0.000   0.000   0.000   0.000
 -0.000   0.000   1.998   0.000   0.000  -0.013   0.000   0.000   0.000   0.000   0.000   0.000   0.000   0.000   0.000   0.000
 -0.013   0.000   0.000   0.097   0.000  -0.010   0.000   0.000   0.000   0.000   0.000   0.000   0.000   0.000   0.000   0.000
  0.000  -0.013   0.000   0.000   0.108   0.000   0.000   0.000   0.000   0.000   0.000   0.000   0.000   0.000   0.000   0.000
  0.000   0.000  -0.013  -0.010   0.000   0.097   0.000   0.000   0.000   0.000   0.000   0.000   0.000   0.000   0.000   0.000
  0.000   0.000   0.000   0.000   0.000   0.000   8.385   0.000   3.396   0.000   0.000  -6.457   0.000  -3.222   0.000   0.000
  0.000   0.000   0.000   0.000   0.000   0.000   0.000   7.004   0.000   2.926   0.000   0.000  -5.140   0.000  -2.764   0.000
  0.000   0.000   0.000   0.000   0.000   0.000   3.396   0.000   6.317   0.000   0.000  -3.223   0.000  -4.516   0.000   0.000
  0.000   0.000   0.000   0.000   0.000   0.000   0.000   2.926   0.000   7.004   0.000   0.000  -2.764   0.000  -5.140   0.000
  0.000   0.000   0.000   0.000   0.000   0.000   0.000   0.000   0.000   0.000   3.957  -0.000   0.000   0.000   0.000  -2.233
  0.000   0.000   0.000   0.000   0.000   0.000  -6.457   0.000  -3.223   0.000   0.000   5.700   0.000   3.093   0.000   0.000
  0.000   0.000   0.000   0.000   0.000   0.000   0.000  -5.140   0.000  -2.764   0.000   0.000   4.434   0.000   2.640   0.000
  0.000   0.000   0.000   0.000   0.000   0.000  -3.222   0.000  -4.516   0.000  -0.000   3.093   0.000   3.860   0.000  -0.000
  0.000   0.000   0.000   0.000   0.000   0.000   0.000  -2.764   0.000  -5.140   0.000   0.000   2.640   0.000   4.434   0.000
  0.000   0.000   0.000   0.000   0.000   0.000   0.000   0.000  -0.000   0.000  -2.233  -0.000   0.000   0.000   0.000   1.628
  0.000   0.000   0.000   0.000   0.000   0.000   0.265   0.000  -0.231   0.000   0.000  -0.295   0.000   0.240   0.000   0.000
  0.000   0.000   0.000   0.000   0.000   0.000  -0.008   0.000   0.027   0.000  -0.000   0.033   0.000  -0.038   0.000   0.000
 total augmentation occupancy for first ion, spin component:           2
  0.004   0.000  -0.000   0.016   0.000  -0.000   0.000   0.000   0.000   0.000   0.000   0.000   0.000   0.000   0.000   0.000
  0.000   0.004   0.000   0.000   0.017   0.000   0.000   0.000   0.000   0.000   0.000   0.000   0.000   0.000   0.000   0.000
 -0.000   0.000   0.004  -0.000   0.000   0.016   0.000   0.000   0.000   0.000   0.000   0.000   0.000   0.000   0.000   0.000
  0.016   0.000  -0.000  -0.009   0.000  -0.000   0.000   0.000   0.000   0.000   0.000   0.000   0.000   0.000   0.000   0.000
  0.000   0.017   0.000   0.000  -0.009   0.000   0.000   0.000   0.000   0.000   0.000   0.000   0.000   0.000   0.000   0.000
 -0.000   0.000   0.016  -0.000   0.000  -0.009   0.000   0.000   0.000   0.000   0.000   0.000   0.000   0.000   0.000   0.000
  0.000   0.000   0.000   0.000   0.000   0.000  -5.675   0.000  -1.875   0.000   0.000   3.340   0.000   1.480   0.000  -0.000
  0.000   0.000   0.000   0.000   0.000   0.000   0.000  -4.911   0.000  -1.644   0.000   0.000   2.717   0.000   1.297   0.000
  0.000   0.000   0.000   0.000   0.000   0.000  -1.875   0.000  -4.441   0.000   0.000   1.480   0.000   2.357   0.000  -0.000
  0.000   0.000   0.000   0.000   0.000   0.000   0.000  -1.644   0.000  -4.911   0.000   0.000   1.297   0.000   2.717   0.000
  0.000   0.000   0.000   0.000   0.000   0.000   0.000   0.000   0.000   0.000  -3.273   0.000   0.000  -0.000   0.000   1.423
  0.000   0.000   0.000   0.000   0.000   0.000   3.340   0.000   1.480   0.000   0.000  -2.105   0.000  -1.091   0.000  -0.000
  0.000   0.000   0.000   0.000   0.000   0.000   0.000   2.717   0.000   1.297   0.000   0.000  -1.623   0.000  -0.957   0.000
  0.000   0.000   0.000   0.000   0.000   0.000   1.480   0.000   2.357   0.000  -0.000  -1.091   0.000  -1.368   0.000   0.000
  0.000   0.000   0.000   0.000   0.000   0.000   0.000   1.297   0.000   2.717   0.000   0.000  -0.957   0.000  -1.623   0.000
  0.000   0.000   0.000   0.000   0.000   0.000   0.000   0.000  -0.000   0.000   1.423  -0.000   0.000   0.000   0.000  -0.670
  0.000   0.000   0.000   0.000   0.000   0.000   0.006   0.000   0.024   0.000   0.000  -0.015   0.000  -0.004   0.000  -0.000
  0.000   0.000   0.000   0.000   0.000   0.000  -0.047   0.000   0.012   0.000   0.000   0.027   0.000  -0.006   0.000  -0.000


------------------------ aborting loop because EDIFF is reached ----------------------------------------


 


 total charge     
 
# of ion       s       p       d       tot
------------------------------------------
    1        0.179   6.173   4.981  11.333
    2        0.184   6.168   4.988  11.340
    3        1.721   4.366   0.000   6.086
    4        1.721   4.366   0.000   6.086
    5        1.720   4.361   0.000   6.082
    6        1.720   4.361   0.000   6.082
--------------------------------------------------
tot          7.245  29.795   9.969  47.009
 


 magnetization (x)
 
# of ion       s       p       d       tot
------------------------------------------
    1       -0.014  -0.015  -4.598  -4.626
    2        0.014   0.013   4.595   4.622
    3        0.002   0.021   0.000   0.023
    4        0.002   0.021   0.000   0.023
    5       -0.003  -0.017   0.000  -0.020
    6       -0.003  -0.017   0.000  -0.020
--------------------------------------------------
tot         -0.001   0.007  -0.003   0.003
 
    CHARGE:  cpu time    0.0364: real time    0.0364
    FORLOC:  cpu time    0.0008: real time    0.0008
    FORNL :  cpu time    0.1846: real time    0.1846
    STRESS:  cpu time    0.5456: real time    0.5456
    FORCOR:  cpu time    0.0042: real time    0.0042
    FORHAR:  cpu time    0.0021: real time    0.0021
    MIXING:  cpu time    0.0007: real time    0.0007
    OFIELD:  cpu time    0.0000: real time    0.0000

  FORCE on cell =-STRESS in cart. coord.  units (eV):
  Direction    XX          YY          ZZ          XY          YZ          ZX
  --------------------------------------------------------------------------------------
  Alpha Z   204.19688   204.19688   204.19688
  Ewald   -1607.17686 -1607.17686 -1040.38537    -0.00000     0.00000     0.00000
  Hartree   575.30517   575.30517   955.10960    -0.00000    -0.00000    -0.00000
  E(xc)    -309.51345  -309.51345  -309.55816    -0.00000     0.00000     0.00000
  Local     186.34264   186.34264  -752.97456     0.00000    -0.00000    -0.00000
  n-local  -238.16137  -238.51286  -237.29423     0.02739     0.12109     0.12204
  augment   267.13660   267.13660   266.51894    -0.00000    -0.00000    -0.00000
  Kinetic   921.66707   922.43246   914.40761    -0.51124    -0.95426    -1.01279
  Fock        0.00000     0.00000     0.00000     0.00000     0.00000     0.00000
  -------------------------------------------------------------------------------------
  Total       0.00363     0.00363     0.02071    -0.00000     0.00000     0.00000
  in kB       0.07802     0.07802     0.44467    -0.00000     0.00000     0.00000
  external pressure =        0.20 kB  Pullay stress =        0.00 kB


 VOLUME and BASIS-vectors are now :
 -----------------------------------------------------------------------------
  energy-cutoff  :      650.00
  volume of cell :       74.61
      direct lattice vectors                 reciprocal lattice vectors
     4.793975157  0.000000000  0.000000000     0.208595157  0.000000000  0.000000000
     0.000000000  4.793975157  0.000000000     0.000000000  0.208595157  0.000000000
     0.000000000  0.000000000  3.246575661     0.000000000  0.000000000  0.308016847

  length of vectors
     4.793975157  4.793975157  3.246575661     0.208595157  0.208595157  0.308016847


 FORCES acting on ions
    electron-ion (+dipol)            ewald-force                    non-local-force                 convergence-correction
 -----------------------------------------------------------------------------------------------
   -.180E-11 0.652E-11 -.628E-13   0.284E-13 0.853E-13 -.103E-13   0.000E+00 0.000E+00 0.000E+00   -.384E-14 -.613E-14 0.781E-13
   -.500E-13 -.142E-13 0.471E-13   -.114E-12 -.142E-12 -.118E-13   0.000E+00 0.000E+00 0.000E+00   0.265E-13 0.105E-13 -.110E-12
   -.340E+02 0.340E+02 -.420E-12   0.352E+02 -.352E+02 0.660E-14   -.129E+01 0.129E+01 -.434E-18   -.262E-03 0.262E-03 0.584E-13
   0.340E+02 -.340E+02 -.215E-11   -.352E+02 0.352E+02 0.644E-14   0.129E+01 -.129E+01 0.434E-18   0.262E-03 -.262E-03 0.814E-14
   0.340E+02 0.340E+02 0.171E-08   -.352E+02 -.352E+02 0.241E-14   0.129E+01 0.129E+01 -.325E-18   0.262E-03 0.262E-03 -.803E-10
   -.340E+02 -.340E+02 -.170E-08   0.352E+02 0.352E+02 0.246E-14   -.129E+01 -.129E+01 0.325E-18   -.262E-03 -.262E-03 0.802E-10
 -----------------------------------------------------------------------------------------------
   0.342E-12 0.432E-11 0.673E-11   0.000E+00 0.000E+00 -.415E-14   0.000E+00 0.000E+00 0.000E+00   -.223E-13 0.120E-13 -.543E-13
 
 
 POSITION                                       TOTAL-FORCE (eV/Angst)
 -----------------------------------------------------------------------------------
      2.39699      2.39699      1.62329         0.000000     -0.000000      0.000000
      0.00000      0.00000      0.00000         0.000000     -0.000000      0.000000
      0.93916      3.85481      1.62329        -0.000362      0.000362     -0.000000
      3.85481      0.93916      1.62329         0.000362     -0.000362      0.000000
      1.45782      1.45782      0.00000         0.000362      0.000362     -0.000000
      3.33615      3.33615      0.00000        -0.000362     -0.000362      0.000000
 -----------------------------------------------------------------------------------
    total drift:                                0.000000      0.000000      0.000000


--------------------------------------------------------------------------------------------------------



  FREE ENERGIE OF THE ION-ELECTRON SYSTEM (eV)
  ---------------------------------------------------
  free  energy   TOTEN  =       -40.17619782 eV

  energy  without entropy=      -40.17619782  energy(sigma->0) =      -40.17619782
 


--------------------------------------------------------------------------------------------------------


    POTLOK:  cpu time    0.2342: real time    0.2342


--------------------------------------------------------------------------------------------------------


 writing wavefunctions
     LOOP+:  cpu time   11.1755: real time   11.1946
    4ORBIT:  cpu time    0.0000: real time    0.0000
 


 total charge     
 
# of ion       s       p       d       tot
------------------------------------------
    1        0.179   6.173   4.981  11.333
    2        0.184   6.168   4.988  11.340
    3        1.721   4.366   0.000   6.086
    4        1.721   4.366   0.000   6.086
    5        1.720   4.361   0.000   6.082
    6        1.720   4.361   0.000   6.082
--------------------------------------------------
tot          7.245  29.795   9.969  47.009
 


 magnetization (x)
 
# of ion       s       p       d       tot
------------------------------------------
    1       -0.014  -0.015  -4.598  -4.626
    2        0.014   0.013   4.595   4.622
    3        0.002   0.021   0.000   0.023
    4        0.002   0.021   0.000   0.023
    5       -0.003  -0.017   0.000  -0.020
    6       -0.003  -0.017   0.000  -0.020
--------------------------------------------------
tot         -0.001   0.007  -0.003   0.003
 
 BZINTS: Fermi energy:  1.839553; 54.000000 electrons
         Band energy:-749.355568;  BLOECHL correction:  0.000000

 total amount of memory used by VASP MPI-rank0    44649. kBytes
=======================================================================

   base      :      30000. kBytes
   nonl-proj :       7612. kBytes
   fftplans  :       1875. kBytes
   grid      :       2467. kBytes
   one-center:        186. kBytes
   wavefun   :       2509. kBytes
 
  
  
 General timing and accounting informations for this job:
 ========================================================
  
                  Total CPU time used (sec):       12.532
                            User time (sec):       10.146
                          System time (sec):        2.385
                         Elapsed time (sec):       12.606
  
                   Maximum memory used (kb):       59316.
                   Average memory used (kb):           0.
  
                          Minor page faults:         9215
                          Major page faults:            6
                 Voluntary context switches:          298
