       N       E                     dE             d eps       ncg     rms          rms(c)
DAV:   1     0.105261318067E+04    0.10526E+04   -0.44046E+04  1296   0.247E+03
DAV:   2     0.422034792572E+03   -0.63058E+03   -0.60357E+03  1512   0.591E+02
DAV:   3     0.381465098592E+03   -0.40570E+02   -0.40001E+02  1464   0.154E+02
DAV:   4     0.380852198939E+03   -0.61290E+00   -0.61185E+00  1572   0.203E+01
DAV:   5     0.380842236621E+03   -0.99623E-02   -0.99620E-02  1464   0.251E+00    0.593E+01
DAV:   6    -0.683550888282E+02   -0.44920E+03   -0.31415E+02  1584   0.216E+02    0.636E+01
DAV:   7    -0.711716229423E+02   -0.28165E+01   -0.49683E+01  1380   0.450E+01    0.169E+01
DAV:   8    -0.686156641777E+02    0.25560E+01   -0.73274E+00  1536   0.225E+01    0.609E+00
DAV:   9    -0.681517519122E+02    0.46391E+00   -0.36478E+00  1392   0.168E+01    0.778E+00
DAV:  10    -0.681116689715E+02    0.40083E-01   -0.32110E-01  1464   0.452E+00    0.536E+00
DAV:  11    -0.680679016936E+02    0.43767E-01   -0.45768E-01  1476   0.601E+00    0.127E+00
DAV:  12    -0.680550337899E+02    0.12868E-01   -0.32821E-02  1368   0.172E+00    0.842E-01
DAV:  13    -0.680504793508E+02    0.45544E-02   -0.27094E-02  1572   0.101E+00    0.802E-01
DAV:  14    -0.680461950338E+02    0.42843E-02   -0.32043E-02  1296   0.202E+00    0.243E-01
DAV:  15    -0.680471658948E+02   -0.97086E-03   -0.30982E-03  1452   0.410E-01    0.291E-01
DAV:  16    -0.680472009029E+02   -0.35008E-04   -0.36144E-03  1428   0.401E-01    0.125E-01
DAV:  17    -0.680470559626E+02    0.14494E-03   -0.50490E-04  1332   0.260E-01    0.794E-02
DAV:  18    -0.680468269433E+02    0.22902E-03   -0.37213E-04  1380   0.116E-01    0.223E-02
DAV:  19    -0.680468036085E+02    0.23335E-04   -0.56210E-05  1344   0.716E-02    0.945E-03
DAV:  20    -0.680468288478E+02   -0.25239E-04   -0.49481E-06  1632   0.137E-02    0.484E-03
DAV:  21    -0.680468338677E+02   -0.50199E-05   -0.25330E-07  1320   0.498E-03    0.450E-03
DAV:  22    -0.680468301613E+02    0.37064E-05   -0.40636E-07  1128   0.421E-03    0.306E-03
DAV:  23    -0.680468307172E+02   -0.55593E-06   -0.16515E-07  1008   0.242E-03    0.144E-03
DAV:  24    -0.680468316916E+02   -0.97442E-06   -0.63842E-08   648   0.170E-03    0.298E-04
DAV:  25    -0.680468321041E+02   -0.41249E-06   -0.16939E-08   648   0.848E-04    0.185E-04
DAV:  26    -0.680468321046E+02   -0.48203E-09   -0.29614E-09   648   0.346E-04
   1 F= -.68046832E+02 E0= -.68046832E+02  d E =-.680468E+02  mag=    -0.0000
