       N       E                     dE             d eps       ncg     rms          rms(c)
DAV:   1     0.817483436244E+03    0.81748E+03   -0.30407E+04  1416   0.150E+03
DAV:   2     0.374782567061E+03   -0.44270E+03   -0.42364E+03  1512   0.410E+02
DAV:   3     0.350890412101E+03   -0.23892E+02   -0.23776E+02  1416   0.106E+02
DAV:   4     0.350655013405E+03   -0.23540E+00   -0.23529E+00  1572   0.114E+01
DAV:   5     0.350651050513E+03   -0.39629E-02   -0.39629E-02  1452   0.133E+00    0.580E+01
DAV:   6    -0.698418640509E+02   -0.42049E+03   -0.23639E+02  1584   0.208E+02    0.611E+01
DAV:   7    -0.721978798163E+02   -0.23560E+01   -0.46872E+01  1332   0.427E+01    0.175E+01
DAV:   8    -0.688431933202E+02    0.33547E+01   -0.62111E+00  1500   0.199E+01    0.800E+00
DAV:   9    -0.682167657830E+02    0.62643E+00   -0.87144E+00  1500   0.239E+01    0.889E+00
DAV:  10    -0.682199069833E+02   -0.31412E-02   -0.76033E-01  1344   0.710E+00    0.749E+00
DAV:  11    -0.680059100068E+02    0.21400E+00   -0.51385E-01  1512   0.480E+00    0.447E+00
DAV:  12    -0.680207968157E+02   -0.14887E-01   -0.20133E-01  1500   0.256E+00    0.174E+00
DAV:  13    -0.680089506955E+02    0.11846E-01   -0.21440E-02  1296   0.140E+00    0.105E+00
DAV:  14    -0.680050964232E+02    0.38543E-02   -0.51631E-02  1296   0.207E+00    0.412E-01
DAV:  15    -0.680046730318E+02    0.42339E-03   -0.35118E-03  1524   0.489E-01    0.404E-01
DAV:  16    -0.680037424063E+02    0.93063E-03   -0.41346E-03  1476   0.395E-01    0.156E-01
DAV:  17    -0.680044877308E+02   -0.74532E-03   -0.29596E-03  1368   0.386E-01    0.980E-02
DAV:  18    -0.680044673433E+02    0.20388E-04   -0.16855E-04  1656   0.108E-01    0.459E-02
DAV:  19    -0.680044307243E+02    0.36619E-04   -0.20416E-04  1500   0.851E-02    0.766E-03
DAV:  20    -0.680044258121E+02    0.49122E-05   -0.87803E-06  1416   0.243E-02    0.905E-03
DAV:  21    -0.680044243328E+02    0.14794E-05   -0.29991E-06  1488   0.111E-02    0.287E-03
DAV:  22    -0.680044312593E+02   -0.69266E-05   -0.45628E-07  1332   0.366E-03    0.135E-03
DAV:  23    -0.680044341111E+02   -0.28518E-05   -0.54838E-08   648   0.143E-03    0.110E-03
DAV:  24    -0.680044357535E+02   -0.16424E-05   -0.11410E-08   648   0.861E-04    0.979E-04
DAV:  25    -0.680044352572E+02    0.49634E-06   -0.45771E-09   648   0.387E-04    0.975E-04
DAV:  26    -0.680044351106E+02    0.14654E-06   -0.30340E-10   648   0.145E-04    0.973E-04
DAV:  27    -0.680044351759E+02   -0.65252E-07   -0.83806E-10   648   0.192E-04
   1 F= -.68004435E+02 E0= -.68004435E+02  d E =-.680044E+02  mag=    -0.0000
       N       E                     dE             d eps       ncg     rms          rms(c)
DAV:   1    -0.801578369020E+02   -0.12153E+02   -0.22080E+02  1296   0.127E+02    0.287E+01
DAV:   2    -0.678049408604E+02    0.12353E+02   -0.22989E+01  1296   0.396E+01    0.166E+01
DAV:   3    -0.679826429619E+02   -0.17770E+00   -0.94342E+00  1308   0.196E+01    0.665E+00
DAV:   4    -0.681171610533E+02   -0.13452E+00   -0.33581E-01  1524   0.463E+00    0.412E+00
DAV:   5    -0.680731340852E+02    0.44027E-01   -0.96450E-01  1584   0.607E+00    0.285E+00
DAV:   6    -0.680543013561E+02    0.18833E-01   -0.38185E-02  1512   0.176E+00    0.207E+00
DAV:   7    -0.680124219083E+02    0.41879E-01   -0.83974E-02  1560   0.189E+00    0.990E-01
DAV:   8    -0.680138798937E+02   -0.14580E-02   -0.76591E-02  1560   0.165E+00    0.342E-01
DAV:   9    -0.680148284784E+02   -0.94858E-03   -0.14987E-03  1296   0.260E-01    0.308E-01
DAV:  10    -0.680136824021E+02    0.11461E-02   -0.14415E-03  1596   0.248E-01    0.162E-01
DAV:  11    -0.680140199589E+02   -0.33756E-03   -0.67211E-03  1512   0.494E-01    0.154E-01
DAV:  12    -0.680138204288E+02    0.19953E-03   -0.32052E-04  1320   0.162E-01    0.806E-02
DAV:  13    -0.680137222990E+02    0.98130E-04   -0.29621E-04  1524   0.999E-02    0.241E-02
DAV:  14    -0.680137033537E+02    0.18945E-04   -0.44039E-05  1368   0.375E-02    0.484E-03
DAV:  15    -0.680137019104E+02    0.14433E-05   -0.28604E-05  1524   0.314E-02    0.134E-02
DAV:  16    -0.680136994955E+02    0.24149E-05   -0.75597E-06  1428   0.205E-02    0.165E-03
DAV:  17    -0.680137028770E+02   -0.33815E-05   -0.88980E-07  1452   0.542E-03    0.133E-03
DAV:  18    -0.680137037999E+02   -0.92284E-06   -0.15071E-08   672   0.916E-04    0.130E-03
DAV:  19    -0.680137034309E+02    0.36899E-06   -0.51617E-08   648   0.152E-03    0.990E-04
DAV:  20    -0.680137031318E+02    0.29907E-06   -0.10024E-08   648   0.600E-04    0.103E-03
DAV:  21    -0.680137031557E+02   -0.23928E-07   -0.13800E-09   648   0.241E-04
   2 F= -.68013703E+02 E0= -.68013703E+02  d E =-.926798E-02  mag=    -0.0000
       N       E                     dE             d eps       ncg     rms          rms(c)
DAV:   1    -0.704860740763E+02   -0.24724E+01   -0.56483E+01  1296   0.697E+01    0.141E+01
DAV:   2    -0.682746308665E+02    0.22114E+01   -0.43527E+00  1296   0.175E+01    0.933E+00
DAV:   3    -0.681686156299E+02    0.10602E+00   -0.15783E+00  1356   0.895E+00    0.336E+00
DAV:   4    -0.681859395548E+02   -0.17324E-01   -0.14008E-01  1464   0.337E+00    0.276E+00
DAV:   5    -0.681894205309E+02   -0.34810E-02   -0.18514E-01  1596   0.277E+00    0.152E+00
DAV:   6    -0.681699314640E+02    0.19489E-01   -0.32646E-02  1452   0.135E+00    0.596E-01
DAV:   7    -0.681741834058E+02   -0.42519E-02   -0.70948E-02  1572   0.161E+00    0.590E-01
DAV:   8    -0.681689389140E+02    0.52445E-02   -0.70133E-03  1332   0.655E-01    0.212E-01
DAV:   9    -0.681685144682E+02    0.42445E-03   -0.26554E-03  1560   0.289E-01    0.633E-02
DAV:  10    -0.681685672975E+02   -0.52829E-04   -0.10226E-03  1512   0.178E-01    0.437E-02
DAV:  11    -0.681686334726E+02   -0.66175E-04   -0.44913E-05  1296   0.437E-02    0.438E-02
DAV:  12    -0.681686024270E+02    0.31046E-04   -0.25206E-05  1536   0.328E-02    0.234E-02
DAV:  13    -0.681685840527E+02    0.18374E-04   -0.30336E-05  1476   0.315E-02    0.509E-03
DAV:  14    -0.681685825125E+02    0.15401E-05   -0.16535E-05  1476   0.233E-02    0.802E-03
DAV:  15    -0.681685759134E+02    0.65992E-05   -0.52773E-07  1308   0.630E-03    0.440E-03
DAV:  16    -0.681685771703E+02   -0.12569E-05   -0.66034E-07  1404   0.470E-03    0.187E-03
DAV:  17    -0.681685778749E+02   -0.70463E-06   -0.21667E-07   948   0.263E-03    0.103E-03
DAV:  18    -0.681685784475E+02   -0.57259E-06   -0.19367E-08   648   0.803E-04    0.101E-03
DAV:  19    -0.681685786196E+02   -0.17206E-06   -0.83215E-09   648   0.553E-04    0.103E-03
DAV:  20    -0.681685787390E+02   -0.11946E-06   -0.69106E-10   648   0.195E-04    0.102E-03
DAV:  21    -0.681685786940E+02    0.45044E-07   -0.11657E-09   648   0.210E-04
   3 F= -.68168579E+02 E0= -.68168579E+02  d E =-.164144E+00  mag=     0.0000
       N       E                     dE             d eps       ncg     rms          rms(c)
DAV:   1    -0.681687086331E+02   -0.12989E-03   -0.63799E-03  1296   0.719E-01    0.149E-01
DAV:   2    -0.681687960999E+02   -0.87467E-04   -0.52193E-04  1296   0.189E-01    0.929E-02
DAV:   3    -0.681687103429E+02    0.85757E-04   -0.20993E-04  1320   0.101E-01    0.340E-02
DAV:   4    -0.681687054617E+02    0.48812E-05   -0.12589E-05  1524   0.308E-02    0.272E-02
DAV:   5    -0.681686961514E+02    0.93103E-05   -0.28393E-05  1596   0.336E-02    0.183E-02
DAV:   6    -0.681687166377E+02   -0.20486E-04   -0.31474E-06  1368   0.137E-02    0.829E-03
DAV:   7    -0.681687100340E+02    0.66037E-05   -0.16516E-05  1572   0.247E-02    0.892E-03
DAV:   8    -0.681686913773E+02    0.18657E-04   -0.16981E-06  1332   0.102E-02    0.319E-03
DAV:   9    -0.681686984345E+02   -0.70571E-05   -0.54262E-07  1536   0.412E-03    0.140E-03
DAV:  10    -0.681687001842E+02   -0.17497E-05   -0.13241E-07   852   0.203E-03    0.105E-03
DAV:  11    -0.681687009314E+02   -0.74722E-06   -0.23056E-08   648   0.880E-04    0.110E-03
DAV:  12    -0.681687011624E+02   -0.23100E-06   -0.17716E-09   648   0.385E-04    0.105E-03
DAV:  13    -0.681687010202E+02    0.14219E-06   -0.22144E-09   648   0.280E-04    0.102E-03
DAV:  14    -0.681687008893E+02    0.13097E-06   -0.34696E-09   648   0.348E-04    0.100E-03
DAV:  15    -0.681687006897E+02    0.19960E-06   -0.30405E-10   648   0.111E-04    0.100E-03
DAV:  16    -0.681687006634E+02    0.26268E-07   -0.28880E-11   648   0.429E-05
   4 F= -.68168701E+02 E0= -.68168701E+02  d E =-.164265E+00  mag=     0.0000
       N       E                     dE             d eps       ncg     rms          rms(c)
DAV:   1    -0.681669883722E+02    0.17123E-02   -0.75601E-01  1296   0.608E+00    0.653E-01
DAV:   2    -0.681761766814E+02   -0.91883E-02   -0.26133E-02  1560   0.122E+00    0.430E-01
DAV:   3    -0.681735061593E+02    0.26705E-02   -0.27755E-03  1452   0.364E-01    0.219E-01
DAV:   4    -0.681725235475E+02    0.98261E-03   -0.21863E-03  1548   0.339E-01    0.692E-02
DAV:   5    -0.681725600697E+02   -0.36522E-04   -0.28185E-04  1296   0.113E-01    0.372E-02
DAV:   6    -0.681725785050E+02   -0.18435E-04   -0.11309E-05  1656   0.260E-02    0.214E-02
DAV:   7    -0.681725900644E+02   -0.11559E-04   -0.22044E-06  1572   0.120E-02    0.722E-03
DAV:   8    -0.681725922358E+02   -0.21714E-05   -0.10209E-06  1584   0.644E-03    0.263E-03
DAV:   9    -0.681725902047E+02    0.20311E-05   -0.86113E-08   732   0.244E-03    0.143E-03
DAV:  10    -0.681725887892E+02    0.14155E-05   -0.66947E-08   648   0.165E-03    0.122E-03
DAV:  11    -0.681725886309E+02    0.15835E-06   -0.67858E-09   648   0.617E-04    0.106E-03
DAV:  12    -0.681725886598E+02   -0.28934E-07   -0.10140E-08   648   0.636E-04
   5 F= -.68172589E+02 E0= -.68172589E+02  d E =-.388800E-02  mag=     0.0000
       N       E                     dE             d eps       ncg     rms          rms(c)
DAV:   1    -0.681726170766E+02   -0.28446E-04   -0.37402E-03  1296   0.428E-01    0.459E-02
DAV:   2    -0.681726846289E+02   -0.67552E-04   -0.12894E-04  1572   0.865E-02    0.304E-02
DAV:   3    -0.681726532117E+02    0.31417E-04   -0.13680E-05  1452   0.256E-02    0.155E-02
DAV:   4    -0.681726435214E+02    0.96903E-05   -0.10857E-05  1548   0.245E-02    0.496E-03
DAV:   5    -0.681726434142E+02    0.10719E-06   -0.14560E-06  1296   0.823E-03    0.281E-03
DAV:   6    -0.681726452606E+02   -0.18464E-05   -0.57839E-08   828   0.191E-03    0.184E-03
DAV:   7    -0.681726462313E+02   -0.97068E-06   -0.14947E-08   648   0.102E-03    0.115E-03
DAV:   8    -0.681726465362E+02   -0.30488E-06   -0.71126E-09   648   0.596E-04    0.104E-03
DAV:   9    -0.681726462690E+02    0.26715E-06   -0.79950E-10   648   0.241E-04    0.102E-03
DAV:  10    -0.681726461950E+02    0.74074E-07   -0.57517E-10   648   0.177E-04
   6 F= -.68172646E+02 E0= -.68172646E+02  d E =-.394553E-02  mag=    -0.0000
       N       E                     dE             d eps       ncg     rms          rms(c)
DAV:   1    -0.681726299593E+02    0.16310E-04   -0.14963E-02  1296   0.856E-01    0.919E-02
DAV:   2    -0.681727500146E+02   -0.12006E-03   -0.51588E-04  1572   0.173E-01    0.607E-02
DAV:   3    -0.681726273607E+02    0.12265E-03   -0.55105E-05  1452   0.514E-02    0.309E-02
DAV:   4    -0.681725995573E+02    0.27803E-04   -0.43444E-05  1548   0.479E-02    0.979E-03
DAV:   5    -0.681726042080E+02   -0.46506E-05   -0.56226E-06  1296   0.159E-02    0.533E-03
DAV:   6    -0.681726105388E+02   -0.63309E-05   -0.24226E-07  1512   0.377E-03    0.318E-03
DAV:   7    -0.681726130349E+02   -0.24961E-05   -0.41891E-08   648   0.179E-03    0.146E-03
DAV:   8    -0.681726134552E+02   -0.42030E-06   -0.32320E-08   648   0.122E-03    0.111E-03
DAV:   9    -0.681726125322E+02    0.92309E-06   -0.31912E-09   648   0.458E-04    0.103E-03
DAV:  10    -0.681726124220E+02    0.11017E-06   -0.23492E-09   648   0.355E-04    0.102E-03
DAV:  11    -0.681726126607E+02   -0.23873E-06   -0.34590E-10   648   0.156E-04    0.102E-03
DAV:  12    -0.681726126144E+02    0.46311E-07   -0.52032E-10   648   0.155E-04
   7 F= -.68172613E+02 E0= -.68172613E+02  d E =-.391195E-02  mag=    -0.0000
       N       E                     dE             d eps       ncg     rms          rms(c)
DAV:   1    -0.681722989159E+02    0.31374E-03   -0.59845E-02  1296   0.171E+00    0.184E-01
DAV:   2    -0.681720564738E+02    0.24244E-03   -0.20705E-03  1548   0.346E-01    0.121E-01
DAV:   3    -0.681716279742E+02    0.42850E-03   -0.22110E-04  1464   0.103E-01    0.617E-02
DAV:   4    -0.681715387051E+02    0.89269E-04   -0.17327E-04  1524   0.957E-02    0.195E-02
DAV:   5    -0.681715661432E+02   -0.27438E-04   -0.22450E-05  1308   0.317E-02    0.105E-02
DAV:   6    -0.681715880750E+02   -0.21932E-04   -0.98825E-07  1668   0.753E-03    0.612E-03
DAV:   7    -0.681715947760E+02   -0.67010E-05   -0.14668E-07   804   0.334E-03    0.237E-03
DAV:   8    -0.681715948354E+02   -0.59335E-07   -0.13302E-07   792   0.242E-03
   8 F= -.68171595E+02 E0= -.68171595E+02  d E =-.289417E-02  mag=    -0.0000
       N       E                     dE             d eps       ncg     rms          rms(c)
DAV:   1    -0.681715308167E+02    0.63959E-04   -0.14856E-02  1296   0.853E-01    0.917E-02
DAV:   2    -0.681722258662E+02   -0.69505E-03   -0.51612E-04  1548   0.174E-01    0.606E-02
DAV:   3    -0.681722606896E+02   -0.34823E-04   -0.54805E-05  1464   0.512E-02    0.308E-02
DAV:   4    -0.681722553732E+02    0.53165E-05   -0.42881E-05  1524   0.476E-02    0.975E-03
DAV:   5    -0.681722470824E+02    0.82908E-05   -0.56038E-06  1320   0.158E-02    0.531E-03
DAV:   6    -0.681722374942E+02    0.95882E-05   -0.24793E-07  1524   0.380E-03    0.317E-03
DAV:   7    -0.681722340164E+02    0.34777E-05   -0.40833E-08   648   0.179E-03    0.148E-03
DAV:   8    -0.681722339753E+02    0.41177E-07   -0.35249E-08   648   0.126E-03
   9 F= -.68172234E+02 E0= -.68172234E+02  d E =-.353331E-02  mag=    -0.0000
