 vasp.5.4.4.18Apr17-6-g9f103f2a35 (build Apr 27 2017 11:13:10) complex          
  
 executed on           IFC91_ompi date 2020.05.13  11:29:25
 running on   12 total cores
 distrk:  each k-point on   12 cores,    1 groups
 distr:  one band on NCORES_PER_BAND=   1 cores,   12 groups


--------------------------------------------------------------------------------------------------------


 INCAR:
 POTCAR:    PAW_PBE Mn_pv 02Aug2007               
 POTCAR:    PAW_PBE F 08Apr2002                   

 ----------------------------------------------------------------------------- 
|                                                                             |
|           W    W    AA    RRRRR   N    N  II  N    N   GGGG   !!!           |
|           W    W   A  A   R    R  NN   N  II  NN   N  G    G  !!!           |
|           W    W  A    A  R    R  N N  N  II  N N  N  G       !!!           |
|           W WW W  AAAAAA  RRRRR   N  N N  II  N  N N  G  GGG   !            |
|           WW  WW  A    A  R   R   N   NN  II  N   NN  G    G                |
|           W    W  A    A  R    R  N    N  II  N    N   GGGG   !!!           |
|                                                                             |
|      For optimal performance we recommend to set                            |
|        NCORE= 4 - approx SQRT( number of cores)                             |
|      NCORE specifies how many cores store one orbital (NPAR=cpu/NCORE).     |
|      This setting can  greatly improve the performance of VASP for DFT.     |
|      The default,   NCORE=1            might be grossly inefficient         |
|      on modern multi-core architectures or massively parallel machines.     |
|      Do your own testing !!!!                                               |
|      Unfortunately you need to use the default for GW and RPA calculations. |
|      (for HF NCORE is supported but not extensively tested yet)             |
|                                                                             |
 ----------------------------------------------------------------------------- 

 POTCAR:    PAW_PBE Mn_pv 02Aug2007               
   VRHFIN =Mn: 3p4s3d                                                           
   LEXCH  = PE                                                                  
   EATOM  =  2025.2664 eV,  148.8529 Ry                                         
                                                                                
   TITEL  = PAW_PBE Mn_pv 02Aug2007                                             
   LULTRA =        F    use ultrasoft PP ?                                      
   IUNSCR =        1    unscreen: 0-lin 1-nonlin 2-no                           
   RPACOR =    2.080    partial core radius                                     
   POMASS =   54.938; ZVAL   =   13.000    mass and valenz                      
   RCORE  =    2.300    outmost cutoff radius                                   
   RWIGS  =    2.500; RWIGS  =    1.323    wigner-seitz radius (au A)           
   ENMAX  =  269.864; ENMIN  =  202.398 eV                                      
   ICORE  =        3    local potential                                         
   LCOR   =        T    correct aug charges                                     
   LPAW   =        T    paw PP                                                  
   EAUG   =  569.085                                                            
   DEXC   =    0.000                                                            
   RMAX   =    2.343    core radius for proj-oper                               
   RAUG   =    1.300    factor for augmentation sphere                          
   RDEP   =    2.338    radius for radial grids                                 
   RDEPT  =    1.798    core radius for aug-charge                              
                                                                                
   Atomic configuration                                                         
    8 entries                                                                   
     n  l   j            E        occ.                                          
     1  0  0.50     -6424.8287   2.0000                                         
     2  0  0.50      -739.1154   2.0000                                         
     2  1  1.50      -625.3949   6.0000                                         
     3  0  0.50       -81.6100   2.0000                                         
     3  1  1.50       -50.4667   6.0000                                         
     3  2  2.50        -3.3745   6.0000                                         
     4  0  0.50        -4.1331   1.0000                                         
     4  3  2.50        -1.3606   0.0000                                         
   Description                                                                  
     l       E           TYP  RCUT    TYP  RCUT                                 
     1    -50.4666628     23  2.000                                             
     1     -1.3605826     23  2.000                                             
     2     -3.3744729     23  2.300                                             
     2     -4.7350555     23  2.300                                             
     0     -4.1331431     23  2.300                                             
     0      7.6656591     23  2.300                                             
     3      9.5240782     23  2.300                                             
  local pseudopotential read in
  partial core-charges read in
  partial kinetic energy density read in
  atomic valenz-charges read in
  non local Contribution for L=           1  read in
    real space projection operators read in
  non local Contribution for L=           1  read in
    real space projection operators read in
  non local Contribution for L=           2  read in
    real space projection operators read in
  non local Contribution for L=           2  read in
    real space projection operators read in
  non local Contribution for L=           0  read in
    real space projection operators read in
  non local Contribution for L=           0  read in
    real space projection operators read in
    PAW grid and wavefunctions read in
 
   number of l-projection  operators is LMAX  =           6
   number of lm-projection operators is LMMAX =          18
 
 POTCAR:    PAW_PBE F 08Apr2002                   
   VRHFIN =F: s2p5                                                              
   LEXCH  = PE                                                                  
   EATOM  =   659.6475 eV,   48.4827 Ry                                         
                                                                                
   TITEL  = PAW_PBE F 08Apr2002                                                 
   LULTRA =        F    use ultrasoft PP ?                                      
   IUNSCR =        1    unscreen: 0-lin 1-nonlin 2-no                           
   RPACOR =    1.200    partial core radius                                     
   POMASS =   18.998; ZVAL   =    7.000    mass and valenz                      
   RCORE  =    1.520    outmost cutoff radius                                   
   RWIGS  =    1.500; RWIGS  =    0.794    wigner-seitz radius (au A)           
   ENMAX  =  400.000; ENMIN  =  300.000 eV                                      
   ICORE  =        2    local potential                                         
   LCOR   =        T    correct aug charges                                     
   LPAW   =        T    paw PP                                                  
   EAUG   =  613.614                                                            
   RMAX   =    1.555    core radius for proj-oper                               
   RAUG   =    1.300    factor for augmentation sphere                          
   RDEP   =    1.539    radius for radial grids                                 
   RDEPT  =    1.299    core radius for aug-charge                              
                                                                                
   Atomic configuration                                                         
    4 entries                                                                   
     n  l   j            E        occ.                                          
     1  0  0.50      -663.3661   2.0000                                         
     2  0  0.50       -29.8995   2.0000                                         
     2  1  0.50       -11.1114   5.0000                                         
     3  2  1.50       -10.8847   0.0000                                         
   Description                                                                  
     l       E           TYP  RCUT    TYP  RCUT                                 
     0    -29.8995018     23  1.200                                             
     0     -9.5240782     23  1.200                                             
     1    -11.1113914     23  1.520                                             
     1      1.3605826     23  1.520                                             
     2    -10.8846608      7  1.500                                             
  local pseudopotential read in
  partial core-charges read in
  partial kinetic energy density read in
  atomic valenz-charges read in
  non local Contribution for L=           0  read in
    real space projection operators read in
  non local Contribution for L=           0  read in
    real space projection operators read in
  non local Contribution for L=           1  read in
    real space projection operators read in
  non local Contribution for L=           1  read in
    real space projection operators read in
    PAW grid and wavefunctions read in
 
   number of l-projection  operators is LMAX  =           4
   number of lm-projection operators is LMMAX =           8
 
  PAW_PBE Mn_pv 02Aug2007               :
 energy of atom  1       EATOM=-2025.2664
 kinetic energy error for atom=    0.0284 (will be added to EATOM!!)
  PAW_PBE F 08Apr2002                   :
 energy of atom  2       EATOM= -659.6475
 kinetic energy error for atom=    0.1978 (will be added to EATOM!!)
 
 
 POSCAR: Mn  F                                   
  positions in cartesian coordinates
  No initial velocities read in

 METAGGA = SCAN     LMAXTAU =  6    LMIXTAU =  F

 exchange correlation table for  LEXCH =        8
   RHO(1)=    0.500       N(1)  =     2000
   RHO(2)=  100.500       N(2)  =     4000
 


--------------------------------------------------------------------------------------------------------


 ion  position               nearest neighbor table
   1  0.500  0.500  0.500-   3 2.09   4 2.09   5 2.12   6 2.12   5 2.12   6 2.12
   2  0.000  0.000  0.000-   5 2.09   6 2.09   3 2.12   4 2.12   3 2.12   4 2.12
   3  0.196  0.804  0.500-   1 2.09   2 2.12   2 2.12
   4  0.804  0.196  0.500-   1 2.09   2 2.12   2 2.12
   5  0.304  0.304  0.000-   2 2.09   1 2.12   1 2.12
   6  0.696  0.696  0.000-   2 2.09   1 2.12   1 2.12
 
  LATTYP: Found a simple tetragonal cell.
 ALAT       =     4.8525685001
 C/A-ratio  =     0.6775817662
  
  Lattice vectors:
  
 A1 = (   4.8525685001,   0.0000000000,   0.0000000000)
 A2 = (   0.0000000000,   4.8525685001,   0.0000000000)
 A3 = (   0.0000000000,   0.0000000000,   3.2880119349)


Analysis of symmetry for initial positions (statically):
=====================================================================
 Subroutine PRICEL returns:
 Original cell was already a primitive cell.
 

 Routine SETGRP: Setting up the symmetry group for a 
 simple tetragonal supercell.


 Subroutine GETGRP returns: Found 16 space group operations
 (whereof  8 operations were pure point group operations)
 out of a pool of 16 trial point group operations.


The static configuration has the point symmetry D_2h.
 The point group associated with its full space group is D_4h.


Analysis of symmetry for dynamics (positions and initial velocities):
=====================================================================
 Subroutine PRICEL returns:
 Original cell was already a primitive cell.
 

 Routine SETGRP: Setting up the symmetry group for a 
 simple tetragonal supercell.


 Subroutine GETGRP returns: Found 16 space group operations
 (whereof  8 operations were pure point group operations)
 out of a pool of 16 trial point group operations.


The dynamic configuration has the point symmetry D_2h.
 The point group associated with its full space group is D_4h.


Analysis of structural, dynamic, and magnetic symmetry:
=====================================================================
 Subroutine PRICEL returns:
 Original cell was already a primitive cell.
 

 Routine SETGRP: Setting up the symmetry group for a 
 simple tetragonal supercell.


 Subroutine GETGRP returns: Found 16 space group operations
 (whereof  8 operations were pure point group operations)
 out of a pool of 16 trial point group operations.


The magnetic configuration has the point symmetry D_2h.
 The point group associated with its full space group is D_4h.


 Subroutine INISYM returns: Found 16 space group operations
 (whereof  8 operations are pure point group operations),
 and found     1 'primitive' translations

 
 
 KPOINTS: KPOINTS created by Atomic Simulation Env

Automatic generation of k-mesh.
Space group operators:
 irot       det(A)        alpha          n_x          n_y          n_z        tau_x        tau_y        tau_z
    1     1.000000     0.000000     1.000000     0.000000     0.000000     0.000000     0.000000     0.000000
    2    -1.000000     0.000000     1.000000     0.000000     0.000000     0.000000     0.000000     0.000000
    3     1.000000   180.000000     0.000000     0.000000     1.000000     0.000000     0.000000     0.000000
    4    -1.000000   180.000000     0.000000     0.000000     1.000000     0.000000     0.000000     0.000000
    5     1.000000   180.000000     0.707107     0.707107     0.000000     0.000000     0.000000     0.000000
    6    -1.000000   180.000000     0.707107     0.707107     0.000000     0.000000     0.000000     0.000000
    7     1.000000   180.000000     0.707107    -0.707107     0.000000     0.000000     0.000000     0.000000
    8    -1.000000   180.000000     0.707107    -0.707107     0.000000     0.000000     0.000000     0.000000
    9     1.000000    90.000000     0.000000     0.000000    -1.000000     0.500000     0.500000     0.500000
   10    -1.000000    90.000000     0.000000     0.000000    -1.000000     0.500000     0.500000     0.500000
   11     1.000000    90.000000     0.000000     0.000000     1.000000     0.500000     0.500000     0.500000
   12    -1.000000    90.000000     0.000000     0.000000     1.000000     0.500000     0.500000     0.500000
   13     1.000000   180.000000     0.000000     1.000000     0.000000     0.500000     0.500000     0.500000
   14    -1.000000   180.000000     0.000000     1.000000     0.000000     0.500000     0.500000     0.500000
   15     1.000000   180.000000     1.000000     0.000000     0.000000     0.500000     0.500000     0.500000
   16    -1.000000   180.000000     1.000000     0.000000     0.000000     0.500000     0.500000     0.500000
 
 Subroutine IBZKPT returns following result:
 ===========================================
 
 Found      9 irreducible k-points:
 
 Following reciprocal coordinates:
            Coordinates               Weight
  0.125000  0.125000  0.083333      8.000000
  0.375000  0.125000  0.083333     16.000000
  0.375000  0.375000  0.083333      8.000000
  0.125000  0.125000  0.250000      8.000000
  0.375000  0.125000  0.250000     16.000000
  0.375000  0.375000  0.250000      8.000000
  0.125000  0.125000  0.416667      8.000000
  0.375000  0.125000  0.416667     16.000000
  0.375000  0.375000  0.416667      8.000000
 
 Following cartesian coordinates:
            Coordinates               Weight
  0.025760  0.025760  0.025345      8.000000
  0.077279  0.025760  0.025345     16.000000
  0.077279  0.077279  0.025345      8.000000
  0.025760  0.025760  0.076034      8.000000
  0.077279  0.025760  0.076034     16.000000
  0.077279  0.077279  0.076034      8.000000
  0.025760  0.025760  0.126723      8.000000
  0.077279  0.025760  0.126723     16.000000
  0.077279  0.077279  0.126723      8.000000
 


--------------------------------------------------------------------------------------------------------




 Dimension of arrays:
   k-points           NKPTS =      9   k-points in BZ     NKDIM =      9   number of bands    NBANDS=     36
   number of dos      NEDOS =    301   number of ions     NIONS =      6
   non local maximal  LDIM  =      6   non local SUM 2l+1 LMDIM =     18
   total plane-waves  NPLWV =   9216
   max r-space proj   IRMAX =      1   max aug-charges    IRDMAX=  29090
   dimension x,y,z NGX =    24 NGY =   24 NGZ =   16
   dimension x,y,z NGXF=    48 NGYF=   48 NGZF=   32
   support grid    NGXF=    96 NGYF=   96 NGZF=   64
   ions per type =               2   4
   NGX,Y,Z   is equivalent  to a cutoff of   8.22,  8.22,  8.09 a.u.
   NGXF,Y,Z  is equivalent  to a cutoff of  16.44, 16.44, 16.18 a.u.

 SYSTEM =  unknown system                          
 POSCAR =  Mn  F                                   

 Startparameter for this run:
   NWRITE =      2    write-flag & timer
   PREC   = normal    normal or accurate (medium, high low for compatibility)
   ISTART =      0    job   : 0-new  1-cont  2-samecut
   ICHARG =      2    charge: 1-file 2-atom 10-const
   ISPIN  =      2    spin polarized calculation?
   LNONCOLLINEAR =      F non collinear calculations
   LSORBIT =      F    spin-orbit coupling
   INIWAV =      1    electr: 0-lowe 1-rand  2-diag
   LASPH  =      T    aspherical Exc in radial PAW
   METAGGA=      F    non-selfconsistent MetaGGA calc.

 Electronic Relaxation 1
   ENCUT  =  400.0 eV  29.40 Ry    5.42 a.u.   7.91  7.91  5.36*2*pi/ulx,y,z
   ENINI  =  400.0     initial cutoff
   ENAUG  =  613.6 eV  augmentation charge cutoff
   NELM   =     60;   NELMIN=  2; NELMDL= -5     # of ELM steps 
   EDIFF  = 0.1E-06   stopping-criterion for ELM
   LREAL  =      F    real-space projection
   NLSPLINE    = F    spline interpolate recip. space projectors
   LCOMPAT=      F    compatible to vasp.4.4
   GGA_COMPAT  = T    GGA compatible to vasp.4.4-vasp.4.6
   LMAXPAW     = -100 max onsite density
   LMAXMIX     =    4 max onsite mixed and CHGCAR
   VOSKOWN=      0    Vosko Wilk Nusair interpolation
   ROPT   =    0.00000   0.00000
 Ionic relaxation
   EDIFFG = -.5E-02   stopping-criterion for IOM
   NSW    =     50    number of steps for IOM
   NBLOCK =      1;   KBLOCK =     50    inner block; outer block 
   IBRION =      2    ionic relax: 0-MD 1-quasi-New 2-CG
   NFREE  =      1    steps in history (QN), initial steepest desc. (CG)
   ISIF   =      3    stress and relaxation
   IWAVPR =     11    prediction:  0-non 1-charg 2-wave 3-comb
   ISYM   =      2    0-nonsym 1-usesym 2-fastsym
   LCORR  =      T    Harris-Foulkes like correction to forces

   POTIM  = 0.5000    time-step for ionic-motion
   TEIN   =    0.0    initial temperature
   TEBEG  =    0.0;   TEEND  =   0.0 temperature during run
   SMASS  =  -3.00    Nose mass-parameter (am)
   estimated Nose-frequenzy (Omega)   =  0.10E-29 period in steps =****** mass=  -0.538E-27a.u.
   SCALEE = 1.0000    scale energy and forces
   NPACO  =    256;   APACO  = 16.0  distance and # of slots for P.C.
   PSTRESS=    0.0 pullay stress

  Mass of Ions in am
   POMASS =  54.94 19.00
  Ionic Valenz
   ZVAL   =  13.00  7.00
  Atomic Wigner-Seitz radii
   RWIGS  =  -1.00 -1.00
  virtual crystal weights 
   VCA    =   1.00  1.00
   NELECT =      54.0000    total number of electrons
   NUPDOWN=      -1.0000    fix difference up-down

 DOS related values:
   EMIN   =  10.00;   EMAX   =-10.00  energy-range for DOS
   EFERMI =   0.00
   ISMEAR =     0;   SIGMA  =   0.02  broadening in eV -4-tet -1-fermi 0-gaus

 Electronic relaxation 2 (details)
   IALGO  =     38    algorithm
   LDIAG  =      T    sub-space diagonalisation (order eigenvalues)
   LSUBROT=      F    optimize rotation matrix (better conditioning)
   TURBO    =      0    0=normal 1=particle mesh
   IRESTART =      0    0=no restart 2=restart with 2 vectors
   NREBOOT  =      0    no. of reboots
   NMIN     =      0    reboot dimension
   EREF     =   0.00    reference energy to select bands
   IMIX   =      4    mixing-type and parameters
     AMIX     =   0.40;   BMIX     =  1.00
     AMIX_MAG =   1.60;   BMIX_MAG =  1.00
     AMIN     =   0.10
     WC   =   100.;   INIMIX=   1;  MIXPRE=   1;  MAXMIX= -45

 Intra band minimization:
   WEIMIN = 0.0010     energy-eigenvalue tresh-hold
   EBREAK =  0.69E-09  absolut break condition
   DEPER  =   0.30     relativ break condition  

   TIME   =   0.40     timestep for ELM

  volume/ion in A,a.u.               =      12.90        87.08
  Fermi-wavevector in a.u.,A,eV,Ry     =   1.451824  2.743549 28.678246  2.107792
  Thomas-Fermi vector in A             =   2.569276
 
 Write flags
   LWAVE        =      F    write WAVECAR
   LDOWNSAMPLE  =      F    k-point downsampling of WAVECAR
   LCHARG       =      F    write CHGCAR
   LVTOT        =      F    write LOCPOT, total local potential
   LVHAR        =      F    write LOCPOT, Hartree potential only
   LELF         =      F    write electronic localiz. function (ELF)
   LORBIT       =     11    0 simple, 1 ext, 2 COOP (PROOUT), +10 PAW based schemes


 Dipole corrections
   LMONO  =      F    monopole corrections only (constant potential shift)
   LDIPOL =      F    correct potential (dipole corrections)
   IDIPOL =      0    1-x, 2-y, 3-z, 4-all directions 
   EPSILON=  1.0000000 bulk dielectric constant

 LDA+U is selected, type is set to LDAUTYPE =  2
   angular momentum for each species LDAUL =     2   -1
   U (eV)           for each species LDAUU =   0.0  0.0
   J (eV)           for each species LDAUJ =   0.0  0.0
 Exchange correlation treatment:
   GGA     =    --    GGA type
   LEXCH   =     8    internal setting for exchange type
   VOSKOWN=      0    Vosko Wilk Nusair interpolation
   LHFCALC =     F    Hartree Fock is set to
   LHFONE  =     F    Hartree Fock one center treatment
   AEXX    =    0.0000 exact exchange contribution

 Linear response parameters
   LEPSILON=     F    determine dielectric tensor
   LRPA    =     F    only Hartree local field effects (RPA)
   LNABLA  =     F    use nabla operator in PAW spheres
   LVEL    =     F    velocity operator in full k-point grid
   LINTERFAST=   F  fast interpolation
   KINTER  =     0    interpolate to denser k-point grid
   CSHIFT  =0.1000    complex shift for real part using Kramers Kronig
   OMEGAMAX=  -1.0    maximum frequency
   DEG_THRESHOLD= 0.2000000E-02 threshold for treating states as degnerate
   RTIME   =   -0.100 relaxation time in fs
  (WPLASMAI=    0.000 imaginary part of plasma frequency in eV, 0.658/RTIME)
   DFIELD  = 0.0000000 0.0000000 0.0000000 field for delta impulse in time
 
 Orbital magnetization related:
   ORBITALMAG=     F  switch on orbital magnetization
   LCHIMAG   =     F  perturbation theory with respect to B field
   DQ        =  0.001000  dq finite difference perturbation B field
   LLRAUG    =     F  two centre corrections for induced B field



--------------------------------------------------------------------------------------------------------


 conjugate gradient relaxation of ions
 charge density and potential will be updated during run
 spin polarized calculation
 Variant of blocked Davidson
 Davidson routine will perform the subspace rotation
 perform sub-space diagonalisation
    after iterative eigenvector-optimisation
 modified Broyden-mixing scheme, WC =      100.0
 initial mixing is a Kerker type mixing with AMIX =  0.4000 and BMIX =      1.0000
 Hartree-type preconditioning will be used
 using additional bands            9
 reciprocal scheme for non local part
 use partial core corrections
 calculate Harris-corrections to forces 
   (improved forces if not selfconsistent)
 use gradient corrections 
 use of overlap-Matrix (Vanderbilt PP)
 Gauss-broadening in eV      SIGMA  =   0.02


--------------------------------------------------------------------------------------------------------


  energy-cutoff  :      400.00
  volume of cell :       77.42
      direct lattice vectors                 reciprocal lattice vectors
     4.852568500  0.000000000  0.000000000     0.206076431  0.000000000  0.000000000
     0.000000000  4.852568500  0.000000000     0.000000000  0.206076431  0.000000000
     0.000000000  0.000000000  3.288011935     0.000000000  0.000000000  0.304135149

  length of vectors
     4.852568500  4.852568500  3.288011935     0.206076431  0.206076431  0.304135149


 
 k-points in units of 2pi/SCALE and weight: KPOINTS created by Atomic Simulation Env
   0.02575955  0.02575955  0.02534460       0.083
   0.07727866  0.02575955  0.02534460       0.167
   0.07727866  0.07727866  0.02534460       0.083
   0.02575955  0.02575955  0.07603379       0.083
   0.07727866  0.02575955  0.07603379       0.167
   0.07727866  0.07727866  0.07603379       0.083
   0.02575955  0.02575955  0.12672298       0.083
   0.07727866  0.02575955  0.12672298       0.167
   0.07727866  0.07727866  0.12672298       0.083
 
 k-points in reciprocal lattice and weights: KPOINTS created by Atomic Simulation Env
   0.12500000  0.12500000  0.08333333       0.083
   0.37500000  0.12500000  0.08333333       0.167
   0.37500000  0.37500000  0.08333333       0.083
   0.12500000  0.12500000  0.25000000       0.083
   0.37500000  0.12500000  0.25000000       0.167
   0.37500000  0.37500000  0.25000000       0.083
   0.12500000  0.12500000  0.41666667       0.083
   0.37500000  0.12500000  0.41666667       0.167
   0.37500000  0.37500000  0.41666667       0.083
 
 position of ions in fractional coordinates (direct lattice) 
   0.50000000  0.50000000  0.50000000
   0.00000000  0.00000000  0.00000000
   0.19609954  0.80390046  0.50000000
   0.80390046  0.19609954  0.50000000
   0.30390046  0.30390046  0.00000000
   0.69609954  0.69609954  0.00000000
 
 position of ions in cartesian coordinates  (Angst):
   2.42628425  2.42628425  1.64400597
   0.00000000  0.00000000  0.00000000
   0.95158645  3.90098205  1.64400597
   3.90098205  0.95158645  1.64400597
   1.47469780  1.47469780  0.00000000
   3.37787070  3.37787070  0.00000000
 


--------------------------------------------------------------------------------------------------------


 k-point  1 :   0.1250 0.1250 0.0833  plane waves:    1417
 k-point  2 :   0.3750 0.1250 0.0833  plane waves:    1406
 k-point  3 :   0.3750 0.3750 0.0833  plane waves:    1416
 k-point  4 :   0.1250 0.1250 0.2500  plane waves:    1403
 k-point  5 :   0.3750 0.1250 0.2500  plane waves:    1411
 k-point  6 :   0.3750 0.3750 0.2500  plane waves:    1408
 k-point  7 :   0.1250 0.1250 0.4167  plane waves:    1391
 k-point  8 :   0.3750 0.1250 0.4167  plane waves:    1401
 k-point  9 :   0.3750 0.3750 0.4167  plane waves:    1413

 maximum and minimum number of plane-waves per node :      1417     1391

 maximum number of plane-waves:      1417
 maximum index in each direction: 
   IXMAX=    7   IYMAX=    7   IZMAX=    5
   IXMIN=   -8   IYMIN=   -8   IZMIN=   -5


 serial   3D FFT for wavefunctions
 parallel 3D FFT for charge:
    minimum data exchange during FFTs selected (reduces bandwidth)


 total amount of memory used by VASP MPI-rank0    38251. kBytes
=======================================================================

   base      :      30000. kBytes
   nonl-proj :       3838. kBytes
   fftplans  :        966. kBytes
   grid      :       1965. kBytes
   one-center:        186. kBytes
   wavefun   :       1296. kBytes
 
     INWAV:  cpu time    0.0000: real time    0.0000
 Broyden mixing: mesh for mixing (old mesh)
   NGX = 15   NGY = 15   NGZ = 11
  (NGX  = 48   NGY  = 48   NGZ  = 32)
  gives a total of   2475 points

 initial charge density was supplied:
 charge density of overlapping atoms calculated
 number of electron      54.0000000 magnetization       0.0000000
 keeping initial charge density in first step


--------------------------------------------------------------------------------------------------------


 Maximum index for augmentation-charges         2439 (set IRDMAX)


--------------------------------------------------------------------------------------------------------


 First call to EWALD:  gamma=   0.416
 Maximum number of real-space cells 2x 2x 3
 Maximum number of reciprocal cells 3x 3x 2

    FEWALD:  cpu time    0.0010: real time    0.0010


--------------------------------------- Iteration      1(   1)  ---------------------------------------


    POTLOK:  cpu time    0.0187: real time    0.0187
    SETDIJ:  cpu time    1.1193: real time    1.1193
atom =   1  type =  1  l = 2
 
 onsite density matrix
 
spin component  1
 
  0.2835  0.0000  0.0000  0.0000  0.0000
  0.0000  0.2835  0.0000  0.0000  0.0000
  0.0000  0.0000  0.2835  0.0000  0.0000
  0.0000  0.0000  0.0000  0.2835  0.0000
  0.0000  0.0000  0.0000  0.0000  0.2835
 
spin component  2
 
  0.7694  0.0000  0.0000  0.0000  0.0000
  0.0000  0.7694  0.0000  0.0000  0.0000
  0.0000  0.0000  0.7694  0.0000  0.0000
  0.0000  0.0000  0.0000  0.7694  0.0000
  0.0000  0.0000  0.0000  0.0000  0.7694
 
 occupancies and eigenvectors
 
  o =  0.2835  v =  1.0000  0.0000  0.0000  0.0000  0.0000  0.0000  0.0000  0.0000  0.0000  0.0000      0.0000  0.0000  0.0000  0.0000  0.0000  0.0000  0.0000  0.0000  0.0000  0.0000
  o =  0.2835  v =  0.0000  1.0000  0.0000  0.0000  0.0000  0.0000  0.0000  0.0000  0.0000  0.0000      0.0000  0.0000  0.0000  0.0000  0.0000  0.0000  0.0000  0.0000  0.0000  0.0000
  o =  0.2835  v =  0.0000  0.0000  1.0000  0.0000  0.0000  0.0000  0.0000  0.0000  0.0000  0.0000      0.0000  0.0000  0.0000  0.0000  0.0000  0.0000  0.0000  0.0000  0.0000  0.0000
  o =  0.2835  v =  0.0000  0.0000  0.0000  1.0000  0.0000  0.0000  0.0000  0.0000  0.0000  0.0000      0.0000  0.0000  0.0000  0.0000  0.0000  0.0000  0.0000  0.0000  0.0000  0.0000
  o =  0.2835  v =  0.0000  0.0000  0.0000  0.0000  1.0000  0.0000  0.0000  0.0000  0.0000  0.0000      0.0000  0.0000  0.0000  0.0000  0.0000  0.0000  0.0000  0.0000  0.0000  0.0000
  o =  0.7694  v =  0.0000  0.0000  0.0000  0.0000  0.0000  1.0000  0.0000  0.0000  0.0000  0.0000      0.0000  0.0000  0.0000  0.0000  0.0000  0.0000  0.0000  0.0000  0.0000  0.0000
  o =  0.7694  v =  0.0000  0.0000  0.0000  0.0000  0.0000  0.0000  1.0000  0.0000  0.0000  0.0000      0.0000  0.0000  0.0000  0.0000  0.0000  0.0000  0.0000  0.0000  0.0000  0.0000
  o =  0.7694  v =  0.0000  0.0000  0.0000  0.0000  0.0000  0.0000  0.0000  1.0000  0.0000  0.0000      0.0000  0.0000  0.0000  0.0000  0.0000  0.0000  0.0000  0.0000  0.0000  0.0000
  o =  0.7694  v =  0.0000  0.0000  0.0000  0.0000  0.0000  0.0000  0.0000  0.0000  1.0000  0.0000      0.0000  0.0000  0.0000  0.0000  0.0000  0.0000  0.0000  0.0000  0.0000  0.0000
  o =  0.7694  v =  0.0000  0.0000  0.0000  0.0000  0.0000  0.0000  0.0000  0.0000  0.0000  1.0000      0.0000  0.0000  0.0000  0.0000  0.0000  0.0000  0.0000  0.0000  0.0000  0.0000
atom =   2  type =  1  l = 2
 
 onsite density matrix
 
spin component  1
 
  0.7694  0.0000  0.0000  0.0000  0.0000
  0.0000  0.7694  0.0000  0.0000  0.0000
  0.0000  0.0000  0.7694  0.0000  0.0000
  0.0000  0.0000  0.0000  0.7694  0.0000
  0.0000  0.0000  0.0000  0.0000  0.7694
 
spin component  2
 
  0.2835  0.0000  0.0000  0.0000  0.0000
  0.0000  0.2835  0.0000  0.0000  0.0000
  0.0000  0.0000  0.2835  0.0000  0.0000
  0.0000  0.0000  0.0000  0.2835  0.0000
  0.0000  0.0000  0.0000  0.0000  0.2835
 
 occupancies and eigenvectors
 
  o =  0.2835  v =  0.0000  0.0000  0.0000  0.0000  0.0000  1.0000  0.0000  0.0000  0.0000  0.0000      0.0000  0.0000  0.0000  0.0000  0.0000  0.0000  0.0000  0.0000  0.0000  0.0000
  o =  0.2835  v =  0.0000  0.0000  0.0000  0.0000  0.0000  0.0000  1.0000  0.0000  0.0000  0.0000      0.0000  0.0000  0.0000  0.0000  0.0000  0.0000  0.0000  0.0000  0.0000  0.0000
  o =  0.2835  v =  0.0000  0.0000  0.0000  0.0000  0.0000  0.0000  0.0000  1.0000  0.0000  0.0000      0.0000  0.0000  0.0000  0.0000  0.0000  0.0000  0.0000  0.0000  0.0000  0.0000
  o =  0.2835  v =  0.0000  0.0000  0.0000  0.0000  0.0000  0.0000  0.0000  0.0000  1.0000  0.0000      0.0000  0.0000  0.0000  0.0000  0.0000  0.0000  0.0000  0.0000  0.0000  0.0000
  o =  0.2835  v =  0.0000  0.0000  0.0000  0.0000  0.0000  0.0000  0.0000  0.0000  0.0000  1.0000      0.0000  0.0000  0.0000  0.0000  0.0000  0.0000  0.0000  0.0000  0.0000  0.0000
  o =  0.7694  v =  1.0000  0.0000  0.0000  0.0000  0.0000  0.0000  0.0000  0.0000  0.0000  0.0000      0.0000  0.0000  0.0000  0.0000  0.0000  0.0000  0.0000  0.0000  0.0000  0.0000
  o =  0.7694  v =  0.0000  1.0000  0.0000  0.0000  0.0000  0.0000  0.0000  0.0000  0.0000  0.0000      0.0000  0.0000  0.0000  0.0000  0.0000  0.0000  0.0000  0.0000  0.0000  0.0000
  o =  0.7694  v =  0.0000  0.0000  1.0000  0.0000  0.0000  0.0000  0.0000  0.0000  0.0000  0.0000      0.0000  0.0000  0.0000  0.0000  0.0000  0.0000  0.0000  0.0000  0.0000  0.0000
  o =  0.7694  v =  0.0000  0.0000  0.0000  1.0000  0.0000  0.0000  0.0000  0.0000  0.0000  0.0000      0.0000  0.0000  0.0000  0.0000  0.0000  0.0000  0.0000  0.0000  0.0000  0.0000
  o =  0.7694  v =  0.0000  0.0000  0.0000  0.0000  1.0000  0.0000  0.0000  0.0000  0.0000  0.0000      0.0000  0.0000  0.0000  0.0000  0.0000  0.0000  0.0000  0.0000  0.0000  0.0000
     EDDAV:  cpu time    0.3729: real time    0.3911
       DOS:  cpu time    0.0004: real time    0.0004
    --------------------------------------------
      LOOP:  cpu time    1.5113: real time    1.5295

 eigenvalue-minimisations  :  1416
 total energy-change (2. order) : 0.8174834E+03  (-0.3040661E+04)
 number of electron      54.0000000 magnetization      -0.0000000
 augmentation part       54.0000000 magnetization      -0.0000000

 Free energy of the ion-electron system (eV)
  ---------------------------------------------------
  alpha Z        PSCENC =       199.38838823
  Ewald energy   TEWEN  =     -4203.06823030
  -Hartree energ DENC   =     -2130.62061701
  -exchange      EXHF   =         0.00000000
  -V(xc)+E(xc)   XCENC  =        -3.96103000
  PAW double counting   =      5566.43601843    -5528.13058630
  entropy T*S    EENTRO =        -0.00124888
  eigenvalues    EBANDS =       229.16590394
  atomic energy  EATOM  =      6688.27483813
  Solvation  Ediel_sol  =         0.00000000
  ---------------------------------------------------
  free energy    TOTEN  =       817.48343624 eV

  energy without entropy =      817.48468512  energy(sigma->0) =      817.48406068


--------------------------------------------------------------------------------------------------------




--------------------------------------- Iteration      1(   2)  ---------------------------------------


     EDDAV:  cpu time    0.3924: real time    0.3924
       DOS:  cpu time    0.0002: real time    0.0002
    --------------------------------------------
      LOOP:  cpu time    0.3926: real time    0.3926

 eigenvalue-minimisations  :  1512
 total energy-change (2. order) :-0.4427009E+03  (-0.4236440E+03)
 number of electron      54.0000000 magnetization      -0.0000000
 augmentation part       54.0000000 magnetization      -0.0000000

 Free energy of the ion-electron system (eV)
  ---------------------------------------------------
  alpha Z        PSCENC =       199.38838823
  Ewald energy   TEWEN  =     -4203.06823030
  -Hartree energ DENC   =     -2130.62061701
  -exchange      EXHF   =         0.00000000
  -V(xc)+E(xc)   XCENC  =        -3.96103000
  PAW double counting   =      5566.43601843    -5528.13058630
  entropy T*S    EENTRO =        -0.00000000
  eigenvalues    EBANDS =      -213.53621412
  atomic energy  EATOM  =      6688.27483813
  Solvation  Ediel_sol  =         0.00000000
  ---------------------------------------------------
  free energy    TOTEN  =       374.78256706 eV

  energy without entropy =      374.78256706  energy(sigma->0) =      374.78256706


--------------------------------------------------------------------------------------------------------




--------------------------------------- Iteration      1(   3)  ---------------------------------------


     EDDAV:  cpu time    0.3667: real time    0.3667
       DOS:  cpu time    0.0002: real time    0.0002
    --------------------------------------------
      LOOP:  cpu time    0.3669: real time    0.3669

 eigenvalue-minimisations  :  1416
 total energy-change (2. order) :-0.2389215E+02  (-0.2377598E+02)
 number of electron      54.0000000 magnetization      -0.0000000
 augmentation part       54.0000000 magnetization      -0.0000000

 Free energy of the ion-electron system (eV)
  ---------------------------------------------------
  alpha Z        PSCENC =       199.38838823
  Ewald energy   TEWEN  =     -4203.06823030
  -Hartree energ DENC   =     -2130.62061701
  -exchange      EXHF   =         0.00000000
  -V(xc)+E(xc)   XCENC  =        -3.96103000
  PAW double counting   =      5566.43601843    -5528.13058630
  entropy T*S    EENTRO =        -0.00000000
  eigenvalues    EBANDS =      -237.42836908
  atomic energy  EATOM  =      6688.27483813
  Solvation  Ediel_sol  =         0.00000000
  ---------------------------------------------------
  free energy    TOTEN  =       350.89041210 eV

  energy without entropy =      350.89041210  energy(sigma->0) =      350.89041210


--------------------------------------------------------------------------------------------------------




--------------------------------------- Iteration      1(   4)  ---------------------------------------


     EDDAV:  cpu time    0.3922: real time    0.3922
       DOS:  cpu time    0.0002: real time    0.0002
    --------------------------------------------
      LOOP:  cpu time    0.3924: real time    0.3924

 eigenvalue-minimisations  :  1572
 total energy-change (2. order) :-0.2353987E+00  (-0.2352875E+00)
 number of electron      54.0000000 magnetization      -0.0000000
 augmentation part       54.0000000 magnetization      -0.0000000

 Free energy of the ion-electron system (eV)
  ---------------------------------------------------
  alpha Z        PSCENC =       199.38838823
  Ewald energy   TEWEN  =     -4203.06823030
  -Hartree energ DENC   =     -2130.62061701
  -exchange      EXHF   =         0.00000000
  -V(xc)+E(xc)   XCENC  =        -3.96103000
  PAW double counting   =      5566.43601843    -5528.13058630
  entropy T*S    EENTRO =        -0.00000000
  eigenvalues    EBANDS =      -237.66376778
  atomic energy  EATOM  =      6688.27483813
  Solvation  Ediel_sol  =         0.00000000
  ---------------------------------------------------
  free energy    TOTEN  =       350.65501341 eV

  energy without entropy =      350.65501341  energy(sigma->0) =      350.65501341


--------------------------------------------------------------------------------------------------------




--------------------------------------- Iteration      1(   5)  ---------------------------------------


     EDDAV:  cpu time    0.3703: real time    0.3703
       DOS:  cpu time    0.0002: real time    0.0002
    CHARGE:  cpu time    0.0676: real time    0.0676
    MIXING:  cpu time    0.0003: real time    0.0003
    --------------------------------------------
      LOOP:  cpu time    0.4385: real time    0.4385

 eigenvalue-minimisations  :  1452
 total energy-change (2. order) :-0.3962892E-02  (-0.3962859E-02)
 number of electron      53.9999992 magnetization      -0.0000000
 augmentation part       22.2844269 magnetization      -0.0000000

 Broyden mixing:
  rms(total) = 0.58015E+01    rms(broyden)= 0.57998E+01
  rms(prec ) = 0.59990E+01
  weight for this iteration     100.00

 Free energy of the ion-electron system (eV)
  ---------------------------------------------------
  alpha Z        PSCENC =       199.38838823
  Ewald energy   TEWEN  =     -4203.06823030
  -Hartree energ DENC   =     -2130.62061701
  -exchange      EXHF   =         0.00000000
  -V(xc)+E(xc)   XCENC  =        -3.96103000
  PAW double counting   =      5566.43601843    -5528.13058630
  entropy T*S    EENTRO =        -0.00000000
  eigenvalues    EBANDS =      -237.66773067
  atomic energy  EATOM  =      6688.27483813
  Solvation  Ediel_sol  =         0.00000000
  ---------------------------------------------------
  free energy    TOTEN  =       350.65105051 eV

  energy without entropy =      350.65105051  energy(sigma->0) =      350.65105051


--------------------------------------------------------------------------------------------------------




--------------------------------------- Iteration      1(   6)  ---------------------------------------


    POTLOK:  cpu time    0.0164: real time    0.0164
    SETDIJ:  cpu time    0.7827: real time    0.7827
atom =   1  type =  1  l = 2
 
 onsite density matrix
 
spin component  1
 
  0.0173  0.0000  0.0581  0.0000 -0.0000
  0.0000 -0.0024  0.0000  0.0523  0.0000
  0.0581  0.0000 -0.0187  0.0000 -0.0000
  0.0000  0.0523  0.0000 -0.0024  0.0000
 -0.0000  0.0000 -0.0000  0.0000 -0.0679
 
spin component  2
 
  1.0667  0.0000 -0.0258  0.0000  0.0000
  0.0000  1.0758  0.0000 -0.0233  0.0000
 -0.0258  0.0000  1.0826  0.0000  0.0000
  0.0000 -0.0233  0.0000  1.0758  0.0000
  0.0000  0.0000  0.0000  0.0000  1.1056
 
 occupancies and eigenvectors
 
  o = -0.0679  v =  0.0000 -0.0000 -0.0000  0.0000 -1.0000  0.0000  0.0000  0.0000  0.0000  0.0000      0.0000  0.0000  0.0000  0.0000  0.0000  0.0000  0.0000  0.0000  0.0000  0.0000
  o = -0.0615  v =  0.5932  0.0000 -0.8050 -0.0000  0.0000  0.0000  0.0000  0.0000  0.0000  0.0000      0.0000  0.0000  0.0000  0.0000  0.0000  0.0000  0.0000  0.0000  0.0000  0.0000
  o = -0.0547  v =  0.0000 -0.7071 -0.0000  0.7071  0.0000  0.0000  0.0000  0.0000  0.0000  0.0000      0.0000  0.0000  0.0000  0.0000  0.0000  0.0000  0.0000  0.0000  0.0000  0.0000
  o =  0.0499  v =  0.0000 -0.7071  0.0000 -0.7071  0.0000  0.0000  0.0000  0.0000  0.0000  0.0000      0.0000  0.0000  0.0000  0.0000  0.0000  0.0000  0.0000  0.0000  0.0000  0.0000
  o =  0.0601  v = -0.8050 -0.0000 -0.5932 -0.0000  0.0000  0.0000  0.0000  0.0000  0.0000  0.0000      0.0000  0.0000  0.0000  0.0000  0.0000  0.0000  0.0000  0.0000  0.0000  0.0000
  o =  1.0477  v =  0.0000  0.0000  0.0000  0.0000  0.0000  0.8042  0.0000  0.5944  0.0000 -0.0000      0.0000  0.0000  0.0000  0.0000  0.0000  0.0000  0.0000  0.0000  0.0000  0.0000
  o =  1.0524  v =  0.0000  0.0000  0.0000  0.0000  0.0000  0.0000 -0.7071  0.0000 -0.7071 -0.0000      0.0000  0.0000  0.0000  0.0000  0.0000  0.0000  0.0000  0.0000  0.0000  0.0000
  o =  1.0991  v =  0.0000  0.0000  0.0000  0.0000  0.0000  0.0000 -0.7071  0.0000  0.7071 -0.0000      0.0000  0.0000  0.0000  0.0000  0.0000  0.0000  0.0000  0.0000  0.0000  0.0000
  o =  1.1017  v =  0.0000  0.0000  0.0000  0.0000  0.0000  0.5944 -0.0000 -0.8042  0.0000  0.0000      0.0000  0.0000  0.0000  0.0000  0.0000  0.0000  0.0000  0.0000  0.0000  0.0000
  o =  1.1056  v =  0.0000  0.0000  0.0000  0.0000  0.0000  0.0000  0.0000 -0.0000  0.0000 -1.0000      0.0000  0.0000  0.0000  0.0000  0.0000  0.0000  0.0000  0.0000  0.0000  0.0000
atom =   2  type =  1  l = 2
 
 onsite density matrix
 
spin component  1
 
  1.0667  0.0000  0.0258  0.0000  0.0000
  0.0000  1.0758  0.0000  0.0233  0.0000
  0.0258  0.0000  1.0826  0.0000  0.0000
  0.0000  0.0233  0.0000  1.0758  0.0000
  0.0000  0.0000  0.0000  0.0000  1.1056
 
spin component  2
 
  0.0173  0.0000 -0.0581  0.0000 -0.0000
  0.0000 -0.0024  0.0000 -0.0523  0.0000
 -0.0581  0.0000 -0.0187  0.0000 -0.0000
  0.0000 -0.0523  0.0000 -0.0024  0.0000
 -0.0000  0.0000 -0.0000  0.0000 -0.0679
 
 occupancies and eigenvectors
 
  o = -0.0679  v =  0.0000  0.0000  0.0000  0.0000  0.0000  0.0000  0.0000  0.0000  0.0000  1.0000      0.0000  0.0000  0.0000  0.0000  0.0000  0.0000  0.0000  0.0000  0.0000  0.0000
  o = -0.0615  v =  0.0000  0.0000  0.0000  0.0000  0.0000 -0.5932  0.0000 -0.8050  0.0000  0.0000      0.0000  0.0000  0.0000  0.0000  0.0000  0.0000  0.0000  0.0000  0.0000  0.0000
  o = -0.0547  v =  0.0000  0.0000  0.0000  0.0000  0.0000  0.0000  0.7071  0.0000  0.7071 -0.0000      0.0000  0.0000  0.0000  0.0000  0.0000  0.0000  0.0000  0.0000  0.0000  0.0000
  o =  0.0499  v =  0.0000  0.0000  0.0000  0.0000  0.0000  0.0000  0.7071  0.0000 -0.7071 -0.0000      0.0000  0.0000  0.0000  0.0000  0.0000  0.0000  0.0000  0.0000  0.0000  0.0000
  o =  0.0601  v =  0.0000  0.0000  0.0000  0.0000  0.0000  0.8050  0.0000 -0.5932  0.0000  0.0000      0.0000  0.0000  0.0000  0.0000  0.0000  0.0000  0.0000  0.0000  0.0000  0.0000
  o =  1.0477  v = -0.8042  0.0000  0.5944  0.0000  0.0000  0.0000  0.0000  0.0000  0.0000  0.0000      0.0000  0.0000  0.0000  0.0000  0.0000  0.0000  0.0000  0.0000  0.0000  0.0000
  o =  1.0524  v =  0.0000  0.7071 -0.0000 -0.7071  0.0000  0.0000  0.0000  0.0000  0.0000  0.0000      0.0000  0.0000  0.0000  0.0000  0.0000  0.0000  0.0000  0.0000  0.0000  0.0000
  o =  1.0991  v =  0.0000 -0.7071  0.0000 -0.7071 -0.0000  0.0000  0.0000  0.0000  0.0000  0.0000      0.0000  0.0000  0.0000  0.0000  0.0000  0.0000  0.0000  0.0000  0.0000  0.0000
  o =  1.1017  v = -0.5944  0.0000 -0.8042  0.0000 -0.0000  0.0000  0.0000  0.0000  0.0000  0.0000      0.0000  0.0000  0.0000  0.0000  0.0000  0.0000  0.0000  0.0000  0.0000  0.0000
  o =  1.1056  v =  0.0000  0.0000  0.0000  0.0000 -1.0000  0.0000  0.0000  0.0000  0.0000  0.0000      0.0000  0.0000  0.0000  0.0000  0.0000  0.0000  0.0000  0.0000  0.0000  0.0000
     EDDAV:  cpu time    0.3941: real time    0.3941
       DOS:  cpu time    0.0004: real time    0.0004
    CHARGE:  cpu time    0.0656: real time    0.0656
    MIXING:  cpu time    0.0003: real time    0.0003
    --------------------------------------------
      LOOP:  cpu time    1.2596: real time    1.2596

 eigenvalue-minimisations  :  1584
 total energy-change (2. order) :-0.4204929E+03  (-0.2363908E+02)
 number of electron      53.9999994 magnetization      -0.0000000
 augmentation part       19.7510852 magnetization      -0.0000000

 Broyden mixing:
  rms(total) = 0.61078E+01    rms(broyden)= 0.61076E+01
  rms(prec ) = 0.66316E+01
  weight for this iteration     100.00

 eigenvalues of (default mixing * dielectric matrix)
  average eigenvalue GAMMA=   0.4186
  0.4186

 Free energy of the ion-electron system (eV)
  ---------------------------------------------------
  alpha Z        PSCENC =       199.38838823
  Ewald energy   TEWEN  =     -4203.06823030
  -Hartree energ DENC   =     -2176.91059550
  -exchange      EXHF   =         0.00000000
  -V(xc)+E(xc)   XCENC  =       143.95312531
  PAW double counting   =      6434.78477591    -6401.26738785
  entropy T*S    EENTRO =        -0.00165410
  eigenvalues    EBANDS =      -754.99512390
  atomic energy  EATOM  =      6688.27483813
  Solvation  Ediel_sol  =         0.00000000
  ---------------------------------------------------
  free energy    TOTEN  =       -69.84186405 eV

  energy without entropy =      -69.84020995  energy(sigma->0) =      -69.84103700


--------------------------------------------------------------------------------------------------------




--------------------------------------- Iteration      1(   7)  ---------------------------------------


    POTLOK:  cpu time    0.0162: real time    0.0162
    SETDIJ:  cpu time    0.7692: real time    0.7692
atom =   1  type =  1  l = 2
 
 onsite density matrix
 
spin component  1
 
  0.0764  0.0000  0.0336  0.0000  0.0000
  0.0000  0.0494  0.0000  0.0224  0.0000
  0.0336  0.0000  0.0511  0.0000 -0.0000
  0.0000  0.0224  0.0000  0.0494  0.0000
  0.0000  0.0000 -0.0000  0.0000  0.0189
 
spin component  2
 
  0.9768  0.0000 -0.0052  0.0000  0.0000
  0.0000  1.0042  0.0000  0.0078  0.0000
 -0.0052  0.0000  0.9893  0.0000  0.0000
  0.0000  0.0078  0.0000  1.0042  0.0000
  0.0000  0.0000  0.0000  0.0000  0.9988
 
 occupancies and eigenvectors
 
  o =  0.0189  v =  0.0000 -0.0000 -0.0000  0.0000 -1.0000  0.0000  0.0000  0.0000  0.0000  0.0000      0.0000  0.0000  0.0000  0.0000  0.0000  0.0000  0.0000  0.0000  0.0000  0.0000
  o =  0.0270  v = -0.0000 -0.7071  0.0000  0.7071  0.0000  0.0000  0.0000  0.0000  0.0000  0.0000      0.0000  0.0000  0.0000  0.0000  0.0000  0.0000  0.0000  0.0000  0.0000  0.0000
  o =  0.0278  v = -0.5689  0.0000  0.8224 -0.0000 -0.0000  0.0000  0.0000  0.0000  0.0000  0.0000      0.0000  0.0000  0.0000  0.0000  0.0000  0.0000  0.0000  0.0000  0.0000  0.0000
  o =  0.0719  v =  0.0000 -0.7071 -0.0000 -0.7071  0.0000  0.0000  0.0000  0.0000  0.0000  0.0000      0.0000  0.0000  0.0000  0.0000  0.0000  0.0000  0.0000  0.0000  0.0000  0.0000
  o =  0.0997  v = -0.8224 -0.0000 -0.5689 -0.0000  0.0000  0.0000  0.0000  0.0000  0.0000  0.0000      0.0000  0.0000  0.0000  0.0000  0.0000  0.0000  0.0000  0.0000  0.0000  0.0000
  o =  0.9749  v =  0.0000  0.0000  0.0000  0.0000  0.0000 -0.9402  0.0000 -0.3405  0.0000  0.0000      0.0000  0.0000  0.0000  0.0000  0.0000  0.0000  0.0000  0.0000  0.0000  0.0000
  o =  0.9911  v =  0.0000  0.0000  0.0000  0.0000  0.0000 -0.3405  0.0000  0.9402  0.0000 -0.0000      0.0000  0.0000  0.0000  0.0000  0.0000  0.0000  0.0000  0.0000  0.0000  0.0000
  o =  0.9964  v =  0.0000  0.0000  0.0000  0.0000  0.0000  0.0000  0.7071  0.0000 -0.7071  0.0000      0.0000  0.0000  0.0000  0.0000  0.0000  0.0000  0.0000  0.0000  0.0000  0.0000
  o =  0.9988  v =  0.0000  0.0000  0.0000  0.0000  0.0000  0.0000  0.0000 -0.0000  0.0000 -1.0000      0.0000  0.0000  0.0000  0.0000  0.0000  0.0000  0.0000  0.0000  0.0000  0.0000
  o =  1.0120  v =  0.0000  0.0000  0.0000  0.0000  0.0000  0.0000 -0.7071  0.0000 -0.7071 -0.0000      0.0000  0.0000  0.0000  0.0000  0.0000  0.0000  0.0000  0.0000  0.0000  0.0000
atom =   2  type =  1  l = 2
 
 onsite density matrix
 
spin component  1
 
  0.9768  0.0000  0.0052  0.0000  0.0000
  0.0000  1.0042  0.0000 -0.0078  0.0000
  0.0052  0.0000  0.9893  0.0000 -0.0000
  0.0000 -0.0078  0.0000  1.0042  0.0000
  0.0000  0.0000 -0.0000  0.0000  0.9988
 
spin component  2
 
  0.0764  0.0000 -0.0336  0.0000 -0.0000
  0.0000  0.0494  0.0000 -0.0224  0.0000
 -0.0336  0.0000  0.0511  0.0000 -0.0000
  0.0000 -0.0224  0.0000  0.0494  0.0000
 -0.0000  0.0000 -0.0000  0.0000  0.0189
 
 occupancies and eigenvectors
 
  o =  0.0189  v =  0.0000  0.0000  0.0000  0.0000  0.0000  0.0000 -0.0000  0.0000 -0.0000  1.0000      0.0000  0.0000  0.0000  0.0000  0.0000  0.0000  0.0000  0.0000  0.0000  0.0000
  o =  0.0270  v =  0.0000  0.0000  0.0000  0.0000  0.0000 -0.0000 -0.7071 -0.0000 -0.7071 -0.0000      0.0000  0.0000  0.0000  0.0000  0.0000  0.0000  0.0000  0.0000  0.0000  0.0000
  o =  0.0278  v =  0.0000  0.0000  0.0000  0.0000  0.0000 -0.5689  0.0000 -0.8224  0.0000  0.0000      0.0000  0.0000  0.0000  0.0000  0.0000  0.0000  0.0000  0.0000  0.0000  0.0000
  o =  0.0719  v =  0.0000  0.0000  0.0000  0.0000  0.0000  0.0000 -0.7071  0.0000  0.7071 -0.0000      0.0000  0.0000  0.0000  0.0000  0.0000  0.0000  0.0000  0.0000  0.0000  0.0000
  o =  0.0997  v =  0.0000  0.0000  0.0000  0.0000  0.0000 -0.8224 -0.0000  0.5689  0.0000 -0.0000      0.0000  0.0000  0.0000  0.0000  0.0000  0.0000  0.0000  0.0000  0.0000  0.0000
  o =  0.9749  v = -0.9402  0.0000  0.3405  0.0000  0.0000  0.0000  0.0000  0.0000  0.0000  0.0000      0.0000  0.0000  0.0000  0.0000  0.0000  0.0000  0.0000  0.0000  0.0000  0.0000
  o =  0.9911  v = -0.3405  0.0000 -0.9402  0.0000 -0.0000  0.0000  0.0000  0.0000  0.0000  0.0000      0.0000  0.0000  0.0000  0.0000  0.0000  0.0000  0.0000  0.0000  0.0000  0.0000
  o =  0.9964  v =  0.0000 -0.7071 -0.0000 -0.7071  0.0000  0.0000  0.0000  0.0000  0.0000  0.0000      0.0000  0.0000  0.0000  0.0000  0.0000  0.0000  0.0000  0.0000  0.0000  0.0000
  o =  0.9988  v =  0.0000 -0.0000  0.0000 -0.0000 -1.0000  0.0000  0.0000  0.0000  0.0000  0.0000      0.0000  0.0000  0.0000  0.0000  0.0000  0.0000  0.0000  0.0000  0.0000  0.0000
  o =  1.0120  v =  0.0000 -0.7071  0.0000  0.7071 -0.0000  0.0000  0.0000  0.0000  0.0000  0.0000      0.0000  0.0000  0.0000  0.0000  0.0000  0.0000  0.0000  0.0000  0.0000  0.0000
     EDDAV:  cpu time    0.3495: real time    0.3495
       DOS:  cpu time    0.0002: real time    0.0002
    CHARGE:  cpu time    0.0675: real time    0.0675
    MIXING:  cpu time    0.0004: real time    0.0004
    --------------------------------------------
      LOOP:  cpu time    1.2029: real time    1.2029

 eigenvalue-minimisations  :  1332
 total energy-change (2. order) :-0.2356016E+01  (-0.4687168E+01)
 number of electron      53.9999994 magnetization      -0.0000000
 augmentation part       19.8072925 magnetization      -0.0000000

 Broyden mixing:
  rms(total) = 0.17459E+01    rms(broyden)= 0.17451E+01
  rms(prec ) = 0.26752E+01
  weight for this iteration     100.00

 eigenvalues of (default mixing * dielectric matrix)
  average eigenvalue GAMMA=   0.6818
  0.6818  0.6818

 Free energy of the ion-electron system (eV)
  ---------------------------------------------------
  alpha Z        PSCENC =       199.38838823
  Ewald energy   TEWEN  =     -4203.06823030
  -Hartree energ DENC   =     -2164.14399869
  -exchange      EXHF   =         0.00000000
  -V(xc)+E(xc)   XCENC  =       168.07866605
  PAW double counting   =      6508.27982520    -6475.06130008
  entropy T*S    EENTRO =        -0.00000000
  eigenvalues    EBANDS =      -793.94606837
  atomic energy  EATOM  =      6688.27483813
  Solvation  Ediel_sol  =         0.00000000
  ---------------------------------------------------
  free energy    TOTEN  =       -72.19787982 eV

  energy without entropy =      -72.19787982  energy(sigma->0) =      -72.19787982


--------------------------------------------------------------------------------------------------------




--------------------------------------- Iteration      1(   8)  ---------------------------------------


    POTLOK:  cpu time    0.0164: real time    0.0164
    SETDIJ:  cpu time    0.7691: real time    0.7691
atom =   1  type =  1  l = 2
 
 onsite density matrix
 
spin component  1
 
  0.0436  0.0000  0.0145  0.0000 -0.0000
  0.0000  0.0463  0.0000  0.0194  0.0000
  0.0145  0.0000  0.0379  0.0000 -0.0000
  0.0000  0.0194  0.0000  0.0463  0.0000
 -0.0000  0.0000 -0.0000  0.0000  0.0222
 
spin component  2
 
  0.9929  0.0000  0.0202  0.0000  0.0000
  0.0000  0.9855  0.0000  0.0121  0.0000
  0.0202  0.0000  0.9822  0.0000  0.0000
  0.0000  0.0121  0.0000  0.9855  0.0000
  0.0000  0.0000  0.0000  0.0000  0.9733
 
 occupancies and eigenvectors
 
  o =  0.0222  v = -0.0000  0.0000  0.0000 -0.0000  1.0000  0.0000  0.0000  0.0000  0.0000  0.0000      0.0000  0.0000  0.0000  0.0000  0.0000  0.0000  0.0000  0.0000  0.0000  0.0000
  o =  0.0260  v = -0.6343  0.0000  0.7731 -0.0000 -0.0000  0.0000  0.0000  0.0000  0.0000  0.0000      0.0000  0.0000  0.0000  0.0000  0.0000  0.0000  0.0000  0.0000  0.0000  0.0000
  o =  0.0269  v = -0.0000 -0.7071  0.0000  0.7071  0.0000  0.0000  0.0000  0.0000  0.0000  0.0000      0.0000  0.0000  0.0000  0.0000  0.0000  0.0000  0.0000  0.0000  0.0000  0.0000
  o =  0.0555  v = -0.7731 -0.0000 -0.6343 -0.0000  0.0000  0.0000  0.0000  0.0000  0.0000  0.0000      0.0000  0.0000  0.0000  0.0000  0.0000  0.0000  0.0000  0.0000  0.0000  0.0000
  o =  0.0656  v = -0.0000  0.7071 -0.0000  0.7071 -0.0000  0.0000  0.0000  0.0000  0.0000  0.0000      0.0000  0.0000  0.0000  0.0000  0.0000  0.0000  0.0000  0.0000  0.0000  0.0000
  o =  0.9667  v =  0.0000  0.0000  0.0000  0.0000  0.0000 -0.6106  0.0000  0.7919  0.0000  0.0000      0.0000  0.0000  0.0000  0.0000  0.0000  0.0000  0.0000  0.0000  0.0000  0.0000
  o =  0.9733  v =  0.0000  0.0000  0.0000  0.0000  0.0000  0.0000 -0.0000 -0.0000  0.0000  1.0000      0.0000  0.0000  0.0000  0.0000  0.0000  0.0000  0.0000  0.0000  0.0000  0.0000
  o =  0.9734  v =  0.0000  0.0000  0.0000  0.0000  0.0000  0.0000  0.7071  0.0000 -0.7071  0.0000      0.0000  0.0000  0.0000  0.0000  0.0000  0.0000  0.0000  0.0000  0.0000  0.0000
  o =  0.9976  v =  0.0000  0.0000  0.0000  0.0000  0.0000  0.0000 -0.7071  0.0000 -0.7071 -0.0000      0.0000  0.0000  0.0000  0.0000  0.0000  0.0000  0.0000  0.0000  0.0000  0.0000
  o =  1.0085  v =  0.0000  0.0000  0.0000  0.0000  0.0000 -0.7919  0.0000 -0.6106  0.0000 -0.0000      0.0000  0.0000  0.0000  0.0000  0.0000  0.0000  0.0000  0.0000  0.0000  0.0000
atom =   2  type =  1  l = 2
 
 onsite density matrix
 
spin component  1
 
  0.9929  0.0000 -0.0202  0.0000  0.0000
  0.0000  0.9855  0.0000 -0.0121  0.0000
 -0.0202  0.0000  0.9822  0.0000 -0.0000
  0.0000 -0.0121  0.0000  0.9855  0.0000
  0.0000  0.0000 -0.0000  0.0000  0.9733
 
spin component  2
 
  0.0436  0.0000 -0.0145  0.0000 -0.0000
  0.0000  0.0463  0.0000 -0.0194  0.0000
 -0.0145  0.0000  0.0379  0.0000 -0.0000
  0.0000 -0.0194  0.0000  0.0463  0.0000
 -0.0000  0.0000 -0.0000  0.0000  0.0222
 
 occupancies and eigenvectors
 
  o =  0.0222  v =  0.0000  0.0000  0.0000  0.0000  0.0000  0.0000  0.0000  0.0000  0.0000  1.0000      0.0000  0.0000  0.0000  0.0000  0.0000  0.0000  0.0000  0.0000  0.0000  0.0000
  o =  0.0260  v =  0.0000  0.0000  0.0000  0.0000  0.0000 -0.6343  0.0000 -0.7731  0.0000  0.0000      0.0000  0.0000  0.0000  0.0000  0.0000  0.0000  0.0000  0.0000  0.0000  0.0000
  o =  0.0269  v =  0.0000  0.0000  0.0000  0.0000  0.0000  0.0000 -0.7071  0.0000 -0.7071  0.0000      0.0000  0.0000  0.0000  0.0000  0.0000  0.0000  0.0000  0.0000  0.0000  0.0000
  o =  0.0555  v =  0.0000  0.0000  0.0000  0.0000  0.0000 -0.7731 -0.0000  0.6343  0.0000 -0.0000      0.0000  0.0000  0.0000  0.0000  0.0000  0.0000  0.0000  0.0000  0.0000  0.0000
  o =  0.0656  v =  0.0000  0.0000  0.0000  0.0000  0.0000  0.0000  0.7071  0.0000 -0.7071 -0.0000      0.0000  0.0000  0.0000  0.0000  0.0000  0.0000  0.0000  0.0000  0.0000  0.0000
  o =  0.9667  v = -0.6106  0.0000 -0.7919  0.0000  0.0000  0.0000  0.0000  0.0000  0.0000  0.0000      0.0000  0.0000  0.0000  0.0000  0.0000  0.0000  0.0000  0.0000  0.0000  0.0000
  o =  0.9733  v =  0.0000 -0.0000  0.0000  0.0000  1.0000  0.0000  0.0000  0.0000  0.0000  0.0000      0.0000  0.0000  0.0000  0.0000  0.0000  0.0000  0.0000  0.0000  0.0000  0.0000
  o =  0.9734  v =  0.0000 -0.7071  0.0000 -0.7071 -0.0000  0.0000  0.0000  0.0000  0.0000  0.0000      0.0000  0.0000  0.0000  0.0000  0.0000  0.0000  0.0000  0.0000  0.0000  0.0000
  o =  0.9976  v =  0.0000  0.7071  0.0000 -0.7071  0.0000  0.0000  0.0000  0.0000  0.0000  0.0000      0.0000  0.0000  0.0000  0.0000  0.0000  0.0000  0.0000  0.0000  0.0000  0.0000
  o =  1.0085  v = -0.7919  0.0000  0.6106  0.0000 -0.0000  0.0000  0.0000  0.0000  0.0000  0.0000      0.0000  0.0000  0.0000  0.0000  0.0000  0.0000  0.0000  0.0000  0.0000  0.0000
     EDDAV:  cpu time    0.3790: real time    0.3790
       DOS:  cpu time    0.0002: real time    0.0002
    CHARGE:  cpu time    0.0663: real time    0.0663
    MIXING:  cpu time    0.0004: real time    0.0004
    --------------------------------------------
      LOOP:  cpu time    1.2313: real time    1.2314

 eigenvalue-minimisations  :  1500
 total energy-change (2. order) : 0.3354686E+01  (-0.6211145E+00)
 number of electron      53.9999993 magnetization       0.0000000
 augmentation part       19.8978034 magnetization       0.0000000

 Broyden mixing:
  rms(total) = 0.79961E+00    rms(broyden)= 0.79905E+00
  rms(prec ) = 0.12349E+01
  weight for this iteration     100.00

 eigenvalues of (default mixing * dielectric matrix)
  average eigenvalue GAMMA=   0.8094
  1.0781  0.6751  0.6751

 Free energy of the ion-electron system (eV)
  ---------------------------------------------------
  alpha Z        PSCENC =       199.38838823
  Ewald energy   TEWEN  =     -4203.06823030
  -Hartree energ DENC   =     -2166.28359847
  -exchange      EXHF   =         0.00000000
  -V(xc)+E(xc)   XCENC  =       171.12352062
  PAW double counting   =      6452.63841617    -6417.57892699
  entropy T*S    EENTRO =        -0.00000000
  eigenvalues    EBANDS =      -793.33760072
  atomic energy  EATOM  =      6688.27483813
  Solvation  Ediel_sol  =         0.00000000
  ---------------------------------------------------
  free energy    TOTEN  =       -68.84319332 eV

  energy without entropy =      -68.84319332  energy(sigma->0) =      -68.84319332


--------------------------------------------------------------------------------------------------------




--------------------------------------- Iteration      1(   9)  ---------------------------------------


    POTLOK:  cpu time    0.0163: real time    0.0163
    SETDIJ:  cpu time    0.7700: real time    0.7700
atom =   1  type =  1  l = 2
 
 onsite density matrix
 
spin component  1
 
  0.0683  0.0000  0.0384  0.0000 -0.0000
  0.0000  0.0453  0.0000  0.0209  0.0000
  0.0384  0.0000  0.0475  0.0000  0.0000
  0.0000  0.0209  0.0000  0.0453  0.0000
 -0.0000  0.0000  0.0000  0.0000  0.0205
 
spin component  2
 
  0.9469  0.0000  0.0045  0.0000  0.0000
  0.0000  0.9570  0.0000  0.0137  0.0000
  0.0045  0.0000  0.9446  0.0000 -0.0000
  0.0000  0.0137  0.0000  0.9570  0.0000
  0.0000  0.0000 -0.0000  0.0000  0.9439
 
 occupancies and eigenvectors
 
  o =  0.0181  v = -0.6078  0.0000  0.7941 -0.0000 -0.0000  0.0000  0.0000  0.0000  0.0000  0.0000      0.0000  0.0000  0.0000  0.0000  0.0000  0.0000  0.0000  0.0000  0.0000  0.0000
  o =  0.0205  v =  0.0000 -0.0000 -0.0000  0.0000 -1.0000  0.0000  0.0000  0.0000  0.0000  0.0000      0.0000  0.0000  0.0000  0.0000  0.0000  0.0000  0.0000  0.0000  0.0000  0.0000
  o =  0.0244  v =  0.0000  0.7071 -0.0000 -0.7071 -0.0000  0.0000  0.0000  0.0000  0.0000  0.0000      0.0000  0.0000  0.0000  0.0000  0.0000  0.0000  0.0000  0.0000  0.0000  0.0000
  o =  0.0662  v =  0.0000  0.7071 -0.0000  0.7071 -0.0000  0.0000  0.0000  0.0000  0.0000  0.0000      0.0000  0.0000  0.0000  0.0000  0.0000  0.0000  0.0000  0.0000  0.0000  0.0000
  o =  0.0977  v = -0.7941  0.0000 -0.6078  0.0000 -0.0000  0.0000  0.0000  0.0000  0.0000  0.0000      0.0000  0.0000  0.0000  0.0000  0.0000  0.0000  0.0000  0.0000  0.0000  0.0000
  o =  0.9411  v =  0.0000  0.0000  0.0000  0.0000  0.0000 -0.6119  0.0000  0.7910 -0.0000  0.0000      0.0000  0.0000  0.0000  0.0000  0.0000  0.0000  0.0000  0.0000  0.0000  0.0000
  o =  0.9433  v =  0.0000  0.0000  0.0000  0.0000  0.0000 -0.0000 -0.7071  0.0000  0.7071 -0.0000      0.0000  0.0000  0.0000  0.0000  0.0000  0.0000  0.0000  0.0000  0.0000  0.0000
  o =  0.9439  v =  0.0000  0.0000  0.0000  0.0000  0.0000  0.0000 -0.0000 -0.0000  0.0000  1.0000      0.0000  0.0000  0.0000  0.0000  0.0000  0.0000  0.0000  0.0000  0.0000  0.0000
  o =  0.9504  v =  0.0000  0.0000  0.0000  0.0000  0.0000 -0.7910  0.0000 -0.6119 -0.0000  0.0000      0.0000  0.0000  0.0000  0.0000  0.0000  0.0000  0.0000  0.0000  0.0000  0.0000
  o =  0.9707  v =  0.0000  0.0000  0.0000  0.0000  0.0000  0.0000 -0.7071  0.0000 -0.7071  0.0000      0.0000  0.0000  0.0000  0.0000  0.0000  0.0000  0.0000  0.0000  0.0000  0.0000
atom =   2  type =  1  l = 2
 
 onsite density matrix
 
spin component  1
 
  0.9469  0.0000 -0.0045  0.0000 -0.0000
  0.0000  0.9570  0.0000 -0.0137  0.0000
 -0.0045  0.0000  0.9446  0.0000 -0.0000
  0.0000 -0.0137  0.0000  0.9570  0.0000
 -0.0000  0.0000 -0.0000  0.0000  0.9439
 
spin component  2
 
  0.0683  0.0000 -0.0384  0.0000  0.0000
  0.0000  0.0453  0.0000 -0.0209  0.0000
 -0.0384  0.0000  0.0475  0.0000  0.0000
  0.0000 -0.0209  0.0000  0.0453  0.0000
  0.0000  0.0000  0.0000  0.0000  0.0205
 
 occupancies and eigenvectors
 
  o =  0.0181  v =  0.0000  0.0000  0.0000  0.0000  0.0000 -0.6078 -0.0000 -0.7941  0.0000  0.0000      0.0000  0.0000  0.0000  0.0000  0.0000  0.0000  0.0000  0.0000  0.0000  0.0000
  o =  0.0205  v =  0.0000  0.0000  0.0000  0.0000  0.0000 -0.0000  0.0000 -0.0000  0.0000 -1.0000      0.0000  0.0000  0.0000  0.0000  0.0000  0.0000  0.0000  0.0000  0.0000  0.0000
  o =  0.0244  v =  0.0000  0.0000  0.0000  0.0000  0.0000  0.0000 -0.7071  0.0000 -0.7071 -0.0000      0.0000  0.0000  0.0000  0.0000  0.0000  0.0000  0.0000  0.0000  0.0000  0.0000
  o =  0.0662  v =  0.0000  0.0000  0.0000  0.0000  0.0000  0.0000 -0.7071  0.0000  0.7071 -0.0000      0.0000  0.0000  0.0000  0.0000  0.0000  0.0000  0.0000  0.0000  0.0000  0.0000
  o =  0.0977  v =  0.0000  0.0000  0.0000  0.0000  0.0000 -0.7941 -0.0000  0.6078  0.0000  0.0000      0.0000  0.0000  0.0000  0.0000  0.0000  0.0000  0.0000  0.0000  0.0000  0.0000
  o =  0.9411  v = -0.6119 -0.0000 -0.7910  0.0000 -0.0000  0.0000  0.0000  0.0000  0.0000  0.0000      0.0000  0.0000  0.0000  0.0000  0.0000  0.0000  0.0000  0.0000  0.0000  0.0000
  o =  0.9433  v =  0.0000  0.7071  0.0000  0.7071 -0.0000  0.0000  0.0000  0.0000  0.0000  0.0000      0.0000  0.0000  0.0000  0.0000  0.0000  0.0000  0.0000  0.0000  0.0000  0.0000
  o =  0.9439  v = -0.0000  0.0000 -0.0000  0.0000  1.0000  0.0000  0.0000  0.0000  0.0000  0.0000      0.0000  0.0000  0.0000  0.0000  0.0000  0.0000  0.0000  0.0000  0.0000  0.0000
  o =  0.9504  v = -0.7910 -0.0000  0.6119  0.0000 -0.0000  0.0000  0.0000  0.0000  0.0000  0.0000      0.0000  0.0000  0.0000  0.0000  0.0000  0.0000  0.0000  0.0000  0.0000  0.0000
  o =  0.9707  v =  0.0000  0.7071  0.0000 -0.7071 -0.0000  0.0000  0.0000  0.0000  0.0000  0.0000      0.0000  0.0000  0.0000  0.0000  0.0000  0.0000  0.0000  0.0000  0.0000  0.0000
     EDDAV:  cpu time    0.3781: real time    0.3781
       DOS:  cpu time    0.0002: real time    0.0002
    CHARGE:  cpu time    0.0667: real time    0.0667
    MIXING:  cpu time    0.0004: real time    0.0004
    --------------------------------------------
      LOOP:  cpu time    1.2317: real time    1.2318

 eigenvalue-minimisations  :  1500
 total energy-change (2. order) : 0.6264275E+00  (-0.8714372E+00)
 number of electron      53.9999993 magnetization       0.0000000
 augmentation part       19.9590416 magnetization       0.0000000

 Broyden mixing:
  rms(total) = 0.88941E+00    rms(broyden)= 0.88919E+00
  rms(prec ) = 0.10460E+01
  weight for this iteration     100.00

 eigenvalues of (default mixing * dielectric matrix)
  average eigenvalue GAMMA=   0.9177
  1.6589  0.7242  0.7242  0.5633

 Free energy of the ion-electron system (eV)
  ---------------------------------------------------
  alpha Z        PSCENC =       199.38838823
  Ewald energy   TEWEN  =     -4203.06823030
  -Hartree energ DENC   =     -2169.18131837
  -exchange      EXHF   =         0.00000000
  -V(xc)+E(xc)   XCENC  =       169.30060320
  PAW double counting   =      6487.01337894    -6450.24404211
  entropy T*S    EENTRO =        -0.00000000
  eigenvalues    EBANDS =      -789.70038351
  atomic energy  EATOM  =      6688.27483813
  Solvation  Ediel_sol  =         0.00000000
  ---------------------------------------------------
  free energy    TOTEN  =       -68.21676578 eV

  energy without entropy =      -68.21676578  energy(sigma->0) =      -68.21676578


--------------------------------------------------------------------------------------------------------




--------------------------------------- Iteration      1(  10)  ---------------------------------------


    POTLOK:  cpu time    0.0164: real time    0.0164
    SETDIJ:  cpu time    0.7692: real time    0.7692
atom =   1  type =  1  l = 2
 
 onsite density matrix
 
spin component  1
 
  0.0530  0.0000  0.0203  0.0000  0.0000
  0.0000  0.0510  0.0000  0.0200  0.0000
  0.0203  0.0000  0.0437  0.0000  0.0000
  0.0000  0.0200  0.0000  0.0510  0.0000
  0.0000  0.0000  0.0000  0.0000  0.0285
 
spin component  2
 
  0.9611  0.0000  0.0240  0.0000 -0.0000
  0.0000  0.9510  0.0000  0.0163  0.0000
  0.0240  0.0000  0.9472  0.0000  0.0000
  0.0000  0.0163  0.0000  0.9510  0.0000
 -0.0000  0.0000  0.0000  0.0000  0.9339
 
 occupancies and eigenvectors
 
  o =  0.0275  v = -0.6232  0.0000  0.7820  0.0000 -0.0000  0.0000  0.0000  0.0000  0.0000  0.0000      0.0000  0.0000  0.0000  0.0000  0.0000  0.0000  0.0000  0.0000  0.0000  0.0000
  o =  0.0285  v = -0.0000 -0.0000  0.0000  0.0000  1.0000  0.0000  0.0000  0.0000  0.0000  0.0000      0.0000  0.0000  0.0000  0.0000  0.0000  0.0000  0.0000  0.0000  0.0000  0.0000
  o =  0.0310  v =  0.0000  0.7071  0.0000 -0.7071  0.0000  0.0000  0.0000  0.0000  0.0000  0.0000      0.0000  0.0000  0.0000  0.0000  0.0000  0.0000  0.0000  0.0000  0.0000  0.0000
  o =  0.0692  v = -0.7820  0.0000 -0.6232  0.0000 -0.0000  0.0000  0.0000  0.0000  0.0000  0.0000      0.0000  0.0000  0.0000  0.0000  0.0000  0.0000  0.0000  0.0000  0.0000  0.0000
  o =  0.0710  v =  0.0000 -0.7071  0.0000 -0.7071 -0.0000  0.0000  0.0000  0.0000  0.0000  0.0000      0.0000  0.0000  0.0000  0.0000  0.0000  0.0000  0.0000  0.0000  0.0000  0.0000
  o =  0.9291  v =  0.0000  0.0000  0.0000  0.0000  0.0000 -0.6014  0.0000  0.7990  0.0000 -0.0000      0.0000  0.0000  0.0000  0.0000  0.0000  0.0000  0.0000  0.0000  0.0000  0.0000
  o =  0.9339  v =  0.0000  0.0000  0.0000  0.0000  0.0000  0.0000  0.0000  0.0000  0.0000  1.0000      0.0000  0.0000  0.0000  0.0000  0.0000  0.0000  0.0000  0.0000  0.0000  0.0000
  o =  0.9347  v =  0.0000  0.0000  0.0000  0.0000  0.0000  0.0000  0.7071  0.0000 -0.7071 -0.0000      0.0000  0.0000  0.0000  0.0000  0.0000  0.0000  0.0000  0.0000  0.0000  0.0000
  o =  0.9673  v =  0.0000  0.0000  0.0000  0.0000  0.0000  0.0000 -0.7071  0.0000 -0.7071  0.0000      0.0000  0.0000  0.0000  0.0000  0.0000  0.0000  0.0000  0.0000  0.0000  0.0000
  o =  0.9792  v =  0.0000  0.0000  0.0000  0.0000  0.0000 -0.7990  0.0000 -0.6014  0.0000  0.0000      0.0000  0.0000  0.0000  0.0000  0.0000  0.0000  0.0000  0.0000  0.0000  0.0000
atom =   2  type =  1  l = 2
 
 onsite density matrix
 
spin component  1
 
  0.9611  0.0000 -0.0240  0.0000 -0.0000
  0.0000  0.9510  0.0000 -0.0163  0.0000
 -0.0240  0.0000  0.9472  0.0000 -0.0000
  0.0000 -0.0163  0.0000  0.9510  0.0000
 -0.0000  0.0000 -0.0000  0.0000  0.9339
 
spin component  2
 
  0.0530  0.0000 -0.0203  0.0000  0.0000
  0.0000  0.0510  0.0000 -0.0200  0.0000
 -0.0203  0.0000  0.0437  0.0000  0.0000
  0.0000 -0.0200  0.0000  0.0510  0.0000
  0.0000  0.0000  0.0000  0.0000  0.0285
 
 occupancies and eigenvectors
 
  o =  0.0275  v =  0.0000  0.0000  0.0000  0.0000  0.0000 -0.6232 -0.0000 -0.7820  0.0000  0.0000      0.0000  0.0000  0.0000  0.0000  0.0000  0.0000  0.0000  0.0000  0.0000  0.0000
  o =  0.0285  v =  0.0000  0.0000  0.0000  0.0000  0.0000 -0.0000  0.0000 -0.0000  0.0000 -1.0000      0.0000  0.0000  0.0000  0.0000  0.0000  0.0000  0.0000  0.0000  0.0000  0.0000
  o =  0.0310  v =  0.0000  0.0000  0.0000  0.0000  0.0000  0.0000 -0.7071  0.0000 -0.7071 -0.0000      0.0000  0.0000  0.0000  0.0000  0.0000  0.0000  0.0000  0.0000  0.0000  0.0000
  o =  0.0692  v =  0.0000  0.0000  0.0000  0.0000  0.0000 -0.7820 -0.0000  0.6232  0.0000  0.0000      0.0000  0.0000  0.0000  0.0000  0.0000  0.0000  0.0000  0.0000  0.0000  0.0000
  o =  0.0710  v =  0.0000  0.0000  0.0000  0.0000  0.0000  0.0000 -0.7071  0.0000  0.7071 -0.0000      0.0000  0.0000  0.0000  0.0000  0.0000  0.0000  0.0000  0.0000  0.0000  0.0000
  o =  0.9291  v = -0.6014 -0.0000 -0.7990  0.0000 -0.0000  0.0000  0.0000  0.0000  0.0000  0.0000      0.0000  0.0000  0.0000  0.0000  0.0000  0.0000  0.0000  0.0000  0.0000  0.0000
  o =  0.9339  v = -0.0000  0.0000 -0.0000  0.0000  1.0000  0.0000  0.0000  0.0000  0.0000  0.0000      0.0000  0.0000  0.0000  0.0000  0.0000  0.0000  0.0000  0.0000  0.0000  0.0000
  o =  0.9347  v =  0.0000 -0.7071  0.0000 -0.7071  0.0000  0.0000  0.0000  0.0000  0.0000  0.0000      0.0000  0.0000  0.0000  0.0000  0.0000  0.0000  0.0000  0.0000  0.0000  0.0000
  o =  0.9673  v =  0.0000  0.7071  0.0000 -0.7071 -0.0000  0.0000  0.0000  0.0000  0.0000  0.0000      0.0000  0.0000  0.0000  0.0000  0.0000  0.0000  0.0000  0.0000  0.0000  0.0000
  o =  0.9792  v = -0.7990 -0.0000  0.6014  0.0000 -0.0000  0.0000  0.0000  0.0000  0.0000  0.0000      0.0000  0.0000  0.0000  0.0000  0.0000  0.0000  0.0000  0.0000  0.0000  0.0000
     EDDAV:  cpu time    0.3520: real time    0.3520
       DOS:  cpu time    0.0002: real time    0.0002
    CHARGE:  cpu time    0.0670: real time    0.0670
    MIXING:  cpu time    0.0004: real time    0.0004
    --------------------------------------------
      LOOP:  cpu time    1.2052: real time    1.2052

 eigenvalue-minimisations  :  1344
 total energy-change (2. order) :-0.3141200E-02  (-0.7603251E-01)
 number of electron      53.9999993 magnetization       0.0000000
 augmentation part       19.9223526 magnetization       0.0000000

 Broyden mixing:
  rms(total) = 0.74941E+00    rms(broyden)= 0.74940E+00
  rms(prec ) = 0.89455E+00
  weight for this iteration     100.00

 eigenvalues of (default mixing * dielectric matrix)
  average eigenvalue GAMMA=   0.9711
  1.9403  0.9239  0.9239  0.5336  0.5336

 Free energy of the ion-electron system (eV)
  ---------------------------------------------------
  alpha Z        PSCENC =       199.38838823
  Ewald energy   TEWEN  =     -4203.06823030
  -Hartree energ DENC   =     -2161.99575233
  -exchange      EXHF   =         0.00000000
  -V(xc)+E(xc)   XCENC  =       165.56401480
  PAW double counting   =      6541.14681353    -6505.45123919
  entropy T*S    EENTRO =        -0.00000000
  eigenvalues    EBANDS =      -792.07873986
  atomic energy  EATOM  =      6688.27483813
  Solvation  Ediel_sol  =         0.00000000
  ---------------------------------------------------
  free energy    TOTEN  =       -68.21990698 eV

  energy without entropy =      -68.21990698  energy(sigma->0) =      -68.21990698


--------------------------------------------------------------------------------------------------------




--------------------------------------- Iteration      1(  11)  ---------------------------------------


    POTLOK:  cpu time    0.0165: real time    0.0165
    SETDIJ:  cpu time    0.7685: real time    0.7685
atom =   1  type =  1  l = 2
 
 onsite density matrix
 
spin component  1
 
  0.0528  0.0000  0.0250  0.0000  0.0000
  0.0000  0.0484  0.0000  0.0222  0.0000
  0.0250  0.0000  0.0415  0.0000 -0.0000
  0.0000  0.0222  0.0000  0.0484  0.0000
  0.0000  0.0000 -0.0000  0.0000  0.0231
 
spin component  2
 
  0.9624  0.0000  0.0218  0.0000  0.0000
  0.0000  0.9549  0.0000  0.0168  0.0000
  0.0218  0.0000  0.9493  0.0000  0.0000
  0.0000  0.0168  0.0000  0.9549  0.0000
  0.0000  0.0000  0.0000  0.0000  0.9380
 
 occupancies and eigenvectors
 
  o =  0.0215  v = -0.6246  0.0000  0.7809 -0.0000  0.0000  0.0000  0.0000  0.0000  0.0000  0.0000      0.0000  0.0000  0.0000  0.0000  0.0000  0.0000  0.0000  0.0000  0.0000  0.0000
  o =  0.0231  v =  0.0000 -0.0000 -0.0000  0.0000  1.0000  0.0000  0.0000  0.0000  0.0000  0.0000      0.0000  0.0000  0.0000  0.0000  0.0000  0.0000  0.0000  0.0000  0.0000  0.0000
  o =  0.0263  v = -0.0000 -0.7071  0.0000  0.7071 -0.0000  0.0000  0.0000  0.0000  0.0000  0.0000      0.0000  0.0000  0.0000  0.0000  0.0000  0.0000  0.0000  0.0000  0.0000  0.0000
  o =  0.0706  v =  0.0000  0.7071  0.0000  0.7071  0.0000  0.0000  0.0000  0.0000  0.0000  0.0000      0.0000  0.0000  0.0000  0.0000  0.0000  0.0000  0.0000  0.0000  0.0000  0.0000
  o =  0.0728  v = -0.7809  0.0000 -0.6246  0.0000  0.0000  0.0000  0.0000  0.0000  0.0000  0.0000      0.0000  0.0000  0.0000  0.0000  0.0000  0.0000  0.0000  0.0000  0.0000  0.0000
  o =  0.9331  v =  0.0000  0.0000  0.0000  0.0000  0.0000 -0.5973  0.0000  0.8020 -0.0000 -0.0000      0.0000  0.0000  0.0000  0.0000  0.0000  0.0000  0.0000  0.0000  0.0000  0.0000
  o =  0.9380  v =  0.0000  0.0000  0.0000  0.0000  0.0000 -0.0000  0.0000  0.0000 -0.0000  1.0000      0.0000  0.0000  0.0000  0.0000  0.0000  0.0000  0.0000  0.0000  0.0000  0.0000
  o =  0.9381  v =  0.0000  0.0000  0.0000  0.0000  0.0000 -0.0000 -0.7071  0.0000  0.7071  0.0000      0.0000  0.0000  0.0000  0.0000  0.0000  0.0000  0.0000  0.0000  0.0000  0.0000
  o =  0.9717  v =  0.0000  0.0000  0.0000  0.0000  0.0000 -0.0000 -0.7071 -0.0000 -0.7071 -0.0000      0.0000  0.0000  0.0000  0.0000  0.0000  0.0000  0.0000  0.0000  0.0000  0.0000
  o =  0.9786  v =  0.0000  0.0000  0.0000  0.0000  0.0000 -0.8020  0.0000 -0.5973  0.0000 -0.0000      0.0000  0.0000  0.0000  0.0000  0.0000  0.0000  0.0000  0.0000  0.0000  0.0000
atom =   2  type =  1  l = 2
 
 onsite density matrix
 
spin component  1
 
  0.9624  0.0000 -0.0218  0.0000  0.0000
  0.0000  0.9549  0.0000 -0.0168  0.0000
 -0.0218  0.0000  0.9493  0.0000 -0.0000
  0.0000 -0.0168  0.0000  0.9549  0.0000
  0.0000  0.0000 -0.0000  0.0000  0.9380
 
spin component  2
 
  0.0528  0.0000 -0.0250  0.0000  0.0000
  0.0000  0.0484  0.0000 -0.0222  0.0000
 -0.0250  0.0000  0.0415  0.0000  0.0000
  0.0000 -0.0222  0.0000  0.0484  0.0000
  0.0000  0.0000  0.0000  0.0000  0.0231
 
 occupancies and eigenvectors
 
  o =  0.0215  v =  0.0000  0.0000  0.0000  0.0000  0.0000 -0.6246 -0.0000 -0.7809  0.0000  0.0000      0.0000  0.0000  0.0000  0.0000  0.0000  0.0000  0.0000  0.0000  0.0000  0.0000
  o =  0.0231  v =  0.0000  0.0000  0.0000  0.0000  0.0000 -0.0000  0.0000 -0.0000  0.0000 -1.0000      0.0000  0.0000  0.0000  0.0000  0.0000  0.0000  0.0000  0.0000  0.0000  0.0000
  o =  0.0263  v =  0.0000  0.0000  0.0000  0.0000  0.0000  0.0000 -0.7071  0.0000 -0.7071 -0.0000      0.0000  0.0000  0.0000  0.0000  0.0000  0.0000  0.0000  0.0000  0.0000  0.0000
  o =  0.0706  v =  0.0000  0.0000  0.0000  0.0000  0.0000  0.0000 -0.7071  0.0000  0.7071 -0.0000      0.0000  0.0000  0.0000  0.0000  0.0000  0.0000  0.0000  0.0000  0.0000  0.0000
  o =  0.0728  v =  0.0000  0.0000  0.0000  0.0000  0.0000 -0.7809 -0.0000  0.6246  0.0000  0.0000      0.0000  0.0000  0.0000  0.0000  0.0000  0.0000  0.0000  0.0000  0.0000  0.0000
  o =  0.9331  v = -0.5973  0.0000 -0.8020  0.0000 -0.0000  0.0000  0.0000  0.0000  0.0000  0.0000      0.0000  0.0000  0.0000  0.0000  0.0000  0.0000  0.0000  0.0000  0.0000  0.0000
  o =  0.9380  v = -0.0000 -0.0000 -0.0000 -0.0000  1.0000  0.0000  0.0000  0.0000  0.0000  0.0000      0.0000  0.0000  0.0000  0.0000  0.0000  0.0000  0.0000  0.0000  0.0000  0.0000
  o =  0.9381  v = -0.0000 -0.7071 -0.0000 -0.7071 -0.0000  0.0000  0.0000  0.0000  0.0000  0.0000      0.0000  0.0000  0.0000  0.0000  0.0000  0.0000  0.0000  0.0000  0.0000  0.0000
  o =  0.9717  v = -0.0000 -0.7071  0.0000  0.7071 -0.0000  0.0000  0.0000  0.0000  0.0000  0.0000      0.0000  0.0000  0.0000  0.0000  0.0000  0.0000  0.0000  0.0000  0.0000  0.0000
  o =  0.9786  v = -0.8020  0.0000  0.5973 -0.0000 -0.0000  0.0000  0.0000  0.0000  0.0000  0.0000      0.0000  0.0000  0.0000  0.0000  0.0000  0.0000  0.0000  0.0000  0.0000  0.0000
     EDDAV:  cpu time    0.3830: real time    0.3830
       DOS:  cpu time    0.0002: real time    0.0002
    CHARGE:  cpu time    0.0679: real time    0.0679
    MIXING:  cpu time    0.0005: real time    0.0005
    --------------------------------------------
      LOOP:  cpu time    1.2366: real time    1.2366

 eigenvalue-minimisations  :  1512
 total energy-change (2. order) : 0.2139970E+00  (-0.5138472E-01)
 number of electron      53.9999993 magnetization       0.0000000
 augmentation part       19.9935945 magnetization       0.0000000

 Broyden mixing:
  rms(total) = 0.44711E+00    rms(broyden)= 0.44707E+00
  rms(prec ) = 0.47715E+00
  weight for this iteration     100.00

 eigenvalues of (default mixing * dielectric matrix)
  average eigenvalue GAMMA=   1.1748
  3.2124  0.9837  0.9837  0.5900  0.6394  0.6394

 Free energy of the ion-electron system (eV)
  ---------------------------------------------------
[...]
      1     -48.4807      1.00000
      2     -48.4445      1.00000
      3     -48.4153      1.00000
      4     -42.0010      1.00000
      5     -41.9635      1.00000
      6     -41.9180      1.00000
      7     -22.4071      1.00000
      8     -22.2526      1.00000
      9     -22.2016      1.00000
     10     -22.1173      1.00000
     11      -4.2617      1.00000
     12      -3.9978      1.00000
     13      -3.8099      1.00000
     14      -3.5961      1.00000
     15      -3.4742      1.00000
     16      -3.2197      1.00000
     17      -2.8146      1.00000
     18      -2.6260      1.00000
     19      -2.5556      1.00000
     20      -2.0653      1.00000
     21      -1.9902      1.00000
     22      -1.9499      1.00000
     23       1.5349      1.00000
     24       1.5958      1.00000
     25       1.8427      1.00000
     26       2.5271      1.00000
     27       2.9517      1.00000
     28       7.1061      0.00000
     29       7.1422      0.00000
     30       7.2322      0.00000
     31       8.2019      0.00000
     32       8.5720      0.00000
     33       9.9435      0.00000
     34      12.2693      0.00000
     35      13.8126      0.00000
     36      14.0645      0.00000

 k-point     8 :       0.3750    0.1250    0.4167
  band No.  band energies     occupation 
      1     -48.4813      1.00000
      2     -48.4446      1.00000
      3     -48.4154      1.00000
      4     -42.0012      1.00000
      5     -41.9635      1.00000
      6     -41.9185      1.00000
      7     -22.3379      1.00000
      8     -22.2727      1.00000
      9     -22.2221      1.00000
     10     -22.1486      1.00000
     11      -4.3050      1.00000
     12      -4.0449      1.00000
     13      -3.9616      1.00000
     14      -3.7688      1.00000
     15      -3.3705      1.00000
     16      -3.1091      1.00000
     17      -2.9339      1.00000
     18      -2.8126      1.00000
     19      -2.2452      1.00000
     20      -2.0507      1.00000
     21      -1.8729      1.00000
     22      -1.7656      1.00000
     23       1.5249      1.00000
     24       1.5578      1.00000
     25       1.7731      1.00000
     26       2.4800      1.00000
     27       3.0858      1.00000
     28       7.0879      0.00000
     29       7.1350      0.00000
     30       7.2954      0.00000
     31       8.1569      0.00000
     32       8.7676      0.00000
     33      10.5928      0.00000
     34      12.0737      0.00000
     35      12.7141      0.00000
     36      14.0064      0.00000

 k-point     9 :       0.3750    0.3750    0.4167
  band No.  band energies     occupation 
      1     -48.4817      1.00000
      2     -48.4448      1.00000
      3     -48.4159      1.00000
      4     -42.0016      1.00000
      5     -41.9637      1.00000
      6     -41.9189      1.00000
      7     -22.3257      1.00000
      8     -22.2913      1.00000
      9     -22.2203      1.00000
     10     -22.1436      1.00000
     11      -4.5571      1.00000
     12      -4.3399      1.00000
     13      -3.9781      1.00000
     14      -3.9321      1.00000
     15      -3.3150      1.00000
     16      -3.0209      1.00000
     17      -2.8723      1.00000
     18      -2.6026      1.00000
     19      -2.0251      1.00000
     20      -1.9062      1.00000
     21      -1.7688      1.00000
     22      -1.6958      1.00000
     23       1.5251      1.00000
     24       1.5458      1.00000
     25       1.7597      1.00000
     26       2.5166      1.00000
     27       3.0621      1.00000
     28       7.0906      0.00000
     29       7.1278      0.00000
     30       7.3165      0.00000
     31       8.1259      0.00000
     32       8.6628      0.00000
     33      11.1480      0.00000
     34      12.5497      0.00000
     35      12.7744      0.00000
     36      12.9475      0.00000


--------------------------------------------------------------------------------------------------------


 soft charge-density along one line, spin component           1
         0         1         2         3         4         5         6         7         8         9
 total charge-density along one line
 
 soft charge-density along one line, spin component           2
         0         1         2         3         4         5         6         7         8         9
 total charge-density along one line
 
 pseudopotential strength for first ion, spin component:           1
-44.710   0.000  -0.046   7.561  -0.000   0.019   0.000  -0.000
  0.000 -44.681   0.000  -0.000   7.549  -0.000   0.000  -0.000
 -0.046   0.000 -44.710   0.019  -0.000   7.561  -0.000   0.000
  7.561  -0.000   0.019   5.637   0.000   0.004  -0.000   0.000
 -0.000   7.549  -0.000   0.000   5.631   0.000  -0.000  -0.000
  0.019  -0.000   7.561   0.004   0.000   5.637   0.000  -0.000
  0.000   0.000  -0.000  -0.000  -0.000   0.000  -2.553   0.000
 -0.000  -0.000   0.000   0.000  -0.000  -0.000   0.000  -2.536
 -0.000  -0.000  -0.000  -0.000   0.000  -0.000   0.023   0.000
  0.000  -0.000  -0.000  -0.000  -0.000   0.000   0.000  -0.022
 -0.000   0.000   0.000   0.000  -0.000  -0.000  -0.000  -0.000
 -0.000   0.000  -0.000  -0.000  -0.000   0.000  -3.076   0.000
 -0.000  -0.000   0.000   0.000  -0.000  -0.000   0.000  -3.060
 -0.000  -0.000  -0.000  -0.000   0.000  -0.000   0.021   0.000
  0.000  -0.000  -0.000  -0.000  -0.000   0.000   0.000  -0.022
 -0.000   0.000   0.000   0.000  -0.000   0.000  -0.000  -0.000
 -0.000   0.000  -0.000   0.000   0.000   0.000   0.013  -0.000
 -0.000   0.000  -0.000   0.000   0.000  -0.000   0.026  -0.000
 pseudopotential strength for first ion, spin component:           2
-50.447   0.000  -0.005   9.561  -0.000   0.019   0.000  -0.000
  0.000 -50.447   0.000  -0.000   9.548  -0.000   0.000   0.000
 -0.005   0.000 -50.447   0.019  -0.000   9.561  -0.000   0.000
  9.561  -0.000   0.019   4.773   0.000   0.001  -0.000   0.000
 -0.000   9.548  -0.000   0.000   4.773   0.000  -0.000  -0.000
  0.019  -0.000   9.561   0.001   0.000   4.773  -0.000  -0.000
  0.000   0.000  -0.000  -0.000  -0.000  -0.000  -6.886   0.000
 -0.000   0.000   0.000   0.000  -0.000  -0.000   0.000  -6.877
  0.000  -0.000  -0.000  -0.000   0.000   0.000  -0.011   0.000
  0.000  -0.000  -0.000  -0.000   0.000   0.000   0.000  -0.032
 -0.000   0.000   0.000  -0.000  -0.000  -0.000   0.000  -0.000
  0.000   0.000  -0.000  -0.000  -0.000  -0.000  -7.363   0.000
 -0.000   0.000   0.000   0.000  -0.000  -0.000   0.000  -7.355
  0.000  -0.000  -0.000  -0.000   0.000   0.000  -0.010   0.000
  0.000  -0.000  -0.000  -0.000   0.000   0.000   0.000  -0.032
 -0.000   0.000   0.000  -0.000  -0.000  -0.000   0.000  -0.000
  0.000   0.000  -0.000  -0.000   0.000   0.000   0.013  -0.000
  0.000   0.000  -0.000  -0.000   0.000   0.000   0.027  -0.000
 total augmentation occupancy for first ion, spin component:           1
  2.002   0.000   0.000  -0.009   0.000   0.001   0.000   0.000   0.000   0.000   0.000   0.000   0.000   0.000   0.000   0.000
  0.000   2.002   0.000   0.000  -0.009   0.000   0.000   0.000   0.000   0.000   0.000   0.000   0.000   0.000   0.000   0.000
  0.000   0.000   2.002   0.001   0.000  -0.009   0.000   0.000   0.000   0.000   0.000   0.000   0.000   0.000   0.000   0.000
 -0.009   0.000   0.001   0.092   0.000  -0.012   0.000   0.000   0.000   0.000   0.000   0.000   0.000   0.000   0.000   0.000
  0.000  -0.009   0.000   0.000   0.100   0.000   0.000   0.000   0.000   0.000   0.000   0.000   0.000   0.000   0.000   0.000
  0.001   0.000  -0.009  -0.012   0.000   0.092   0.000   0.000   0.000   0.000   0.000   0.000   0.000   0.000   0.000   0.000
  0.000   0.000   0.000   0.000   0.000   0.000   8.663   0.000   3.633   0.000   0.000  -6.716   0.000  -3.432   0.000  -0.000
  0.000   0.000   0.000   0.000   0.000   0.000   0.000   7.036   0.000   2.900   0.000   0.000  -5.139   0.000  -2.730   0.000
  0.000   0.000   0.000   0.000   0.000   0.000   3.633   0.000   6.420   0.000  -0.000  -3.433   0.000  -4.598   0.000  -0.000
  0.000   0.000   0.000   0.000   0.000   0.000   0.000   2.900   0.000   7.036   0.000   0.000  -2.730   0.000  -5.139   0.000
  0.000   0.000   0.000   0.000   0.000   0.000   0.000   0.000   0.000   0.000   3.989   0.000   0.000  -0.000   0.000  -2.251
  0.000   0.000   0.000   0.000   0.000   0.000  -6.716   0.000  -3.433   0.000   0.000   5.947   0.000   3.280   0.000   0.000
  0.000   0.000   0.000   0.000   0.000   0.000   0.000  -5.139   0.000  -2.730   0.000   0.000   4.407   0.000   2.598   0.000
  0.000   0.000   0.000   0.000   0.000   0.000  -3.432   0.000  -4.598   0.000  -0.000   3.280   0.000   3.926   0.000   0.000
  0.000   0.000   0.000   0.000   0.000   0.000   0.000  -2.730   0.000  -5.139   0.000   0.000   2.598   0.000   4.407   0.000
  0.000   0.000   0.000   0.000   0.000   0.000   0.000   0.000  -0.000   0.000  -2.251   0.000   0.000   0.000   0.000   1.637
  0.000   0.000   0.000   0.000   0.000   0.000   0.619   0.000  -0.253   0.000   0.000  -0.589   0.000   0.234   0.000   0.000
  0.000   0.000   0.000   0.000   0.000   0.000  -0.133   0.000   0.062   0.000   0.000   0.139   0.000  -0.060   0.000   0.000
 total augmentation occupancy for first ion, spin component:           2
  0.004   0.000  -0.000   0.017   0.000  -0.001   0.000   0.000   0.000   0.000   0.000   0.000   0.000   0.000   0.000   0.000
  0.000   0.004   0.000   0.000   0.018   0.000   0.000   0.000   0.000   0.000   0.000   0.000   0.000   0.000   0.000   0.000
 -0.000   0.000   0.004  -0.001   0.000   0.017   0.000   0.000   0.000   0.000   0.000   0.000   0.000   0.000   0.000   0.000
  0.017   0.000  -0.001  -0.011   0.000  -0.000   0.000   0.000   0.000   0.000   0.000   0.000   0.000   0.000   0.000   0.000
  0.000   0.018   0.000   0.000  -0.011   0.000   0.000   0.000   0.000   0.000   0.000   0.000   0.000   0.000   0.000   0.000
 -0.001   0.000   0.017  -0.000   0.000  -0.011   0.000   0.000   0.000   0.000   0.000   0.000   0.000   0.000   0.000   0.000
  0.000   0.000   0.000   0.000   0.000   0.000  -5.329   0.000  -1.747   0.000  -0.000   2.909   0.000   1.289   0.000   0.000
  0.000   0.000   0.000   0.000   0.000   0.000   0.000  -4.616   0.000  -1.420   0.000   0.000   2.353   0.000   1.048   0.000
  0.000   0.000   0.000   0.000   0.000   0.000  -1.747   0.000  -4.208   0.000  -0.000   1.289   0.000   2.065   0.000  -0.000
  0.000   0.000   0.000   0.000   0.000   0.000   0.000  -1.420   0.000  -4.616   0.000   0.000   1.048   0.000   2.353   0.000
  0.000   0.000   0.000   0.000   0.000   0.000  -0.000   0.000  -0.000   0.000  -3.188   0.000   0.000   0.000   0.000   1.308
  0.000   0.000   0.000   0.000   0.000   0.000   2.909   0.000   1.289   0.000   0.000  -1.589   0.000  -0.838   0.000  -0.000
  0.000   0.000   0.000   0.000   0.000   0.000   0.000   2.353   0.000   1.048   0.000   0.000  -1.191   0.000  -0.683   0.000
  0.000   0.000   0.000   0.000   0.000   0.000   1.289   0.000   2.065   0.000   0.000  -0.838   0.000  -1.015   0.000   0.000
  0.000   0.000   0.000   0.000   0.000   0.000   0.000   1.048   0.000   2.353   0.000   0.000  -0.683   0.000  -1.191   0.000
  0.000   0.000   0.000   0.000   0.000   0.000   0.000   0.000  -0.000   0.000   1.308  -0.000   0.000   0.000   0.000  -0.526
  0.000   0.000   0.000   0.000   0.000   0.000  -0.138   0.000   0.032   0.000  -0.000   0.039   0.000   0.020   0.000   0.000
  0.000   0.000   0.000   0.000   0.000   0.000   0.003   0.000  -0.005   0.000   0.000   0.009   0.000  -0.005   0.000   0.000


------------------------ aborting loop because EDIFF is reached ----------------------------------------


 


 total charge     
 
# of ion       s       p       d       tot
------------------------------------------
    1        0.182   6.172   4.998  11.353
    2        0.187   6.167   5.005  11.360
    3        1.759   4.426   0.000   6.185
    4        1.759   4.426   0.000   6.185
    5        1.759   4.423   0.000   6.182
    6        1.759   4.423   0.000   6.182
--------------------------------------------------
tot          7.405  30.037  10.004  47.446
 


 magnetization (x)
 
# of ion       s       p       d       tot
------------------------------------------
    1       -0.022  -0.019  -4.562  -4.603
    2        0.023   0.017   4.559   4.599
    3        0.003   0.026   0.000   0.029
    4        0.003   0.026   0.000   0.029
    5       -0.004  -0.022   0.000  -0.026
    6       -0.004  -0.022   0.000  -0.026
--------------------------------------------------
tot         -0.000   0.006  -0.003   0.003
 
    CHARGE:  cpu time    0.0144: real time    0.0144
    FORLOC:  cpu time    0.0005: real time    0.0005
    FORNL :  cpu time    0.0816: real time    0.0816
    STRESS:  cpu time    1.0122: real time    1.0123
    FORCOR:  cpu time    0.0147: real time    0.0147
    FORHAR:  cpu time    0.0011: real time    0.0011
    MIXING:  cpu time    0.0004: real time    0.0004
    OFIELD:  cpu time    0.0000: real time    0.0000

  FORCE on cell =-STRESS in cart. coord.  units (eV):
  Direction    XX          YY          ZZ          XY          YZ          ZX
  --------------------------------------------------------------------------------------
  Alpha Z   212.56857   212.56857   212.56857
  Ewald   -1612.86311 -1612.86311 -1071.14006     0.00000     0.00000     0.00000
  Hartree   579.56603   579.56603   943.30146    -0.00000    -0.00000    -0.00000
  E(xc)    -151.03140  -151.01135  -151.15164    -0.01758    -0.02681    -0.02866
  Local     190.64436   190.64436  -707.97084    -0.00000     0.00000     0.00000
  n-local  -311.28205  -311.59744  -310.78559     0.03786     0.08887     0.08596
  augment   158.21523   158.21523   157.70816     0.00000     0.00000     0.00000
  Kinetic   934.10252   934.57778   927.48005    -0.46688    -0.88387    -0.91694
  Fock        0.00000     0.00000     0.00000     0.00000     0.00000     0.00000
  -------------------------------------------------------------------------------------
  Total       0.01011     0.01011     0.01010     0.00000     0.00000     0.00000
  in kB       0.22304     0.22304     0.22271     0.00000     0.00000     0.00000
  external pressure =        0.22 kB  Pullay stress =        0.00 kB


 VOLUME and BASIS-vectors are now :
 -----------------------------------------------------------------------------
  energy-cutoff  :      400.00
  volume of cell :       72.62
      direct lattice vectors                 reciprocal lattice vectors
     4.741250956 -0.000000000  0.000000000     0.210914801 -0.000000000  0.000000000
     0.000000000  4.741250956  0.000000000     0.000000000  0.210914801  0.000000000
     0.000000000  0.000000000  3.230663048     0.000000000  0.000000000  0.309533983

  length of vectors
     4.741250956  4.741250956  3.230663048     0.210914801  0.210914801  0.309533983


 FORCES acting on ions
    electron-ion (+dipol)            ewald-force                    non-local-force                 convergence-correction
 -----------------------------------------------------------------------------------------------
   0.363E-11 -.124E-11 -.291E-11   0.284E-13 0.853E-13 -.276E-13   -.867E-26 0.000E+00 0.000E+00   -.251E-13 -.120E-13 0.371E-13
   -.176E-13 -.383E-13 0.145E-12   0.568E-13 0.568E-13 -.304E-13   0.785E-26 0.000E+00 0.000E+00   -.913E-13 -.763E-14 0.101E-13
   -.300E+02 0.300E+02 0.355E-11   0.309E+02 -.309E+02 0.156E-13   -.901E+00 0.901E+00 0.434E-18   0.942E-04 -.942E-04 0.550E-14
   0.300E+02 -.300E+02 0.135E-10   -.309E+02 0.309E+02 0.156E-13   0.901E+00 -.901E+00 -.434E-18   -.942E-04 0.942E-04 -.408E-14
   0.300E+02 0.300E+02 0.508E-06   -.309E+02 -.309E+02 0.122E-13   0.901E+00 0.901E+00 0.447E-18   -.942E-04 -.942E-04 0.375E-12
   -.300E+02 -.300E+02 -.508E-06   0.309E+02 0.309E+02 0.120E-13   -.901E+00 -.901E+00 -.447E-18   0.942E-04 0.942E-04 -.335E-12
 -----------------------------------------------------------------------------------------------
   0.506E-11 0.130E-11 0.443E-11   0.355E-14 0.000E+00 -.265E-14   0.111E-15 0.111E-15 0.000E+00   -.150E-12 -.513E-13 0.878E-13
 
 
 POSITION                                       TOTAL-FORCE (eV/Angst)
 -----------------------------------------------------------------------------------
      2.37063      2.37063      1.61533         0.000000      0.000000      0.000000
      0.00000      0.00000      0.00000         0.000000      0.000000      0.000000
      0.93382      3.80743      1.61533         0.000647     -0.000647      0.000000
      3.80743      0.93382      1.61533        -0.000647      0.000647      0.000000
      1.43680      1.43680     -0.00000        -0.000647     -0.000647      0.000000
      3.30445      3.30445      0.00000         0.000647      0.000647      0.000000
 -----------------------------------------------------------------------------------
    total drift:                                0.000000      0.000000      0.000000


--------------------------------------------------------------------------------------------------------



  FREE ENERGIE OF THE ION-ELECTRON SYSTEM (eV)
  ---------------------------------------------------
  free  energy   TOTEN  =       -68.17223398 eV

  energy  without entropy=      -68.17223398  energy(sigma->0) =      -68.17223398
 
 d Force = 0.9598807E-05[-0.211E-05, 0.213E-04]  d Energy = 0.6391399E-03-0.630E-03
 d Force =-0.1002315E+00[-0.101E+00,-0.995E-01]  d Ewald  =-0.4865179E+00 0.386E+00


--------------------------------------------------------------------------------------------------------


    POTLOK:  cpu time    0.7844: real time    0.7844


--------------------------------------------------------------------------------------------------------




--------------------------------------------------------------------------------------------------------


  
 reached required accuracy - stopping structural energy minimisation
     LOOP+:  cpu time   12.1279: real time   12.1281
    4ORBIT:  cpu time    0.0000: real time    0.0000
 


 total charge     
 
# of ion       s       p       d       tot
------------------------------------------
    1        0.182   6.172   4.998  11.353
    2        0.187   6.167   5.005  11.360
    3        1.759   4.426   0.000   6.185
    4        1.759   4.426   0.000   6.185
    5        1.759   4.423   0.000   6.182
    6        1.759   4.423   0.000   6.182
--------------------------------------------------
tot          7.405  30.037  10.004  47.446
 


 magnetization (x)
 
# of ion       s       p       d       tot
------------------------------------------
    1       -0.022  -0.019  -4.562  -4.603
    2        0.023   0.017   4.559   4.599
    3        0.003   0.026   0.000   0.029
    4        0.003   0.026   0.000   0.029
    5       -0.004  -0.022   0.000  -0.026
    6       -0.004  -0.022   0.000  -0.026
--------------------------------------------------
tot         -0.000   0.006  -0.003   0.003
 

 total amount of memory used by VASP MPI-rank0    38251. kBytes
=======================================================================

   base      :      30000. kBytes
   nonl-proj :       3838. kBytes
   fftplans  :        966. kBytes
   grid      :       1965. kBytes
   one-center:        186. kBytes
   wavefun   :       1296. kBytes
 
  
  
 General timing and accounting informations for this job:
 ========================================================
  
                  Total CPU time used (sec):      241.760
                            User time (sec):      145.740
                          System time (sec):       96.021
                         Elapsed time (sec):      241.832
  
                   Maximum memory used (kb):       53028.
                   Average memory used (kb):           0.
  
                          Minor page faults:        17864
                          Major page faults:            7
                 Voluntary context switches:          325
