 vasp.5.4.4.18Apr17-6-g9f103f2a35 (build Apr 27 2017 11:13:10) complex          
  
 executed on           IFC91_ompi date 2021.06.08  16:28:22
 running on   12 total cores
 distrk:  each k-point on   12 cores,    1 groups
 distr:  one band on NCORES_PER_BAND=   1 cores,   12 groups


--------------------------------------------------------------------------------------------------------


 INCAR:
 POTCAR:    PAW Mn_pv 02Aug2007                   
 POTCAR:    PAW F 31May2000                       

 ----------------------------------------------------------------------------- 
|                                                                             |
|           W    W    AA    RRRRR   N    N  II  N    N   GGGG   !!!           |
|           W    W   A  A   R    R  NN   N  II  NN   N  G    G  !!!           |
|           W    W  A    A  R    R  N N  N  II  N N  N  G       !!!           |
|           W WW W  AAAAAA  RRRRR   N  N N  II  N  N N  G  GGG   !            |
|           WW  WW  A    A  R   R   N   NN  II  N   NN  G    G                |
|           W    W  A    A  R    R  N    N  II  N    N   GGGG   !!!           |
|                                                                             |
|      For optimal performance we recommend to set                            |
|        NCORE= 4 - approx SQRT( number of cores)                             |
|      NCORE specifies how many cores store one orbital (NPAR=cpu/NCORE).     |
|      This setting can  greatly improve the performance of VASP for DFT.     |
|      The default,   NCORE=1            might be grossly inefficient         |
|      on modern multi-core architectures or massively parallel machines.     |
|      Do your own testing !!!!                                               |
|      Unfortunately you need to use the default for GW and RPA calculations. |
|      (for HF NCORE is supported but not extensively tested yet)             |
|                                                                             |
 ----------------------------------------------------------------------------- 

 POTCAR:    PAW Mn_pv 02Aug2007                   
   VRHFIN =Mn: 3p4s3d                                                           
   LEXCH  = CA                                                                  
   EATOM  =  2028.0466 eV,  149.0572 Ry                                         
                                                                                
   TITEL  = PAW Mn_pv 02Aug2007                                                 
   LULTRA =        F    use ultrasoft PP ?                                      
   IUNSCR =        1    unscreen: 0-lin 1-nonlin 2-no                           
   RPACOR =    2.080    partial core radius                                     
   POMASS =   54.938; ZVAL   =   13.000    mass and valenz                      
   RCORE  =    2.300    outmost cutoff radius                                   
   RWIGS  =    2.500; RWIGS  =    1.323    wigner-seitz radius (au A)           
   ENMAX  =  269.944; ENMIN  =  202.458 eV                                      
   ICORE  =        3    local potential                                         
   LCOR   =        T    correct aug charges                                     
   LPAW   =        T    paw PP                                                  
   EAUG   =  569.085                                                            
   DEXC   =    0.000                                                            
   RMAX   =    2.343    core radius for proj-oper                               
   RAUG   =    1.300    factor for augmentation sphere                          
   RDEP   =    2.338    radius for radial grids                                 
   RDEPT  =    1.798    core radius for aug-charge                              
                                                                                
   Atomic configuration                                                         
    8 entries                                                                   
     n  l   j            E        occ.                                          
     1  0  0.50     -6393.6057   2.0000                                         
     2  0  0.50      -735.9993   2.0000                                         
     2  1  1.50      -624.3417   6.0000                                         
     3  0  0.50       -80.9782   2.0000                                         
     3  1  1.50       -50.3144   6.0000                                         
     3  2  2.50        -3.6171   6.0000                                         
     4  0  0.50        -4.3304   1.0000                                         
     4  3  2.50        -1.3606   0.0000                                         
   Description                                                                  
     l       E           TYP  RCUT    TYP  RCUT                                 
     1    -50.3143634     23  2.000                                             
     1     -1.3605826     23  2.000                                             
     2     -3.6171470     23  2.300                                             
     2     -4.9777296     23  2.300                                             
     0     -4.3303688     23  2.300                                             
     0      7.3408788     23  2.300                                             
     3      9.5240782     23  2.300                                             
  local pseudopotential read in
  partial core-charges read in
  partial kinetic energy density read in
  atomic valenz-charges read in
  non local Contribution for L=           1  read in
    real space projection operators read in
  non local Contribution for L=           1  read in
    real space projection operators read in
  non local Contribution for L=           2  read in
    real space projection operators read in
  non local Contribution for L=           2  read in
    real space projection operators read in
  non local Contribution for L=           0  read in
    real space projection operators read in
  non local Contribution for L=           0  read in
    real space projection operators read in
    PAW grid and wavefunctions read in
 
   number of l-projection  operators is LMAX  =           6
   number of lm-projection operators is LMMAX =          18
 
 POTCAR:    PAW F 31May2000                       
   VRHFIN =F: s2p5                                                              
   LEXCH  = CA                                                                  
   EATOM  =   658.3685 eV,   48.3887 Ry                                         
                                                                                
   TITEL  = PAW F 31May2000                                                     
   LULTRA =        F    use ultrasoft PP ?                                      
   IUNSCR =        1    unscreen: 0-lin 1-nonlin 2-no                           
   RPACOR =    1.200    partial core radius                                     
   POMASS =   18.998; ZVAL   =    7.000    mass and valenz                      
   RCORE  =    1.520    outmost cutoff radius                                   
   RWIGS  =    1.500; RWIGS  =    0.794    wigner-seitz radius (au A)           
   ENMAX  =  400.000; ENMIN  =  300.000 eV                                      
   ICORE  =        2    local potential                                         
   LCOR   =        T    correct aug charges                                     
   LPAW   =        T    paw PP                                                  
   EAUG   =  613.614                                                            
   DEXC   =    0.000                                                            
   RMAX   =    1.555    core radius for proj-oper                               
   RAUG   =    1.300    factor for augmentation sphere                          
   RDEP   =    1.539    radius for radial grids                                 
   RDEPT  =    1.299    core radius for aug-charge                              
                                                                                
   Atomic configuration                                                         
    4 entries                                                                   
     n  l   j            E        occ.                                          
     1  0  0.50      -658.3386   2.0000                                         
     2  0  0.50       -29.6221   2.0000                                         
     2  1  0.50       -11.2952   5.0000                                         
     3  2  1.50       -12.2452   0.0000                                         
   Description                                                                  
     l       E           TYP  RCUT    TYP  RCUT                                 
     0    -29.6221019     23  1.200                                             
     0     -9.5240782     23  1.200                                             
     1    -11.2951545     23  1.520                                             
     1      1.3605826     23  1.520                                             
     2    -12.2452434      7  1.500                                             
  local pseudopotential read in
  partial core-charges read in
  partial kinetic energy density read in
  kinetic energy density of atom read in
  atomic valenz-charges read in
  non local Contribution for L=           0  read in
    real space projection operators read in
  non local Contribution for L=           0  read in
    real space projection operators read in
  non local Contribution for L=           1  read in
    real space projection operators read in
  non local Contribution for L=           1  read in
    real space projection operators read in
    PAW grid and wavefunctions read in
 
   number of l-projection  operators is LMAX  =           4
   number of lm-projection operators is LMMAX =           8
 
  PAW Mn_pv 02Aug2007                   :
 energy of atom  1       EATOM=-2028.0466
 kinetic energy error for atom=    0.0047 (will be added to EATOM!!)
  PAW F 31May2000                       :
 energy of atom  2       EATOM= -658.3685
 kinetic energy error for atom=    0.0252 (will be added to EATOM!!)
 
 
 POSCAR: Mn  F                                   
  positions in cartesian coordinates
  No initial velocities read in
 exchange correlation table for  LEXCH =        2
   RHO(1)=    0.500       N(1)  =     2000
   RHO(2)=  100.500       N(2)  =     4000
 


--------------------------------------------------------------------------------------------------------


 ion  position               nearest neighbor table
   1  0.500  0.500  0.500-   3 2.07   4 2.07   5 2.10   6 2.10   5 2.10   6 2.10
   2  0.000  0.000  0.000-   5 2.07   6 2.07   3 2.10   4 2.10   3 2.10   4 2.10
   3  0.196  0.804  0.500-   1 2.07   2 2.10   2 2.10
   4  0.804  0.196  0.500-   1 2.07   2 2.10   2 2.10
   5  0.304  0.304  0.000-   2 2.07   1 2.10   1 2.10
   6  0.696  0.696  0.000-   2 2.07   1 2.10   1 2.10
 

IMPORTANT INFORMATION: All symmetrisations will be switched off!
NOSYMM: (Re-)initialisation of all symmetry stuff for point group C_1.

 
 
 KPOINTS: KPOINTS created by Atomic Simulation Env

Automatic generation of k-mesh.
Space group operators:
 irot       det(A)        alpha          n_x          n_y          n_z        tau_x        tau_y        tau_z
    1     1.000000     0.000001     1.000000     0.000000     0.000000     0.000000     0.000000     0.000000
 
 Subroutine IBZKPT returns following result:
 ===========================================
 
 Found     48 irreducible k-points:
 
 Following reciprocal coordinates:
            Coordinates               Weight
  0.125000  0.125000  0.083333      2.000000
  0.375000  0.125000  0.083333      2.000000
 -0.375000  0.125000  0.083333      2.000000
 -0.125000  0.125000  0.083333      2.000000
  0.125000  0.375000  0.083333      2.000000
  0.375000  0.375000  0.083333      2.000000
 -0.375000  0.375000  0.083333      2.000000
 -0.125000  0.375000  0.083333      2.000000
  0.125000 -0.375000  0.083333      2.000000
  0.375000 -0.375000  0.083333      2.000000
 -0.375000 -0.375000  0.083333      2.000000
 -0.125000 -0.375000  0.083333      2.000000
  0.125000 -0.125000  0.083333      2.000000
  0.375000 -0.125000  0.083333      2.000000
 -0.375000 -0.125000  0.083333      2.000000
 -0.125000 -0.125000  0.083333      2.000000
  0.125000  0.125000  0.250000      2.000000
  0.375000  0.125000  0.250000      2.000000
 -0.375000  0.125000  0.250000      2.000000
 -0.125000  0.125000  0.250000      2.000000
  0.125000  0.375000  0.250000      2.000000
  0.375000  0.375000  0.250000      2.000000
 -0.375000  0.375000  0.250000      2.000000
 -0.125000  0.375000  0.250000      2.000000
  0.125000 -0.375000  0.250000      2.000000
  0.375000 -0.375000  0.250000      2.000000
 -0.375000 -0.375000  0.250000      2.000000
 -0.125000 -0.375000  0.250000      2.000000
  0.125000 -0.125000  0.250000      2.000000
  0.375000 -0.125000  0.250000      2.000000
 -0.375000 -0.125000  0.250000      2.000000
 -0.125000 -0.125000  0.250000      2.000000
  0.125000  0.125000  0.416667      2.000000
  0.375000  0.125000  0.416667      2.000000
 -0.375000  0.125000  0.416667      2.000000
 -0.125000  0.125000  0.416667      2.000000
  0.125000  0.375000  0.416667      2.000000
  0.375000  0.375000  0.416667      2.000000
 -0.375000  0.375000  0.416667      2.000000
 -0.125000  0.375000  0.416667      2.000000
  0.125000 -0.375000  0.416667      2.000000
  0.375000 -0.375000  0.416667      2.000000
 -0.375000 -0.375000  0.416667      2.000000
 -0.125000 -0.375000  0.416667      2.000000
  0.125000 -0.125000  0.416667      2.000000
  0.375000 -0.125000  0.416667      2.000000
 -0.375000 -0.125000  0.416667      2.000000
 -0.125000 -0.125000  0.416667      2.000000
 
 Following cartesian coordinates:
            Coordinates               Weight
  0.026013  0.026013  0.025589      2.000000
  0.078038  0.026013  0.025589      2.000000
 -0.078038  0.026013  0.025589      2.000000
 -0.026013  0.026013  0.025589      2.000000
  0.026013  0.078038  0.025589      2.000000
  0.078038  0.078038  0.025589      2.000000
 -0.078038  0.078038  0.025589      2.000000
 -0.026013  0.078038  0.025589      2.000000
  0.026013 -0.078038  0.025589      2.000000
  0.078038 -0.078038  0.025589      2.000000
 -0.078038 -0.078038  0.025589      2.000000
 -0.026013 -0.078038  0.025589      2.000000
  0.026013 -0.026013  0.025589      2.000000
  0.078038 -0.026013  0.025589      2.000000
 -0.078038 -0.026013  0.025589      2.000000
 -0.026013 -0.026013  0.025589      2.000000
  0.026013  0.026013  0.076768      2.000000
  0.078038  0.026013  0.076768      2.000000
 -0.078038  0.026013  0.076768      2.000000
 -0.026013  0.026013  0.076768      2.000000
  0.026013  0.078038  0.076768      2.000000
  0.078038  0.078038  0.076768      2.000000
 -0.078038  0.078038  0.076768      2.000000
 -0.026013  0.078038  0.076768      2.000000
  0.026013 -0.078038  0.076768      2.000000
  0.078038 -0.078038  0.076768      2.000000
 -0.078038 -0.078038  0.076768      2.000000
 -0.026013 -0.078038  0.076768      2.000000
  0.026013 -0.026013  0.076768      2.000000
  0.078038 -0.026013  0.076768      2.000000
 -0.078038 -0.026013  0.076768      2.000000
 -0.026013 -0.026013  0.076768      2.000000
  0.026013  0.026013  0.127947      2.000000
  0.078038  0.026013  0.127947      2.000000
 -0.078038  0.026013  0.127947      2.000000
 -0.026013  0.026013  0.127947      2.000000
  0.026013  0.078038  0.127947      2.000000
  0.078038  0.078038  0.127947      2.000000
 -0.078038  0.078038  0.127947      2.000000
 -0.026013  0.078038  0.127947      2.000000
  0.026013 -0.078038  0.127947      2.000000
  0.078038 -0.078038  0.127947      2.000000
 -0.078038 -0.078038  0.127947      2.000000
 -0.026013 -0.078038  0.127947      2.000000
  0.026013 -0.026013  0.127947      2.000000
  0.078038 -0.026013  0.127947      2.000000
 -0.078038 -0.026013  0.127947      2.000000
 -0.026013 -0.026013  0.127947      2.000000
 
 TETIRR: Found    288 inequivalent tetrahedra from      576


--------------------------------------------------------------------------------------------------------




 Dimension of arrays:
   k-points           NKPTS =     48   k-points in BZ     NKDIM =     48   number of bands    NBANDS=     36
   number of dos      NEDOS =    301   number of ions     NIONS =      6
   non local maximal  LDIM  =      6   non local SUM 2l+1 LMDIM =     18
   total plane-waves  NPLWV =  18000
   max r-space proj   IRMAX =      1   max aug-charges    IRDMAX=  58297
   dimension x,y,z NGX =    30 NGY =   30 NGZ =   20
   dimension x,y,z NGXF=    60 NGYF=   60 NGZF=   40
   support grid    NGXF=   120 NGYF=  120 NGZF=   80
   ions per type =               2   4
   NGX,Y,Z   is equivalent  to a cutoff of  10.38, 10.38, 10.21 a.u.
   NGXF,Y,Z  is equivalent  to a cutoff of  20.76, 20.76, 20.42 a.u.

 SYSTEM =  unknown system                          
 POSCAR =  Mn  F                                   

 Startparameter for this run:
   NWRITE =      2    write-flag & timer
   PREC   = normal    normal or accurate (medium, high low for compatibility)
   ISTART =      1    job   : 0-new  1-cont  2-samecut
   ICHARG =      0    charge: 1-file 2-atom 10-const
   ISPIN  =      2    spin polarized calculation?
   LNONCOLLINEAR =      F non collinear calculations
   LSORBIT =      F    spin-orbit coupling
   INIWAV =      1    electr: 0-lowe 1-rand  2-diag
   LASPH  =      T    aspherical Exc in radial PAW
   METAGGA=      F    non-selfconsistent MetaGGA calc.

 Electronic Relaxation 1
   ENCUT  =  600.0 eV  44.10 Ry    6.64 a.u.   9.60  9.60  6.50*2*pi/ulx,y,z
   ENINI  =  600.0     initial cutoff
   ENAUG  =  613.6 eV  augmentation charge cutoff
   NELM   =     60;   NELMIN=  2; NELMDL=  0     # of ELM steps 
   EDIFF  = 0.1E-07   stopping-criterion for ELM
   LREAL  =      F    real-space projection
   NLSPLINE    = F    spline interpolate recip. space projectors
   LCOMPAT=      F    compatible to vasp.4.4
   GGA_COMPAT  = T    GGA compatible to vasp.4.4-vasp.4.6
   LMAXPAW     = -100 max onsite density
   LMAXMIX     =    4 max onsite mixed and CHGCAR
   VOSKOWN=      0    Vosko Wilk Nusair interpolation
   ROPT   =    0.00000   0.00000
 Ionic relaxation
   EDIFFG = 0.1E-06   stopping-criterion for IOM
   NSW    =      0    number of steps for IOM
   NBLOCK =      1;   KBLOCK =      1    inner block; outer block 
   IBRION =     -1    ionic relax: 0-MD 1-quasi-New 2-CG
   NFREE  =      0    steps in history (QN), initial steepest desc. (CG)
   ISIF   =      2    stress and relaxation
   IWAVPR =     10    prediction:  0-non 1-charg 2-wave 3-comb
   ISYM   =      0    0-nonsym 1-usesym 2-fastsym
   LCORR  =      T    Harris-Foulkes like correction to forces

   POTIM  = 0.5000    time-step for ionic-motion
   TEIN   =    0.0    initial temperature
   TEBEG  =    0.0;   TEEND  =   0.0 temperature during run
   SMASS  =  -3.00    Nose mass-parameter (am)
   estimated Nose-frequenzy (Omega)   =  0.10E-29 period in steps =****** mass=  -0.528E-27a.u.
   SCALEE = 1.0000    scale energy and forces
   NPACO  =    256;   APACO  = 16.0  distance and # of slots for P.C.
   PSTRESS=    0.0 pullay stress

  Mass of Ions in am
   POMASS =  54.94 19.00
  Ionic Valenz
   ZVAL   =  13.00  7.00
  Atomic Wigner-Seitz radii
   RWIGS  =  -1.00 -1.00
  virtual crystal weights 
   VCA    =   1.00  1.00
   NELECT =      54.0000    total number of electrons
   NUPDOWN=      -1.0000    fix difference up-down

 DOS related values:
   EMIN   =  10.00;   EMAX   =-10.00  energy-range for DOS
   EFERMI =   0.00
   ISMEAR =    -5;   SIGMA  =   0.20  broadening in eV -4-tet -1-fermi 0-gaus

 Electronic relaxation 2 (details)
   IALGO  =     38    algorithm
   LDIAG  =      T    sub-space diagonalisation (order eigenvalues)
   LSUBROT=      F    optimize rotation matrix (better conditioning)
   TURBO    =      0    0=normal 1=particle mesh
   IRESTART =      0    0=no restart 2=restart with 2 vectors
   NREBOOT  =      0    no. of reboots
   NMIN     =      0    reboot dimension
   EREF     =   0.00    reference energy to select bands
   IMIX   =      4    mixing-type and parameters
     AMIX     =   0.40;   BMIX     =  1.00
     AMIX_MAG =   1.60;   BMIX_MAG =  1.00
     AMIN     =   0.10
     WC   =   100.;   INIMIX=   1;  MIXPRE=   1;  MAXMIX= -45

 Intra band minimization:
   WEIMIN = 0.0000     energy-eigenvalue tresh-hold
   EBREAK =  0.69E-10  absolut break condition
   DEPER  =   0.30     relativ break condition  

   TIME   =   0.40     timestep for ELM

  volume/ion in A,a.u.               =      12.53        84.58
  Fermi-wavevector in a.u.,A,eV,Ry     =   1.466011  2.770358 29.241467  2.149187
  Thomas-Fermi vector in A             =   2.581799
 
 Write flags
   LWAVE        =      T    write WAVECAR
   LDOWNSAMPLE  =      F    k-point downsampling of WAVECAR
   LCHARG       =      T    write CHGCAR
   LVTOT        =      F    write LOCPOT, total local potential
   LVHAR        =      F    write LOCPOT, Hartree potential only
   LELF         =      F    write electronic localiz. function (ELF)
   LORBIT       =     11    0 simple, 1 ext, 2 COOP (PROOUT), +10 PAW based schemes


 Dipole corrections
   LMONO  =      F    monopole corrections only (constant potential shift)
   LDIPOL =      F    correct potential (dipole corrections)
   IDIPOL =      0    1-x, 2-y, 3-z, 4-all directions 
   EPSILON=  1.0000000 bulk dielectric constant

 LDA+U is selected, type is set to LDAUTYPE =  2
   angular momentum for each species LDAUL =     2   -1
   U (eV)           for each species LDAUU =   6.0  0.0
   J (eV)           for each species LDAUJ =   0.0  0.0
 Exchange correlation treatment:
   GGA     =    --    GGA type
   LEXCH   =     2    internal setting for exchange type
   VOSKOWN=      0    Vosko Wilk Nusair interpolation
   LHFCALC =     F    Hartree Fock is set to
   LHFONE  =     F    Hartree Fock one center treatment
   AEXX    =    0.0000 exact exchange contribution

 Linear response parameters
   LEPSILON=     F    determine dielectric tensor
   LRPA    =     F    only Hartree local field effects (RPA)
   LNABLA  =     F    use nabla operator in PAW spheres
   LVEL    =     F    velocity operator in full k-point grid
   LINTERFAST=   F  fast interpolation
   KINTER  =     0    interpolate to denser k-point grid
   CSHIFT  =0.1000    complex shift for real part using Kramers Kronig
   OMEGAMAX=  -1.0    maximum frequency
   DEG_THRESHOLD= 0.2000000E-02 threshold for treating states as degnerate
   RTIME   =   -0.100 relaxation time in fs
  (WPLASMAI=    0.000 imaginary part of plasma frequency in eV, 0.658/RTIME)
   DFIELD  = 0.0000000 0.0000000 0.0000000 field for delta impulse in time
 
 Orbital magnetization related:
   ORBITALMAG=     F  switch on orbital magnetization
   LCHIMAG   =     F  perturbation theory with respect to B field
   DQ        =  0.001000  dq finite difference perturbation B field
   LLRAUG    =     F  two centre corrections for induced B field



--------------------------------------------------------------------------------------------------------


 Static calculation
 charge density and potential will be updated during run
 spin polarized calculation
 Variant of blocked Davidson
 Davidson routine will perform the subspace rotation
 perform sub-space diagonalisation
    after iterative eigenvector-optimisation
 modified Broyden-mixing scheme, WC =      100.0
 initial mixing is a Kerker type mixing with AMIX =  0.4000 and BMIX =      1.0000
 Hartree-type preconditioning will be used
 using additional bands            9
 reciprocal scheme for non local part
 use partial core corrections
 calculate Harris-corrections to forces 
   (improved forces if not selfconsistent)
 use of overlap-Matrix (Vanderbilt PP)
 Fermi weights with tetrahedron method with Bloechl corrections


--------------------------------------------------------------------------------------------------------


  energy-cutoff  :      600.00
  volume of cell :       75.20
      direct lattice vectors                 reciprocal lattice vectors
     4.805334510  0.000000000  0.000000000     0.208102058  0.000000000  0.000000000
     0.000000000  4.805334510  0.000000000     0.000000000  0.208102058  0.000000000
     0.000000000  0.000000000  3.256564062     0.000000000  0.000000000  0.307072111

  length of vectors
     4.805334510  4.805334510  3.256564062     0.208102058  0.208102058  0.307072111


 
 old parameters found on file WAVECAR:
  energy-cutoff  :      600.00
  volume of cell :       75.20
      direct lattice vectors                 reciprocal lattice vectors
     4.805334510  0.000000000  0.000000000     0.208102058  0.000000000  0.000000000
     0.000000000  4.805334510  0.000000000     0.000000000  0.208102058  0.000000000
     0.000000000  0.000000000  3.256564062     0.000000000  0.000000000  0.307072111

  length of vectors

 
 k-points in units of 2pi/SCALE and weight: KPOINTS created by Atomic Simulation Env
   0.02601276  0.02601276  0.02558934       0.021
   0.07803827  0.02601276  0.02558934       0.021
  -0.07803827  0.02601276  0.02558934       0.021
  -0.02601276  0.02601276  0.02558934       0.021
   0.02601276  0.07803827  0.02558934       0.021
   0.07803827  0.07803827  0.02558934       0.021
  -0.07803827  0.07803827  0.02558934       0.021
  -0.02601276  0.07803827  0.02558934       0.021
   0.02601276 -0.07803827  0.02558934       0.021
   0.07803827 -0.07803827  0.02558934       0.021
  -0.07803827 -0.07803827  0.02558934       0.021
  -0.02601276 -0.07803827  0.02558934       0.021
   0.02601276 -0.02601276  0.02558934       0.021
   0.07803827 -0.02601276  0.02558934       0.021
  -0.07803827 -0.02601276  0.02558934       0.021
  -0.02601276 -0.02601276  0.02558934       0.021
   0.02601276  0.02601276  0.07676803       0.021
   0.07803827  0.02601276  0.07676803       0.021
  -0.07803827  0.02601276  0.07676803       0.021
  -0.02601276  0.02601276  0.07676803       0.021
   0.02601276  0.07803827  0.07676803       0.021
   0.07803827  0.07803827  0.07676803       0.021
  -0.07803827  0.07803827  0.07676803       0.021
  -0.02601276  0.07803827  0.07676803       0.021
   0.02601276 -0.07803827  0.07676803       0.021
   0.07803827 -0.07803827  0.07676803       0.021
  -0.07803827 -0.07803827  0.07676803       0.021
  -0.02601276 -0.07803827  0.07676803       0.021
   0.02601276 -0.02601276  0.07676803       0.021
   0.07803827 -0.02601276  0.07676803       0.021
  -0.07803827 -0.02601276  0.07676803       0.021
  -0.02601276 -0.02601276  0.07676803       0.021
   0.02601276  0.02601276  0.12794671       0.021
   0.07803827  0.02601276  0.12794671       0.021
  -0.07803827  0.02601276  0.12794671       0.021
  -0.02601276  0.02601276  0.12794671       0.021
   0.02601276  0.07803827  0.12794671       0.021
   0.07803827  0.07803827  0.12794671       0.021
  -0.07803827  0.07803827  0.12794671       0.021
  -0.02601276  0.07803827  0.12794671       0.021
   0.02601276 -0.07803827  0.12794671       0.021
   0.07803827 -0.07803827  0.12794671       0.021
  -0.07803827 -0.07803827  0.12794671       0.021
  -0.02601276 -0.07803827  0.12794671       0.021
   0.02601276 -0.02601276  0.12794671       0.021
   0.07803827 -0.02601276  0.12794671       0.021
  -0.07803827 -0.02601276  0.12794671       0.021
  -0.02601276 -0.02601276  0.12794671       0.021
 
 k-points in reciprocal lattice and weights: KPOINTS created by Atomic Simulation Env
   0.12500000  0.12500000  0.08333333       0.021
   0.37500000  0.12500000  0.08333333       0.021
  -0.37500000  0.12500000  0.08333333       0.021
  -0.12500000  0.12500000  0.08333333       0.021
   0.12500000  0.37500000  0.08333333       0.021
   0.37500000  0.37500000  0.08333333       0.021
  -0.37500000  0.37500000  0.08333333       0.021
  -0.12500000  0.37500000  0.08333333       0.021
   0.12500000 -0.37500000  0.08333333       0.021
   0.37500000 -0.37500000  0.08333333       0.021
  -0.37500000 -0.37500000  0.08333333       0.021
  -0.12500000 -0.37500000  0.08333333       0.021
   0.12500000 -0.12500000  0.08333333       0.021
   0.37500000 -0.12500000  0.08333333       0.021
  -0.37500000 -0.12500000  0.08333333       0.021
  -0.12500000 -0.12500000  0.08333333       0.021
   0.12500000  0.12500000  0.25000000       0.021
   0.37500000  0.12500000  0.25000000       0.021
  -0.37500000  0.12500000  0.25000000       0.021
  -0.12500000  0.12500000  0.25000000       0.021
   0.12500000  0.37500000  0.25000000       0.021
   0.37500000  0.37500000  0.25000000       0.021
  -0.37500000  0.37500000  0.25000000       0.021
  -0.12500000  0.37500000  0.25000000       0.021
   0.12500000 -0.37500000  0.25000000       0.021
   0.37500000 -0.37500000  0.25000000       0.021
  -0.37500000 -0.37500000  0.25000000       0.021
  -0.12500000 -0.37500000  0.25000000       0.021
   0.12500000 -0.12500000  0.25000000       0.021
   0.37500000 -0.12500000  0.25000000       0.021
  -0.37500000 -0.12500000  0.25000000       0.021
  -0.12500000 -0.12500000  0.25000000       0.021
   0.12500000  0.12500000  0.41666667       0.021
   0.37500000  0.12500000  0.41666667       0.021
  -0.37500000  0.12500000  0.41666667       0.021
  -0.12500000  0.12500000  0.41666667       0.021
   0.12500000  0.37500000  0.41666667       0.021
   0.37500000  0.37500000  0.41666667       0.021
  -0.37500000  0.37500000  0.41666667       0.021
  -0.12500000  0.37500000  0.41666667       0.021
   0.12500000 -0.37500000  0.41666667       0.021
   0.37500000 -0.37500000  0.41666667       0.021
  -0.37500000 -0.37500000  0.41666667       0.021
  -0.12500000 -0.37500000  0.41666667       0.021
   0.12500000 -0.12500000  0.41666667       0.021
   0.37500000 -0.12500000  0.41666667       0.021
  -0.37500000 -0.12500000  0.41666667       0.021
  -0.12500000 -0.12500000  0.41666667       0.021
 
 position of ions in fractional coordinates (direct lattice) 
   0.50000000  0.50000000  0.50000000
   0.00000000  0.00000000  0.00000000
   0.19558347  0.80441653  0.50000000
   0.80441653  0.19558347  0.50000000
   0.30441653  0.30441653  0.00000000
   0.69558347  0.69558347  0.00000000
 
 position of ions in cartesian coordinates  (Angst):
   2.40266726  2.40266726  1.62828203
   0.00000000  0.00000000  0.00000000
   0.93984399  3.86549052  1.62828203
   3.86549052  0.93984399  1.62828203
   1.46282327  1.46282327  0.00000000
   3.34251124  3.34251124  0.00000000
 


--------------------------------------------------------------------------------------------------------


 k-point  1 :   0.1250 0.1250 0.0833  plane waves:    2529
 k-point  2 :   0.3750 0.1250 0.0833  plane waves:    2520
 k-point  3 :  -0.3750 0.1250 0.0833  plane waves:    2520
 k-point  4 :  -0.1250 0.1250 0.0833  plane waves:    2529
 k-point  5 :   0.1250 0.3750 0.0833  plane waves:    2520
 k-point  6 :   0.3750 0.3750 0.0833  plane waves:    2511
 k-point  7 :  -0.3750 0.3750 0.0833  plane waves:    2511
 k-point  8 :  -0.1250 0.3750 0.0833  plane waves:    2520
 k-point  9 :   0.1250-0.3750 0.0833  plane waves:    2520
 k-point 10 :   0.3750-0.3750 0.0833  plane waves:    2511
 k-point 11 :  -0.3750-0.3750 0.0833  plane waves:    2511
 k-point 12 :  -0.1250-0.3750 0.0833  plane waves:    2520
 k-point 13 :   0.1250-0.1250 0.0833  plane waves:    2529
 k-point 14 :   0.3750-0.1250 0.0833  plane waves:    2520
 k-point 15 :  -0.3750-0.1250 0.0833  plane waves:    2520
 k-point 16 :  -0.1250-0.1250 0.0833  plane waves:    2529
 k-point 17 :   0.1250 0.1250 0.2500  plane waves:    2528
 k-point 18 :   0.3750 0.1250 0.2500  plane waves:    2509
 k-point 19 :  -0.3750 0.1250 0.2500  plane waves:    2509
 k-point 20 :  -0.1250 0.1250 0.2500  plane waves:    2528
 k-point 21 :   0.1250 0.3750 0.2500  plane waves:    2509
 k-point 22 :   0.3750 0.3750 0.2500  plane waves:    2504
 k-point 23 :  -0.3750 0.3750 0.2500  plane waves:    2504
 k-point 24 :  -0.1250 0.3750 0.2500  plane waves:    2509
 k-point 25 :   0.1250-0.3750 0.2500  plane waves:    2509
 k-point 26 :   0.3750-0.3750 0.2500  plane waves:    2504
 k-point 27 :  -0.3750-0.3750 0.2500  plane waves:    2504
 k-point 28 :  -0.1250-0.3750 0.2500  plane waves:    2509
 k-point 29 :   0.1250-0.1250 0.2500  plane waves:    2528
 k-point 30 :   0.3750-0.1250 0.2500  plane waves:    2509
 k-point 31 :  -0.3750-0.1250 0.2500  plane waves:    2509
 k-point 32 :  -0.1250-0.1250 0.2500  plane waves:    2528
 k-point 33 :   0.1250 0.1250 0.4167  plane waves:    2497
 k-point 34 :   0.3750 0.1250 0.4167  plane waves:    2498
 k-point 35 :  -0.3750 0.1250 0.4167  plane waves:    2498
 k-point 36 :  -0.1250 0.1250 0.4167  plane waves:    2497
 k-point 37 :   0.1250 0.3750 0.4167  plane waves:    2498
 k-point 38 :   0.3750 0.3750 0.4167  plane waves:    2505
 k-point 39 :  -0.3750 0.3750 0.4167  plane waves:    2505
 k-point 40 :  -0.1250 0.3750 0.4167  plane waves:    2498
 k-point 41 :   0.1250-0.3750 0.4167  plane waves:    2498
 k-point 42 :   0.3750-0.3750 0.4167  plane waves:    2505
 k-point 43 :  -0.3750-0.3750 0.4167  plane waves:    2505
 k-point 44 :  -0.1250-0.3750 0.4167  plane waves:    2498
 k-point 45 :   0.1250-0.1250 0.4167  plane waves:    2497
 k-point 46 :   0.3750-0.1250 0.4167  plane waves:    2498
 k-point 47 :  -0.3750-0.1250 0.4167  plane waves:    2498
 k-point 48 :  -0.1250-0.1250 0.4167  plane waves:    2497

 maximum and minimum number of plane-waves per node :      2529     2497

 maximum number of plane-waves:      2529
 maximum index in each direction: 
   IXMAX=    9   IYMAX=    9   IZMAX=    6
   IXMIN=   -9   IYMIN=   -9   IZMIN=   -6


 serial   3D FFT for wavefunctions
 parallel 3D FFT for charge:
    minimum data exchange during FFTs selected (reduces bandwidth)


 total amount of memory used by VASP MPI-rank0    81772. kBytes
=======================================================================

   base      :      30000. kBytes
   nonl-proj :      35245. kBytes
   fftplans  :       1875. kBytes
   grid      :       2467. kBytes
   one-center:        186. kBytes
   wavefun   :      11999. kBytes
 
     INWAV:  cpu time    0.4112: real time    0.4112
 Broyden mixing: mesh for mixing (old mesh)
   NGX = 19   NGY = 19   NGZ = 13
  (NGX  = 60   NGY  = 60   NGZ  = 40)
  gives a total of   4693 points

 charge density for first step will be calculated from the start-wavefunctions


--------------------------------------------------------------------------------------------------------


 Maximum index for augmentation-charges         4419 (set IRDMAX)


--------------------------------------------------------------------------------------------------------


 initial charge from wavefunction
 First call to EWALD:  gamma=   0.420
 Maximum number of real-space cells 2x 2x 3
 Maximum number of reciprocal cells 3x 3x 2

    FEWALD:  cpu time    0.0013: real time    0.0013


--------------------------------------- Iteration      1(   1)  ---------------------------------------


    POTLOK:  cpu time    0.0064: real time    0.0064
    SETDIJ:  cpu time    1.9636: real time    1.9636
atom =   1  type =  1  l = 2
 
 onsite density matrix
 
spin component  1
 
  0.1286  0.0123 -0.0066  0.0125  0.0000
  0.0123  0.0898  0.0091  0.0384 -0.0143
 -0.0066  0.0091  0.0695  0.0090  0.0014
  0.0125  0.0384  0.0090  0.0882  0.0148
  0.0000 -0.0143  0.0014  0.0148  0.0952
 
spin component  2
 
  0.9260 -0.0047  0.0288 -0.0048 -0.0001
 -0.0047  0.9179 -0.0034  0.0119  0.0054
  0.0288 -0.0034  0.9255 -0.0033 -0.0005
 -0.0048  0.0119 -0.0033  0.9185 -0.0056
 -0.0001  0.0054 -0.0005 -0.0056  0.8876
 
 occupancies and eigenvectors
 
  o =  0.0425  v = -0.0026 -0.6523  0.0139  0.6644 -0.3645  0.0000  0.0000  0.0000  0.0000  0.0000      0.0000  0.0000  0.0000  0.0000  0.0000  0.0000  0.0000  0.0000  0.0000  0.0000
  o =  0.0651  v = -0.1662  0.1564 -0.9551  0.1871  0.0260  0.0000  0.0000  0.0000  0.0000  0.0000      0.0000  0.0000  0.0000  0.0000  0.0000  0.0000  0.0000  0.0000  0.0000  0.0000
  o =  0.1033  v =  0.0203 -0.2763  0.0233  0.2387  0.9304  0.0000  0.0000  0.0000  0.0000  0.0000      0.0000  0.0000  0.0000  0.0000  0.0000  0.0000  0.0000  0.0000  0.0000  0.0000
  o =  0.1146  v =  0.6921 -0.4684 -0.2892 -0.4660 -0.0274  0.0000  0.0000  0.0000  0.0000  0.0000      0.0000  0.0000  0.0000  0.0000  0.0000  0.0000  0.0000  0.0000  0.0000  0.0000
  o =  0.1458  v = -0.7021 -0.5043 -0.0584 -0.4993 -0.0048  0.0000  0.0000  0.0000  0.0000  0.0000      0.0000  0.0000  0.0000  0.0000  0.0000  0.0000  0.0000  0.0000  0.0000  0.0000
  o =  0.8848  v =  0.0000  0.0000  0.0000  0.0000  0.0000 -0.0070 -0.2407  0.0149  0.2417  0.9399      0.0000  0.0000  0.0000  0.0000  0.0000  0.0000  0.0000  0.0000  0.0000  0.0000
  o =  0.8969  v =  0.0000  0.0000  0.0000  0.0000  0.0000 -0.7077 -0.0162  0.7050 -0.0419 -0.0098      0.0000  0.0000  0.0000  0.0000  0.0000  0.0000  0.0000  0.0000  0.0000  0.0000
  o =  0.9091  v =  0.0000  0.0000  0.0000  0.0000  0.0000 -0.0138 -0.6778  0.0045  0.6511 -0.3412      0.0000  0.0000  0.0000  0.0000  0.0000  0.0000  0.0000  0.0000  0.0000  0.0000
  o =  0.9277  v =  0.0000  0.0000  0.0000  0.0000  0.0000 -0.1761 -0.6639 -0.2328 -0.6884  0.0094      0.0000  0.0000  0.0000  0.0000  0.0000  0.0000  0.0000  0.0000  0.0000  0.0000
  o =  0.9570  v =  0.0000  0.0000  0.0000  0.0000  0.0000 -0.6841  0.2038 -0.6697  0.2049  0.0050      0.0000  0.0000  0.0000  0.0000  0.0000  0.0000  0.0000  0.0000  0.0000  0.0000
atom =   2  type =  1  l = 2
 
 onsite density matrix
 
spin component  1
 
  0.9287 -0.0043 -0.0112 -0.0044  0.0001
 -0.0043  0.9173 -0.0027 -0.0297  0.0049
 -0.0112 -0.0027  0.9269 -0.0026 -0.0005
 -0.0044 -0.0297 -0.0026  0.9180 -0.0051
  0.0001  0.0049 -0.0005 -0.0051  0.8875
 
spin component  2
 
  0.1322  0.0138 -0.0506  0.0140  0.0001
  0.0138  0.0894  0.0099  0.0105 -0.0146
 -0.0506  0.0099  0.0693  0.0097  0.0013
  0.0140  0.0105  0.0097  0.0878  0.0149
  0.0001 -0.0146  0.0013  0.0149  0.0956
 
 occupancies and eigenvectors
 
  o =  0.0339  v =  0.0000  0.0000  0.0000  0.0000  0.0000 -0.4832  0.2275 -0.8150  0.2241  0.0178      0.0000  0.0000  0.0000  0.0000  0.0000  0.0000  0.0000  0.0000  0.0000  0.0000
  o =  0.0642  v =  0.0000  0.0000  0.0000  0.0000  0.0000  0.0087  0.5693 -0.0013 -0.6079  0.5535      0.0000  0.0000  0.0000  0.0000  0.0000  0.0000  0.0000  0.0000  0.0000  0.0000
  o =  0.1045  v =  0.0000  0.0000  0.0000  0.0000  0.0000 -0.0022 -0.6839 -0.3633 -0.6326  0.0078      0.0000  0.0000  0.0000  0.0000  0.0000  0.0000  0.0000  0.0000  0.0000  0.0000
  o =  0.1096  v =  0.0000  0.0000  0.0000  0.0000  0.0000  0.0129 -0.3757  0.0174  0.4064  0.8326      0.0000  0.0000  0.0000  0.0000  0.0000  0.0000  0.0000  0.0000  0.0000  0.0000
  o =  0.1621  v =  0.0000  0.0000  0.0000  0.0000  0.0000 -0.8754 -0.1237  0.4511 -0.1221  0.0080      0.0000  0.0000  0.0000  0.0000  0.0000  0.0000  0.0000  0.0000  0.0000  0.0000
  o =  0.8863  v = -0.1642 -0.6079 -0.1319 -0.6646 -0.3801  0.0000  0.0000  0.0000  0.0000  0.0000      0.0000  0.0000  0.0000  0.0000  0.0000  0.0000  0.0000  0.0000  0.0000  0.0000
  o =  0.8867  v = -0.0672 -0.3420 -0.0428 -0.1868  0.9175  0.0000  0.0000  0.0000  0.0000  0.0000      0.0000  0.0000  0.0000  0.0000  0.0000  0.0000  0.0000  0.0000  0.0000  0.0000
  o =  0.9182  v = -0.6452  0.1573 -0.7313  0.1555  0.0089  0.0000  0.0000  0.0000  0.0000  0.0000      0.0000  0.0000  0.0000  0.0000  0.0000  0.0000  0.0000  0.0000  0.0000  0.0000
  o =  0.9391  v =  0.7430 -0.0434 -0.6677 -0.0138  0.0043  0.0000  0.0000  0.0000  0.0000  0.0000      0.0000  0.0000  0.0000  0.0000  0.0000  0.0000  0.0000  0.0000  0.0000  0.0000
  o =  0.9482  v =  0.0157  0.6978 -0.0125 -0.7064  0.1168  0.0000  0.0000  0.0000  0.0000  0.0000      0.0000  0.0000  0.0000  0.0000  0.0000  0.0000  0.0000  0.0000  0.0000  0.0000
     EDDAV:  cpu time    2.2618: real time    2.2798
 BZINTS: Fermi energy:  3.764511; 54.000000 electrons
         Band energy:-761.018870;  BLOECHL correction:  0.000000
       DOS:  cpu time    0.0088: real time    0.0088
    CHARGE:  cpu time    0.0972: real time    0.0972
    MIXING:  cpu time    0.0005: real time    0.0005
    --------------------------------------------
      LOOP:  cpu time    4.3383: real time    4.3563

 eigenvalue-minimisations  :  8748
 total energy-change (2. order) :-0.2004367E+02  (-0.1076560E+03)
 number of electron      53.9999999 magnetization       0.0000000
 augmentation part       20.6536343 magnetization      -0.0004056

 Broyden mixing:
  rms(total) = 0.19964E+01    rms(broyden)= 0.19964E+01
  rms(prec ) = 0.21725E+01
  weight for this iteration     100.00

 Free energy of the ion-electron system (eV)
  ---------------------------------------------------
  alpha Z        PSCENC =       202.60927324
  Ewald energy   TEWEN  =     -4243.51006688
  -Hartree energ DENC   =     -2081.34872956
  -exchange      EXHF   =         0.00000000
  -V(xc)+E(xc)   XCENC  =       294.33408699
  PAW double counting   =      7521.89652664    -7642.46267009
  entropy T*S    EENTRO =         0.00000000
  eigenvalues    EBANDS =      -761.01886992
  atomic energy  EATOM  =      6689.45677594
  Solvation  Ediel_sol  =         0.00000000
  ---------------------------------------------------
  free energy    TOTEN  =       -20.04367364 eV

  energy without entropy =      -20.04367364  energy(sigma->0) =      -20.04367364


--------------------------------------------------------------------------------------------------------




--------------------------------------- Iteration      1(   2)  ---------------------------------------


    POTLOK:  cpu time    0.0048: real time    0.0048
    SETDIJ:  cpu time    1.9797: real time    1.9797
atom =   1  type =  1  l = 2
 
 onsite density matrix
 
spin component  1
 
  0.0247 -0.0018  0.0313 -0.0019 -0.0000
 -0.0018  0.0173 -0.0009  0.0222  0.0014
  0.0313 -0.0009  0.0159 -0.0011 -0.0002
 -0.0019  0.0222 -0.0011  0.0174 -0.0019
 -0.0000  0.0014 -0.0002 -0.0019 -0.0220
 
spin component  2
 
  1.0179  0.0069 -0.0000  0.0072  0.0000
  0.0069  0.9906  0.0050  0.0242 -0.0060
 -0.0000  0.0050  0.9805  0.0052  0.0006
  0.0072  0.0242  0.0052  0.9900  0.0068
  0.0000 -0.0060  0.0006  0.0068  0.9997
 
 occupancies and eigenvectors
 
  o = -0.0223  v =  0.0051  0.0883 -0.0098 -0.0969 -0.9913  0.0000  0.0000  0.0000  0.0000  0.0000      0.0000  0.0000  0.0000  0.0000  0.0000  0.0000  0.0000  0.0000  0.0000  0.0000
  o = -0.0113  v =  0.6565  0.0114 -0.7541  0.0070  0.0112  0.0000  0.0000  0.0000  0.0000  0.0000      0.0000  0.0000  0.0000  0.0000  0.0000  0.0000  0.0000  0.0000  0.0000  0.0000
  o = -0.0045  v = -0.0046  0.7022  0.0020 -0.6998  0.1309  0.0000  0.0000  0.0000  0.0000  0.0000      0.0000  0.0000  0.0000  0.0000  0.0000  0.0000  0.0000  0.0000  0.0000  0.0000
  o =  0.0389  v =  0.1538  0.6903  0.1507  0.6907 -0.0068  0.0000  0.0000  0.0000  0.0000  0.0000      0.0000  0.0000  0.0000  0.0000  0.0000  0.0000  0.0000  0.0000  0.0000  0.0000
  o =  0.0526  v = -0.7385  0.1501 -0.6391  0.1538  0.0009  0.0000  0.0000  0.0000  0.0000  0.0000      0.0000  0.0000  0.0000  0.0000  0.0000  0.0000  0.0000  0.0000  0.0000  0.0000
  o =  0.9638  v =  0.0000  0.0000  0.0000  0.0000  0.0000  0.0055  0.6779  0.0053 -0.6931  0.2450      0.0000  0.0000  0.0000  0.0000  0.0000  0.0000  0.0000  0.0000  0.0000  0.0000
  o =  0.9789  v =  0.0000  0.0000  0.0000  0.0000  0.0000 -0.0551  0.1514 -0.9754  0.1486  0.0238      0.0000  0.0000  0.0000  0.0000  0.0000  0.0000  0.0000  0.0000  0.0000  0.0000
  o =  1.0020  v =  0.0000  0.0000  0.0000  0.0000  0.0000  0.0408 -0.2250  0.0049  0.1218  0.9659      0.0000  0.0000  0.0000  0.0000  0.0000  0.0000  0.0000  0.0000  0.0000  0.0000
  o =  1.0073  v =  0.0000  0.0000  0.0000  0.0000  0.0000  0.6672 -0.4987 -0.1950 -0.5118 -0.0788      0.0000  0.0000  0.0000  0.0000  0.0000  0.0000  0.0000  0.0000  0.0000  0.0000
  o =  1.0268  v =  0.0000  0.0000  0.0000  0.0000  0.0000 -0.7417 -0.4671 -0.1027 -0.4699 -0.0177      0.0000  0.0000  0.0000  0.0000  0.0000  0.0000  0.0000  0.0000  0.0000  0.0000
atom =   2  type =  1  l = 2
 
 onsite density matrix
 
spin component  1
 
  1.0108  0.0059 -0.0292  0.0060 -0.0000
  0.0059  0.9954  0.0084  0.0015 -0.0081
 -0.0292  0.0084  0.9817  0.0082  0.0009
  0.0060  0.0015  0.0082  0.9938  0.0086
 -0.0000 -0.0081  0.0009  0.0086  0.9950
 
spin component  2
 
  0.0339 -0.0015 -0.0262 -0.0015  0.0002
 -0.0015  0.0124 -0.0019 -0.0284  0.0024
 -0.0262 -0.0019  0.0162 -0.0019 -0.0004
 -0.0015 -0.0284 -0.0019  0.0133 -0.0029
  0.0002  0.0024 -0.0004 -0.0029 -0.0186
 
 occupancies and eigenvectors
 
  o = -0.0188  v =  0.0000  0.0000  0.0000  0.0000  0.0000 -0.0199 -0.0473 -0.0360 -0.1334 -0.9891      0.0000  0.0000  0.0000  0.0000  0.0000  0.0000  0.0000  0.0000  0.0000  0.0000
  o = -0.0164  v =  0.0000  0.0000  0.0000  0.0000  0.0000  0.1420  0.6917  0.1931  0.6681 -0.1330      0.0000  0.0000  0.0000  0.0000  0.0000  0.0000  0.0000  0.0000  0.0000  0.0000
  o = -0.0018  v =  0.0000  0.0000  0.0000  0.0000  0.0000 -0.5649  0.1724 -0.7885  0.1712  0.0087      0.0000  0.0000  0.0000  0.0000  0.0000  0.0000  0.0000  0.0000  0.0000  0.0000
  o =  0.0415  v =  0.0000  0.0000  0.0000  0.0000  0.0000  0.0001 -0.6997  0.0008  0.7117 -0.0626      0.0000  0.0000  0.0000  0.0000  0.0000  0.0000  0.0000  0.0000  0.0000  0.0000
  o =  0.0528  v =  0.0000  0.0000  0.0000  0.0000  0.0000  0.8126 -0.0021 -0.5828 -0.0011  0.0051      0.0000  0.0000  0.0000  0.0000  0.0000  0.0000  0.0000  0.0000  0.0000  0.0000
  o =  0.9582  v = -0.4963  0.2494 -0.7925  0.2516  0.0148  0.0000  0.0000  0.0000  0.0000  0.0000      0.0000  0.0000  0.0000  0.0000  0.0000  0.0000  0.0000  0.0000  0.0000  0.0000
  o =  0.9822  v = -0.0037 -0.4843  0.0127  0.5526 -0.6782  0.0000  0.0000  0.0000  0.0000  0.0000      0.0000  0.0000  0.0000  0.0000  0.0000  0.0000  0.0000  0.0000  0.0000  0.0000
  o =  1.0016  v = -0.1596 -0.6742 -0.3180 -0.6453 -0.0495  0.0000  0.0000  0.0000  0.0000  0.0000      0.0000  0.0000  0.0000  0.0000  0.0000  0.0000  0.0000  0.0000  0.0000  0.0000
  o =  1.0059  v =  0.0120 -0.4982 -0.0036  0.4630  0.7329  0.0000  0.0000  0.0000  0.0000  0.0000      0.0000  0.0000  0.0000  0.0000  0.0000  0.0000  0.0000  0.0000  0.0000  0.0000
  o =  1.0289  v = -0.8533 -0.0238  0.5203 -0.0215  0.0139  0.0000  0.0000  0.0000  0.0000  0.0000      0.0000  0.0000  0.0000  0.0000  0.0000  0.0000  0.0000  0.0000  0.0000  0.0000
     EDDAV:  cpu time    1.9532: real time    1.9535
 BZINTS: Fermi energy:  1.461000; 54.000000 electrons
         Band energy:-750.207044;  BLOECHL correction:  0.000000
       DOS:  cpu time    0.0047: real time    0.0048
    CHARGE:  cpu time    0.0966: real time    0.0966
    MIXING:  cpu time    0.0005: real time    0.0005
    --------------------------------------------
      LOOP:  cpu time    4.0395: real time    4.0398

 eigenvalue-minimisations  :  7632
 total energy-change (2. order) :-0.1927263E+02  (-0.2023249E+02)
 number of electron      53.9999999 magnetization       0.0000000
 augmentation part       19.8875115 magnetization       0.0005828

 Broyden mixing:
  rms(total) = 0.23118E+01    rms(broyden)= 0.23118E+01
  rms(prec ) = 0.23420E+01
  weight for this iteration     100.00

 eigenvalues of (default mixing * dielectric matrix)
  average eigenvalue GAMMA=   0.2388
  0.2388

 Free energy of the ion-electron system (eV)
  ---------------------------------------------------
  alpha Z        PSCENC =       202.60927324
  Ewald energy   TEWEN  =     -4243.51006688
  -Hartree energ DENC   =     -2114.06753673
  -exchange      EXHF   =         0.00000000
  -V(xc)+E(xc)   XCENC  =       296.46467742
  PAW double counting   =      7379.42769726    -7499.49008325
  entropy T*S    EENTRO =         0.00000000
  eigenvalues    EBANDS =      -750.20704390
  atomic energy  EATOM  =      6689.45677594
  Solvation  Ediel_sol  =         0.00000000
  ---------------------------------------------------
  free energy    TOTEN  =       -39.31630690 eV

  energy without entropy =      -39.31630690  energy(sigma->0) =      -39.31630690


--------------------------------------------------------------------------------------------------------




--------------------------------------- Iteration      1(   3)  ---------------------------------------


    POTLOK:  cpu time    0.0051: real time    0.0051
    SETDIJ:  cpu time    1.9645: real time    1.9645
atom =   1  type =  1  l = 2
 
 onsite density matrix
 
spin component  1
 
  0.0424  0.0005  0.0225  0.0005 -0.0000
  0.0005  0.0296  0.0007  0.0223 -0.0007
  0.0225  0.0007  0.0261  0.0006  0.0000
  0.0005  0.0223  0.0006  0.0296  0.0006
 -0.0000 -0.0007  0.0000  0.0006  0.0044
 
spin component  2
 
  0.9963  0.0038  0.0113  0.0039  0.0000
  0.0038  0.9775  0.0027  0.0230 -0.0031
  0.0113  0.0027  0.9695  0.0028  0.0003
  0.0039  0.0230  0.0028  0.9771  0.0034
  0.0000 -0.0031  0.0003  0.0034  0.9707
 
 occupancies and eigenvectors
 
  o =  0.0041  v =  0.0045  0.2073 -0.0070 -0.2053  0.9565  0.0000  0.0000  0.0000  0.0000  0.0000      0.0000  0.0000  0.0000  0.0000  0.0000  0.0000  0.0000  0.0000  0.0000  0.0000
  o =  0.0076  v = -0.0027 -0.6752  0.0045  0.6774  0.2918  0.0000  0.0000  0.0000  0.0000  0.0000      0.0000  0.0000  0.0000  0.0000  0.0000  0.0000  0.0000  0.0000  0.0000  0.0000
  o =  0.0103  v = -0.5745 -0.0001  0.8184 -0.0106  0.0064  0.0000  0.0000  0.0000  0.0000  0.0000      0.0000  0.0000  0.0000  0.0000  0.0000  0.0000  0.0000  0.0000  0.0000  0.0000
  o =  0.0517  v =  0.1449 -0.6973  0.0927 -0.6958  0.0018  0.0000  0.0000  0.0000  0.0000  0.0000      0.0000  0.0000  0.0000  0.0000  0.0000  0.0000  0.0000  0.0000  0.0000  0.0000
  o =  0.0584  v = -0.8055 -0.1220 -0.5671 -0.1210  0.0001  0.0000  0.0000  0.0000  0.0000  0.0000      0.0000  0.0000  0.0000  0.0000  0.0000  0.0000  0.0000  0.0000  0.0000  0.0000
  o =  0.9531  v =  0.0000  0.0000  0.0000  0.0000  0.0000  0.0035  0.6801 -0.0014 -0.6879  0.2537      0.0000  0.0000  0.0000  0.0000  0.0000  0.0000  0.0000  0.0000  0.0000  0.0000
  o =  0.9652  v =  0.0000  0.0000  0.0000  0.0000  0.0000 -0.3341 -0.0285  0.9401 -0.0463 -0.0394      0.0000  0.0000  0.0000  0.0000  0.0000  0.0000  0.0000  0.0000  0.0000  0.0000
  o =  0.9719  v =  0.0000  0.0000  0.0000  0.0000  0.0000 -0.0170 -0.1849  0.0374  0.1735  0.9665      0.0000  0.0000  0.0000  0.0000  0.0000  0.0000  0.0000  0.0000  0.0000  0.0000
  o =  0.9940  v =  0.0000  0.0000  0.0000  0.0000  0.0000  0.6786 -0.5033  0.2013 -0.4956 -0.0032      0.0000  0.0000  0.0000  0.0000  0.0000  0.0000  0.0000  0.0000  0.0000  0.0000
  o =  1.0069  v =  0.0000  0.0000  0.0000  0.0000  0.0000 -0.6539 -0.4993 -0.2724 -0.4989 -0.0069      0.0000  0.0000  0.0000  0.0000  0.0000  0.0000  0.0000  0.0000  0.0000  0.0000
atom =   2  type =  1  l = 2
 
 onsite density matrix
 
spin component  1
 
  0.9941  0.0030 -0.0272  0.0031  0.0000
  0.0030  0.9790  0.0045 -0.0093 -0.0043
 -0.0272  0.0045  0.9706  0.0044  0.0004
  0.0031 -0.0093  0.0044  0.9783  0.0045
  0.0000 -0.0043  0.0004  0.0045  0.9685
 
spin component  2
 
  0.0463  0.0006 -0.0268  0.0006  0.0001
  0.0006  0.0279  0.0009 -0.0197 -0.0005
 -0.0268  0.0009  0.0264  0.0008 -0.0000
  0.0006 -0.0197  0.0008  0.0281  0.0003
  0.0001 -0.0005 -0.0000  0.0003  0.0054
 
 occupancies and eigenvectors
 
  o =  0.0054  v =  0.0000  0.0000  0.0000  0.0000  0.0000 -0.0375  0.0596 -0.0509  0.0411  0.9954      0.0000  0.0000  0.0000  0.0000  0.0000  0.0000  0.0000  0.0000  0.0000  0.0000
  o =  0.0065  v =  0.0000  0.0000  0.0000  0.0000  0.0000 -0.4362  0.4511 -0.6277  0.4510 -0.0942      0.0000  0.0000  0.0000  0.0000  0.0000  0.0000  0.0000  0.0000  0.0000  0.0000
  o =  0.0095  v =  0.0000  0.0000  0.0000  0.0000  0.0000  0.3661  0.5434  0.5270  0.5411 -0.0142      0.0000  0.0000  0.0000  0.0000  0.0000  0.0000  0.0000  0.0000  0.0000  0.0000
  o =  0.0476  v =  0.0000  0.0000  0.0000  0.0000  0.0000  0.0024  0.7054 -0.0019 -0.7086 -0.0130      0.0000  0.0000  0.0000  0.0000  0.0000  0.0000  0.0000  0.0000  0.0000  0.0000
  o =  0.0649  v =  0.0000  0.0000  0.0000  0.0000  0.0000 -0.8212  0.0020  0.5707 -0.0023 -0.0018      0.0000  0.0000  0.0000  0.0000  0.0000  0.0000  0.0000  0.0000  0.0000  0.0000
  o =  0.9497  v = -0.5123  0.2558 -0.7783  0.2572  0.0145  0.0000  0.0000  0.0000  0.0000  0.0000      0.0000  0.0000  0.0000  0.0000  0.0000  0.0000  0.0000  0.0000  0.0000  0.0000
  o =  0.9667  v =  0.0002  0.1592 -0.0091 -0.2394  0.9577  0.0000  0.0000  0.0000  0.0000  0.0000      0.0000  0.0000  0.0000  0.0000  0.0000  0.0000  0.0000  0.0000  0.0000  0.0000
  o =  0.9723  v = -0.1973 -0.6588 -0.3047 -0.6564 -0.0575  0.0000  0.0000  0.0000  0.0000  0.0000      0.0000  0.0000  0.0000  0.0000  0.0000  0.0000  0.0000  0.0000  0.0000  0.0000
  o =  0.9898  v =  0.0011  0.6894  0.0001 -0.6675 -0.2814  0.0000  0.0000  0.0000  0.0000  0.0000      0.0000  0.0000  0.0000  0.0000  0.0000  0.0000  0.0000  0.0000  0.0000  0.0000
  o =  1.0120  v = -0.8358 -0.0004  0.5490 -0.0036  0.0046  0.0000  0.0000  0.0000  0.0000  0.0000      0.0000  0.0000  0.0000  0.0000  0.0000  0.0000  0.0000  0.0000  0.0000  0.0000
     EDDAV:  cpu time    2.0790: real time    2.0790
 BZINTS: Fermi energy:  1.396164; 54.000000 electrons
         Band energy:-752.610688;  BLOECHL correction:  0.000000
       DOS:  cpu time    0.0047: real time    0.0047
    CHARGE:  cpu time    0.0970: real time    0.0970
    MIXING:  cpu time    0.0005: real time    0.0005
    --------------------------------------------
      LOOP:  cpu time    4.1509: real time    4.1509

 eigenvalue-minimisations  :  8208
 total energy-change (2. order) :-0.2676616E+00  (-0.2848782E+00)
 number of electron      53.9999999 magnetization       0.0000000
 augmentation part       19.9143143 magnetization       0.0004145

 Broyden mixing:
  rms(total) = 0.17733E+01    rms(broyden)= 0.17733E+01
  rms(prec ) = 0.17966E+01
  weight for this iteration     100.00

 eigenvalues of (default mixing * dielectric matrix)
  average eigenvalue GAMMA=   1.0596
  1.5550  0.5641

 Free energy of the ion-electron system (eV)
  ---------------------------------------------------
  alpha Z        PSCENC =       202.60927324
  Ewald energy   TEWEN  =     -4243.51006688
  -Hartree energ DENC   =     -2112.88607608
  -exchange      EXHF   =         0.00000000
  -V(xc)+E(xc)   XCENC  =       296.25382080
  PAW double counting   =      7204.78132544    -7323.67833318
  entropy T*S    EENTRO =         0.00000000
  eigenvalues    EBANDS =      -752.61068782
  atomic energy  EATOM  =      6689.45677594
  Solvation  Ediel_sol  =         0.00000000
  ---------------------------------------------------
  free energy    TOTEN  =       -39.58396854 eV

  energy without entropy =      -39.58396854  energy(sigma->0) =      -39.58396854


--------------------------------------------------------------------------------------------------------




--------------------------------------- Iteration      1(   4)  ---------------------------------------


    POTLOK:  cpu time    0.0048: real time    0.0048
    SETDIJ:  cpu time    1.9464: real time    1.9464
atom =   1  type =  1  l = 2
 
 onsite density matrix
 
spin component  1
 
  0.0455  0.0004  0.0274  0.0004 -0.0000
  0.0004  0.0362  0.0001  0.0227  0.0004
  0.0274  0.0001  0.0306  0.0001 -0.0001
  0.0004  0.0227  0.0001  0.0361 -0.0006
 -0.0000  0.0004 -0.0001 -0.0006  0.0097
 
spin component  2
 
  0.9810  0.0012  0.0140  0.0013  0.0000
  0.0012  0.9687  0.0013  0.0191 -0.0021
  0.0140  0.0013  0.9631  0.0013  0.0002
  0.0013  0.0191  0.0013  0.9686  0.0023
  0.0000 -0.0021  0.0002  0.0023  0.9574
 
 occupancies and eigenvectors
 
  o =  0.0095  v =  0.1531  0.1242 -0.2014 -0.1292 -0.9507  0.0000  0.0000  0.0000  0.0000  0.0000      0.0000  0.0000  0.0000  0.0000  0.0000  0.0000  0.0000  0.0000  0.0000  0.0000
  o =  0.0097  v = -0.5878  0.0337  0.7684 -0.0280 -0.2492  0.0000  0.0000  0.0000  0.0000  0.0000      0.0000  0.0000  0.0000  0.0000  0.0000  0.0000  0.0000  0.0000  0.0000  0.0000
  o =  0.0136  v = -0.0017  0.6945  0.0027 -0.6955  0.1844  0.0000  0.0000  0.0000  0.0000  0.0000      0.0000  0.0000  0.0000  0.0000  0.0000  0.0000  0.0000  0.0000  0.0000  0.0000
  o =  0.0588  v =  0.0583 -0.7058  0.0506 -0.7042  0.0022  0.0000  0.0000  0.0000  0.0000  0.0000      0.0000  0.0000  0.0000  0.0000  0.0000  0.0000  0.0000  0.0000  0.0000  0.0000
  o =  0.0665  v = -0.7922 -0.0545 -0.6053 -0.0545  0.0010  0.0000  0.0000  0.0000  0.0000  0.0000      0.0000  0.0000  0.0000  0.0000  0.0000  0.0000  0.0000  0.0000  0.0000  0.0000
  o =  0.9485  v =  0.0000  0.0000  0.0000  0.0000  0.0000 -0.0037 -0.6662  0.0064  0.6696 -0.3281      0.0000  0.0000  0.0000  0.0000  0.0000  0.0000  0.0000  0.0000  0.0000  0.0000
  o =  0.9554  v =  0.0000  0.0000  0.0000  0.0000  0.0000  0.4792 -0.0004 -0.8760  0.0327  0.0449      0.0000  0.0000  0.0000  0.0000  0.0000  0.0000  0.0000  0.0000  0.0000  0.0000
  o =  0.9585  v =  0.0000  0.0000  0.0000  0.0000  0.0000 -0.0266 -0.2363  0.0424  0.2267  0.9436      0.0000  0.0000  0.0000  0.0000  0.0000  0.0000  0.0000  0.0000  0.0000  0.0000
  o =  0.9858  v =  0.0000  0.0000  0.0000  0.0000  0.0000 -0.5708  0.5434 -0.2921  0.5418  0.0029      0.0000  0.0000  0.0000  0.0000  0.0000  0.0000  0.0000  0.0000  0.0000  0.0000
  o =  0.9907  v =  0.0000  0.0000  0.0000  0.0000  0.0000 -0.6662 -0.4527 -0.3815 -0.4534 -0.0061      0.0000  0.0000  0.0000  0.0000  0.0000  0.0000  0.0000  0.0000  0.0000  0.0000
atom =   2  type =  1  l = 2
 
 onsite density matrix
 
spin component  1
 
  0.9797  0.0019 -0.0224  0.0019  0.0001
  0.0019  0.9702  0.0021 -0.0126 -0.0016
 -0.0224  0.0021  0.9621  0.0020  0.0003
  0.0019 -0.0126  0.0020  0.9698  0.0017
  0.0001 -0.0016  0.0003  0.0017  0.9569
 
spin component  2
 
  0.0474 -0.0004 -0.0273 -0.0004 -0.0000
 -0.0004  0.0346  0.0001 -0.0226 -0.0002
 -0.0273  0.0001  0.0318  0.0001 -0.0001
 -0.0004 -0.0226  0.0001  0.0347  0.0002
 -0.0000 -0.0002 -0.0001  0.0002  0.0098
 
 occupancies and eigenvectors
 
  o =  0.0098  v =  0.0000  0.0000  0.0000  0.0000  0.0000  0.0400  0.0243  0.0534  0.0164  0.9973      0.0000  0.0000  0.0000  0.0000  0.0000  0.0000  0.0000  0.0000  0.0000  0.0000
  o =  0.0111  v =  0.0000  0.0000  0.0000  0.0000  0.0000  0.5787  0.1969  0.7635  0.1952 -0.0721      0.0000  0.0000  0.0000  0.0000  0.0000  0.0000  0.0000  0.0000  0.0000  0.0000
  o =  0.0121  v =  0.0000  0.0000  0.0000  0.0000  0.0000  0.1605 -0.6798  0.2280 -0.6783  0.0090      0.0000  0.0000  0.0000  0.0000  0.0000  0.0000  0.0000  0.0000  0.0000  0.0000
  o =  0.0573  v =  0.0000  0.0000  0.0000  0.0000  0.0000 -0.0003 -0.7060  0.0017  0.7082  0.0055      0.0000  0.0000  0.0000  0.0000  0.0000  0.0000  0.0000  0.0000  0.0000  0.0000
  o =  0.0680  v =  0.0000  0.0000  0.0000  0.0000  0.0000 -0.7986  0.0075  0.6018  0.0058 -0.0004      0.0000  0.0000  0.0000  0.0000  0.0000  0.0000  0.0000  0.0000  0.0000  0.0000
  o =  0.9455  v = -0.5380  0.2211 -0.7831  0.2192  0.0205  0.0000  0.0000  0.0000  0.0000  0.0000      0.0000  0.0000  0.0000  0.0000  0.0000  0.0000  0.0000  0.0000  0.0000  0.0000
  o =  0.9567  v =  0.0004  0.0095 -0.0046 -0.1180  0.9930  0.0000  0.0000  0.0000  0.0000  0.0000      0.0000  0.0000  0.0000  0.0000  0.0000  0.0000  0.0000  0.0000  0.0000  0.0000
  o =  0.9587  v =  0.1624  0.6692  0.2670  0.6701  0.0744  0.0000  0.0000  0.0000  0.0000  0.0000      0.0000  0.0000  0.0000  0.0000  0.0000  0.0000  0.0000  0.0000  0.0000  0.0000
  o =  0.9828  v =  0.0029  0.7093  0.0002 -0.6991 -0.0899  0.0000  0.0000  0.0000  0.0000  0.0000      0.0000  0.0000  0.0000  0.0000  0.0000  0.0000  0.0000  0.0000  0.0000  0.0000
  o =  0.9949  v = -0.8272 -0.0099  0.5617 -0.0136  0.0014  0.0000  0.0000  0.0000  0.0000  0.0000      0.0000  0.0000  0.0000  0.0000  0.0000  0.0000  0.0000  0.0000  0.0000  0.0000
     EDDAV:  cpu time    2.0602: real time    2.0602
 BZINTS: Fermi energy:  1.133200; 54.000000 electrons
         Band energy:-758.669288;  BLOECHL correction:  0.000000
       DOS:  cpu time    0.0047: real time    0.0047
    CHARGE:  cpu time    0.0959: real time    0.0959
    MIXING:  cpu time    0.0006: real time    0.0006
    --------------------------------------------
      LOOP:  cpu time    4.1125: real time    4.1126

 eigenvalue-minimisations  :  8232
 total energy-change (2. order) : 0.8605364E-01  (-0.1015417E+00)
 number of electron      53.9999999 magnetization      -0.0000000
 augmentation part       19.9716515 magnetization       0.0004652

 Broyden mixing:
  rms(total) = 0.45606E+00    rms(broyden)= 0.45604E+00
  rms(prec ) = 0.48660E+00
  weight for this iteration     100.00

 eigenvalues of (default mixing * dielectric matrix)
  average eigenvalue GAMMA=   1.1620
  1.9499  0.7680  0.7680

 Free energy of the ion-electron system (eV)
  ---------------------------------------------------
  alpha Z        PSCENC =       202.60927324
  Ewald energy   TEWEN  =     -4243.51006688
  -Hartree energ DENC   =     -2112.62259785
  -exchange      EXHF   =         0.00000000
  -V(xc)+E(xc)   XCENC  =       296.31673372
  PAW double counting   =      6598.73310841    -6711.81185334
  entropy T*S    EENTRO =         0.00000000
  eigenvalues    EBANDS =      -758.66928814
  atomic energy  EATOM  =      6689.45677594
  Solvation  Ediel_sol  =         0.00000000
  ---------------------------------------------------
  free energy    TOTEN  =       -39.49791490 eV

  energy without entropy =      -39.49791490  energy(sigma->0) =      -39.49791490


--------------------------------------------------------------------------------------------------------




--------------------------------------- Iteration      1(   5)  ---------------------------------------


    POTLOK:  cpu time    0.0047: real time    0.0047
    SETDIJ:  cpu time    1.9392: real time    1.9392
atom =   1  type =  1  l = 2
 
 onsite density matrix
 
spin component  1
 
  0.0556  0.0010  0.0218  0.0011  0.0000
  0.0010  0.0423  0.0009  0.0230 -0.0016
  0.0218  0.0009  0.0362  0.0010  0.0002
  0.0011  0.0230  0.0010  0.0423  0.0018
  0.0000 -0.0016  0.0002  0.0018  0.0246
 
spin component  2
 
  0.9681 -0.0007  0.0247 -0.0007 -0.0000
 -0.0007  0.9646 -0.0006  0.0178  0.0012
  0.0247 -0.0006  0.9593 -0.0006 -0.0001
 -0.0007  0.0178 -0.0006  0.9646 -0.0014
 -0.0000  0.0012 -0.0001 -0.0014  0.9407
 
 occupancies and eigenvectors
 
  o =  0.0184  v = -0.0052 -0.6587  0.0078  0.6612 -0.3589  0.0000  0.0000  0.0000  0.0000  0.0000      0.0000  0.0000  0.0000  0.0000  0.0000  0.0000  0.0000  0.0000  0.0000  0.0000
  o =  0.0221  v = -0.5438  0.0100  0.8384 -0.0202 -0.0292  0.0000  0.0000  0.0000  0.0000  0.0000      0.0000  0.0000  0.0000  0.0000  0.0000  0.0000  0.0000  0.0000  0.0000  0.0000
  o =  0.0255  v = -0.0207 -0.2564  0.0282  0.2505  0.9329  0.0000  0.0000  0.0000  0.0000  0.0000      0.0000  0.0000  0.0000  0.0000  0.0000  0.0000  0.0000  0.0000  0.0000  0.0000
  o =  0.0645  v =  0.3001 -0.6619  0.1865 -0.6610 -0.0034  0.0000  0.0000  0.0000  0.0000  0.0000      0.0000  0.0000  0.0000  0.0000  0.0000  0.0000  0.0000  0.0000  0.0000  0.0000
  o =  0.0705  v = -0.7834 -0.2493 -0.5113 -0.2502 -0.0033  0.0000  0.0000  0.0000  0.0000  0.0000      0.0000  0.0000  0.0000  0.0000  0.0000  0.0000  0.0000  0.0000  0.0000  0.0000
  o =  0.9386  v =  0.0000  0.0000  0.0000  0.0000  0.0000  0.6409  0.0087 -0.7657 -0.0099 -0.0529      0.0000  0.0000  0.0000  0.0000  0.0000  0.0000  0.0000  0.0000  0.0000  0.0000
  o =  0.9402  v =  0.0000  0.0000  0.0000  0.0000  0.0000 -0.0366  0.1831  0.0405 -0.1880 -0.9634      0.0000  0.0000  0.0000  0.0000  0.0000  0.0000  0.0000  0.0000  0.0000  0.0000
  o =  0.9474  v =  0.0000  0.0000  0.0000  0.0000  0.0000  0.0007  0.6832 -0.0011 -0.6813  0.2627      0.0000  0.0000  0.0000  0.0000  0.0000  0.0000  0.0000  0.0000  0.0000  0.0000
  o =  0.9821  v =  0.0000  0.0000  0.0000  0.0000  0.0000  0.1522  0.6929  0.1266  0.6933 -0.0040      0.0000  0.0000  0.0000  0.0000  0.0000  0.0000  0.0000  0.0000  0.0000  0.0000
  o =  0.9890  v =  0.0000  0.0000  0.0000  0.0000  0.0000 -0.7515  0.1395 -0.6293  0.1405  0.0012      0.0000  0.0000  0.0000  0.0000  0.0000  0.0000  0.0000  0.0000  0.0000  0.0000
atom =   2  type =  1  l = 2
 
 onsite density matrix
 
spin component  1
 
  0.9706 -0.0011 -0.0205 -0.0011 -0.0000
 -0.0011  0.9627 -0.0012 -0.0213  0.0010
 -0.0205 -0.0012  0.9599 -0.0011 -0.0002
 -0.0011 -0.0213 -0.0011  0.9630 -0.0011
 -0.0000  0.0010 -0.0002 -0.0011  0.9415
 
spin component  2
 
  0.0532  0.0015 -0.0277  0.0014  0.0000
  0.0015  0.0442  0.0016 -0.0181 -0.0014
 -0.0277  0.0016  0.0354  0.0015  0.0002
  0.0014 -0.0181  0.0015  0.0439  0.0015
  0.0000 -0.0014  0.0002  0.0015  0.0237
 
 occupancies and eigenvectors
 
  o =  0.0144  v =  0.0000  0.0000  0.0000  0.0000  0.0000 -0.5710  0.1797 -0.7806  0.1786  0.0196      0.0000  0.0000  0.0000  0.0000  0.0000  0.0000  0.0000  0.0000  0.0000  0.0000
  o =  0.0236  v =  0.0000  0.0000  0.0000  0.0000  0.0000  0.0061  0.0022  0.0047 -0.0713  0.9974      0.0000  0.0000  0.0000  0.0000  0.0000  0.0000  0.0000  0.0000  0.0000  0.0000
  o =  0.0267  v =  0.0000  0.0000  0.0000  0.0000  0.0000  0.1441  0.6812  0.2092  0.6850  0.0456      0.0000  0.0000  0.0000  0.0000  0.0000  0.0000  0.0000  0.0000  0.0000  0.0000
  o =  0.0623  v =  0.0000  0.0000  0.0000  0.0000  0.0000  0.0018  0.7096  0.0001 -0.7027 -0.0518      0.0000  0.0000  0.0000  0.0000  0.0000  0.0000  0.0000  0.0000  0.0000  0.0000
  o =  0.0734  v =  0.0000  0.0000  0.0000  0.0000  0.0000 -0.8082 -0.0039  0.5889 -0.0061  0.0018      0.0000  0.0000  0.0000  0.0000  0.0000  0.0000  0.0000  0.0000  0.0000  0.0000
  o =  0.9403  v = -0.3144 -0.6021 -0.3989 -0.6032 -0.1254  0.0000  0.0000  0.0000  0.0000  0.0000      0.0000  0.0000  0.0000  0.0000  0.0000  0.0000  0.0000  0.0000  0.0000  0.0000
  o =  0.9414  v = -0.0275 -0.1103 -0.0313 -0.0609  0.9911  0.0000  0.0000  0.0000  0.0000  0.0000      0.0000  0.0000  0.0000  0.0000  0.0000  0.0000  0.0000  0.0000  0.0000  0.0000
  o =  0.9454  v =  0.5236 -0.3599  0.6828 -0.3598 -0.0261  0.0000  0.0000  0.0000  0.0000  0.0000      0.0000  0.0000  0.0000  0.0000  0.0000  0.0000  0.0000  0.0000  0.0000  0.0000
  o =  0.9842  v =  0.0058 -0.7041 -0.0032  0.7092 -0.0347  0.0000  0.0000  0.0000  0.0000  0.0000      0.0000  0.0000  0.0000  0.0000  0.0000  0.0000  0.0000  0.0000  0.0000  0.0000
  o =  0.9864  v = -0.7913 -0.0003  0.6113  0.0089 -0.0022  0.0000  0.0000  0.0000  0.0000  0.0000      0.0000  0.0000  0.0000  0.0000  0.0000  0.0000  0.0000  0.0000  0.0000  0.0000
     EDDAV:  cpu time    1.8554: real time    1.8554
 BZINTS: Fermi energy:  1.067709; 54.000000 electrons
         Band energy:-761.528066;  BLOECHL correction:  0.000000
       DOS:  cpu time    0.0056: real time    0.0056
    CHARGE:  cpu time    0.0957: real time    0.0957
    MIXING:  cpu time    0.0006: real time    0.0006
    --------------------------------------------
      LOOP:  cpu time    3.9013: real time    3.9013

 eigenvalue-minimisations  :  7272
 total energy-change (2. order) : 0.1849315E-01  (-0.9595514E-02)
 number of electron      53.9999999 magnetization      -0.0000000
 augmentation part       19.9798815 magnetization      -0.0000648

 Broyden mixing:
  rms(total) = 0.15235E+00    rms(broyden)= 0.15235E+00
  rms(prec ) = 0.16964E+00
  weight for this iteration     100.00

 eigenvalues of (default mixing * dielectric matrix)
  average eigenvalue GAMMA=   1.1193
  2.3419  0.7670  0.7670  0.6015

 Free energy of the ion-electron system (eV)
  ---------------------------------------------------
  alpha Z        PSCENC =       202.60927324
  Ewald energy   TEWEN  =     -4243.51006688
  -Hartree energ DENC   =     -2111.40256658
  -exchange      EXHF   =         0.00000000
  -V(xc)+E(xc)   XCENC  =       296.19763582
  PAW double counting   =      6381.94796375    -6493.25037094
  entropy T*S    EENTRO =         0.00000000
  eigenvalues    EBANDS =      -761.52806610
  atomic energy  EATOM  =      6689.45677594
  Solvation  Ediel_sol  =         0.00000000
  ---------------------------------------------------
  free energy    TOTEN  =       -39.47942175 eV

  energy without entropy =      -39.47942175  energy(sigma->0) =      -39.47942175


--------------------------------------------------------------------------------------------------------




--------------------------------------- Iteration      1(   6)  ---------------------------------------


    POTLOK:  cpu time    0.0047: real time    0.0047
    SETDIJ:  cpu time    1.9382: real time    1.9382
atom =   1  type =  1  l = 2
 
 onsite density matrix
 
spin component  1
 
  0.0468  0.0001  0.0262  0.0001  0.0000
  0.0001  0.0380  0.0001  0.0219  0.0001
  0.0262  0.0001  0.0322  0.0001 -0.0000
  0.0001  0.0219  0.0001  0.0380 -0.0001
  0.0000  0.0001 -0.0000 -0.0001  0.0140
 
spin component  2
 
  0.9770  0.0000  0.0211  0.0000 -0.0000
  0.0000  0.9697  0.0001  0.0188 -0.0002
  0.0211  0.0001  0.9639  0.0001  0.0000
  0.0000  0.0188  0.0001  0.9697  0.0002
 -0.0000 -0.0002  0.0000  0.0002  0.9513
 
 occupancies and eigenvectors
 
  o =  0.0123  v = -0.6050 -0.0005  0.7962  0.0009  0.0033  0.0000  0.0000  0.0000  0.0000  0.0000      0.0000  0.0000  0.0000  0.0000  0.0000  0.0000  0.0000  0.0000  0.0000  0.0000
  o =  0.0140  v = -0.0021  0.0273  0.0026 -0.0273 -0.9992  0.0000  0.0000  0.0000  0.0000  0.0000      0.0000  0.0000  0.0000  0.0000  0.0000  0.0000  0.0000  0.0000  0.0000  0.0000
  o =  0.0161  v = -0.0004  0.7065  0.0007 -0.7067  0.0386  0.0000  0.0000  0.0000  0.0000  0.0000      0.0000  0.0000  0.0000  0.0000  0.0000  0.0000  0.0000  0.0000  0.0000  0.0000
  o =  0.0599  v =  0.0200 -0.7070  0.0156 -0.7068  0.0000  0.0000  0.0000  0.0000  0.0000  0.0000      0.0000  0.0000  0.0000  0.0000  0.0000  0.0000  0.0000  0.0000  0.0000  0.0000
  o =  0.0667  v = -0.7960 -0.0179 -0.6048 -0.0180  0.0001  0.0000  0.0000  0.0000  0.0000  0.0000      0.0000  0.0000  0.0000  0.0000  0.0000  0.0000  0.0000  0.0000  0.0000  0.0000
  o =  0.9484  v =  0.0000  0.0000  0.0000  0.0000  0.0000 -0.5933 -0.0013  0.8049 -0.0006 -0.0061      0.0000  0.0000  0.0000  0.0000  0.0000  0.0000  0.0000  0.0000  0.0000  0.0000
  o =  0.9507  v =  0.0000  0.0000  0.0000  0.0000  0.0000  0.0021 -0.6212 -0.0026  0.6215 -0.4772      0.0000  0.0000  0.0000  0.0000  0.0000  0.0000  0.0000  0.0000  0.0000  0.0000
  o =  0.9514  v =  0.0000  0.0000  0.0000  0.0000  0.0000 -0.0032 -0.3378  0.0041  0.3372  0.8788      0.0000  0.0000  0.0000  0.0000  0.0000  0.0000  0.0000  0.0000  0.0000  0.0000
  o =  0.9885  v =  0.0000  0.0000  0.0000  0.0000  0.0000  0.0217 -0.7068  0.0142 -0.7069 -0.0005      0.0000  0.0000  0.0000  0.0000  0.0000  0.0000  0.0000  0.0000  0.0000  0.0000
  o =  0.9925  v =  0.0000  0.0000  0.0000  0.0000  0.0000 -0.8047 -0.0184 -0.5932 -0.0183 -0.0002      0.0000  0.0000  0.0000  0.0000  0.0000  0.0000  0.0000  0.0000  0.0000  0.0000
atom =   2  type =  1  l = 2
 
 onsite density matrix
 
spin component  1
 
  0.9768  0.0002 -0.0217  0.0002  0.0000
  0.0002  0.9699  0.0002 -0.0184 -0.0001
 -0.0217  0.0002  0.9636  0.0001  0.0000
  0.0002 -0.0184  0.0001  0.9699  0.0001
  0.0000 -0.0001  0.0000  0.0001  0.9513
 
spin component  2
 
  0.0470 -0.0000 -0.0263 -0.0000 -0.0000
 -0.0000  0.0378  0.0000 -0.0217 -0.0001
 -0.0263  0.0000  0.0324  0.0000 -0.0000
 -0.0000 -0.0217  0.0000  0.0378  0.0001
 -0.0000 -0.0001 -0.0000  0.0001  0.0139
 
 occupancies and eigenvectors
 
  o =  0.0124  v =  0.0000  0.0000  0.0000  0.0000  0.0000 -0.6052  0.0017 -0.7960  0.0019 -0.0078      0.0000  0.0000  0.0000  0.0000  0.0000  0.0000  0.0000  0.0000  0.0000  0.0000
  o =  0.0139  v =  0.0000  0.0000  0.0000  0.0000  0.0000 -0.0046  0.0014 -0.0063 -0.0022  1.0000      0.0000  0.0000  0.0000  0.0000  0.0000  0.0000  0.0000  0.0000  0.0000  0.0000
  o =  0.0161  v =  0.0000  0.0000  0.0000  0.0000  0.0000 -0.0027 -0.7071 -0.0012 -0.7071 -0.0006      0.0000  0.0000  0.0000  0.0000  0.0000  0.0000  0.0000  0.0000  0.0000  0.0000
  o =  0.0595  v =  0.0000  0.0000  0.0000  0.0000  0.0000  0.0003  0.7071 -0.0004 -0.7071 -0.0025      0.0000  0.0000  0.0000  0.0000  0.0000  0.0000  0.0000  0.0000  0.0000  0.0000
  o =  0.0669  v =  0.0000  0.0000  0.0000  0.0000  0.0000 -0.7961  0.0014  0.6052  0.0007  0.0001      0.0000  0.0000  0.0000  0.0000  0.0000  0.0000  0.0000  0.0000  0.0000  0.0000
  o =  0.9475  v = -0.5940  0.0565 -0.8004  0.0562  0.0081  0.0000  0.0000  0.0000  0.0000  0.0000      0.0000  0.0000  0.0000  0.0000  0.0000  0.0000  0.0000  0.0000  0.0000  0.0000
  o =  0.9513  v =  0.0034 -0.0196  0.0046 -0.0229  0.9995  0.0000  0.0000  0.0000  0.0000  0.0000      0.0000  0.0000  0.0000  0.0000  0.0000  0.0000  0.0000  0.0000  0.0000  0.0000
  o =  0.9515  v = -0.0462 -0.7044 -0.0652 -0.7047 -0.0295  0.0000  0.0000  0.0000  0.0000  0.0000      0.0000  0.0000  0.0000  0.0000  0.0000  0.0000  0.0000  0.0000  0.0000  0.0000
  o =  0.9883  v = -0.0005 -0.7073  0.0001  0.7069  0.0023  0.0000  0.0000  0.0000  0.0000  0.0000      0.0000  0.0000  0.0000  0.0000  0.0000  0.0000  0.0000  0.0000  0.0000  0.0000
  o =  0.9929  v = -0.8031 -0.0009  0.5958 -0.0016 -0.0000  0.0000  0.0000  0.0000  0.0000  0.0000      0.0000  0.0000  0.0000  0.0000  0.0000  0.0000  0.0000  0.0000  0.0000  0.0000
     EDDAV:  cpu time    2.0538: real time    2.0538
 BZINTS: Fermi energy:  1.080647; 54.000000 electrons
         Band energy:-761.708310;  BLOECHL correction:  0.000000
       DOS:  cpu time    0.0055: real time    0.0055
    CHARGE:  cpu time    0.0959: real time    0.0959
    MIXING:  cpu time    0.0007: real time    0.0007
    --------------------------------------------
      LOOP:  cpu time    4.0988: real time    4.0988

 eigenvalue-minimisations  :  8172
 total energy-change (2. order) :-0.1167789E-02  (-0.1810859E-02)
 number of electron      53.9999999 magnetization      -0.0000000
 augmentation part       19.9860874 magnetization      -0.0001136

 Broyden mixing:
  rms(total) = 0.70733E-01    rms(broyden)= 0.70732E-01
  rms(prec ) = 0.78471E-01
  weight for this iteration     100.00

 eigenvalues of (default mixing * dielectric matrix)
  average eigenvalue GAMMA=   1.1085
  2.3906  0.9138  0.9138  0.6621  0.6621

 Free energy of the ion-electron system (eV)
  ---------------------------------------------------
  alpha Z        PSCENC =       202.60927324
  Ewald energy   TEWEN  =     -4243.51006688
  -Hartree energ DENC   =     -2111.79594124
  -exchange      EXHF   =         0.00000000
  -V(xc)+E(xc)   XCENC  =       296.19399719
  PAW double counting   =      6358.11291229    -6468.83923054
  entropy T*S    EENTRO =         0.00000000
  eigenvalues    EBANDS =      -761.70830954
  atomic energy  EATOM  =      6689.45677594
  Solvation  Ediel_sol  =         0.00000000
  ---------------------------------------------------
  free energy    TOTEN  =       -39.48058954 eV

  energy without entropy =      -39.48058954  energy(sigma->0) =      -39.48058954


--------------------------------------------------------------------------------------------------------




--------------------------------------- Iteration      1(   7)  ---------------------------------------


    POTLOK:  cpu time    0.0047: real time    0.0047
    SETDIJ:  cpu time    1.9380: real time    1.9380
atom =   1  type =  1  l = 2
 
 onsite density matrix
 
spin component  1
 
  0.0474  0.0001  0.0257  0.0001 -0.0000
  0.0001  0.0383  0.0001  0.0218 -0.0001
  0.0257  0.0001  0.0327  0.0001  0.0000
  0.0001  0.0218  0.0001  0.0383  0.0001
 -0.0000 -0.0001  0.0000  0.0001  0.0147
 
spin component  2
 
  0.9766 -0.0000  0.0218 -0.0000 -0.0000
 -0.0000  0.9698  0.0000  0.0189 -0.0000
  0.0218  0.0000  0.9638 -0.0000 -0.0000
 -0.0000  0.0189 -0.0000  0.9698  0.0000
 -0.0000 -0.0000 -0.0000  0.0000  0.9507
 
 occupancies and eigenvectors
 
  o =  0.0133  v = -0.6021 -0.0001  0.7984  0.0001 -0.0050  0.0000  0.0000  0.0000  0.0000  0.0000      0.0000  0.0000  0.0000  0.0000  0.0000  0.0000  0.0000  0.0000  0.0000  0.0000
  o =  0.0147  v =  0.0031 -0.0489 -0.0039  0.0492 -0.9976  0.0000  0.0000  0.0000  0.0000  0.0000      0.0000  0.0000  0.0000  0.0000  0.0000  0.0000  0.0000  0.0000  0.0000  0.0000
  o =  0.0165  v =  0.0002  0.7053 -0.0001 -0.7055 -0.0693  0.0000  0.0000  0.0000  0.0000  0.0000      0.0000  0.0000  0.0000  0.0000  0.0000  0.0000  0.0000  0.0000  0.0000  0.0000
  o =  0.0601  v =  0.0224 -0.7069  0.0169 -0.7068 -0.0002  0.0000  0.0000  0.0000  0.0000  0.0000      0.0000  0.0000  0.0000  0.0000  0.0000  0.0000  0.0000  0.0000  0.0000  0.0000
  o =  0.0667  v = -0.7981 -0.0198 -0.6019 -0.0199 -0.0001  0.0000  0.0000  0.0000  0.0000  0.0000      0.0000  0.0000  0.0000  0.0000  0.0000  0.0000  0.0000  0.0000  0.0000  0.0000
  o =  0.9475  v =  0.0000  0.0000  0.0000  0.0000  0.0000  0.5993  0.0006 -0.8006  0.0001 -0.0002      0.0000  0.0000  0.0000  0.0000  0.0000  0.0000  0.0000  0.0000  0.0000  0.0000
  o =  0.9507  v =  0.0000  0.0000  0.0000  0.0000  0.0000  0.0002  0.0336 -0.0002 -0.0335  0.9989      0.0000  0.0000  0.0000  0.0000  0.0000  0.0000  0.0000  0.0000  0.0000  0.0000
  o =  0.9508  v =  0.0000  0.0000  0.0000  0.0000  0.0000 -0.0003  0.7063  0.0003 -0.7063 -0.0474      0.0000  0.0000  0.0000  0.0000  0.0000  0.0000  0.0000  0.0000  0.0000  0.0000
  o =  0.9887  v =  0.0000  0.0000  0.0000  0.0000  0.0000  0.0049  0.7071  0.0043  0.7071 -0.0000      0.0000  0.0000  0.0000  0.0000  0.0000  0.0000  0.0000  0.0000  0.0000  0.0000
  o =  0.9929  v =  0.0000  0.0000  0.0000  0.0000  0.0000 -0.8005  0.0046 -0.5992  0.0046  0.0000      0.0000  0.0000  0.0000  0.0000  0.0000  0.0000  0.0000  0.0000  0.0000  0.0000
atom =   2  type =  1  l = 2
 
 onsite density matrix
 
spin component  1
 
  0.9767 -0.0000 -0.0218 -0.0000  0.0000
 -0.0000  0.9697 -0.0000 -0.0190  0.0000
 -0.0218 -0.0000  0.9637 -0.0000 -0.0000
 -0.0000 -0.0190 -0.0000  0.9697 -0.0000
  0.0000  0.0000 -0.0000 -0.0000  0.9507
 
spin component  2
 
  0.0473  0.0001 -0.0261  0.0001  0.0000
  0.0001  0.0383  0.0001 -0.0214 -0.0001
 -0.0261  0.0001  0.0327  0.0001  0.0000
  0.0001 -0.0214  0.0001  0.0383  0.0001
  0.0000 -0.0001  0.0000  0.0001  0.0147
 
 occupancies and eigenvectors
 
  o =  0.0128  v =  0.0000  0.0000  0.0000  0.0000  0.0000  0.6036 -0.0357  0.7957 -0.0357 -0.0055      0.0000  0.0000  0.0000  0.0000  0.0000  0.0000  0.0000  0.0000  0.0000  0.0000
  o =  0.0147  v =  0.0000  0.0000  0.0000  0.0000  0.0000  0.0033  0.0004  0.0042 -0.0045  1.0000      0.0000  0.0000  0.0000  0.0000  0.0000  0.0000  0.0000  0.0000  0.0000  0.0000
  o =  0.0168  v =  0.0000  0.0000  0.0000  0.0000  0.0000  0.0307  0.7060  0.0401  0.7064  0.0026      0.0000  0.0000  0.0000  0.0000  0.0000  0.0000  0.0000  0.0000  0.0000  0.0000
  o =  0.0597  v =  0.0000  0.0000  0.0000  0.0000  0.0000  0.0003  0.7073 -0.0002 -0.7069 -0.0035      0.0000  0.0000  0.0000  0.0000  0.0000  0.0000  0.0000  0.0000  0.0000  0.0000
  o =  0.0671  v =  0.0000  0.0000  0.0000  0.0000  0.0000 -0.7967  0.0004  0.6044 -0.0001  0.0001      0.0000  0.0000  0.0000  0.0000  0.0000  0.0000  0.0000  0.0000  0.0000  0.0000
  o =  0.9475  v =  0.5979  0.0058  0.8016  0.0058  0.0001  0.0000  0.0000  0.0000  0.0000  0.0000      0.0000  0.0000  0.0000  0.0000  0.0000  0.0000  0.0000  0.0000  0.0000  0.0000
[...]
     18      -2.6684      1.00000
     19      -2.4228      1.00000
     20      -1.9734      1.00000
     21      -1.6958      1.00000
     22      -1.5686      1.00000
     23      -0.9207      1.00000
     24      -0.6098      1.00000
     25      -0.2952      1.00000
     26       0.2829      1.00000
     27       0.9298      1.00000
     28       7.8127      0.00000
     29       7.8467      0.00000
     30       8.0819      0.00000
     31       8.6294      0.00000
     32       9.2193      0.00000
     33       9.4434      0.00000
     34      10.7849      0.00000
     35      11.3997      0.00000
     36      12.4292      0.00000

 k-point    48 :      -0.1250   -0.1250    0.4167
  band No.  band energies     occupation 
      1     -46.0326      1.00000
      2     -46.0038      1.00000
      3     -45.9783      1.00000
      4     -41.4049      1.00000
      5     -41.3835      1.00000
      6     -41.3506      1.00000
      7     -20.5696      1.00000
      8     -20.4235      1.00000
      9     -20.3787      1.00000
     10     -20.2561      1.00000
     11      -4.5546      1.00000
     12      -4.0683      1.00000
     13      -3.7420      1.00000
     14      -3.6367      1.00000
     15      -3.6303      1.00000
     16      -3.2661      1.00000
     17      -2.7302      1.00000
     18      -2.6915      1.00000
     19      -2.4416      1.00000
     20      -2.0276      1.00000
     21      -1.8125      1.00000
     22      -1.7757      1.00000
     23      -0.9334      1.00000
     24      -0.5385      1.00000
     25      -0.1593      1.00000
     26       0.3332      1.00000
     27       0.6701      1.00000
     28       7.8051      0.00000
     29       7.8370      0.00000
     30       7.8521      0.00000
     31       8.7308      0.00000
     32       8.7810      0.00000
     33       9.1843      0.00000
     34      11.0949      0.00000
     35      12.4098      0.00000
     36      12.6255      0.00000


--------------------------------------------------------------------------------------------------------


 soft charge-density along one line, spin component           1
         0         1         2         3         4         5         6         7         8         9
 total charge-density along one line
 
 soft charge-density along one line, spin component           2
         0         1         2         3         4         5         6         7         8         9
 total charge-density along one line
 
 pseudopotential strength for first ion, spin component:           1
-41.907   0.000  -0.030   7.907  -0.000   0.012   0.000  -0.000
  0.000 -41.881   0.000  -0.000   7.897  -0.000   0.000  -0.000
 -0.030   0.000 -41.907   0.012  -0.000   7.907  -0.000   0.000
  7.907  -0.000   0.012   5.347   0.000  -0.004  -0.000   0.000
 -0.000   7.897  -0.000   0.000   5.351   0.000  -0.000  -0.000
  0.012  -0.000   7.907  -0.004   0.000   5.347  -0.000  -0.000
  0.000   0.000  -0.000  -0.000  -0.000  -0.000  -0.572   0.000
 -0.000  -0.000   0.000   0.000  -0.000  -0.000   0.000  -0.515
  0.000  -0.000  -0.000   0.000   0.000  -0.000  -0.107  -0.000
  0.000  -0.000  -0.000  -0.000  -0.000   0.000   0.000  -0.118
  0.000  -0.000   0.000   0.000   0.000   0.000  -0.000  -0.000
  0.000   0.000  -0.000  -0.000  -0.000  -0.000  -0.990   0.000
 -0.000  -0.000   0.000   0.000  -0.000  -0.000   0.000  -0.933
  0.000  -0.000  -0.000   0.000   0.000  -0.000  -0.112  -0.000
  0.000  -0.000  -0.000  -0.000  -0.000   0.000   0.000  -0.121
  0.000  -0.000   0.000   0.000   0.000   0.000  -0.000  -0.000
 -0.000   0.000   0.000  -0.000  -0.000   0.000   0.006  -0.000
 -0.000   0.000   0.000  -0.000  -0.000   0.000   0.012  -0.000
 pseudopotential strength for first ion, spin component:           2
-45.002   0.000  -0.022   9.405  -0.000   0.008   0.000  -0.000
  0.000 -44.983   0.000  -0.000   9.399  -0.000   0.000  -0.000
 -0.022   0.000 -45.002   0.008  -0.000   9.405  -0.000   0.000
  9.405  -0.000   0.008   4.849   0.000  -0.002   0.000   0.000
 -0.000   9.399  -0.000   0.000   4.851   0.000  -0.000  -0.000
  0.008  -0.000   9.405  -0.002   0.000   4.849  -0.000  -0.000
  0.000   0.000  -0.000   0.000  -0.000  -0.000  -8.278   0.000
 -0.000  -0.000   0.000   0.000  -0.000  -0.000   0.000  -8.234
  0.000  -0.000  -0.000   0.000   0.000  -0.000  -0.092   0.000
  0.000  -0.000  -0.000  -0.000  -0.000   0.000   0.000  -0.106
  0.000  -0.000  -0.000   0.000   0.000  -0.000  -0.000  -0.000
  0.000   0.000  -0.000   0.000  -0.000  -0.000  -8.796   0.000
 -0.000  -0.000   0.000   0.000  -0.000  -0.000   0.000  -8.750
  0.000  -0.000  -0.000   0.000   0.000  -0.000  -0.095   0.000
  0.000  -0.000  -0.000  -0.000  -0.000   0.000   0.000  -0.109
  0.000  -0.000  -0.000   0.000   0.000  -0.000  -0.000  -0.000
 -0.000   0.000   0.000  -0.000  -0.000   0.000   0.004  -0.000
 -0.000   0.000   0.000  -0.000  -0.000   0.000   0.007  -0.000
 total augmentation occupancy for first ion, spin component:           1
  1.998   0.000  -0.000  -0.013   0.000   0.000  -0.000  -0.000   0.000   0.000   0.000  -0.000   0.000  -0.000  -0.000  -0.000
  0.000   1.998   0.000   0.000  -0.013   0.000   0.000  -0.000  -0.000   0.000  -0.000  -0.000   0.000   0.000  -0.000   0.000
 -0.000   0.000   1.998   0.000   0.000  -0.013  -0.000  -0.000  -0.000   0.000   0.000   0.000   0.000   0.000  -0.000  -0.000
 -0.013   0.000   0.000   0.095  -0.000  -0.010  -0.000  -0.000  -0.000  -0.000  -0.000   0.000   0.000   0.000   0.000   0.000
  0.000  -0.013   0.000  -0.000   0.108  -0.000  -0.000   0.000   0.000   0.000   0.000   0.000  -0.000  -0.000  -0.000  -0.000
  0.000   0.000  -0.013  -0.010  -0.000   0.095   0.000  -0.000   0.000   0.000   0.000  -0.000   0.000  -0.000  -0.000  -0.000
 -0.000   0.000  -0.000  -0.000  -0.000   0.000   8.467  -0.000   3.440  -0.000   0.000  -6.514   0.000  -3.261   0.000  -0.000
 -0.000  -0.000  -0.000  -0.000   0.000  -0.000  -0.000   7.100  -0.000   2.971   0.000   0.000  -5.213   0.000  -2.807  -0.000
  0.000  -0.000  -0.000  -0.000   0.000   0.000   3.440  -0.000   6.413  -0.000  -0.000  -3.262   0.000  -4.586   0.000  -0.000
  0.000   0.000   0.000  -0.000   0.000   0.000  -0.000   2.971  -0.000   7.100  -0.000   0.000  -2.807   0.000  -5.213   0.000
  0.000  -0.000   0.000  -0.000   0.000   0.000   0.000   0.000  -0.000  -0.000   3.995   0.000  -0.000   0.000   0.000  -2.253
 -0.000  -0.000   0.000   0.000   0.000  -0.000  -6.514   0.000  -3.262   0.000   0.000   5.731   0.000   3.122   0.000  -0.000
  0.000   0.000   0.000   0.000  -0.000   0.000   0.000  -5.213   0.000  -2.807  -0.000   0.000   4.483   0.000   2.677   0.000
 -0.000   0.000   0.000   0.000  -0.000  -0.000  -3.261   0.000  -4.586   0.000   0.000   3.122   0.000   3.906   0.000  -0.000
 -0.000  -0.000  -0.000   0.000  -0.000  -0.000   0.000  -2.807   0.000  -5.213   0.000   0.000   2.677   0.000   4.483  -0.000
 -0.000   0.000  -0.000   0.000  -0.000  -0.000  -0.000  -0.000  -0.000   0.000  -2.253  -0.000   0.000  -0.000  -0.000   1.635
 -0.000   0.000   0.000  -0.000  -0.000   0.000   0.257   0.000  -0.239   0.000  -0.000  -0.284  -0.000   0.247  -0.000   0.000
  0.000  -0.000  -0.000   0.000   0.000  -0.000  -0.010  -0.000   0.028  -0.000   0.000   0.033   0.000  -0.038   0.000  -0.000
 total augmentation occupancy for first ion, spin component:           2
  0.004   0.000  -0.000   0.016   0.000  -0.000  -0.000  -0.000   0.000   0.000   0.000   0.000   0.000  -0.000  -0.000  -0.000
  0.000   0.004   0.000   0.000   0.017   0.000   0.000  -0.000  -0.000   0.000  -0.000  -0.000   0.000   0.000  -0.000   0.000
 -0.000   0.000   0.004  -0.000   0.000   0.016   0.000  -0.000   0.000   0.000   0.000   0.000   0.000  -0.000  -0.000  -0.000
  0.016   0.000  -0.000  -0.010   0.000  -0.000   0.000  -0.000   0.000  -0.000   0.000  -0.000   0.000  -0.000   0.000  -0.000
  0.000   0.017   0.000   0.000  -0.010   0.000  -0.000  -0.000   0.000  -0.000   0.000   0.000   0.000  -0.000   0.000  -0.000
 -0.000   0.000   0.016  -0.000   0.000  -0.010  -0.000   0.000  -0.000   0.000  -0.000   0.000  -0.000   0.000  -0.000   0.000
 -0.000   0.000   0.000   0.000  -0.000  -0.000  -5.893   0.000  -1.988   0.000  -0.000   3.576  -0.000   1.609  -0.000   0.000
 -0.000  -0.000  -0.000  -0.000  -0.000   0.000   0.000  -5.098   0.000  -1.738  -0.000  -0.000   2.917  -0.000   1.405   0.000
  0.000  -0.000   0.000   0.000   0.000  -0.000  -1.988   0.000  -4.623   0.000   0.000   1.610  -0.000   2.544  -0.000   0.000
  0.000   0.000   0.000  -0.000  -0.000   0.000   0.000  -1.738   0.000  -5.098   0.000  -0.000   1.405  -0.000   2.917  -0.000
  0.000  -0.000   0.000   0.000   0.000  -0.000  -0.000  -0.000   0.000   0.000  -3.348   0.000   0.000  -0.000  -0.000   1.497
  0.000  -0.000   0.000  -0.000   0.000   0.000   3.576  -0.000   1.610  -0.000   0.000  -2.370   0.000  -1.239   0.000  -0.000
  0.000   0.000   0.000   0.000   0.000  -0.000  -0.000   2.917  -0.000   1.405   0.000   0.000  -1.846   0.000  -1.080  -0.000
 -0.000   0.000  -0.000  -0.000  -0.000   0.000   1.609  -0.000   2.544  -0.000  -0.000  -1.239   0.000  -1.570   0.000  -0.000
 -0.000  -0.000  -0.000   0.000   0.000  -0.000  -0.000   1.405  -0.000   2.917  -0.000   0.000  -1.080   0.000  -1.846   0.000
 -0.000   0.000  -0.000  -0.000  -0.000   0.000   0.000   0.000   0.000  -0.000   1.497  -0.000  -0.000  -0.000   0.000  -0.751
 -0.000   0.000   0.000  -0.000  -0.000  -0.000  -0.002  -0.000   0.031  -0.000  -0.000  -0.004   0.000  -0.014   0.000  -0.000
  0.000  -0.000  -0.000   0.000   0.000  -0.000  -0.041   0.000   0.012   0.000   0.000   0.024  -0.000  -0.005  -0.000   0.000


------------------------ aborting loop because EDIFF is reached ----------------------------------------


 


 total charge     
 
# of ion       s       p       d       tot
------------------------------------------
    1        0.181   6.168   4.981  11.330
    2        0.181   6.168   4.981  11.330
    3        1.720   4.366   0.000   6.086
    4        1.720   4.366   0.000   6.086
    5        1.720   4.366   0.000   6.086
    6        1.720   4.366   0.000   6.086
--------------------------------------------------
tot          7.243  29.799   9.963  47.004
 


 magnetization (x)
 
# of ion       s       p       d       tot
------------------------------------------
    1       -0.015  -0.015  -4.651  -4.680
    2        0.015   0.015   4.651   4.680
    3        0.002   0.015   0.000   0.016
    4        0.002   0.015   0.000   0.016
    5       -0.002  -0.015   0.000  -0.016
    6       -0.002  -0.015   0.000  -0.016
--------------------------------------------------
tot         -0.000  -0.000   0.000  -0.000
 
    CHARGE:  cpu time    0.0969: real time    0.0969
    FORLOC:  cpu time    0.0008: real time    0.0008
    FORNL :  cpu time    0.5294: real time    0.5294
    STRESS:  cpu time    1.4711: real time    1.4711
    FORCOR:  cpu time    0.0041: real time    0.0041
    FORHAR:  cpu time    0.0021: real time    0.0021
    MIXING:  cpu time    0.0009: real time    0.0009
    OFIELD:  cpu time    0.0000: real time    0.0000

  FORCE on cell =-STRESS in cart. coord.  units (eV):
  Direction    XX          YY          ZZ          XY          YZ          ZX
  --------------------------------------------------------------------------------------
  Alpha Z   202.60927   202.60927   202.60927
  Ewald   -1604.76619 -1604.76619 -1033.98088     0.00000    -0.00000    -0.00000
  Hartree   577.07038   577.07038   959.54345     0.00002    -0.00000    -0.00000
  E(xc)    -309.60878  -309.60878  -309.65381     0.00000     0.00000     0.00000
  Local     184.11393   184.11393  -761.82338    -0.00003     0.00000     0.00000
  n-local  -238.68701  -238.68702  -237.52541    -0.00003    -0.00001    -0.00001
  augment   267.22349   267.22349   266.58222     0.00003     0.00002     0.00002
  Kinetic   922.05218   922.05218   914.25286     0.00001     0.00000     0.00000
  Fock        0.00000     0.00000     0.00000     0.00000     0.00000     0.00000
  -------------------------------------------------------------------------------------
  Total       0.00727     0.00728     0.00433    -0.00000     0.00001     0.00001
  in kB       0.15499     0.15503     0.09222    -0.00009     0.00017     0.00012
  external pressure =        0.13 kB  Pullay stress =        0.00 kB


 VOLUME and BASIS-vectors are now :
 -----------------------------------------------------------------------------
  energy-cutoff  :      600.00
  volume of cell :       75.20
      direct lattice vectors                 reciprocal lattice vectors
     4.805334510  0.000000000  0.000000000     0.208102058  0.000000000  0.000000000
     0.000000000  4.805334510  0.000000000     0.000000000  0.208102058  0.000000000
     0.000000000  0.000000000  3.256564062     0.000000000  0.000000000  0.307072111

  length of vectors
     4.805334510  4.805334510  3.256564062     0.208102058  0.208102058  0.307072111


 FORCES acting on ions
    electron-ion (+dipol)            ewald-force                    non-local-force                 convergence-correction
 -----------------------------------------------------------------------------------------------
   -.384E-06 0.387E-06 0.353E-08   -.171E-12 -.227E-12 -.377E-14   0.395E-06 -.393E-06 0.668E-08   -.258E-08 0.645E-08 -.585E-08
   -.389E-06 -.385E-06 0.467E-08   0.114E-12 0.114E-12 -.643E-14   0.390E-06 0.403E-06 0.224E-08   0.569E-08 -.140E-07 -.549E-08
   -.343E+02 0.343E+02 -.156E-05   0.357E+02 -.357E+02 0.494E-14   -.132E+01 0.132E+01 -.978E-06   -.115E-03 0.123E-03 0.291E-05
   0.343E+02 -.343E+02 0.156E-05   -.357E+02 0.357E+02 0.532E-14   0.132E+01 -.132E+01 0.978E-06   0.115E-03 -.123E-03 -.291E-05
   0.343E+02 0.343E+02 -.290E-04   -.357E+02 -.357E+02 0.118E-14   0.132E+01 0.132E+01 -.227E-04   -.234E-04 -.333E-04 0.528E-04
   -.343E+02 -.343E+02 0.290E-04   0.357E+02 0.357E+02 0.166E-14   -.132E+01 -.132E+01 0.227E-04   0.234E-04 0.333E-04 -.528E-04
 -----------------------------------------------------------------------------------------------
   -.732E-06 0.677E-08 0.671E-08   0.000E+00 0.000E+00 0.290E-14   0.722E-06 0.104E-07 0.826E-08   0.725E-08 -.122E-07 -.101E-07
 
 
 POSITION                                       TOTAL-FORCE (eV/Angst)
 -----------------------------------------------------------------------------------
      2.40267      2.40267      1.62828         0.000000     -0.000000      0.000000
      0.00000      0.00000      0.00000         0.000000      0.000000      0.000000
      0.93984      3.86549      1.62828        -0.003202      0.003202      0.000000
      3.86549      0.93984      1.62828         0.003202     -0.003202     -0.000000
      1.46282      1.46282      0.00000         0.003200      0.003200      0.000001
      3.34251      3.34251      0.00000        -0.003200     -0.003200     -0.000001
 -----------------------------------------------------------------------------------
    total drift:                               -0.000000      0.000000      0.000000


--------------------------------------------------------------------------------------------------------



  FREE ENERGIE OF THE ION-ELECTRON SYSTEM (eV)
  ---------------------------------------------------
  free  energy   TOTEN  =       -39.47920187 eV

  energy  without entropy=      -39.47920187  energy(sigma->0) =      -39.47920187
 


--------------------------------------------------------------------------------------------------------


    POTLOK:  cpu time    1.9523: real time    1.9524

 Total magnetic moment S=     1.0000000

 Fermi contact (isotropic) hyperfine coupling parameter (MHz) 
 -------------------------------------------------------------
  ion      A_pw      A_1PS     A_1AE     A_1c      A_tot
 -------------------------------------------------------------
   1   -1289.635 -1289.601  -321.105  1081.240  -321.139
   2    1289.635  1289.600   321.104 -1081.240   321.139
   3      32.126    32.031   205.225   -25.077   205.320
   4      32.126    32.031   205.225   -25.077   205.320
   5     -32.128   -32.033  -205.235    25.079  -205.330
   6     -32.128   -32.033  -205.235    25.079  -205.330
 -------------------------------------------------------------


 Dipolar hyperfine coupling parameters (MHz)
 ---------------------------------------------------------------------
  ion      A_xx      A_yy      A_zz      A_xy      A_xz      A_yz
 ---------------------------------------------------------------------
   1       7.211     7.211   -14.422     3.238     0.003     0.002
   2      -7.211    -7.211    14.422     3.236    -0.002    -0.002
   3     -55.399   -55.399   110.799    10.446    -0.000    -0.000
   4     -55.399   -55.399   110.799    10.446    -0.000    -0.000
   5      55.400    55.400  -110.799    10.446     0.000     0.000
   6      55.400    55.400  -110.799    10.446     0.000     0.000
 ---------------------------------------------------------------------


 Total hyperfine coupling parameters after diagonalization (MHz)
 (convention: |A_zz| > |A_xx| > |A_yy|)
 ----------------------------------------------------------------------
  ion      A_xx      A_yy      A_zz     asymmetry (A_yy - A_xx)/ A_zz 
 ----------------------------------------------------------------------
   1    -317.166  -310.691  -335.561      -0.019
   2     317.164   310.691   335.561      -0.019
   3     160.366   139.474   316.118      -0.066
   4     160.366   139.474   316.118      -0.066
   5    -160.377  -139.485  -316.129      -0.066
   6    -160.377  -139.485  -316.129      -0.066
 ---------------------------------------------------------------------



--------------------------------------------------------------------------------------------------------


 writing wavefunctions
     LOOP+:  cpu time   59.2627: real time   59.2815
    4ORBIT:  cpu time    0.0000: real time    0.0000
 


 total charge     
 
# of ion       s       p       d       tot
------------------------------------------
    1        0.181   6.168   4.981  11.330
    2        0.181   6.168   4.981  11.330
    3        1.720   4.366   0.000   6.086
    4        1.720   4.366   0.000   6.086
    5        1.720   4.366   0.000   6.086
    6        1.720   4.366   0.000   6.086
--------------------------------------------------
tot          7.243  29.799   9.963  47.004
 


 magnetization (x)
 
# of ion       s       p       d       tot
------------------------------------------
    1       -0.015  -0.015  -4.651  -4.680
    2        0.015   0.015   4.651   4.680
    3        0.002   0.015   0.000   0.016
    4        0.002   0.015   0.000   0.016
    5       -0.002  -0.015   0.000  -0.016
    6       -0.002  -0.015   0.000  -0.016
--------------------------------------------------
tot         -0.000  -0.000   0.000  -0.000
 
 BZINTS: Fermi energy:  1.162323; 54.000000 electrons
         Band energy:-759.796519;  BLOECHL correction:  0.000000

 total amount of memory used by VASP MPI-rank0    81772. kBytes
=======================================================================

   base      :      30000. kBytes
   nonl-proj :      35245. kBytes
   fftplans  :       1875. kBytes
   grid      :       2467. kBytes
   one-center:        186. kBytes
   wavefun   :      11999. kBytes
 
  
  
 General timing and accounting informations for this job:
 ========================================================
  
                  Total CPU time used (sec):       61.381
                            User time (sec):       45.384
                          System time (sec):       15.997
                         Elapsed time (sec):       61.443
  
                   Maximum memory used (kb):       92580.
                   Average memory used (kb):           0.
  
                          Minor page faults:        18905
                          Major page faults:            9
                 Voluntary context switches:          314
