 vasp.5.4.4.18Apr17-6-g9f103f2a35 (build Apr 27 2017 11:13:10) complex          
  
 executed on           IFC91_ompi date 2020.05.13  10:57:17
 running on   12 total cores
 distrk:  each k-point on   12 cores,    1 groups
 distr:  one band on NCORES_PER_BAND=   1 cores,   12 groups


--------------------------------------------------------------------------------------------------------


 INCAR:
 POTCAR:    PAW_PBE Mn_pv 02Aug2007               
 POTCAR:    PAW_PBE F 08Apr2002                   

 ----------------------------------------------------------------------------- 
|                                                                             |
|           W    W    AA    RRRRR   N    N  II  N    N   GGGG   !!!           |
|           W    W   A  A   R    R  NN   N  II  NN   N  G    G  !!!           |
|           W    W  A    A  R    R  N N  N  II  N N  N  G       !!!           |
|           W WW W  AAAAAA  RRRRR   N  N N  II  N  N N  G  GGG   !            |
|           WW  WW  A    A  R   R   N   NN  II  N   NN  G    G                |
|           W    W  A    A  R    R  N    N  II  N    N   GGGG   !!!           |
|                                                                             |
|      For optimal performance we recommend to set                            |
|        NCORE= 4 - approx SQRT( number of cores)                             |
|      NCORE specifies how many cores store one orbital (NPAR=cpu/NCORE).     |
|      This setting can  greatly improve the performance of VASP for DFT.     |
|      The default,   NCORE=1            might be grossly inefficient         |
|      on modern multi-core architectures or massively parallel machines.     |
|      Do your own testing !!!!                                               |
|      Unfortunately you need to use the default for GW and RPA calculations. |
|      (for HF NCORE is supported but not extensively tested yet)             |
|                                                                             |
 ----------------------------------------------------------------------------- 

 POTCAR:    PAW_PBE Mn_pv 02Aug2007               
   VRHFIN =Mn: 3p4s3d                                                           
   LEXCH  = PE                                                                  
   EATOM  =  2025.2664 eV,  148.8529 Ry                                         
                                                                                
   TITEL  = PAW_PBE Mn_pv 02Aug2007                                             
   LULTRA =        F    use ultrasoft PP ?                                      
   IUNSCR =        1    unscreen: 0-lin 1-nonlin 2-no                           
   RPACOR =    2.080    partial core radius                                     
   POMASS =   54.938; ZVAL   =   13.000    mass and valenz                      
   RCORE  =    2.300    outmost cutoff radius                                   
   RWIGS  =    2.500; RWIGS  =    1.323    wigner-seitz radius (au A)           
   ENMAX  =  269.864; ENMIN  =  202.398 eV                                      
   ICORE  =        3    local potential                                         
   LCOR   =        T    correct aug charges                                     
   LPAW   =        T    paw PP                                                  
   EAUG   =  569.085                                                            
   DEXC   =    0.000                                                            
   RMAX   =    2.343    core radius for proj-oper                               
   RAUG   =    1.300    factor for augmentation sphere                          
   RDEP   =    2.338    radius for radial grids                                 
   RDEPT  =    1.798    core radius for aug-charge                              
                                                                                
   Atomic configuration                                                         
    8 entries                                                                   
     n  l   j            E        occ.                                          
     1  0  0.50     -6424.8287   2.0000                                         
     2  0  0.50      -739.1154   2.0000                                         
     2  1  1.50      -625.3949   6.0000                                         
     3  0  0.50       -81.6100   2.0000                                         
     3  1  1.50       -50.4667   6.0000                                         
     3  2  2.50        -3.3745   6.0000                                         
     4  0  0.50        -4.1331   1.0000                                         
     4  3  2.50        -1.3606   0.0000                                         
   Description                                                                  
     l       E           TYP  RCUT    TYP  RCUT                                 
     1    -50.4666628     23  2.000                                             
     1     -1.3605826     23  2.000                                             
     2     -3.3744729     23  2.300                                             
     2     -4.7350555     23  2.300                                             
     0     -4.1331431     23  2.300                                             
     0      7.6656591     23  2.300                                             
     3      9.5240782     23  2.300                                             
  local pseudopotential read in
  partial core-charges read in
  partial kinetic energy density read in
  atomic valenz-charges read in
  non local Contribution for L=           1  read in
    real space projection operators read in
  non local Contribution for L=           1  read in
    real space projection operators read in
  non local Contribution for L=           2  read in
    real space projection operators read in
  non local Contribution for L=           2  read in
    real space projection operators read in
  non local Contribution for L=           0  read in
    real space projection operators read in
  non local Contribution for L=           0  read in
    real space projection operators read in
    PAW grid and wavefunctions read in
 
   number of l-projection  operators is LMAX  =           6
   number of lm-projection operators is LMMAX =          18
 
 POTCAR:    PAW_PBE F 08Apr2002                   
   VRHFIN =F: s2p5                                                              
   LEXCH  = PE                                                                  
   EATOM  =   659.6475 eV,   48.4827 Ry                                         
                                                                                
   TITEL  = PAW_PBE F 08Apr2002                                                 
   LULTRA =        F    use ultrasoft PP ?                                      
   IUNSCR =        1    unscreen: 0-lin 1-nonlin 2-no                           
   RPACOR =    1.200    partial core radius                                     
   POMASS =   18.998; ZVAL   =    7.000    mass and valenz                      
   RCORE  =    1.520    outmost cutoff radius                                   
   RWIGS  =    1.500; RWIGS  =    0.794    wigner-seitz radius (au A)           
   ENMAX  =  400.000; ENMIN  =  300.000 eV                                      
   ICORE  =        2    local potential                                         
   LCOR   =        T    correct aug charges                                     
   LPAW   =        T    paw PP                                                  
   EAUG   =  613.614                                                            
   RMAX   =    1.555    core radius for proj-oper                               
   RAUG   =    1.300    factor for augmentation sphere                          
   RDEP   =    1.539    radius for radial grids                                 
   RDEPT  =    1.299    core radius for aug-charge                              
                                                                                
   Atomic configuration                                                         
    4 entries                                                                   
     n  l   j            E        occ.                                          
     1  0  0.50      -663.3661   2.0000                                         
     2  0  0.50       -29.8995   2.0000                                         
     2  1  0.50       -11.1114   5.0000                                         
     3  2  1.50       -10.8847   0.0000                                         
   Description                                                                  
     l       E           TYP  RCUT    TYP  RCUT                                 
     0    -29.8995018     23  1.200                                             
     0     -9.5240782     23  1.200                                             
     1    -11.1113914     23  1.520                                             
     1      1.3605826     23  1.520                                             
     2    -10.8846608      7  1.500                                             
  local pseudopotential read in
  partial core-charges read in
  partial kinetic energy density read in
  atomic valenz-charges read in
  non local Contribution for L=           0  read in
    real space projection operators read in
  non local Contribution for L=           0  read in
    real space projection operators read in
  non local Contribution for L=           1  read in
    real space projection operators read in
  non local Contribution for L=           1  read in
    real space projection operators read in
    PAW grid and wavefunctions read in
 
   number of l-projection  operators is LMAX  =           4
   number of lm-projection operators is LMMAX =           8
 
  PAW_PBE Mn_pv 02Aug2007               :
 energy of atom  1       EATOM=-2025.2664
 kinetic energy error for atom=    0.0047 (will be added to EATOM!!)
  PAW_PBE F 08Apr2002                   :
 energy of atom  2       EATOM= -659.6475
 kinetic energy error for atom=    0.0256 (will be added to EATOM!!)
 
 
 POSCAR: Mn  F                                   
  positions in cartesian coordinates
  No initial velocities read in

 METAGGA = SCAN     LMAXTAU =  6    LMIXTAU =  F

 exchange correlation table for  LEXCH =        8
   RHO(1)=    0.500       N(1)  =     2000
   RHO(2)=  100.500       N(2)  =     4000
 


--------------------------------------------------------------------------------------------------------


 ion  position               nearest neighbor table
   1  0.500  0.500  0.500-   3 2.11   4 2.11   5 2.14   6 2.14   5 2.14   6 2.14
   2  0.000  0.000  0.000-   5 2.11   6 2.11   3 2.14   4 2.14   3 2.14   4 2.14
   3  0.195  0.805  0.500-   1 2.11   2 2.14   2 2.14
   4  0.805  0.195  0.500-   1 2.11   2 2.14   2 2.14
   5  0.305  0.305  0.000-   2 2.11   1 2.14   1 2.14
   6  0.695  0.695  0.000-   2 2.11   1 2.14   1 2.14
 
  LATTYP: Found a simple tetragonal cell.
 ALAT       =     4.8917966649
 C/A-ratio  =     0.6777070187
  
  Lattice vectors:
  
 A1 = (   4.8917966649,   0.0000000000,   0.0000000000)
 A2 = (   0.0000000000,   4.8917966649,   0.0000000000)
 A3 = (   0.0000000000,   0.0000000000,   3.3152049337)


Analysis of symmetry for initial positions (statically):
=====================================================================
 Subroutine PRICEL returns:
 Original cell was already a primitive cell.
 

 Routine SETGRP: Setting up the symmetry group for a 
 simple tetragonal supercell.


 Subroutine GETGRP returns: Found 16 space group operations
 (whereof  8 operations were pure point group operations)
 out of a pool of 16 trial point group operations.


The static configuration has the point symmetry D_2h.
 The point group associated with its full space group is D_4h.


Analysis of symmetry for dynamics (positions and initial velocities):
=====================================================================
 Subroutine PRICEL returns:
 Original cell was already a primitive cell.
 

 Routine SETGRP: Setting up the symmetry group for a 
 simple tetragonal supercell.


 Subroutine GETGRP returns: Found 16 space group operations
 (whereof  8 operations were pure point group operations)
 out of a pool of 16 trial point group operations.


The dynamic configuration has the point symmetry D_2h.
 The point group associated with its full space group is D_4h.


Analysis of structural, dynamic, and magnetic symmetry:
=====================================================================
 Subroutine PRICEL returns:
 Original cell was already a primitive cell.
 

 Routine SETGRP: Setting up the symmetry group for a 
 simple tetragonal supercell.


 Subroutine GETGRP returns: Found 16 space group operations
 (whereof  8 operations were pure point group operations)
 out of a pool of 16 trial point group operations.


The magnetic configuration has the point symmetry D_2h.
 The point group associated with its full space group is D_4h.


 Subroutine INISYM returns: Found 16 space group operations
 (whereof  8 operations are pure point group operations),
 and found     1 'primitive' translations

 
 
 KPOINTS: KPOINTS created by Atomic Simulation Env

Automatic generation of k-mesh.
Space group operators:
 irot       det(A)        alpha          n_x          n_y          n_z        tau_x        tau_y        tau_z
    1     1.000000     0.000000     1.000000     0.000000     0.000000     0.000000     0.000000     0.000000
    2    -1.000000     0.000000     1.000000     0.000000     0.000000     0.000000     0.000000     0.000000
    3     1.000000   180.000000     0.000000     0.000000     1.000000     0.000000     0.000000     0.000000
    4    -1.000000   180.000000     0.000000     0.000000     1.000000     0.000000     0.000000     0.000000
    5     1.000000   180.000000     0.707107     0.707107     0.000000     0.000000     0.000000     0.000000
    6    -1.000000   180.000000     0.707107     0.707107     0.000000     0.000000     0.000000     0.000000
    7     1.000000   180.000000     0.707107    -0.707107     0.000000     0.000000     0.000000     0.000000
    8    -1.000000   180.000000     0.707107    -0.707107     0.000000     0.000000     0.000000     0.000000
    9     1.000000    90.000000     0.000000     0.000000    -1.000000     0.500000     0.500000     0.500000
   10    -1.000000    90.000000     0.000000     0.000000    -1.000000     0.500000     0.500000     0.500000
   11     1.000000    90.000000     0.000000     0.000000     1.000000     0.500000     0.500000     0.500000
   12    -1.000000    90.000000     0.000000     0.000000     1.000000     0.500000     0.500000     0.500000
   13     1.000000   180.000000     0.000000     1.000000     0.000000     0.500000     0.500000     0.500000
   14    -1.000000   180.000000     0.000000     1.000000     0.000000     0.500000     0.500000     0.500000
   15     1.000000   180.000000     1.000000     0.000000     0.000000     0.500000     0.500000     0.500000
   16    -1.000000   180.000000     1.000000     0.000000     0.000000     0.500000     0.500000     0.500000
 
 Subroutine IBZKPT returns following result:
 ===========================================
 
 Found      9 irreducible k-points:
 
 Following reciprocal coordinates:
            Coordinates               Weight
  0.125000  0.125000  0.083333      8.000000
  0.375000  0.125000  0.083333     16.000000
  0.375000  0.375000  0.083333      8.000000
  0.125000  0.125000  0.250000      8.000000
  0.375000  0.125000  0.250000     16.000000
  0.375000  0.375000  0.250000      8.000000
  0.125000  0.125000  0.416667      8.000000
  0.375000  0.125000  0.416667     16.000000
  0.375000  0.375000  0.416667      8.000000
 
 Following cartesian coordinates:
            Coordinates               Weight
  0.025553  0.025553  0.025137      8.000000
  0.076659  0.025553  0.025137     16.000000
  0.076659  0.076659  0.025137      8.000000
  0.025553  0.025553  0.075410      8.000000
  0.076659  0.025553  0.075410     16.000000
  0.076659  0.076659  0.075410      8.000000
  0.025553  0.025553  0.125684      8.000000
  0.076659  0.025553  0.125684     16.000000
  0.076659  0.076659  0.125684      8.000000
 
 TETIRR: Found    106 inequivalent tetrahedra from      576


--------------------------------------------------------------------------------------------------------




 Dimension of arrays:
   k-points           NKPTS =      9   k-points in BZ     NKDIM =      9   number of bands    NBANDS=     36
   number of dos      NEDOS =    301   number of ions     NIONS =      6
   non local maximal  LDIM  =      6   non local SUM 2l+1 LMDIM =     18
   total plane-waves  NPLWV =  18000
   max r-space proj   IRMAX =      1   max aug-charges    IRDMAX=  55270
   dimension x,y,z NGX =    30 NGY =   30 NGZ =   20
   dimension x,y,z NGXF=    60 NGYF=   60 NGZF=   40
   support grid    NGXF=   120 NGYF=  120 NGZF=   80
   ions per type =               2   4
   NGX,Y,Z   is equivalent  to a cutoff of  10.20, 10.20, 10.03 a.u.
   NGXF,Y,Z  is equivalent  to a cutoff of  20.39, 20.39, 20.06 a.u.

 SYSTEM =  unknown system                          
 POSCAR =  Mn  F                                   

 Startparameter for this run:
   NWRITE =      2    write-flag & timer
   PREC   = normal    normal or accurate (medium, high low for compatibility)
   ISTART =      0    job   : 0-new  1-cont  2-samecut
   ICHARG =      2    charge: 1-file 2-atom 10-const
   ISPIN  =      2    spin polarized calculation?
   LNONCOLLINEAR =      F non collinear calculations
   LSORBIT =      F    spin-orbit coupling
   INIWAV =      1    electr: 0-lowe 1-rand  2-diag
   LASPH  =      T    aspherical Exc in radial PAW
   METAGGA=      F    non-selfconsistent MetaGGA calc.

 Electronic Relaxation 1
   ENCUT  =  600.0 eV  44.10 Ry    6.64 a.u.   9.77  9.77  6.62*2*pi/ulx,y,z
   ENINI  =  600.0     initial cutoff
   ENAUG  =  613.6 eV  augmentation charge cutoff
   NELM   =     60;   NELMIN=  2; NELMDL= -5     # of ELM steps 
   EDIFF  = 0.1E-05   stopping-criterion for ELM
   LREAL  =      F    real-space projection
   NLSPLINE    = F    spline interpolate recip. space projectors
   LCOMPAT=      F    compatible to vasp.4.4
   GGA_COMPAT  = T    GGA compatible to vasp.4.4-vasp.4.6
   LMAXPAW     = -100 max onsite density
   LMAXMIX     =    4 max onsite mixed and CHGCAR
   VOSKOWN=      0    Vosko Wilk Nusair interpolation
   ROPT   =    0.00000   0.00000
 Ionic relaxation
   EDIFFG = 0.1E-04   stopping-criterion for IOM
   NSW    =      0    number of steps for IOM
   NBLOCK =      1;   KBLOCK =      1    inner block; outer block 
   IBRION =     -1    ionic relax: 0-MD 1-quasi-New 2-CG
   NFREE  =      0    steps in history (QN), initial steepest desc. (CG)
   ISIF   =      2    stress and relaxation
   IWAVPR =     10    prediction:  0-non 1-charg 2-wave 3-comb
   ISYM   =      2    0-nonsym 1-usesym 2-fastsym
   LCORR  =      T    Harris-Foulkes like correction to forces

   POTIM  = 0.5000    time-step for ionic-motion
   TEIN   =    0.0    initial temperature
   TEBEG  =    0.0;   TEEND  =   0.0 temperature during run
   SMASS  =  -3.00    Nose mass-parameter (am)
   estimated Nose-frequenzy (Omega)   =  0.10E-29 period in steps =****** mass=  -0.547E-27a.u.
   SCALEE = 1.0000    scale energy and forces
   NPACO  =    256;   APACO  = 16.0  distance and # of slots for P.C.
   PSTRESS=    0.0 pullay stress

  Mass of Ions in am
   POMASS =  54.94 19.00
  Ionic Valenz
   ZVAL   =  13.00  7.00
  Atomic Wigner-Seitz radii
   RWIGS  =  -1.00 -1.00
  virtual crystal weights 
   VCA    =   1.00  1.00
   NELECT =      54.0000    total number of electrons
   NUPDOWN=      -1.0000    fix difference up-down

 DOS related values:
   EMIN   =  10.00;   EMAX   =-10.00  energy-range for DOS
   EFERMI =   0.00
   ISMEAR =    -5;   SIGMA  =   0.20  broadening in eV -4-tet -1-fermi 0-gaus

 Electronic relaxation 2 (details)
   IALGO  =     38    algorithm
   LDIAG  =      T    sub-space diagonalisation (order eigenvalues)
   LSUBROT=      F    optimize rotation matrix (better conditioning)
   TURBO    =      0    0=normal 1=particle mesh
   IRESTART =      0    0=no restart 2=restart with 2 vectors
   NREBOOT  =      0    no. of reboots
   NMIN     =      0    reboot dimension
   EREF     =   0.00    reference energy to select bands
   IMIX   =      4    mixing-type and parameters
     AMIX     =   0.40;   BMIX     =  1.00
     AMIX_MAG =   1.60;   BMIX_MAG =  1.00
     AMIN     =   0.10
     WC   =   100.;   INIMIX=   1;  MIXPRE=   1;  MAXMIX= -45

 Intra band minimization:
   WEIMIN = 0.0000     energy-eigenvalue tresh-hold
   EBREAK =  0.69E-08  absolut break condition
   DEPER  =   0.30     relativ break condition  

   TIME   =   0.40     timestep for ELM

  volume/ion in A,a.u.               =      13.22        89.23
  Fermi-wavevector in a.u.,A,eV,Ry     =   1.440092  2.721380 28.216662  2.073866
  Thomas-Fermi vector in A             =   2.558875
 
 Write flags
   LWAVE        =      T    write WAVECAR
   LDOWNSAMPLE  =      F    k-point downsampling of WAVECAR
   LCHARG       =      T    write CHGCAR
   LVTOT        =      F    write LOCPOT, total local potential
   LVHAR        =      F    write LOCPOT, Hartree potential only
   LELF         =      F    write electronic localiz. function (ELF)
   LORBIT       =     11    0 simple, 1 ext, 2 COOP (PROOUT), +10 PAW based schemes


 Dipole corrections
   LMONO  =      F    monopole corrections only (constant potential shift)
   LDIPOL =      F    correct potential (dipole corrections)
   IDIPOL =      0    1-x, 2-y, 3-z, 4-all directions 
   EPSILON=  1.0000000 bulk dielectric constant

 LDA+U is selected, type is set to LDAUTYPE =  2
   angular momentum for each species LDAUL =     2   -1
   U (eV)           for each species LDAUU =   8.0  0.0
   J (eV)           for each species LDAUJ =   0.0  0.0
 Exchange correlation treatment:
   GGA     =    --    GGA type
   LEXCH   =     8    internal setting for exchange type
   VOSKOWN=      0    Vosko Wilk Nusair interpolation
   LHFCALC =     F    Hartree Fock is set to
   LHFONE  =     F    Hartree Fock one center treatment
   AEXX    =    0.0000 exact exchange contribution

 Linear response parameters
   LEPSILON=     F    determine dielectric tensor
   LRPA    =     F    only Hartree local field effects (RPA)
   LNABLA  =     F    use nabla operator in PAW spheres
   LVEL    =     F    velocity operator in full k-point grid
   LINTERFAST=   F  fast interpolation
   KINTER  =     0    interpolate to denser k-point grid
   CSHIFT  =0.1000    complex shift for real part using Kramers Kronig
   OMEGAMAX=  -1.0    maximum frequency
   DEG_THRESHOLD= 0.2000000E-02 threshold for treating states as degnerate
   RTIME   =   -0.100 relaxation time in fs
  (WPLASMAI=    0.000 imaginary part of plasma frequency in eV, 0.658/RTIME)
   DFIELD  = 0.0000000 0.0000000 0.0000000 field for delta impulse in time
 
 Orbital magnetization related:
   ORBITALMAG=     F  switch on orbital magnetization
   LCHIMAG   =     F  perturbation theory with respect to B field
   DQ        =  0.001000  dq finite difference perturbation B field
   LLRAUG    =     F  two centre corrections for induced B field



--------------------------------------------------------------------------------------------------------


 Static calculation
 charge density and potential will be updated during run
 spin polarized calculation
 Variant of blocked Davidson
 Davidson routine will perform the subspace rotation
 perform sub-space diagonalisation
    after iterative eigenvector-optimisation
 modified Broyden-mixing scheme, WC =      100.0
 initial mixing is a Kerker type mixing with AMIX =  0.4000 and BMIX =      1.0000
 Hartree-type preconditioning will be used
 using additional bands            9
 reciprocal scheme for non local part
 use partial core corrections
 calculate Harris-corrections to forces 
   (improved forces if not selfconsistent)
 use gradient corrections 
 use of overlap-Matrix (Vanderbilt PP)
 Fermi weights with tetrahedron method with Bloechl corrections


--------------------------------------------------------------------------------------------------------


  energy-cutoff  :      600.00
  volume of cell :       79.33
      direct lattice vectors                 reciprocal lattice vectors
     4.891796665  0.000000000  0.000000000     0.204423869  0.000000000  0.000000000
     0.000000000  4.891796665  0.000000000     0.000000000  0.204423869  0.000000000
     0.000000000  0.000000000  3.315204934     0.000000000  0.000000000  0.301640478

  length of vectors
     4.891796665  4.891796665  3.315204934     0.204423869  0.204423869  0.301640478


 
 k-points in units of 2pi/SCALE and weight: KPOINTS created by Atomic Simulation Env
   0.02555298  0.02555298  0.02513671       0.083
   0.07665895  0.02555298  0.02513671       0.167
   0.07665895  0.07665895  0.02513671       0.083
   0.02555298  0.02555298  0.07541012       0.083
   0.07665895  0.02555298  0.07541012       0.167
   0.07665895  0.07665895  0.07541012       0.083
   0.02555298  0.02555298  0.12568353       0.083
   0.07665895  0.02555298  0.12568353       0.167
   0.07665895  0.07665895  0.12568353       0.083
 
 k-points in reciprocal lattice and weights: KPOINTS created by Atomic Simulation Env
   0.12500000  0.12500000  0.08333333       0.083
   0.37500000  0.12500000  0.08333333       0.167
   0.37500000  0.37500000  0.08333333       0.083
   0.12500000  0.12500000  0.25000000       0.083
   0.37500000  0.12500000  0.25000000       0.167
   0.37500000  0.37500000  0.25000000       0.083
   0.12500000  0.12500000  0.41666667       0.083
   0.37500000  0.12500000  0.41666667       0.167
   0.37500000  0.37500000  0.41666667       0.083
 
 position of ions in fractional coordinates (direct lattice) 
   0.50000000  0.50000000  0.50000000
   0.00000000  0.00000000  0.00000000
   0.19508961  0.80491039  0.50000000
   0.80491039  0.19508961  0.50000000
   0.30491039  0.30491039  0.00000000
   0.69508961  0.69508961  0.00000000
 
 position of ions in cartesian coordinates  (Angst):
   2.44589833  2.44589833  1.65760247
   0.00000000  0.00000000  0.00000000
   0.95433872  3.93745795  1.65760247
   3.93745795  0.95433872  1.65760247
   1.49155962  1.49155962  0.00000000
   3.40023705  3.40023705  0.00000000
 


--------------------------------------------------------------------------------------------------------


 k-point  1 :   0.1250 0.1250 0.0833  plane waves:    2654
 k-point  2 :   0.3750 0.1250 0.0833  plane waves:    2650
 k-point  3 :   0.3750 0.3750 0.0833  plane waves:    2651
 k-point  4 :   0.1250 0.1250 0.2500  plane waves:    2645
 k-point  5 :   0.3750 0.1250 0.2500  plane waves:    2653
 k-point  6 :   0.3750 0.3750 0.2500  plane waves:    2652
 k-point  7 :   0.1250 0.1250 0.4167  plane waves:    2647
 k-point  8 :   0.3750 0.1250 0.4167  plane waves:    2641
 k-point  9 :   0.3750 0.3750 0.4167  plane waves:    2635

 maximum and minimum number of plane-waves per node :      2654     2635

 maximum number of plane-waves:      2654
 maximum index in each direction: 
   IXMAX=    9   IYMAX=    9   IZMAX=    6
   IXMIN=  -10   IYMIN=  -10   IZMIN=   -7


 serial   3D FFT for wavefunctions
 parallel 3D FFT for charge:
    minimum data exchange during FFTs selected (reduces bandwidth)


 total amount of memory used by VASP MPI-rank0    45404. kBytes
=======================================================================

   base      :      30000. kBytes
   nonl-proj :       7160. kBytes
   fftplans  :       1875. kBytes
   grid      :       3820. kBytes
   one-center:        186. kBytes
   wavefun   :       2363. kBytes
 
     INWAV:  cpu time    0.0000: real time    0.0000
 Broyden mixing: mesh for mixing (old mesh)
   NGX = 19   NGY = 19   NGZ = 13
  (NGX  = 60   NGY  = 60   NGZ  = 40)
  gives a total of   4693 points

 initial charge density was supplied:
 charge density of overlapping atoms calculated
 number of electron      54.0000000 magnetization       0.0000000
 keeping initial charge density in first step


--------------------------------------------------------------------------------------------------------


 Maximum index for augmentation-charges         4223 (set IRDMAX)


--------------------------------------------------------------------------------------------------------


 First call to EWALD:  gamma=   0.413
 Maximum number of real-space cells 2x 2x 3
 Maximum number of reciprocal cells 3x 3x 2

    FEWALD:  cpu time    0.0010: real time    0.0010


--------------------------------------- Iteration      1(   1)  ---------------------------------------


    POTLOK:  cpu time    0.0352: real time    0.0352
    SETDIJ:  cpu time    0.7778: real time    0.7778
atom =   1  type =  1  l = 2
 
 onsite density matrix
 
spin component  1
 
  0.2835  0.0000  0.0000  0.0000  0.0000
  0.0000  0.2835  0.0000  0.0000  0.0000
  0.0000  0.0000  0.2835  0.0000  0.0000
  0.0000  0.0000  0.0000  0.2835  0.0000
  0.0000  0.0000  0.0000  0.0000  0.2835
 
spin component  2
 
  0.7694  0.0000  0.0000  0.0000  0.0000
  0.0000  0.7694  0.0000  0.0000  0.0000
  0.0000  0.0000  0.7694  0.0000  0.0000
  0.0000  0.0000  0.0000  0.7694  0.0000
  0.0000  0.0000  0.0000  0.0000  0.7694
 
 occupancies and eigenvectors
 
  o =  0.2835  v =  1.0000  0.0000  0.0000  0.0000  0.0000  0.0000  0.0000  0.0000  0.0000  0.0000      0.0000  0.0000  0.0000  0.0000  0.0000  0.0000  0.0000  0.0000  0.0000  0.0000
  o =  0.2835  v =  0.0000  1.0000  0.0000  0.0000  0.0000  0.0000  0.0000  0.0000  0.0000  0.0000      0.0000  0.0000  0.0000  0.0000  0.0000  0.0000  0.0000  0.0000  0.0000  0.0000
  o =  0.2835  v =  0.0000  0.0000  1.0000  0.0000  0.0000  0.0000  0.0000  0.0000  0.0000  0.0000      0.0000  0.0000  0.0000  0.0000  0.0000  0.0000  0.0000  0.0000  0.0000  0.0000
  o =  0.2835  v =  0.0000  0.0000  0.0000  1.0000  0.0000  0.0000  0.0000  0.0000  0.0000  0.0000      0.0000  0.0000  0.0000  0.0000  0.0000  0.0000  0.0000  0.0000  0.0000  0.0000
  o =  0.2835  v =  0.0000  0.0000  0.0000  0.0000  1.0000  0.0000  0.0000  0.0000  0.0000  0.0000      0.0000  0.0000  0.0000  0.0000  0.0000  0.0000  0.0000  0.0000  0.0000  0.0000
  o =  0.7694  v =  0.0000  0.0000  0.0000  0.0000  0.0000  1.0000  0.0000  0.0000  0.0000  0.0000      0.0000  0.0000  0.0000  0.0000  0.0000  0.0000  0.0000  0.0000  0.0000  0.0000
  o =  0.7694  v =  0.0000  0.0000  0.0000  0.0000  0.0000  0.0000  1.0000  0.0000  0.0000  0.0000      0.0000  0.0000  0.0000  0.0000  0.0000  0.0000  0.0000  0.0000  0.0000  0.0000
  o =  0.7694  v =  0.0000  0.0000  0.0000  0.0000  0.0000  0.0000  0.0000  1.0000  0.0000  0.0000      0.0000  0.0000  0.0000  0.0000  0.0000  0.0000  0.0000  0.0000  0.0000  0.0000
  o =  0.7694  v =  0.0000  0.0000  0.0000  0.0000  0.0000  0.0000  0.0000  0.0000  1.0000  0.0000      0.0000  0.0000  0.0000  0.0000  0.0000  0.0000  0.0000  0.0000  0.0000  0.0000
  o =  0.7694  v =  0.0000  0.0000  0.0000  0.0000  0.0000  0.0000  0.0000  0.0000  0.0000  1.0000      0.0000  0.0000  0.0000  0.0000  0.0000  0.0000  0.0000  0.0000  0.0000  0.0000
atom =   2  type =  1  l = 2
 
 onsite density matrix
 
spin component  1
 
  0.7694  0.0000  0.0000  0.0000  0.0000
  0.0000  0.7694  0.0000  0.0000  0.0000
  0.0000  0.0000  0.7694  0.0000  0.0000
  0.0000  0.0000  0.0000  0.7694  0.0000
  0.0000  0.0000  0.0000  0.0000  0.7694
 
spin component  2
 
  0.2835  0.0000  0.0000  0.0000  0.0000
  0.0000  0.2835  0.0000  0.0000  0.0000
  0.0000  0.0000  0.2835  0.0000  0.0000
  0.0000  0.0000  0.0000  0.2835  0.0000
  0.0000  0.0000  0.0000  0.0000  0.2835
 
 occupancies and eigenvectors
 
  o =  0.2835  v =  0.0000  0.0000  0.0000  0.0000  0.0000  1.0000  0.0000  0.0000  0.0000  0.0000      0.0000  0.0000  0.0000  0.0000  0.0000  0.0000  0.0000  0.0000  0.0000  0.0000
  o =  0.2835  v =  0.0000  0.0000  0.0000  0.0000  0.0000  0.0000  1.0000  0.0000  0.0000  0.0000      0.0000  0.0000  0.0000  0.0000  0.0000  0.0000  0.0000  0.0000  0.0000  0.0000
  o =  0.2835  v =  0.0000  0.0000  0.0000  0.0000  0.0000  0.0000  0.0000  1.0000  0.0000  0.0000      0.0000  0.0000  0.0000  0.0000  0.0000  0.0000  0.0000  0.0000  0.0000  0.0000
  o =  0.2835  v =  0.0000  0.0000  0.0000  0.0000  0.0000  0.0000  0.0000  0.0000  1.0000  0.0000      0.0000  0.0000  0.0000  0.0000  0.0000  0.0000  0.0000  0.0000  0.0000  0.0000
  o =  0.2835  v =  0.0000  0.0000  0.0000  0.0000  0.0000  0.0000  0.0000  0.0000  0.0000  1.0000      0.0000  0.0000  0.0000  0.0000  0.0000  0.0000  0.0000  0.0000  0.0000  0.0000
  o =  0.7694  v =  1.0000  0.0000  0.0000  0.0000  0.0000  0.0000  0.0000  0.0000  0.0000  0.0000      0.0000  0.0000  0.0000  0.0000  0.0000  0.0000  0.0000  0.0000  0.0000  0.0000
  o =  0.7694  v =  0.0000  1.0000  0.0000  0.0000  0.0000  0.0000  0.0000  0.0000  0.0000  0.0000      0.0000  0.0000  0.0000  0.0000  0.0000  0.0000  0.0000  0.0000  0.0000  0.0000
  o =  0.7694  v =  0.0000  0.0000  1.0000  0.0000  0.0000  0.0000  0.0000  0.0000  0.0000  0.0000      0.0000  0.0000  0.0000  0.0000  0.0000  0.0000  0.0000  0.0000  0.0000  0.0000
  o =  0.7694  v =  0.0000  0.0000  0.0000  1.0000  0.0000  0.0000  0.0000  0.0000  0.0000  0.0000      0.0000  0.0000  0.0000  0.0000  0.0000  0.0000  0.0000  0.0000  0.0000  0.0000
  o =  0.7694  v =  0.0000  0.0000  0.0000  0.0000  1.0000  0.0000  0.0000  0.0000  0.0000  0.0000      0.0000  0.0000  0.0000  0.0000  0.0000  0.0000  0.0000  0.0000  0.0000  0.0000
     EDDAV:  cpu time    0.6960: real time    0.7141
 BZINTS: Fermi energy: 25.455082; 54.000000 electrons
         Band energy: 348.691917;  BLOECHL correction: -0.153072
       DOS:  cpu time    0.0067: real time    0.0067
    --------------------------------------------
      LOOP:  cpu time    1.5157: real time    1.5337

 eigenvalue-minimisations  :  1320
 total energy-change (2. order) : 0.9729731E+03  (-0.3744991E+04)
 number of electron      54.0000000 magnetization       0.0000000
 augmentation part       54.0000000 magnetization       0.0000000

 Free energy of the ion-electron system (eV)
  ---------------------------------------------------
  alpha Z        PSCENC =       194.59399051
  Ewald energy   TEWEN  =     -4167.81530784
  -Hartree energ DENC   =     -2152.74382170
  -exchange      EXHF   =         0.00000000
  -V(xc)+E(xc)   XCENC  =        -3.96111399
  PAW double counting   =      5566.43601843    -5501.23934932
  entropy T*S    EENTRO =         0.00000000
  eigenvalues    EBANDS =       348.69191671
  atomic energy  EATOM  =      6689.01075358
  Solvation  Ediel_sol  =         0.00000000
  ---------------------------------------------------
  free energy    TOTEN  =       972.97308638 eV

  energy without entropy =      972.97308638  energy(sigma->0) =      972.97308638


--------------------------------------------------------------------------------------------------------




--------------------------------------- Iteration      1(   2)  ---------------------------------------


     EDDAV:  cpu time    0.7954: real time    1.1480
 BZINTS: Fermi energy: 11.722791; 54.000000 electrons
         Band energy:-211.435549;  BLOECHL correction:  0.000000
       DOS:  cpu time    0.0018: real time    0.0018
    --------------------------------------------
      LOOP:  cpu time    0.7971: real time    1.1498

 eigenvalue-minimisations  :  1512
 total energy-change (2. order) :-0.5601275E+03  (-0.5333310E+03)
 number of electron      54.0000000 magnetization       0.0000000
 augmentation part       54.0000000 magnetization       0.0000000

 Free energy of the ion-electron system (eV)
  ---------------------------------------------------
  alpha Z        PSCENC =       194.59399051
  Ewald energy   TEWEN  =     -4167.81530784
  -Hartree energ DENC   =     -2152.74382170
  -exchange      EXHF   =         0.00000000
  -V(xc)+E(xc)   XCENC  =        -3.96111399
  PAW double counting   =      5566.43601843    -5501.23934932
  entropy T*S    EENTRO =         0.00000000
  eigenvalues    EBANDS =      -211.43554887
  atomic energy  EATOM  =      6689.01075358
  Solvation  Ediel_sol  =         0.00000000
  ---------------------------------------------------
  free energy    TOTEN  =       412.84562080 eV

  energy without entropy =      412.84562080  energy(sigma->0) =      412.84562080


--------------------------------------------------------------------------------------------------------




--------------------------------------- Iteration      1(   3)  ---------------------------------------


     EDDAV:  cpu time    0.7678: real time    0.7678
 BZINTS: Fermi energy:  9.505772; 54.000000 electrons
         Band energy:-247.229932;  BLOECHL correction:  0.000000
       DOS:  cpu time    0.0017: real time    0.0017
    --------------------------------------------
      LOOP:  cpu time    0.7695: real time    0.7695

 eigenvalue-minimisations  :  1452
 total energy-change (2. order) :-0.3579438E+02  (-0.3560242E+02)
 number of electron      54.0000000 magnetization       0.0000000
 augmentation part       54.0000000 magnetization       0.0000000

 Free energy of the ion-electron system (eV)
  ---------------------------------------------------
  alpha Z        PSCENC =       194.59399051
  Ewald energy   TEWEN  =     -4167.81530784
  -Hartree energ DENC   =     -2152.74382170
  -exchange      EXHF   =         0.00000000
  -V(xc)+E(xc)   XCENC  =        -3.96111399
  PAW double counting   =      5566.43601843    -5501.23934932
  entropy T*S    EENTRO =         0.00000000
  eigenvalues    EBANDS =      -247.22993189
  atomic energy  EATOM  =      6689.01075358
  Solvation  Ediel_sol  =         0.00000000
  ---------------------------------------------------
  free energy    TOTEN  =       377.05123778 eV

  energy without entropy =      377.05123778  energy(sigma->0) =      377.05123778


--------------------------------------------------------------------------------------------------------




--------------------------------------- Iteration      1(   4)  ---------------------------------------


     EDDAV:  cpu time    0.8272: real time    0.8272
 BZINTS: Fermi energy:  9.562762; 54.000000 electrons
         Band energy:-247.691688;  BLOECHL correction:  0.000000
       DOS:  cpu time    0.0017: real time    0.0017
    --------------------------------------------
      LOOP:  cpu time    0.8289: real time    0.8289

 eigenvalue-minimisations  :  1608
 total energy-change (2. order) :-0.4617560E+00  (-0.4612721E+00)
 number of electron      54.0000000 magnetization       0.0000000
 augmentation part       54.0000000 magnetization       0.0000000

 Free energy of the ion-electron system (eV)
  ---------------------------------------------------
  alpha Z        PSCENC =       194.59399051
  Ewald energy   TEWEN  =     -4167.81530784
  -Hartree energ DENC   =     -2152.74382170
  -exchange      EXHF   =         0.00000000
  -V(xc)+E(xc)   XCENC  =        -3.96111399
  PAW double counting   =      5566.43601843    -5501.23934932
  entropy T*S    EENTRO =         0.00000000
  eigenvalues    EBANDS =      -247.69168789
  atomic energy  EATOM  =      6689.01075358
  Solvation  Ediel_sol  =         0.00000000
  ---------------------------------------------------
  free energy    TOTEN  =       376.58948178 eV

  energy without entropy =      376.58948178  energy(sigma->0) =      376.58948178


--------------------------------------------------------------------------------------------------------




--------------------------------------- Iteration      1(   5)  ---------------------------------------


     EDDAV:  cpu time    0.7593: real time    0.7593
 BZINTS: Fermi energy:  9.558834; 54.000000 electrons
         Band energy:-247.699275;  BLOECHL correction:  0.000000
       DOS:  cpu time    0.0017: real time    0.0017
    CHARGE:  cpu time    0.1489: real time    0.1489
    MIXING:  cpu time    0.0005: real time    0.0005
    --------------------------------------------
      LOOP:  cpu time    0.9104: real time    0.9104

 eigenvalue-minimisations  :  1428
 total energy-change (2. order) :-0.7586833E-02  (-0.7586730E-02)
 number of electron      54.0000010 magnetization       0.0000000
 augmentation part       22.5462680 magnetization       0.0000000

 Broyden mixing:
  rms(total) = 0.59544E+01    rms(broyden)= 0.59538E+01
  rms(prec ) = 0.61379E+01
  weight for this iteration     100.00

 Free energy of the ion-electron system (eV)
  ---------------------------------------------------
  alpha Z        PSCENC =       194.59399051
  Ewald energy   TEWEN  =     -4167.81530784
  -Hartree energ DENC   =     -2152.74382170
  -exchange      EXHF   =         0.00000000
  -V(xc)+E(xc)   XCENC  =        -3.96111399
  PAW double counting   =      5566.43601843    -5501.23934932
  entropy T*S    EENTRO =         0.00000000
  eigenvalues    EBANDS =      -247.69927472
  atomic energy  EATOM  =      6689.01075358
  Solvation  Ediel_sol  =         0.00000000
  ---------------------------------------------------
  free energy    TOTEN  =       376.58189495 eV

  energy without entropy =      376.58189495  energy(sigma->0) =      376.58189495


--------------------------------------------------------------------------------------------------------




--------------------------------------- Iteration      1(   6)  ---------------------------------------


    POTLOK:  cpu time    0.0343: real time    0.0344
    SETDIJ:  cpu time    0.7927: real time    0.7927
atom =   1  type =  1  l = 2
 
 onsite density matrix
 
spin component  1
 
 -0.0379  0.0000  0.0415  0.0000  0.0000
  0.0000 -0.0554  0.0000  0.0392  0.0000
  0.0415  0.0000 -0.0608  0.0000 -0.0000
  0.0000  0.0392  0.0000 -0.0554  0.0000
  0.0000  0.0000 -0.0000  0.0000 -0.0987
 
spin component  2
 
  1.1042  0.0000 -0.0164  0.0000  0.0000
  0.0000  1.1119  0.0000 -0.0161  0.0000
 -0.0164  0.0000  1.1131  0.0000  0.0000
  0.0000 -0.0161  0.0000  1.1119  0.0000
  0.0000  0.0000  0.0000  0.0000  1.1290
 
 occupancies and eigenvectors
 
  o = -0.0987  v =  0.0000  0.0000 -0.0000  0.0000 -1.0000  0.0000  0.0000  0.0000  0.0000  0.0000      0.0000  0.0000  0.0000  0.0000  0.0000  0.0000  0.0000  0.0000  0.0000  0.0000
  o = -0.0946  v =  0.0000  0.7071  0.0000 -0.7071  0.0000  0.0000  0.0000  0.0000  0.0000  0.0000      0.0000  0.0000  0.0000  0.0000  0.0000  0.0000  0.0000  0.0000  0.0000  0.0000
  o = -0.0924  v = -0.6058  0.0000  0.7956  0.0000 -0.0000  0.0000  0.0000  0.0000  0.0000  0.0000      0.0000  0.0000  0.0000  0.0000  0.0000  0.0000  0.0000  0.0000  0.0000  0.0000
  o = -0.0162  v =  0.0000 -0.7071  0.0000 -0.7071 -0.0000  0.0000  0.0000  0.0000  0.0000  0.0000      0.0000  0.0000  0.0000  0.0000  0.0000  0.0000  0.0000  0.0000  0.0000  0.0000
  o = -0.0063  v =  0.7956  0.0000  0.6058  0.0000 -0.0000  0.0000  0.0000  0.0000  0.0000  0.0000      0.0000  0.0000  0.0000  0.0000  0.0000  0.0000  0.0000  0.0000  0.0000  0.0000
  o =  1.0916  v =  0.0000  0.0000  0.0000  0.0000  0.0000 -0.7939  0.0000 -0.6080  0.0000  0.0000      0.0000  0.0000  0.0000  0.0000  0.0000  0.0000  0.0000  0.0000  0.0000  0.0000
  o =  1.0958  v =  0.0000  0.0000  0.0000  0.0000  0.0000  0.0000 -0.7071  0.0000 -0.7071 -0.0000      0.0000  0.0000  0.0000  0.0000  0.0000  0.0000  0.0000  0.0000  0.0000  0.0000
  o =  1.1256  v =  0.0000  0.0000  0.0000  0.0000  0.0000 -0.6080  0.0000  0.7939  0.0000 -0.0000      0.0000  0.0000  0.0000  0.0000  0.0000  0.0000  0.0000  0.0000  0.0000  0.0000
  o =  1.1280  v =  0.0000  0.0000  0.0000  0.0000  0.0000  0.0000 -0.7071  0.0000  0.7071 -0.0000      0.0000  0.0000  0.0000  0.0000  0.0000  0.0000  0.0000  0.0000  0.0000  0.0000
  o =  1.1290  v =  0.0000  0.0000  0.0000  0.0000  0.0000  0.0000  0.0000 -0.0000  0.0000 -1.0000      0.0000  0.0000  0.0000  0.0000  0.0000  0.0000  0.0000  0.0000  0.0000  0.0000
atom =   2  type =  1  l = 2
 
 onsite density matrix
 
spin component  1
 
  1.1042  0.0000  0.0164  0.0000  0.0000
  0.0000  1.1119  0.0000  0.0161  0.0000
  0.0164  0.0000  1.1131  0.0000 -0.0000
  0.0000  0.0161  0.0000  1.1119  0.0000
  0.0000  0.0000 -0.0000  0.0000  1.1290
 
spin component  2
 
 -0.0379  0.0000 -0.0415  0.0000  0.0000
  0.0000 -0.0554  0.0000 -0.0392  0.0000
 -0.0415  0.0000 -0.0608  0.0000  0.0000
  0.0000 -0.0392  0.0000 -0.0554  0.0000
  0.0000  0.0000  0.0000  0.0000 -0.0987
 
 occupancies and eigenvectors
 
  o = -0.0987  v =  0.0000  0.0000  0.0000  0.0000  0.0000  0.0000  0.0000  0.0000  0.0000 -1.0000      0.0000  0.0000  0.0000  0.0000  0.0000  0.0000  0.0000  0.0000  0.0000  0.0000
  o = -0.0946  v =  0.0000  0.0000  0.0000  0.0000  0.0000  0.0000 -0.7071  0.0000 -0.7071 -0.0000      0.0000  0.0000  0.0000  0.0000  0.0000  0.0000  0.0000  0.0000  0.0000  0.0000
  o = -0.0924  v =  0.0000  0.0000  0.0000  0.0000  0.0000 -0.6058  0.0000 -0.7956  0.0000 -0.0000      0.0000  0.0000  0.0000  0.0000  0.0000  0.0000  0.0000  0.0000  0.0000  0.0000
  o = -0.0162  v =  0.0000  0.0000  0.0000  0.0000  0.0000  0.0000  0.7071  0.0000 -0.7071  0.0000      0.0000  0.0000  0.0000  0.0000  0.0000  0.0000  0.0000  0.0000  0.0000  0.0000
  o = -0.0063  v =  0.0000  0.0000  0.0000  0.0000  0.0000  0.7956  0.0000 -0.6058  0.0000 -0.0000      0.0000  0.0000  0.0000  0.0000  0.0000  0.0000  0.0000  0.0000  0.0000  0.0000
  o =  1.0916  v =  0.7939  0.0000 -0.6080 -0.0000 -0.0000  0.0000  0.0000  0.0000  0.0000  0.0000      0.0000  0.0000  0.0000  0.0000  0.0000  0.0000  0.0000  0.0000  0.0000  0.0000
  o =  1.0958  v =  0.0000 -0.7071 -0.0000  0.7071  0.0000  0.0000  0.0000  0.0000  0.0000  0.0000      0.0000  0.0000  0.0000  0.0000  0.0000  0.0000  0.0000  0.0000  0.0000  0.0000
  o =  1.1256  v = -0.6080  0.0000 -0.7939  0.0000 -0.0000  0.0000  0.0000  0.0000  0.0000  0.0000      0.0000  0.0000  0.0000  0.0000  0.0000  0.0000  0.0000  0.0000  0.0000  0.0000
  o =  1.1280  v =  0.0000  0.7071  0.0000  0.7071 -0.0000  0.0000  0.0000  0.0000  0.0000  0.0000      0.0000  0.0000  0.0000  0.0000  0.0000  0.0000  0.0000  0.0000  0.0000  0.0000
  o =  1.1290  v =  0.0000 -0.0000  0.0000 -0.0000 -1.0000  0.0000  0.0000  0.0000  0.0000  0.0000      0.0000  0.0000  0.0000  0.0000  0.0000  0.0000  0.0000  0.0000  0.0000  0.0000
     EDDAV:  cpu time    0.9039: real time    0.9040
 BZINTS: Fermi energy:  1.685029; 54.000000 electrons
         Band energy:-791.792444;  BLOECHL correction:  0.000000
       DOS:  cpu time    0.0021: real time    0.0020
    CHARGE:  cpu time    0.1488: real time    0.1488
    MIXING:  cpu time    0.0005: real time    0.0005
    --------------------------------------------
      LOOP:  cpu time    1.8824: real time    1.8825

 eigenvalue-minimisations  :  1812
 total energy-change (2. order) :-0.4383332E+03  (-0.2459875E+02)
 number of electron      54.0000009 magnetization       0.0000000
 augmentation part       20.1061139 magnetization       0.0000000

 Broyden mixing:
  rms(total) = 0.58118E+01    rms(broyden)= 0.58116E+01
  rms(prec ) = 0.60375E+01
  weight for this iteration     100.00

 eigenvalues of (default mixing * dielectric matrix)
  average eigenvalue GAMMA=   0.4372
  0.4372

 Free energy of the ion-electron system (eV)
  ---------------------------------------------------
  alpha Z        PSCENC =       194.59399051
  Ewald energy   TEWEN  =     -4167.81530784
  -Hartree energ DENC   =     -2215.93391733
  -exchange      EXHF   =         0.00000000
  -V(xc)+E(xc)   XCENC  =       146.07032579
  PAW double counting   =      6400.90227932    -6316.78699804
  entropy T*S    EENTRO =         0.00000000
  eigenvalues    EBANDS =      -791.79244354
  atomic energy  EATOM  =      6689.01075358
  Solvation  Ediel_sol  =         0.00000000
  ---------------------------------------------------
  free energy    TOTEN  =       -61.75131755 eV

  energy without entropy =      -61.75131755  energy(sigma->0) =      -61.75131755


--------------------------------------------------------------------------------------------------------




--------------------------------------- Iteration      1(   7)  ---------------------------------------


    POTLOK:  cpu time    0.0334: real time    0.0334
    SETDIJ:  cpu time    0.9036: real time    0.9036
atom =   1  type =  1  l = 2
 
 onsite density matrix
 
spin component  1
 
  0.0306  0.0000  0.0146  0.0000  0.0000
  0.0000  0.0257  0.0000  0.0144  0.0000
  0.0146  0.0000  0.0224  0.0000  0.0000
  0.0000  0.0144  0.0000  0.0257  0.0000
  0.0000  0.0000  0.0000  0.0000  0.0085
 
spin component  2
 
  1.0248  0.0000  0.0132  0.0000 -0.0000
  0.0000  1.0182  0.0000  0.0115  0.0000
  0.0132  0.0000  1.0174  0.0000  0.0000
  0.0000  0.0115  0.0000  1.0182  0.0000
 -0.0000  0.0000  0.0000  0.0000  1.0076
 
 occupancies and eigenvectors
 
  o =  0.0085  v =  0.0000 -0.0000 -0.0000  0.0000  1.0000  0.0000  0.0000  0.0000  0.0000  0.0000      0.0000  0.0000  0.0000  0.0000  0.0000  0.0000  0.0000  0.0000  0.0000  0.0000
  o =  0.0113  v =  0.0000  0.7071  0.0000 -0.7071  0.0000  0.0000  0.0000  0.0000  0.0000  0.0000      0.0000  0.0000  0.0000  0.0000  0.0000  0.0000  0.0000  0.0000  0.0000  0.0000
  o =  0.0114  v = -0.6045 -0.0000  0.7966  0.0000  0.0000  0.0000  0.0000  0.0000  0.0000  0.0000      0.0000  0.0000  0.0000  0.0000  0.0000  0.0000  0.0000  0.0000  0.0000  0.0000
  o =  0.0401  v =  0.0000 -0.7071  0.0000 -0.7071 -0.0000  0.0000  0.0000  0.0000  0.0000  0.0000      0.0000  0.0000  0.0000  0.0000  0.0000  0.0000  0.0000  0.0000  0.0000  0.0000
  o =  0.0417  v = -0.7966  0.0000 -0.6045  0.0000 -0.0000  0.0000  0.0000  0.0000  0.0000  0.0000      0.0000  0.0000  0.0000  0.0000  0.0000  0.0000  0.0000  0.0000  0.0000  0.0000
  o =  1.0067  v =  0.0000  0.0000  0.0000  0.0000  0.0000  0.0000  0.7071 -0.0000 -0.7071 -0.0000      0.0000  0.0000  0.0000  0.0000  0.0000  0.0000  0.0000  0.0000  0.0000  0.0000
  o =  1.0074  v =  0.0000  0.0000  0.0000  0.0000  0.0000 -0.6056  0.0000  0.7957  0.0000 -0.0000      0.0000  0.0000  0.0000  0.0000  0.0000  0.0000  0.0000  0.0000  0.0000  0.0000
  o =  1.0076  v =  0.0000  0.0000  0.0000  0.0000  0.0000  0.0000  0.0000  0.0000 -0.0000  1.0000      0.0000  0.0000  0.0000  0.0000  0.0000  0.0000  0.0000  0.0000  0.0000  0.0000
  o =  1.0297  v =  0.0000  0.0000  0.0000  0.0000  0.0000  0.0000  0.7071  0.0000  0.7071  0.0000      0.0000  0.0000  0.0000  0.0000  0.0000  0.0000  0.0000  0.0000  0.0000  0.0000
  o =  1.0348  v =  0.0000  0.0000  0.0000  0.0000  0.0000 -0.7957  0.0000 -0.6056  0.0000  0.0000      0.0000  0.0000  0.0000  0.0000  0.0000  0.0000  0.0000  0.0000  0.0000  0.0000
atom =   2  type =  1  l = 2
 
 onsite density matrix
 
spin component  1
 
  1.0248  0.0000 -0.0132  0.0000 -0.0000
  0.0000  1.0182  0.0000 -0.0115  0.0000
 -0.0132  0.0000  1.0174  0.0000 -0.0000
  0.0000 -0.0115  0.0000  1.0182  0.0000
 -0.0000  0.0000 -0.0000  0.0000  1.0076
 
spin component  2
 
  0.0306  0.0000 -0.0146  0.0000  0.0000
  0.0000  0.0257  0.0000 -0.0144  0.0000
 -0.0146  0.0000  0.0224  0.0000  0.0000
  0.0000 -0.0144  0.0000  0.0257  0.0000
  0.0000  0.0000  0.0000  0.0000  0.0085
 
 occupancies and eigenvectors
 
  o =  0.0085  v =  0.0000  0.0000  0.0000  0.0000  0.0000  0.0000  0.0000  0.0000  0.0000 -1.0000      0.0000  0.0000  0.0000  0.0000  0.0000  0.0000  0.0000  0.0000  0.0000  0.0000
  o =  0.0113  v =  0.0000  0.0000  0.0000  0.0000  0.0000  0.0000  0.7071  0.0000  0.7071  0.0000      0.0000  0.0000  0.0000  0.0000  0.0000  0.0000  0.0000  0.0000  0.0000  0.0000
  o =  0.0114  v =  0.0000  0.0000  0.0000  0.0000  0.0000 -0.6045  0.0000 -0.7966  0.0000 -0.0000      0.0000  0.0000  0.0000  0.0000  0.0000  0.0000  0.0000  0.0000  0.0000  0.0000
  o =  0.0401  v =  0.0000  0.0000  0.0000  0.0000  0.0000  0.0000  0.7071  0.0000 -0.7071  0.0000      0.0000  0.0000  0.0000  0.0000  0.0000  0.0000  0.0000  0.0000  0.0000  0.0000
  o =  0.0417  v =  0.0000  0.0000  0.0000  0.0000  0.0000 -0.7966 -0.0000  0.6045  0.0000  0.0000      0.0000  0.0000  0.0000  0.0000  0.0000  0.0000  0.0000  0.0000  0.0000  0.0000
  o =  1.0067  v =  0.0000  0.7071  0.0000  0.7071 -0.0000  0.0000  0.0000  0.0000  0.0000  0.0000      0.0000  0.0000  0.0000  0.0000  0.0000  0.0000  0.0000  0.0000  0.0000  0.0000
  o =  1.0074  v = -0.6056  0.0000 -0.7957  0.0000 -0.0000  0.0000  0.0000  0.0000  0.0000  0.0000      0.0000  0.0000  0.0000  0.0000  0.0000  0.0000  0.0000  0.0000  0.0000  0.0000
  o =  1.0076  v =  0.0000  0.0000 -0.0000  0.0000  1.0000  0.0000  0.0000  0.0000  0.0000  0.0000      0.0000  0.0000  0.0000  0.0000  0.0000  0.0000  0.0000  0.0000  0.0000  0.0000
  o =  1.0297  v =  0.0000  0.7071 -0.0000 -0.7071  0.0000  0.0000  0.0000  0.0000  0.0000  0.0000      0.0000  0.0000  0.0000  0.0000  0.0000  0.0000  0.0000  0.0000  0.0000  0.0000
  o =  1.0348  v = -0.7957  0.0000  0.6056  0.0000  0.0000  0.0000  0.0000  0.0000  0.0000  0.0000      0.0000  0.0000  0.0000  0.0000  0.0000  0.0000  0.0000  0.0000  0.0000  0.0000
     EDDAV:  cpu time    0.7492: real time    0.7492
 BZINTS: Fermi energy:  0.706106; 54.000000 electrons
         Band energy:-818.576850;  BLOECHL correction:  0.000000
       DOS:  cpu time    0.0012: real time    0.0012
    CHARGE:  cpu time    0.1509: real time    0.1509
    MIXING:  cpu time    0.0006: real time    0.0006
    --------------------------------------------
      LOOP:  cpu time    1.8390: real time    1.8390

 eigenvalue-minimisations  :  1428
 total energy-change (2. order) :-0.6252163E+01  (-0.5308056E+01)
 number of electron      54.0000009 magnetization       0.0000000
 augmentation part       19.8790278 magnetization       0.0000000

 Broyden mixing:
  rms(total) = 0.13506E+01    rms(broyden)= 0.13503E+01
  rms(prec ) = 0.19578E+01
  weight for this iteration     100.00

 eigenvalues of (default mixing * dielectric matrix)
  average eigenvalue GAMMA=   0.7305
  0.7305  0.7305

 Free energy of the ion-electron system (eV)
  ---------------------------------------------------
  alpha Z        PSCENC =       194.59399051
  Ewald energy   TEWEN  =     -4167.81530784
  -Hartree energ DENC   =     -2205.50575947
  -exchange      EXHF   =         0.00000000
  -V(xc)+E(xc)   XCENC  =       165.04321883
  PAW double counting   =      6485.18097626    -6409.93450188
  entropy T*S    EENTRO =         0.00000000
  eigenvalues    EBANDS =      -818.57685038
  atomic energy  EATOM  =      6689.01075358
  Solvation  Ediel_sol  =         0.00000000
  ---------------------------------------------------
  free energy    TOTEN  =       -68.00348039 eV

  energy without entropy =      -68.00348039  energy(sigma->0) =      -68.00348039


--------------------------------------------------------------------------------------------------------




--------------------------------------- Iteration      1(   8)  ---------------------------------------


    POTLOK:  cpu time    0.0325: real time    0.0325
    SETDIJ:  cpu time    1.4435: real time    1.4435
atom =   1  type =  1  l = 2
 
 onsite density matrix
 
spin component  1
 
  0.0361  0.0000  0.0163  0.0000 -0.0000
  0.0000  0.0279  0.0000  0.0147  0.0000
  0.0163  0.0000  0.0273  0.0000  0.0000
  0.0000  0.0147  0.0000  0.0279  0.0000
 -0.0000  0.0000  0.0000  0.0000  0.0124
 
spin component  2
 
  1.0002  0.0000  0.0123  0.0000  0.0000
  0.0000  0.9977  0.0000  0.0112  0.0000
  0.0123  0.0000  0.9932  0.0000  0.0000
  0.0000  0.0112  0.0000  0.9977  0.0000
  0.0000  0.0000  0.0000  0.0000  0.9856
 
 occupancies and eigenvectors
 
  o =  0.0124  v =  0.0000  0.0000 -0.0000  0.0000  1.0000  0.0000  0.0000  0.0000  0.0000  0.0000      0.0000  0.0000  0.0000  0.0000  0.0000  0.0000  0.0000  0.0000  0.0000  0.0000
  o =  0.0133  v =  0.0000  0.7071  0.0000 -0.7071 -0.0000  0.0000  0.0000  0.0000  0.0000  0.0000      0.0000  0.0000  0.0000  0.0000  0.0000  0.0000  0.0000  0.0000  0.0000  0.0000
  o =  0.0148  v = -0.6075  0.0000  0.7943  0.0000  0.0000  0.0000  0.0000  0.0000  0.0000  0.0000      0.0000  0.0000  0.0000  0.0000  0.0000  0.0000  0.0000  0.0000  0.0000  0.0000
  o =  0.0426  v =  0.0000  0.7071  0.0000  0.7071 -0.0000  0.0000  0.0000  0.0000  0.0000  0.0000      0.0000  0.0000  0.0000  0.0000  0.0000  0.0000  0.0000  0.0000  0.0000  0.0000
  o =  0.0485  v = -0.7943 -0.0000 -0.6075  0.0000 -0.0000  0.0000  0.0000  0.0000  0.0000  0.0000      0.0000  0.0000  0.0000  0.0000  0.0000  0.0000  0.0000  0.0000  0.0000  0.0000
  o =  0.9839  v =  0.0000  0.0000  0.0000  0.0000  0.0000 -0.6021  0.0000  0.7984 -0.0000 -0.0000      0.0000  0.0000  0.0000  0.0000  0.0000  0.0000  0.0000  0.0000  0.0000  0.0000
  o =  0.9856  v =  0.0000  0.0000  0.0000  0.0000  0.0000  0.0000 -0.0000 -0.0000  0.0000 -1.0000      0.0000  0.0000  0.0000  0.0000  0.0000  0.0000  0.0000  0.0000  0.0000  0.0000
  o =  0.9866  v =  0.0000  0.0000  0.0000  0.0000  0.0000  0.0000  0.7071 -0.0000 -0.7071 -0.0000      0.0000  0.0000  0.0000  0.0000  0.0000  0.0000  0.0000  0.0000  0.0000  0.0000
  o =  1.0089  v =  0.0000  0.0000  0.0000  0.0000  0.0000 -0.0000 -0.7071 -0.0000 -0.7071 -0.0000      0.0000  0.0000  0.0000  0.0000  0.0000  0.0000  0.0000  0.0000  0.0000  0.0000
  o =  1.0095  v =  0.0000  0.0000  0.0000  0.0000  0.0000 -0.7984  0.0000 -0.6021  0.0000 -0.0000      0.0000  0.0000  0.0000  0.0000  0.0000  0.0000  0.0000  0.0000  0.0000  0.0000
atom =   2  type =  1  l = 2
 
 onsite density matrix
 
spin component  1
 
  1.0002  0.0000 -0.0123  0.0000 -0.0000
  0.0000  0.9977  0.0000 -0.0112  0.0000
 -0.0123  0.0000  0.9932  0.0000 -0.0000
  0.0000 -0.0112  0.0000  0.9977  0.0000
 -0.0000  0.0000 -0.0000  0.0000  0.9856
 
spin component  2
 
  0.0361  0.0000 -0.0163  0.0000 -0.0000
  0.0000  0.0279  0.0000 -0.0147  0.0000
 -0.0163  0.0000  0.0273  0.0000  0.0000
  0.0000 -0.0147  0.0000  0.0279  0.0000
 -0.0000  0.0000  0.0000  0.0000  0.0124
 
 occupancies and eigenvectors
 
  o =  0.0124  v =  0.0000  0.0000  0.0000  0.0000  0.0000  0.0000 -0.0000  0.0000  0.0000 -1.0000      0.0000  0.0000  0.0000  0.0000  0.0000  0.0000  0.0000  0.0000  0.0000  0.0000
  o =  0.0133  v =  0.0000  0.0000  0.0000  0.0000  0.0000  0.0000 -0.7071  0.0000 -0.7071  0.0000      0.0000  0.0000  0.0000  0.0000  0.0000  0.0000  0.0000  0.0000  0.0000  0.0000
  o =  0.0148  v =  0.0000  0.0000  0.0000  0.0000  0.0000 -0.6075 -0.0000 -0.7943  0.0000 -0.0000      0.0000  0.0000  0.0000  0.0000  0.0000  0.0000  0.0000  0.0000  0.0000  0.0000
  o =  0.0426  v =  0.0000  0.0000  0.0000  0.0000  0.0000  0.0000 -0.7071  0.0000  0.7071  0.0000      0.0000  0.0000  0.0000  0.0000  0.0000  0.0000  0.0000  0.0000  0.0000  0.0000
  o =  0.0485  v =  0.0000  0.0000  0.0000  0.0000  0.0000 -0.7943  0.0000  0.6075  0.0000  0.0000      0.0000  0.0000  0.0000  0.0000  0.0000  0.0000  0.0000  0.0000  0.0000  0.0000
  o =  0.9839  v = -0.6021  0.0000 -0.7984  0.0000 -0.0000  0.0000  0.0000  0.0000  0.0000  0.0000      0.0000  0.0000  0.0000  0.0000  0.0000  0.0000  0.0000  0.0000  0.0000  0.0000
  o =  0.9856  v =  0.0000  0.0000 -0.0000  0.0000  1.0000  0.0000  0.0000  0.0000  0.0000  0.0000      0.0000  0.0000  0.0000  0.0000  0.0000  0.0000  0.0000  0.0000  0.0000  0.0000
  o =  0.9866  v =  0.0000 -0.7071 -0.0000 -0.7071  0.0000  0.0000  0.0000  0.0000  0.0000  0.0000      0.0000  0.0000  0.0000  0.0000  0.0000  0.0000  0.0000  0.0000  0.0000  0.0000
  o =  1.0089  v =  0.0000 -0.7071 -0.0000  0.7071  0.0000  0.0000  0.0000  0.0000  0.0000  0.0000      0.0000  0.0000  0.0000  0.0000  0.0000  0.0000  0.0000  0.0000  0.0000  0.0000
  o =  1.0095  v = -0.7984  0.0000  0.6021  0.0000  0.0000  0.0000  0.0000  0.0000  0.0000  0.0000      0.0000  0.0000  0.0000  0.0000  0.0000  0.0000  0.0000  0.0000  0.0000  0.0000
     EDDAV:  cpu time    0.8082: real time    0.8083
 BZINTS: Fermi energy:  0.083659; 54.000000 electrons
         Band energy:-826.726521;  BLOECHL correction:  0.000000
       DOS:  cpu time    0.0013: real time    0.0013
    CHARGE:  cpu time    0.1484: real time    0.1484
    MIXING:  cpu time    0.0006: real time    0.0006
    --------------------------------------------
      LOOP:  cpu time    2.4346: real time    2.4347

 eigenvalue-minimisations  :  1668
 total energy-change (2. order) : 0.1907780E+01  (-0.4362177E+00)
 number of electron      54.0000009 magnetization       0.0000000
 augmentation part       19.9556220 magnetization       0.0000000

 Broyden mixing:
  rms(total) = 0.49902E+00    rms(broyden)= 0.49885E+00
  rms(prec ) = 0.78040E+00
  weight for this iteration     100.00

 eigenvalues of (default mixing * dielectric matrix)
  average eigenvalue GAMMA=   0.8130
  1.1566  0.6411  0.6411

 Free energy of the ion-electron system (eV)
  ---------------------------------------------------
  alpha Z        PSCENC =       194.59399051
  Ewald energy   TEWEN  =     -4167.81530784
  -Hartree energ DENC   =     -2199.77254578
  -exchange      EXHF   =         0.00000000
  -V(xc)+E(xc)   XCENC  =       169.35309017
  PAW double counting   =      6444.42289412    -6369.16205450
  entropy T*S    EENTRO =         0.00000000
  eigenvalues    EBANDS =      -826.72652079
  atomic energy  EATOM  =      6689.01075358
  Solvation  Ediel_sol  =         0.00000000
  ---------------------------------------------------
  free energy    TOTEN  =       -66.09570053 eV

  energy without entropy =      -66.09570053  energy(sigma->0) =      -66.09570053


--------------------------------------------------------------------------------------------------------




--------------------------------------- Iteration      1(   9)  ---------------------------------------


    POTLOK:  cpu time    0.0325: real time    0.0325
    SETDIJ:  cpu time    1.4432: real time    1.4432
atom =   1  type =  1  l = 2
 
 onsite density matrix
 
spin component  1
 
  0.0409  0.0000  0.0108  0.0000  0.0000
  0.0000  0.0387  0.0000  0.0097  0.0000
  0.0108  0.0000  0.0345  0.0000  0.0000
  0.0000  0.0097  0.0000  0.0387  0.0000
  0.0000  0.0000  0.0000  0.0000  0.0274
 
spin component  2
 
  0.9751  0.0000  0.0206  0.0000 -0.0000
  0.0000  0.9670  0.0000  0.0176  0.0000
  0.0206  0.0000  0.9640  0.0000 -0.0000
  0.0000  0.0176  0.0000  0.9670  0.0000
 -0.0000  0.0000 -0.0000  0.0000  0.9489
 
 occupancies and eigenvectors
 
  o =  0.0265  v = -0.5982  0.0000  0.8014  0.0000 -0.0000  0.0000  0.0000  0.0000  0.0000  0.0000      0.0000  0.0000  0.0000  0.0000  0.0000  0.0000  0.0000  0.0000  0.0000  0.0000
  o =  0.0274  v = -0.0000 -0.0000  0.0000  0.0000  1.0000  0.0000  0.0000  0.0000  0.0000  0.0000      0.0000  0.0000  0.0000  0.0000  0.0000  0.0000  0.0000  0.0000  0.0000  0.0000
  o =  0.0289  v =  0.0000  0.7071  0.0000 -0.7071  0.0000  0.0000  0.0000  0.0000  0.0000  0.0000      0.0000  0.0000  0.0000  0.0000  0.0000  0.0000  0.0000  0.0000  0.0000  0.0000
  o =  0.0484  v =  0.0000 -0.7071  0.0000 -0.7071 -0.0000  0.0000  0.0000  0.0000  0.0000  0.0000      0.0000  0.0000  0.0000  0.0000  0.0000  0.0000  0.0000  0.0000  0.0000  0.0000
  o =  0.0490  v = -0.8014  0.0000 -0.5982  0.0000 -0.0000  0.0000  0.0000  0.0000  0.0000  0.0000      0.0000  0.0000  0.0000  0.0000  0.0000  0.0000  0.0000  0.0000  0.0000  0.0000
  o =  0.9482  v =  0.0000  0.0000  0.0000  0.0000  0.0000 -0.6092  0.0000  0.7930  0.0000  0.0000      0.0000  0.0000  0.0000  0.0000  0.0000  0.0000  0.0000  0.0000  0.0000  0.0000
  o =  0.9489  v =  0.0000  0.0000  0.0000  0.0000  0.0000  0.0000  0.0000 -0.0000 -0.0000  1.0000      0.0000  0.0000  0.0000  0.0000  0.0000  0.0000  0.0000  0.0000  0.0000  0.0000
  o =  0.9494  v =  0.0000  0.0000  0.0000  0.0000  0.0000 -0.0000  0.7071  0.0000 -0.7071 -0.0000      0.0000  0.0000  0.0000  0.0000  0.0000  0.0000  0.0000  0.0000  0.0000  0.0000
  o =  0.9846  v =  0.0000  0.0000  0.0000  0.0000  0.0000  0.0000 -0.7071 -0.0000 -0.7071  0.0000      0.0000  0.0000  0.0000  0.0000  0.0000  0.0000  0.0000  0.0000  0.0000  0.0000
  o =  0.9909  v =  0.0000  0.0000  0.0000  0.0000  0.0000 -0.7930  0.0000 -0.6092  0.0000  0.0000      0.0000  0.0000  0.0000  0.0000  0.0000  0.0000  0.0000  0.0000  0.0000  0.0000
atom =   2  type =  1  l = 2
 
 onsite density matrix
 
spin component  1
 
  0.9751  0.0000 -0.0206  0.0000  0.0000
  0.0000  0.9670  0.0000 -0.0176  0.0000
 -0.0206  0.0000  0.9640  0.0000  0.0000
  0.0000 -0.0176  0.0000  0.9670  0.0000
  0.0000  0.0000  0.0000  0.0000  0.9489
 
spin component  2
 
  0.0409  0.0000 -0.0108  0.0000  0.0000
  0.0000  0.0387  0.0000 -0.0097  0.0000
 -0.0108  0.0000  0.0345  0.0000 -0.0000
  0.0000 -0.0097  0.0000  0.0387  0.0000
  0.0000  0.0000 -0.0000  0.0000  0.0274
 
 occupancies and eigenvectors
 
  o =  0.0265  v =  0.0000  0.0000  0.0000  0.0000  0.0000 -0.5982  0.0000 -0.8014  0.0000 -0.0000      0.0000  0.0000  0.0000  0.0000  0.0000  0.0000  0.0000  0.0000  0.0000  0.0000
  o =  0.0274  v =  0.0000  0.0000  0.0000  0.0000  0.0000 -0.0000 -0.0000 -0.0000  0.0000  1.0000      0.0000  0.0000  0.0000  0.0000  0.0000  0.0000  0.0000  0.0000  0.0000  0.0000
  o =  0.0289  v =  0.0000  0.0000  0.0000  0.0000  0.0000  0.0000 -0.7071  0.0000 -0.7071 -0.0000      0.0000  0.0000  0.0000  0.0000  0.0000  0.0000  0.0000  0.0000  0.0000  0.0000
  o =  0.0484  v =  0.0000  0.0000  0.0000  0.0000  0.0000  0.0000  0.7071  0.0000 -0.7071  0.0000      0.0000  0.0000  0.0000  0.0000  0.0000  0.0000  0.0000  0.0000  0.0000  0.0000
  o =  0.0490  v =  0.0000  0.0000  0.0000  0.0000  0.0000 -0.8014  0.0000  0.5982  0.0000 -0.0000      0.0000  0.0000  0.0000  0.0000  0.0000  0.0000  0.0000  0.0000  0.0000  0.0000
  o =  0.9482  v = -0.6092  0.0000 -0.7930  0.0000  0.0000  0.0000  0.0000  0.0000  0.0000  0.0000      0.0000  0.0000  0.0000  0.0000  0.0000  0.0000  0.0000  0.0000  0.0000  0.0000
  o =  0.9489  v =  0.0000 -0.0000 -0.0000 -0.0000 -1.0000  0.0000  0.0000  0.0000  0.0000  0.0000      0.0000  0.0000  0.0000  0.0000  0.0000  0.0000  0.0000  0.0000  0.0000  0.0000
  o =  0.9494  v =  0.0000  0.7071 -0.0000  0.7071 -0.0000  0.0000  0.0000  0.0000  0.0000  0.0000      0.0000  0.0000  0.0000  0.0000  0.0000  0.0000  0.0000  0.0000  0.0000  0.0000
  o =  0.9846  v =  0.0000 -0.7071  0.0000  0.7071  0.0000  0.0000  0.0000  0.0000  0.0000  0.0000      0.0000  0.0000  0.0000  0.0000  0.0000  0.0000  0.0000  0.0000  0.0000  0.0000
  o =  0.9909  v = -0.7930  0.0000  0.6092  0.0000 -0.0000  0.0000  0.0000  0.0000  0.0000  0.0000      0.0000  0.0000  0.0000  0.0000  0.0000  0.0000  0.0000  0.0000  0.0000  0.0000
     EDDAV:  cpu time    0.8097: real time    0.8097
 BZINTS: Fermi energy: -0.216809; 54.000000 electrons
         Band energy:-831.610338;  BLOECHL correction:  0.000000
       DOS:  cpu time    0.0013: real time    0.0013
    CHARGE:  cpu time    0.1485: real time    0.1485
    MIXING:  cpu time    0.0007: real time    0.0007
    --------------------------------------------
      LOOP:  cpu time    2.4359: real time    2.4359

 eigenvalue-minimisations  :  1680
 total energy-change (2. order) : 0.3288148E+00  (-0.3935318E+00)
 number of electron      54.0000009 magnetization       0.0000000
 augmentation part       20.0343934 magnetization       0.0000000

 Broyden mixing:
  rms(total) = 0.85388E+00    rms(broyden)= 0.85385E+00
  rms(prec ) = 0.91281E+00
  weight for this iteration     100.00

 eigenvalues of (default mixing * dielectric matrix)
  average eigenvalue GAMMA=   0.9816
  1.8218  0.5816  0.7614  0.7614

 Free energy of the ion-electron system (eV)
  ---------------------------------------------------
  alpha Z        PSCENC =       194.59399051
  Ewald energy   TEWEN  =     -4167.81530784
  -Hartree energ DENC   =     -2192.26576667
  -exchange      EXHF   =         0.00000000
  -V(xc)+E(xc)   XCENC  =       168.12455914
  PAW double counting   =      6482.68239911    -6408.48717513
  entropy T*S    EENTRO =         0.00000000
  eigenvalues    EBANDS =      -831.61033845
  atomic energy  EATOM  =      6689.01075358
  Solvation  Ediel_sol  =         0.00000000
  ---------------------------------------------------
  free energy    TOTEN  =       -65.76688577 eV

  energy without entropy =      -65.76688577  energy(sigma->0) =      -65.76688577


--------------------------------------------------------------------------------------------------------




--------------------------------------- Iteration      1(  10)  ---------------------------------------


    POTLOK:  cpu time    0.0324: real time    0.0324
    SETDIJ:  cpu time    1.4439: real time    1.4439
atom =   1  type =  1  l = 2
 
 onsite density matrix
 
spin component  1
 
  0.0372  0.0000  0.0180  0.0000 -0.0000
  0.0000  0.0294  0.0000  0.0151  0.0000
  0.0180  0.0000  0.0274  0.0000 -0.0000
  0.0000  0.0151  0.0000  0.0294  0.0000
 -0.0000  0.0000 -0.0000  0.0000  0.0135
 
spin component  2
 
  0.9771  0.0000  0.0151  0.0000  0.0000
  0.0000  0.9740  0.0000  0.0137  0.0000
  0.0151  0.0000  0.9687  0.0000  0.0000
  0.0000  0.0137  0.0000  0.9740  0.0000
  0.0000  0.0000  0.0000  0.0000  0.9593
 
 occupancies and eigenvectors
 
  o =  0.0135  v =  0.0000 -0.0000 -0.0000  0.0000 -1.0000  0.0000  0.0000  0.0000  0.0000  0.0000      0.0000  0.0000  0.0000  0.0000  0.0000  0.0000  0.0000  0.0000  0.0000  0.0000
  o =  0.0137  v = -0.6065 -0.0000  0.7951  0.0000 -0.0000  0.0000  0.0000  0.0000  0.0000  0.0000      0.0000  0.0000  0.0000  0.0000  0.0000  0.0000  0.0000  0.0000  0.0000  0.0000
  o =  0.0143  v =  0.0000  0.7071  0.0000 -0.7071 -0.0000  0.0000  0.0000  0.0000  0.0000  0.0000      0.0000  0.0000  0.0000  0.0000  0.0000  0.0000  0.0000  0.0000  0.0000  0.0000
  o =  0.0445  v =  0.0000  0.7071  0.0000  0.7071 -0.0000  0.0000  0.0000  0.0000  0.0000  0.0000      0.0000  0.0000  0.0000  0.0000  0.0000  0.0000  0.0000  0.0000  0.0000  0.0000
  o =  0.0510  v = -0.7951  0.0000 -0.6065  0.0000  0.0000  0.0000  0.0000  0.0000  0.0000  0.0000      0.0000  0.0000  0.0000  0.0000  0.0000  0.0000  0.0000  0.0000  0.0000  0.0000
  o =  0.9572  v =  0.0000  0.0000  0.0000  0.0000  0.0000 -0.6048  0.0000  0.7964 -0.0000 -0.0000      0.0000  0.0000  0.0000  0.0000  0.0000  0.0000  0.0000  0.0000  0.0000  0.0000
  o =  0.9593  v =  0.0000  0.0000  0.0000  0.0000  0.0000 -0.0000  0.0000  0.0000 -0.0000  1.0000      0.0000  0.0000  0.0000  0.0000  0.0000  0.0000  0.0000  0.0000  0.0000  0.0000
  o =  0.9603  v =  0.0000  0.0000  0.0000  0.0000  0.0000  0.0000  0.7071 -0.0000 -0.7071 -0.0000      0.0000  0.0000  0.0000  0.0000  0.0000  0.0000  0.0000  0.0000  0.0000  0.0000
  o =  0.9878  v =  0.0000  0.0000  0.0000  0.0000  0.0000 -0.0000 -0.7071 -0.0000 -0.7071  0.0000      0.0000  0.0000  0.0000  0.0000  0.0000  0.0000  0.0000  0.0000  0.0000  0.0000
  o =  0.9885  v =  0.0000  0.0000  0.0000  0.0000  0.0000 -0.7964  0.0000 -0.6048  0.0000 -0.0000      0.0000  0.0000  0.0000  0.0000  0.0000  0.0000  0.0000  0.0000  0.0000  0.0000
atom =   2  type =  1  l = 2
 
 onsite density matrix
 
spin component  1
 
  0.9771  0.0000 -0.0151  0.0000 -0.0000
  0.0000  0.9740  0.0000 -0.0137  0.0000
 -0.0151  0.0000  0.9687  0.0000  0.0000
  0.0000 -0.0137  0.0000  0.9740  0.0000
 -0.0000  0.0000  0.0000  0.0000  0.9593
 
spin component  2
 
  0.0372  0.0000 -0.0180  0.0000  0.0000
  0.0000  0.0294  0.0000 -0.0151  0.0000
 -0.0180  0.0000  0.0274  0.0000  0.0000
  0.0000 -0.0151  0.0000  0.0294  0.0000
  0.0000  0.0000  0.0000  0.0000  0.0135
 
 occupancies and eigenvectors
 
  o =  0.0135  v =  0.0000  0.0000  0.0000  0.0000  0.0000  0.0000  0.0000  0.0000  0.0000 -1.0000      0.0000  0.0000  0.0000  0.0000  0.0000  0.0000  0.0000  0.0000  0.0000  0.0000
  o =  0.0137  v =  0.0000  0.0000  0.0000  0.0000  0.0000 -0.6065  0.0000 -0.7951  0.0000 -0.0000      0.0000  0.0000  0.0000  0.0000  0.0000  0.0000  0.0000  0.0000  0.0000  0.0000
  o =  0.0143  v =  0.0000  0.0000  0.0000  0.0000  0.0000  0.0000 -0.7071  0.0000 -0.7071 -0.0000      0.0000  0.0000  0.0000  0.0000  0.0000  0.0000  0.0000  0.0000  0.0000  0.0000
  o =  0.0445  v =  0.0000  0.0000  0.0000  0.0000  0.0000  0.0000 -0.7071  0.0000  0.7071 -0.0000      0.0000  0.0000  0.0000  0.0000  0.0000  0.0000  0.0000  0.0000  0.0000  0.0000
  o =  0.0510  v =  0.0000  0.0000  0.0000  0.0000  0.0000 -0.7951 -0.0000  0.6065  0.0000  0.0000      0.0000  0.0000  0.0000  0.0000  0.0000  0.0000  0.0000  0.0000  0.0000  0.0000
  o =  0.9572  v = -0.6048  0.0000 -0.7964  0.0000  0.0000  0.0000  0.0000  0.0000  0.0000  0.0000      0.0000  0.0000  0.0000  0.0000  0.0000  0.0000  0.0000  0.0000  0.0000  0.0000
  o =  0.9593  v =  0.0000 -0.0000  0.0000 -0.0000  1.0000  0.0000  0.0000  0.0000  0.0000  0.0000      0.0000  0.0000  0.0000  0.0000  0.0000  0.0000  0.0000  0.0000  0.0000  0.0000
  o =  0.9603  v = -0.0000 -0.7071 -0.0000 -0.7071 -0.0000  0.0000  0.0000  0.0000  0.0000  0.0000      0.0000  0.0000  0.0000  0.0000  0.0000  0.0000  0.0000  0.0000  0.0000  0.0000
  o =  0.9878  v = -0.0000 -0.7071  0.0000  0.7071 -0.0000  0.0000  0.0000  0.0000  0.0000  0.0000      0.0000  0.0000  0.0000  0.0000  0.0000  0.0000  0.0000  0.0000  0.0000  0.0000
  o =  0.9885  v = -0.7964  0.0000  0.6048 -0.0000  0.0000  0.0000  0.0000  0.0000  0.0000  0.0000      0.0000  0.0000  0.0000  0.0000  0.0000  0.0000  0.0000  0.0000  0.0000  0.0000
     EDDAV:  cpu time    0.7019: real time    0.7020
 BZINTS: Fermi energy: -0.241241; 54.000000 electrons
         Band energy:-834.002975;  BLOECHL correction:  0.000000
       DOS:  cpu time    0.0013: real time    0.0013
    CHARGE:  cpu time    0.1486: real time    0.1486
    MIXING:  cpu time    0.0007: real time    0.0007
    --------------------------------------------
      LOOP:  cpu time    2.3289: real time    2.3289

 eigenvalue-minimisations  :  1344
 total energy-change (2. order) : 0.4828631E-01  (-0.5983116E-01)
 number of electron      54.0000009 magnetization      -0.0000000
 augmentation part       19.9988234 magnetization      -0.0000000

 Broyden mixing:
  rms(total) = 0.42892E+00    rms(broyden)= 0.42892E+00
  rms(prec ) = 0.47934E+00
  weight for this iteration     100.00

 eigenvalues of (default mixing * dielectric matrix)
  average eigenvalue GAMMA=   1.1252
  2.1870  1.0701  1.0701  0.6037  0.6951

 Free energy of the ion-electron system (eV)
  ---------------------------------------------------
  alpha Z        PSCENC =       194.59399051
  Ewald energy   TEWEN  =     -4167.81530784
  -Hartree energ DENC   =     -2186.73674245
  -exchange      EXHF   =         0.00000000
  -V(xc)+E(xc)   XCENC  =       165.88383889
  PAW double counting   =      6546.81983774    -6473.47199450
  entropy T*S    EENTRO =         0.00000000
  eigenvalues    EBANDS =      -834.00297539
  atomic energy  EATOM  =      6689.01075358
  Solvation  Ediel_sol  =         0.00000000
  ---------------------------------------------------
  free energy    TOTEN  =       -65.71859946 eV

  energy without entropy =      -65.71859946  energy(sigma->0) =      -65.71859946


--------------------------------------------------------------------------------------------------------




--------------------------------------- Iteration      1(  11)  ---------------------------------------


    POTLOK:  cpu time    0.0323: real time    0.0323
    SETDIJ:  cpu time    1.4445: real time    1.4445
atom =   1  type =  1  l = 2
 
 onsite density matrix
 
spin component  1
 
  0.0262  0.0000  0.0178  0.0000  0.0000
  0.0000  0.0203  0.0000  0.0158  0.0000
  0.0178  0.0000  0.0167  0.0000  0.0000
  0.0000  0.0158  0.0000  0.0203  0.0000
  0.0000  0.0000  0.0000  0.0000  0.0032
 
spin component  2
 
  0.9896  0.0000  0.0177  0.0000 -0.0000
  0.0000  0.9835  0.0000  0.0153  0.0000
  0.0177  0.0000  0.9793  0.0000 -0.0000
  0.0000  0.0153  0.0000  0.9835  0.0000
 -0.0000  0.0000 -0.0000  0.0000  0.9680
 
 occupancies and eigenvectors
 
  o =  0.0030  v = -0.6088 -0.0000  0.7933  0.0000 -0.0000  0.0000  0.0000  0.0000  0.0000  0.0000      0.0000  0.0000  0.0000  0.0000  0.0000  0.0000  0.0000  0.0000  0.0000  0.0000
  o =  0.0032  v = -0.0000  0.0000  0.0000 -0.0000  1.0000  0.0000  0.0000  0.0000  0.0000  0.0000      0.0000  0.0000  0.0000  0.0000  0.0000  0.0000  0.0000  0.0000  0.0000  0.0000
  o =  0.0045  v =  0.0000  0.7071 -0.0000 -0.7071 -0.0000  0.0000  0.0000  0.0000  0.0000  0.0000      0.0000  0.0000  0.0000  0.0000  0.0000  0.0000  0.0000  0.0000  0.0000  0.0000
  o =  0.0361  v = -0.0000 -0.7071 -0.0000 -0.7071 -0.0000  0.0000  0.0000  0.0000  0.0000  0.0000      0.0000  0.0000  0.0000  0.0000  0.0000  0.0000  0.0000  0.0000  0.0000  0.0000
  o =  0.0398  v = -0.7933  0.0000 -0.6088  0.0000 -0.0000  0.0000  0.0000  0.0000  0.0000  0.0000      0.0000  0.0000  0.0000  0.0000  0.0000  0.0000  0.0000  0.0000  0.0000  0.0000
  o =  0.9660  v =  0.0000  0.0000  0.0000  0.0000  0.0000 -0.6003  0.0000  0.7997  0.0000  0.0000      0.0000  0.0000  0.0000  0.0000  0.0000  0.0000  0.0000  0.0000  0.0000  0.0000
  o =  0.9680  v =  0.0000  0.0000  0.0000  0.0000  0.0000 -0.0000 -0.0000  0.0000  0.0000 -1.0000      0.0000  0.0000  0.0000  0.0000  0.0000  0.0000  0.0000  0.0000  0.0000  0.0000
  o =  0.9682  v =  0.0000  0.0000  0.0000  0.0000  0.0000  0.0000 -0.7071  0.0000  0.7071  0.0000      0.0000  0.0000  0.0000  0.0000  0.0000  0.0000  0.0000  0.0000  0.0000  0.0000
  o =  0.9988  v =  0.0000  0.0000  0.0000  0.0000  0.0000  0.0000  0.7071  0.0000  0.7071 -0.0000      0.0000  0.0000  0.0000  0.0000  0.0000  0.0000  0.0000  0.0000  0.0000  0.0000
  o =  1.0030  v =  0.0000  0.0000  0.0000  0.0000  0.0000 -0.7997  0.0000 -0.6003  0.0000  0.0000      0.0000  0.0000  0.0000  0.0000  0.0000  0.0000  0.0000  0.0000  0.0000  0.0000
atom =   2  type =  1  l = 2
 
 onsite density matrix
 
spin component  1
 
  0.9896  0.0000 -0.0177  0.0000 -0.0000
  0.0000  0.9835  0.0000 -0.0153  0.0000
 -0.0177  0.0000  0.9793  0.0000 -0.0000
  0.0000 -0.0153  0.0000  0.9835  0.0000
 -0.0000  0.0000 -0.0000  0.0000  0.9680
 
spin component  2
 
  0.0262  0.0000 -0.0178  0.0000  0.0000
  0.0000  0.0203  0.0000 -0.0158  0.0000
 -0.0178  0.0000  0.0167  0.0000  0.0000
  0.0000 -0.0158  0.0000  0.0203  0.0000
  0.0000  0.0000  0.0000  0.0000  0.0032
 
 occupancies and eigenvectors
 
  o =  0.0030  v =  0.0000  0.0000  0.0000  0.0000  0.0000 -0.6088 -0.0000 -0.7933 -0.0000  0.0000      0.0000  0.0000  0.0000  0.0000  0.0000  0.0000  0.0000  0.0000  0.0000  0.0000
  o =  0.0032  v =  0.0000  0.0000  0.0000  0.0000  0.0000 -0.0000  0.0000 -0.0000  0.0000 -1.0000      0.0000  0.0000  0.0000  0.0000  0.0000  0.0000  0.0000  0.0000  0.0000  0.0000
  o =  0.0045  v =  0.0000  0.0000  0.0000  0.0000  0.0000 -0.0000 -0.7071 -0.0000 -0.7071 -0.0000      0.0000  0.0000  0.0000  0.0000  0.0000  0.0000  0.0000  0.0000  0.0000  0.0000
  o =  0.0361  v =  0.0000  0.0000  0.0000  0.0000  0.0000  0.0000  0.7071 -0.0000 -0.7071 -0.0000      0.0000  0.0000  0.0000  0.0000  0.0000  0.0000  0.0000  0.0000  0.0000  0.0000
  o =  0.0398  v =  0.0000  0.0000  0.0000  0.0000  0.0000 -0.7933  0.0000  0.6088 -0.0000  0.0000      0.0000  0.0000  0.0000  0.0000  0.0000  0.0000  0.0000  0.0000  0.0000  0.0000
  o =  0.9660  v = -0.6003  0.0000 -0.7997  0.0000 -0.0000  0.0000  0.0000  0.0000  0.0000  0.0000      0.0000  0.0000  0.0000  0.0000  0.0000  0.0000  0.0000  0.0000  0.0000  0.0000
  o =  0.9680  v =  0.0000  0.0000 -0.0000  0.0000  1.0000  0.0000  0.0000  0.0000  0.0000  0.0000      0.0000  0.0000  0.0000  0.0000  0.0000  0.0000  0.0000  0.0000  0.0000  0.0000
  o =  0.9682  v =  0.0000 -0.7071  0.0000 -0.7071  0.0000  0.0000  0.0000  0.0000  0.0000  0.0000      0.0000  0.0000  0.0000  0.0000  0.0000  0.0000  0.0000  0.0000  0.0000  0.0000
[...]
     33       9.8868      0.00000
     34      11.0471      0.00000
     35      11.3609      0.00000
     36      11.8186      0.00000

 k-point     7 :       0.1250    0.1250    0.4167
  band No.  band energies     occupation 
      1     -49.4631      1.00000
      2     -49.4252      1.00000
      3     -49.4105      1.00000
      4     -42.7829      1.00000
      5     -42.7382      1.00000
      6     -42.7188      1.00000
      7     -22.6466      1.00000
      8     -22.5357      1.00000
      9     -22.4963      1.00000
     10     -22.3931      1.00000
     11      -5.4072      1.00000
     12      -4.6897      1.00000
     13      -4.4520      1.00000
     14      -4.3415      1.00000
     15      -4.0744      1.00000
     16      -3.7742      1.00000
     17      -3.6833      1.00000
     18      -3.1793      1.00000
     19      -2.8435      1.00000
     20      -2.8099      1.00000
     21      -2.7139      1.00000
     22      -2.3458      1.00000
     23      -2.3322      1.00000
     24      -1.8514      1.00000
     25      -1.5284      1.00000
     26      -1.1897      1.00000
     27      -0.9165      1.00000
     28       8.4331      0.00000
     29       9.4141      0.00000
     30       9.5143      0.00000
     31       9.6030      0.00000
     32      10.5338      0.00000
     33      10.8035      0.00000
     34      11.7233      0.00000
     35      12.5136      0.00000
     36      12.8442      0.00000

 k-point     8 :       0.3750    0.1250    0.4167
  band No.  band energies     occupation 
      1     -49.4631      1.00000
      2     -49.4252      1.00000
      3     -49.4105      1.00000
      4     -42.7829      1.00000
      5     -42.7382      1.00000
      6     -42.7189      1.00000
      7     -22.5969      1.00000
      8     -22.5461      1.00000
      9     -22.5061      1.00000
     10     -22.4223      1.00000
     11      -5.2156      1.00000
     12      -4.8258      1.00000
     13      -4.5700      1.00000
     14      -4.4777      1.00000
     15      -4.1336      1.00000
     16      -3.6723      1.00000
     17      -3.4881      1.00000
     18      -3.3662      1.00000
     19      -3.0915      1.00000
     20      -2.7856      1.00000
     21      -2.6998      1.00000
     22      -2.2255      1.00000
     23      -2.1303      1.00000
     24      -1.8927      1.00000
     25      -1.6515      1.00000
     26      -1.2137      1.00000
     27      -0.5848      1.00000
     28       9.0662      0.00000
     29       9.4508      0.00000
     30       9.5485      0.00000
     31       9.8276      0.00000
     32      10.3223      0.00000
     33      10.9929      0.00000
     34      11.1976      0.00000
     35      11.5997      0.00000
     36      12.7932      0.00000

 k-point     9 :       0.3750    0.3750    0.4167
  band No.  band energies     occupation 
      1     -49.4631      1.00000
      2     -49.4252      1.00000
      3     -49.4105      1.00000
      4     -42.7829      1.00000
      5     -42.7382      1.00000
      6     -42.7189      1.00000
      7     -22.5816      1.00000
      8     -22.5658      1.00000
      9     -22.5106      1.00000
     10     -22.4103      1.00000
     11      -5.2694      1.00000
     12      -4.7238      1.00000
     13      -4.7195      1.00000
     14      -4.6461      1.00000
     15      -4.4305      1.00000
     16      -3.6120      1.00000
     17      -3.5668      1.00000
     18      -3.2407      1.00000
     19      -2.8171      1.00000
     20      -2.7415      1.00000
     21      -2.5282      1.00000
     22      -2.1614      1.00000
     23      -2.0696      1.00000
     24      -1.8336      1.00000
     25      -1.6757      1.00000
     26      -1.1486      1.00000
     27      -0.6870      1.00000
     28       9.4325      0.00000
     29       9.5251      0.00000
     30       9.6549      0.00000
     31      10.0196      0.00000
     32      10.1024      0.00000
     33      10.8512      0.00000
     34      11.5214      0.00000
     35      11.8608      0.00000
     36      11.8972      0.00000


--------------------------------------------------------------------------------------------------------


 soft charge-density along one line, spin component           1
         0         1         2         3         4         5         6         7         8         9
 total charge-density along one line
 
 soft charge-density along one line, spin component           2
         0         1         2         3         4         5         6         7         8         9
 total charge-density along one line
 
 pseudopotential strength for first ion, spin component:           1
-45.233  -0.000  -0.029   7.823   0.000   0.011  -0.000  -0.000
 -0.000 -45.200  -0.000   0.000   7.812   0.000  -0.000  -0.000
 -0.029  -0.000 -45.233   0.011   0.000   7.823   0.000  -0.000
  7.823   0.000   0.011   5.632  -0.000   0.008   0.000   0.000
  0.000   7.812   0.000  -0.000   5.619  -0.000   0.000  -0.000
  0.011   0.000   7.823   0.008  -0.000   5.632   0.000   0.000
 -0.000  -0.000   0.000   0.000   0.000   0.000   0.302  -0.000
 -0.000  -0.000  -0.000   0.000  -0.000   0.000  -0.000   0.358
 -0.000  -0.000   0.000  -0.000   0.000  -0.000  -0.099  -0.000
 -0.000  -0.000  -0.000   0.000  -0.000   0.000  -0.000  -0.113
  0.000  -0.000  -0.000   0.000   0.000  -0.000  -0.000   0.000
 -0.000  -0.000   0.000   0.000   0.000   0.000  -0.113  -0.000
 -0.000  -0.000  -0.000   0.000  -0.000   0.000  -0.000  -0.057
 -0.000  -0.000   0.000  -0.000   0.000  -0.000  -0.104  -0.000
 -0.000  -0.000  -0.000   0.000  -0.000   0.000  -0.000  -0.116
  0.000  -0.000  -0.000   0.000   0.000  -0.000  -0.000   0.000
  0.000   0.000  -0.000  -0.000   0.000   0.000   0.009   0.000
  0.000   0.000  -0.000  -0.000   0.000   0.000   0.016   0.000
 pseudopotential strength for first ion, spin component:           2
-51.134  -0.000  -0.007   9.862   0.000   0.011   0.000  -0.000
 -0.000 -51.131  -0.000   0.000   9.851   0.000  -0.000   0.000
 -0.007  -0.000 -51.134   0.011   0.000   9.862  -0.000  -0.000
  9.862   0.000   0.011   4.691  -0.000   0.000  -0.000   0.000
  0.000   9.851   0.000  -0.000   4.691  -0.000   0.000  -0.000
  0.011   0.000   9.862   0.000  -0.000   4.691  -0.000   0.000
  0.000  -0.000  -0.000  -0.000   0.000  -0.000 -10.869  -0.000
 -0.000   0.000  -0.000   0.000  -0.000   0.000  -0.000 -10.817
  0.000  -0.000  -0.000  -0.000   0.000   0.000  -0.133  -0.000
 -0.000  -0.000  -0.000   0.000  -0.000   0.000  -0.000  -0.136
 -0.000  -0.000  -0.000  -0.000   0.000  -0.000   0.000   0.000
  0.000  -0.000  -0.000  -0.000   0.000  -0.000 -11.440  -0.000
 -0.000   0.000  -0.000   0.000  -0.000   0.000  -0.000 -11.387
  0.000  -0.000  -0.000  -0.000   0.000   0.000  -0.137  -0.000
 -0.000  -0.000  -0.000   0.000  -0.000   0.000  -0.000  -0.138
 -0.000  -0.000  -0.000  -0.000   0.000  -0.000   0.000   0.000
  0.000   0.000  -0.000  -0.000   0.000  -0.000   0.007   0.000
  0.000   0.000  -0.000  -0.000   0.000  -0.000   0.015   0.000
 total augmentation occupancy for first ion, spin component:           1
  2.001   0.000   0.000  -0.012   0.000   0.001   0.000   0.000   0.000   0.000   0.000   0.000   0.000   0.000   0.000   0.000
  0.000   2.001   0.000   0.000  -0.012   0.000   0.000   0.000   0.000   0.000   0.000   0.000   0.000   0.000   0.000   0.000
  0.000   0.000   2.001   0.001   0.000  -0.012   0.000   0.000   0.000   0.000   0.000   0.000   0.000   0.000   0.000   0.000
 -0.012   0.000   0.001   0.077   0.000  -0.007   0.000   0.000   0.000   0.000   0.000   0.000   0.000   0.000   0.000   0.000
  0.000  -0.012   0.000   0.000   0.088   0.000   0.000   0.000   0.000   0.000   0.000   0.000   0.000   0.000   0.000   0.000
  0.001   0.000  -0.012  -0.007   0.000   0.077   0.000   0.000   0.000   0.000   0.000   0.000   0.000   0.000   0.000   0.000
  0.000   0.000   0.000   0.000   0.000   0.000   7.908   0.000   3.075   0.000   0.000  -5.873   0.000  -2.884   0.000   0.000
  0.000   0.000   0.000   0.000   0.000   0.000   0.000   6.765   0.000   2.668   0.000   0.000  -4.787   0.000  -2.504   0.000
  0.000   0.000   0.000   0.000   0.000   0.000   3.075   0.000   6.148   0.000   0.000  -2.885   0.000  -4.228   0.000   0.000
  0.000   0.000   0.000   0.000   0.000   0.000   0.000   2.668   0.000   6.765   0.000   0.000  -2.504   0.000  -4.787   0.000
  0.000   0.000   0.000   0.000   0.000   0.000   0.000   0.000   0.000   0.000   3.934   0.000   0.000   0.000   0.000  -2.119
  0.000   0.000   0.000   0.000   0.000   0.000  -5.873   0.000  -2.885   0.000   0.000   5.008   0.000   2.723   0.000   0.000
  0.000   0.000   0.000   0.000   0.000   0.000   0.000  -4.787   0.000  -2.504   0.000   0.000   3.971   0.000   2.366   0.000
  0.000   0.000   0.000   0.000   0.000   0.000  -2.884   0.000  -4.228   0.000   0.000   2.723   0.000   3.462   0.000   0.000
  0.000   0.000   0.000   0.000   0.000   0.000   0.000  -2.504   0.000  -4.787   0.000   0.000   2.366   0.000   3.971   0.000
  0.000   0.000   0.000   0.000   0.000   0.000  -0.000   0.000   0.000   0.000  -2.119   0.000   0.000   0.000   0.000   1.441
  0.000   0.000   0.000   0.000   0.000   0.000   0.355   0.000  -0.330   0.000   0.000  -0.343   0.000   0.315   0.000   0.000
  0.000   0.000   0.000   0.000   0.000   0.000  -0.076   0.000   0.076   0.000   0.000   0.080   0.000  -0.076   0.000   0.000
 total augmentation occupancy for first ion, spin component:           2
  0.004   0.000  -0.000   0.016   0.000  -0.000   0.000   0.000   0.000   0.000   0.000   0.000   0.000   0.000   0.000   0.000
  0.000   0.004   0.000   0.000   0.017   0.000   0.000   0.000   0.000   0.000   0.000   0.000   0.000   0.000   0.000   0.000
 -0.000   0.000   0.004  -0.000   0.000   0.016   0.000   0.000   0.000   0.000   0.000   0.000   0.000   0.000   0.000   0.000
  0.016   0.000  -0.000  -0.012   0.000   0.000   0.000   0.000   0.000   0.000   0.000   0.000   0.000   0.000   0.000   0.000
  0.000   0.017   0.000   0.000  -0.013   0.000   0.000   0.000   0.000   0.000   0.000   0.000   0.000   0.000   0.000   0.000
 -0.000   0.000   0.016   0.000   0.000  -0.012   0.000   0.000   0.000   0.000   0.000   0.000   0.000   0.000   0.000   0.000
  0.000   0.000   0.000   0.000   0.000   0.000  -5.751   0.000  -1.839   0.000   0.000   3.458   0.000   1.504   0.000   0.000
  0.000   0.000   0.000   0.000   0.000   0.000   0.000  -5.084   0.000  -1.591   0.000   0.000   2.900   0.000   1.301   0.000
  0.000   0.000   0.000   0.000   0.000   0.000  -1.839   0.000  -4.660   0.000   0.000   1.504   0.000   2.563   0.000   0.000
  0.000   0.000   0.000   0.000   0.000   0.000   0.000  -1.591   0.000  -5.084   0.000   0.000   1.301   0.000   2.900   0.000
  0.000   0.000   0.000   0.000   0.000   0.000   0.000   0.000   0.000   0.000  -3.427   0.000   0.000  -0.000   0.000   1.543
  0.000   0.000   0.000   0.000   0.000   0.000   3.458   0.000   1.504   0.000   0.000  -2.303   0.000  -1.179   0.000   0.000
  0.000   0.000   0.000   0.000   0.000   0.000   0.000   2.900   0.000   1.301   0.000   0.000  -1.852   0.000  -1.021   0.000
  0.000   0.000   0.000   0.000   0.000   0.000   1.504   0.000   2.563   0.000   0.000  -1.179   0.000  -1.598   0.000   0.000
  0.000   0.000   0.000   0.000   0.000   0.000   0.000   1.301   0.000   2.900   0.000   0.000  -1.021   0.000  -1.852   0.000
  0.000   0.000   0.000   0.000   0.000   0.000   0.000   0.000  -0.000   0.000   1.543  -0.000   0.000  -0.000   0.000  -0.786
  0.000   0.000   0.000   0.000   0.000   0.000  -0.092   0.000   0.089   0.000  -0.000   0.051   0.000  -0.048   0.000  -0.000
  0.000   0.000   0.000   0.000   0.000   0.000   0.006   0.000  -0.013   0.000  -0.000  -0.003   0.000   0.006   0.000  -0.000


------------------------ aborting loop because EDIFF is reached ----------------------------------------


 


 total charge     
 
# of ion       s       p       d       tot
------------------------------------------
    1        0.164   6.143   4.967  11.274
    2        0.168   6.139   4.971  11.278
    3        1.729   4.413   0.000   6.142
    4        1.729   4.413   0.000   6.142
    5        1.728   4.411   0.000   6.139
    6        1.728   4.411   0.000   6.139
--------------------------------------------------
tot          7.246  29.930   9.939  47.115
 


 magnetization (x)
 
# of ion       s       p       d       tot
------------------------------------------
    1       -0.025  -0.021  -4.757  -4.803
    2        0.026   0.020   4.756   4.802
    3        0.001   0.008   0.000   0.010
    4        0.001   0.008   0.000   0.010
    5       -0.002  -0.006   0.000  -0.008
    6       -0.002  -0.006   0.000  -0.008
--------------------------------------------------
tot         -0.000   0.003  -0.001   0.002
 
    CHARGE:  cpu time    0.0353: real time    0.0353
    FORLOC:  cpu time    0.0008: real time    0.0008
    FORNL :  cpu time    0.1749: real time    0.1749
    STRESS:  cpu time    2.2252: real time    2.2253
    FORCOR:  cpu time    0.0294: real time    0.0294
    FORHAR:  cpu time    0.0021: real time    0.0021
    MIXING:  cpu time    0.0016: real time    0.0016
    OFIELD:  cpu time    0.0000: real time    0.0000

  FORCE on cell =-STRESS in cart. coord.  units (eV):
  Direction    XX          YY          ZZ          XY          YZ          ZX
  --------------------------------------------------------------------------------------
  Alpha Z   194.59399   194.59399   194.59399
  Ewald   -1579.42609 -1579.42609 -1008.96626     0.00000    -0.00000     0.00000
  Hartree   599.69537   599.69537   985.40574    -0.00000    -0.00000    -0.00000
  E(xc)    -150.54662  -150.51519  -150.67357    -0.01270    -0.02474    -0.02670
  Local     157.11251   157.11251  -792.12277     0.00000    -0.00000     0.00000
  n-local  -311.73154  -312.05716  -310.52800     0.04041     0.12171     0.13171
  augment   158.27290   158.27290   157.72317    -0.00000     0.00000    -0.00000
  Kinetic   931.76373   932.60650   924.56103    -0.35677    -0.75294    -0.80413
  Fock        0.00000     0.00000     0.00000     0.00000     0.00000     0.00000
  -------------------------------------------------------------------------------------
  Total       0.00853     0.00853    -0.00668     0.00000     0.00000     0.00000
  in kB       0.17236     0.17236    -0.13488     0.00000     0.00000     0.00000
  external pressure =        0.07 kB  Pullay stress =        0.00 kB


 VOLUME and BASIS-vectors are now :
 -----------------------------------------------------------------------------
  energy-cutoff  :      600.00
  volume of cell :       79.33
      direct lattice vectors                 reciprocal lattice vectors
     4.891796665  0.000000000  0.000000000     0.204423869  0.000000000  0.000000000
     0.000000000  4.891796665  0.000000000     0.000000000  0.204423869  0.000000000
     0.000000000  0.000000000  3.315204934     0.000000000  0.000000000  0.301640478

  length of vectors
     4.891796665  4.891796665  3.315204934     0.204423869  0.204423869  0.301640478


 FORCES acting on ions
    electron-ion (+dipol)            ewald-force                    non-local-force                 convergence-correction
 -----------------------------------------------------------------------------------------------
   -.175E-11 0.658E-11 -.123E-13   0.000E+00 -.568E-13 -.757E-14   0.000E+00 0.000E+00 0.000E+00   -.561E-13 -.288E-14 0.118E-12
   -.335E-13 -.913E-14 0.382E-13   0.000E+00 0.000E+00 -.937E-14   0.000E+00 0.000E+00 0.000E+00   0.290E-13 0.275E-14 -.158E-12
   -.343E+02 0.343E+02 0.617E-12   0.357E+02 -.357E+02 0.376E-14   -.136E+01 0.136E+01 0.108E-18   -.153E-05 0.153E-05 0.434E-13
   0.343E+02 -.343E+02 -.434E-11   -.357E+02 0.357E+02 0.355E-14   0.136E+01 -.136E+01 -.108E-18   0.153E-05 -.153E-05 0.572E-13
   0.343E+02 0.343E+02 0.605E-07   -.357E+02 -.357E+02 0.688E-14   0.136E+01 0.136E+01 -.542E-19   0.153E-05 0.153E-05 -.275E-10
   -.343E+02 -.343E+02 -.605E-07   0.357E+02 0.357E+02 0.656E-14   -.136E+01 -.136E+01 0.542E-19   -.153E-05 -.153E-05 0.273E-10
 -----------------------------------------------------------------------------------------------
   -.121E-11 0.463E-11 0.505E-11   0.711E-14 0.000E+00 0.381E-14   0.000E+00 0.000E+00 0.000E+00   -.208E-13 0.116E-13 -.803E-13
 
 
 POSITION                                       TOTAL-FORCE (eV/Angst)
 -----------------------------------------------------------------------------------
      2.44590      2.44590      1.65760        -0.000000     -0.000000      0.000000
      0.00000      0.00000      0.00000        -0.000000     -0.000000      0.000000
      0.95434      3.93746      1.65760        -0.001940      0.001940      0.000000
      3.93746      0.95434      1.65760         0.001940     -0.001940      0.000000
      1.49156      1.49156      0.00000         0.001940      0.001940     -0.000000
      3.40024      3.40024      0.00000        -0.001940     -0.001940      0.000000
 -----------------------------------------------------------------------------------
    total drift:                               -0.000000      0.000000      0.000000


--------------------------------------------------------------------------------------------------------



  FREE ENERGIE OF THE ION-ELECTRON SYSTEM (eV)
  ---------------------------------------------------
  free  energy   TOTEN  =       -65.65380960 eV

  energy  without entropy=      -65.65380960  energy(sigma->0) =      -65.65380960
 


--------------------------------------------------------------------------------------------------------


    POTLOK:  cpu time    0.8163: real time    0.8163


--------------------------------------------------------------------------------------------------------


 writing wavefunctions
     LOOP+:  cpu time   55.0064: real time   55.3874
    4ORBIT:  cpu time    0.0000: real time    0.0000
 


 total charge     
 
# of ion       s       p       d       tot
------------------------------------------
    1        0.164   6.143   4.967  11.274
    2        0.168   6.139   4.971  11.278
    3        1.729   4.413   0.000   6.142
    4        1.729   4.413   0.000   6.142
    5        1.728   4.411   0.000   6.139
    6        1.728   4.411   0.000   6.139
--------------------------------------------------
tot          7.246  29.930   9.939  47.115
 


 magnetization (x)
 
# of ion       s       p       d       tot
------------------------------------------
    1       -0.025  -0.021  -4.757  -4.803
    2        0.026   0.020   4.756   4.802
    3        0.001   0.008   0.000   0.010
    4        0.001   0.008   0.000   0.010
    5       -0.002  -0.006   0.000  -0.008
    6       -0.002  -0.006   0.000  -0.008
--------------------------------------------------
tot         -0.000   0.003  -0.001   0.002
 
 BZINTS: Fermi energy: -0.388469; 54.000000 electrons
         Band energy:-835.802645;  BLOECHL correction:  0.000000

 total amount of memory used by VASP MPI-rank0    45404. kBytes
=======================================================================

   base      :      30000. kBytes
   nonl-proj :       7160. kBytes
   fftplans  :       1875. kBytes
   grid      :       3820. kBytes
   one-center:        186. kBytes
   wavefun   :       2363. kBytes
 
  
  
 General timing and accounting informations for this job:
 ========================================================
  
                  Total CPU time used (sec):       56.389
                            User time (sec):       39.501
                          System time (sec):       16.889
                         Elapsed time (sec):       56.922
  
                   Maximum memory used (kb):       63472.
                   Average memory used (kb):           0.
  
                          Minor page faults:        11780
                          Major page faults:            5
                 Voluntary context switches:          158
