       N       E                     dE             d eps       ncg     rms          rms(c)
DAV:   1     0.563664716911E+03    0.56366E+03   -0.27870E+04  1308   0.145E+03
DAV:   2    -0.263649058943E+01   -0.56630E+03   -0.55073E+03  1428   0.445E+02
DAV:   3    -0.406505494615E+02   -0.38014E+02   -0.37862E+02  1536   0.131E+02
DAV:   4    -0.410996785811E+02   -0.44913E+00   -0.44904E+00  1488   0.157E+01
DAV:   5    -0.411062360273E+02   -0.65574E-02   -0.65574E-02  1452   0.183E+00    0.272E+01
DAV:   6    -0.393225406862E+02    0.17837E+01   -0.13514E+01  1632   0.304E+01    0.174E+01
DAV:   7    -0.398676114995E+02   -0.54507E+00   -0.15694E+00  1536   0.103E+01    0.126E+01
DAV:   8    -0.398580804109E+02    0.95311E-02   -0.53831E-01  1512   0.609E+00    0.478E+00
DAV:   9    -0.401433790922E+02   -0.28530E+00   -0.70233E-02  1368   0.255E+00    0.146E+00
DAV:  10    -0.401466825091E+02   -0.33034E-02   -0.16755E-02  1608   0.103E+00    0.218E-01
DAV:  11    -0.401466821889E+02    0.32017E-06   -0.11124E-03  1344   0.232E-01    0.104E-01
DAV:  12    -0.401467338808E+02   -0.51692E-04   -0.31258E-05  1560   0.738E-02    0.504E-02
DAV:  13    -0.401467410798E+02   -0.71989E-05   -0.17821E-05  1416   0.252E-02    0.186E-02
DAV:  14    -0.401467412663E+02   -0.18650E-06   -0.14177E-06  1500   0.113E-02    0.372E-03
DAV:  15    -0.401467414117E+02   -0.14546E-06   -0.44409E-08   924   0.240E-03    0.145E-03
DAV:  16    -0.401467414179E+02   -0.61191E-08   -0.24967E-08   648   0.128E-03
   1 F= -.40146741E+02 E0= -.40146741E+02  d E =-.401467E+02  mag=    -0.0000
       N       E                     dE             d eps       ncg     rms          rms(c)
DAV:   1    -0.408958189243E+02   -0.74908E+00   -0.15361E+01  1296   0.350E+01    0.735E+00
DAV:   2    -0.401750122741E+02    0.72081E+00   -0.21457E+00  1296   0.108E+01    0.430E+00
DAV:   3    -0.401583582340E+02    0.16654E-01   -0.17807E-01  1368   0.399E+00    0.180E+00
DAV:   4    -0.401481729319E+02    0.10185E-01   -0.98919E-03  1608   0.777E-01    0.109E+00
DAV:   5    -0.401438484148E+02    0.43245E-02   -0.27716E-03  1584   0.408E-01    0.314E-01
DAV:   6    -0.401441415353E+02   -0.29312E-03   -0.22657E-04  1500   0.119E-01    0.380E-02
DAV:   7    -0.401441531537E+02   -0.11618E-04   -0.19476E-05  1548   0.370E-02    0.196E-02
DAV:   8    -0.401441554611E+02   -0.23074E-05   -0.24327E-06  1548   0.146E-02    0.114E-02
DAV:   9    -0.401441557381E+02   -0.27697E-06   -0.25140E-07  1536   0.401E-03    0.254E-03
DAV:  10    -0.401441557090E+02    0.29094E-07   -0.58976E-08   864   0.219E-03
   2 F= -.40144156E+02 E0= -.40144156E+02  d E =0.258571E-02  mag=     0.0000
       N       E                     dE             d eps       ncg     rms          rms(c)
DAV:   1    -0.403640739130E+02   -0.21992E+00   -0.43098E+00  1296   0.189E+01    0.389E+00
DAV:   2    -0.401685290028E+02    0.19554E+00   -0.55843E-01  1296   0.553E+00    0.244E+00
DAV:   3    -0.401627780102E+02    0.57510E-02   -0.44721E-02  1404   0.212E+00    0.994E-01
DAV:   4    -0.401595739067E+02    0.32041E-02   -0.37916E-03  1560   0.525E-01    0.635E-01
DAV:   5    -0.401583642890E+02    0.12096E-02   -0.90775E-04  1584   0.237E-01    0.194E-01
DAV:   6    -0.401584128203E+02   -0.48531E-04   -0.82491E-05  1572   0.875E-02    0.212E-02
DAV:   7    -0.401584161681E+02   -0.33478E-05   -0.71007E-06  1524   0.202E-02    0.104E-02
DAV:   8    -0.401584169121E+02   -0.74397E-06   -0.11333E-06  1512   0.993E-03    0.517E-03
DAV:   9    -0.401584169213E+02   -0.92068E-08   -0.10951E-07   948   0.335E-03
   3 F= -.40158417E+02 E0= -.40158417E+02  d E =-.116755E-01  mag=    -0.0000
       N       E                     dE             d eps       ncg     rms          rms(c)
DAV:   1    -0.401584332619E+02   -0.16350E-04   -0.32735E-04  1296   0.164E-01    0.343E-02
DAV:   2    -0.401584179012E+02    0.15361E-04   -0.44453E-05  1296   0.492E-02    0.210E-02
DAV:   3    -0.401584174807E+02    0.42050E-06   -0.35967E-06  1380   0.187E-02    0.865E-03
DAV:   4    -0.401584172371E+02    0.24366E-06   -0.25882E-07  1356   0.427E-03    0.544E-03
DAV:   5    -0.401584171418E+02    0.95261E-07   -0.74915E-08  1032   0.214E-03
   4 F= -.40158417E+02 E0= -.40158417E+02  d E =-.116757E-01  mag=     0.0000
       N       E                     dE             d eps       ncg     rms          rms(c)
DAV:   1    -0.401604052693E+02   -0.19880E-02   -0.10946E-01  1296   0.233E+00    0.329E-01
DAV:   2    -0.401593735660E+02    0.10317E-02   -0.23222E-03  1620   0.393E-01    0.201E-01
DAV:   3    -0.401589098002E+02    0.46377E-03   -0.35196E-04  1776   0.142E-01    0.112E-01
DAV:   4    -0.401588387990E+02    0.71001E-04   -0.13587E-04  1560   0.795E-02    0.323E-02
DAV:   5    -0.401588393899E+02   -0.59094E-06   -0.11300E-05  1332   0.230E-02    0.179E-02
DAV:   6    -0.401588391759E+02    0.21400E-06   -0.85320E-07  1932   0.792E-03    0.766E-03
DAV:   7    -0.401588392456E+02   -0.69697E-07   -0.16118E-07  1380   0.280E-03
   5 F= -.40158839E+02 E0= -.40158839E+02  d E =-.422104E-03  mag=     0.0000
       N       E                     dE             d eps       ncg     rms          rms(c)
DAV:   1    -0.401590482460E+02   -0.20907E-03   -0.12540E-02  1296   0.790E-01    0.111E-01
DAV:   2    -0.401589301385E+02    0.11811E-03   -0.26624E-04  1620   0.133E-01    0.679E-02
DAV:   3    -0.401588771508E+02    0.52988E-04   -0.40202E-05  1776   0.478E-02    0.380E-02
DAV:   4    -0.401588689577E+02    0.81930E-05   -0.15594E-05  1560   0.269E-02    0.110E-02
DAV:   5    -0.401588690254E+02   -0.67663E-07   -0.13092E-06  1344   0.780E-03    0.612E-03
DAV:   6    -0.401588689997E+02    0.25676E-07   -0.82249E-08   840   0.267E-03
   6 F= -.40158869E+02 E0= -.40158869E+02  d E =-.451858E-03  mag=    -0.0000
       N       E                     dE             d eps       ncg     rms          rms(c)
DAV:   1    -0.401589367799E+02   -0.67755E-04   -0.20664E-02  1296   0.926E-01    0.605E-02
DAV:   2    -0.401589382468E+02   -0.14668E-05   -0.45152E-04  1584   0.137E-01    0.363E-02
DAV:   3    -0.401589272969E+02    0.10950E-04   -0.90592E-06  1392   0.255E-02    0.204E-02
DAV:   4    -0.401589237679E+02    0.35290E-05   -0.31678E-06  1608   0.132E-02    0.699E-03
DAV:   5    -0.401589236537E+02    0.11423E-06   -0.46194E-07  1392   0.484E-03    0.344E-03
DAV:   6    -0.401589236571E+02   -0.34452E-08   -0.31022E-08   648   0.111E-03
   7 F= -.40158924E+02 E0= -.40158924E+02  d E =-.546574E-04  mag=    -0.0000
       N       E                     dE             d eps       ncg     rms          rms(c)
DAV:   1    -0.401589762609E+02   -0.52607E-04   -0.38221E-02  1296   0.126E+00    0.824E-02
DAV:   2    -0.401589788780E+02   -0.26171E-05   -0.83557E-04  1584   0.187E-01    0.494E-02
DAV:   3    -0.401589584912E+02    0.20387E-04   -0.16844E-05  1392   0.348E-02    0.278E-02
DAV:   4    -0.401589519513E+02    0.65399E-05   -0.58883E-06  1608   0.180E-02    0.944E-03
DAV:   5    -0.401589517479E+02    0.20344E-06   -0.84898E-07  1428   0.657E-03    0.460E-03
DAV:   6    -0.401589517543E+02   -0.64547E-08   -0.58493E-08   900   0.152E-03
   8 F= -.40158952E+02 E0= -.40158952E+02  d E =-.827546E-04  mag=    -0.0000
