 vasp.5.4.4.18Apr17-6-g9f103f2a35 (build Apr 27 2017 11:13:10) complex          
  
 executed on           IFC91_ompi date 2020.05.13  11:09:26
 running on   12 total cores
 distrk:  each k-point on   12 cores,    1 groups
 distr:  one band on NCORES_PER_BAND=   1 cores,   12 groups


--------------------------------------------------------------------------------------------------------


 INCAR:
 POTCAR:    PAW Mn_pv 02Aug2007                   
 POTCAR:    PAW F 31May2000                       

 ----------------------------------------------------------------------------- 
|                                                                             |
|           W    W    AA    RRRRR   N    N  II  N    N   GGGG   !!!           |
|           W    W   A  A   R    R  NN   N  II  NN   N  G    G  !!!           |
|           W    W  A    A  R    R  N N  N  II  N N  N  G       !!!           |
|           W WW W  AAAAAA  RRRRR   N  N N  II  N  N N  G  GGG   !            |
|           WW  WW  A    A  R   R   N   NN  II  N   NN  G    G                |
|           W    W  A    A  R    R  N    N  II  N    N   GGGG   !!!           |
|                                                                             |
|      For optimal performance we recommend to set                            |
|        NCORE= 4 - approx SQRT( number of cores)                             |
|      NCORE specifies how many cores store one orbital (NPAR=cpu/NCORE).     |
|      This setting can  greatly improve the performance of VASP for DFT.     |
|      The default,   NCORE=1            might be grossly inefficient         |
|      on modern multi-core architectures or massively parallel machines.     |
|      Do your own testing !!!!                                               |
|      Unfortunately you need to use the default for GW and RPA calculations. |
|      (for HF NCORE is supported but not extensively tested yet)             |
|                                                                             |
 ----------------------------------------------------------------------------- 

 POTCAR:    PAW Mn_pv 02Aug2007                   
   VRHFIN =Mn: 3p4s3d                                                           
   LEXCH  = CA                                                                  
   EATOM  =  2028.0466 eV,  149.0572 Ry                                         
                                                                                
   TITEL  = PAW Mn_pv 02Aug2007                                                 
   LULTRA =        F    use ultrasoft PP ?                                      
   IUNSCR =        1    unscreen: 0-lin 1-nonlin 2-no                           
   RPACOR =    2.080    partial core radius                                     
   POMASS =   54.938; ZVAL   =   13.000    mass and valenz                      
   RCORE  =    2.300    outmost cutoff radius                                   
   RWIGS  =    2.500; RWIGS  =    1.323    wigner-seitz radius (au A)           
   ENMAX  =  269.944; ENMIN  =  202.458 eV                                      
   ICORE  =        3    local potential                                         
   LCOR   =        T    correct aug charges                                     
   LPAW   =        T    paw PP                                                  
   EAUG   =  569.085                                                            
   DEXC   =    0.000                                                            
   RMAX   =    2.343    core radius for proj-oper                               
   RAUG   =    1.300    factor for augmentation sphere                          
   RDEP   =    2.338    radius for radial grids                                 
   RDEPT  =    1.798    core radius for aug-charge                              
                                                                                
   Atomic configuration                                                         
    8 entries                                                                   
     n  l   j            E        occ.                                          
     1  0  0.50     -6393.6057   2.0000                                         
     2  0  0.50      -735.9993   2.0000                                         
     2  1  1.50      -624.3417   6.0000                                         
     3  0  0.50       -80.9782   2.0000                                         
     3  1  1.50       -50.3144   6.0000                                         
     3  2  2.50        -3.6171   6.0000                                         
     4  0  0.50        -4.3304   1.0000                                         
     4  3  2.50        -1.3606   0.0000                                         
   Description                                                                  
     l       E           TYP  RCUT    TYP  RCUT                                 
     1    -50.3143634     23  2.000                                             
     1     -1.3605826     23  2.000                                             
     2     -3.6171470     23  2.300                                             
     2     -4.9777296     23  2.300                                             
     0     -4.3303688     23  2.300                                             
     0      7.3408788     23  2.300                                             
     3      9.5240782     23  2.300                                             
  local pseudopotential read in
  partial core-charges read in
  partial kinetic energy density read in
  atomic valenz-charges read in
  non local Contribution for L=           1  read in
    real space projection operators read in
  non local Contribution for L=           1  read in
    real space projection operators read in
  non local Contribution for L=           2  read in
    real space projection operators read in
  non local Contribution for L=           2  read in
    real space projection operators read in
  non local Contribution for L=           0  read in
    real space projection operators read in
  non local Contribution for L=           0  read in
    real space projection operators read in
    PAW grid and wavefunctions read in
 
   number of l-projection  operators is LMAX  =           6
   number of lm-projection operators is LMMAX =          18
 
 POTCAR:    PAW F 31May2000                       
   VRHFIN =F: s2p5                                                              
   LEXCH  = CA                                                                  
   EATOM  =   658.3685 eV,   48.3887 Ry                                         
                                                                                
   TITEL  = PAW F 31May2000                                                     
   LULTRA =        F    use ultrasoft PP ?                                      
   IUNSCR =        1    unscreen: 0-lin 1-nonlin 2-no                           
   RPACOR =    1.200    partial core radius                                     
   POMASS =   18.998; ZVAL   =    7.000    mass and valenz                      
   RCORE  =    1.520    outmost cutoff radius                                   
   RWIGS  =    1.500; RWIGS  =    0.794    wigner-seitz radius (au A)           
   ENMAX  =  400.000; ENMIN  =  300.000 eV                                      
   ICORE  =        2    local potential                                         
   LCOR   =        T    correct aug charges                                     
   LPAW   =        T    paw PP                                                  
   EAUG   =  613.614                                                            
   DEXC   =    0.000                                                            
   RMAX   =    1.555    core radius for proj-oper                               
   RAUG   =    1.300    factor for augmentation sphere                          
   RDEP   =    1.539    radius for radial grids                                 
   RDEPT  =    1.299    core radius for aug-charge                              
                                                                                
   Atomic configuration                                                         
    4 entries                                                                   
     n  l   j            E        occ.                                          
     1  0  0.50      -658.3386   2.0000                                         
     2  0  0.50       -29.6221   2.0000                                         
     2  1  0.50       -11.2952   5.0000                                         
     3  2  1.50       -12.2452   0.0000                                         
   Description                                                                  
     l       E           TYP  RCUT    TYP  RCUT                                 
     0    -29.6221019     23  1.200                                             
     0     -9.5240782     23  1.200                                             
     1    -11.2951545     23  1.520                                             
     1      1.3605826     23  1.520                                             
     2    -12.2452434      7  1.500                                             
  local pseudopotential read in
  partial core-charges read in
  partial kinetic energy density read in
  kinetic energy density of atom read in
  atomic valenz-charges read in
  non local Contribution for L=           0  read in
    real space projection operators read in
  non local Contribution for L=           0  read in
    real space projection operators read in
  non local Contribution for L=           1  read in
    real space projection operators read in
  non local Contribution for L=           1  read in
    real space projection operators read in
    PAW grid and wavefunctions read in
 
   number of l-projection  operators is LMAX  =           4
   number of lm-projection operators is LMMAX =           8
 
  PAW Mn_pv 02Aug2007                   :
 energy of atom  1       EATOM=-2028.0466
 kinetic energy error for atom=    0.0284 (will be added to EATOM!!)
  PAW F 31May2000                       :
 energy of atom  2       EATOM= -658.3685
 kinetic energy error for atom=    0.1928 (will be added to EATOM!!)
 
 
 POSCAR: Mn  F                                   
  positions in cartesian coordinates
  No initial velocities read in
 exchange correlation table for  LEXCH =        2
   RHO(1)=    0.500       N(1)  =     2000
   RHO(2)=  100.500       N(2)  =     4000
 


--------------------------------------------------------------------------------------------------------


 ion  position               nearest neighbor table
   1  0.500  0.500  0.500-   3 2.02   4 2.02   5 2.07   6 2.07   5 2.07   6 2.07
   2  0.000  0.000  0.000-   5 2.02   6 2.02   3 2.07   4 2.07   3 2.07   4 2.07
   3  0.196  0.804  0.500-   1 2.02   2 2.07   2 2.07
   4  0.804  0.196  0.500-   1 2.02   2 2.07   2 2.07
   5  0.304  0.304  0.000-   2 2.02   1 2.07   1 2.07
   6  0.696  0.696  0.000-   2 2.02   1 2.07   1 2.07
 
  LATTYP: Found a simple tetragonal cell.
 ALAT       =     4.6931708460
 C/A-ratio  =     0.6829895275
  
  Lattice vectors:
  
 A1 = (   4.6931708460,   0.0000000000,   0.0000000000)
 A2 = (   0.0000000000,   4.6931708460,   0.0000000000)
 A3 = (   0.0000000000,   0.0000000000,   3.2053865387)


Analysis of symmetry for initial positions (statically):
=====================================================================
 Subroutine PRICEL returns:
 Original cell was already a primitive cell.
 

 Routine SETGRP: Setting up the symmetry group for a 
 simple tetragonal supercell.


 Subroutine GETGRP returns: Found 16 space group operations
 (whereof  8 operations were pure point group operations)
 out of a pool of 16 trial point group operations.


The static configuration has the point symmetry D_2h.
 The point group associated with its full space group is D_4h.


Analysis of symmetry for dynamics (positions and initial velocities):
=====================================================================
 Subroutine PRICEL returns:
 Original cell was already a primitive cell.
 

 Routine SETGRP: Setting up the symmetry group for a 
 simple tetragonal supercell.


 Subroutine GETGRP returns: Found 16 space group operations
 (whereof  8 operations were pure point group operations)
 out of a pool of 16 trial point group operations.


The dynamic configuration has the point symmetry D_2h.
 The point group associated with its full space group is D_4h.


Analysis of structural, dynamic, and magnetic symmetry:
=====================================================================
 Subroutine PRICEL returns:
 Original cell was already a primitive cell.
 

 Routine SETGRP: Setting up the symmetry group for a 
 simple tetragonal supercell.


 Subroutine GETGRP returns: Found 16 space group operations
 (whereof  8 operations were pure point group operations)
 out of a pool of 16 trial point group operations.


The magnetic configuration has the point symmetry D_2h.
 The point group associated with its full space group is D_4h.


 Subroutine INISYM returns: Found 16 space group operations
 (whereof  8 operations are pure point group operations),
 and found     1 'primitive' translations

 
 
 KPOINTS: KPOINTS created by Atomic Simulation Env

Automatic generation of k-mesh.
Space group operators:
 irot       det(A)        alpha          n_x          n_y          n_z        tau_x        tau_y        tau_z
    1     1.000000     0.000000     1.000000     0.000000     0.000000     0.000000     0.000000     0.000000
    2    -1.000000     0.000000     1.000000     0.000000     0.000000     0.000000     0.000000     0.000000
    3     1.000000   180.000000     0.000000     0.000000     1.000000     0.000000     0.000000     0.000000
    4    -1.000000   180.000000     0.000000     0.000000     1.000000     0.000000     0.000000     0.000000
    5     1.000000   180.000000     0.707107     0.707107     0.000000     0.000000     0.000000     0.000000
    6    -1.000000   180.000000     0.707107     0.707107     0.000000     0.000000     0.000000     0.000000
    7     1.000000   180.000000     0.707107    -0.707107     0.000000     0.000000     0.000000     0.000000
    8    -1.000000   180.000000     0.707107    -0.707107     0.000000     0.000000     0.000000     0.000000
    9     1.000000    90.000000     0.000000     0.000000    -1.000000     0.500000     0.500000     0.500000
   10    -1.000000    90.000000     0.000000     0.000000    -1.000000     0.500000     0.500000     0.500000
   11     1.000000    90.000000     0.000000     0.000000     1.000000     0.500000     0.500000     0.500000
   12    -1.000000    90.000000     0.000000     0.000000     1.000000     0.500000     0.500000     0.500000
   13     1.000000   179.999999     0.000000     1.000000     0.000000     0.500000     0.500000     0.500000
   14    -1.000000   179.999999     0.000000     1.000000     0.000000     0.500000     0.500000     0.500000
   15     1.000000   180.000000     1.000000     0.000000     0.000000     0.500000     0.500000     0.500000
   16    -1.000000   180.000000     1.000000     0.000000     0.000000     0.500000     0.500000     0.500000
 
 Subroutine IBZKPT returns following result:
 ===========================================
 
 Found      9 irreducible k-points:
 
 Following reciprocal coordinates:
            Coordinates               Weight
  0.125000  0.125000  0.083333      8.000000
  0.375000  0.125000  0.083333     16.000000
  0.375000  0.375000  0.083333      8.000000
  0.125000  0.125000  0.250000      8.000000
  0.375000  0.125000  0.250000     16.000000
  0.375000  0.375000  0.250000      8.000000
  0.125000  0.125000  0.416667      8.000000
  0.375000  0.125000  0.416667     16.000000
  0.375000  0.375000  0.416667      8.000000
 
 Following cartesian coordinates:
            Coordinates               Weight
  0.026634  0.026634  0.025998      8.000000
  0.079903  0.026634  0.025998     16.000000
  0.079903  0.079903  0.025998      8.000000
  0.026634  0.026634  0.077994      8.000000
  0.079903  0.026634  0.077994     16.000000
  0.079903  0.079903  0.077994      8.000000
  0.026634  0.026634  0.129990      8.000000
  0.079903  0.026634  0.129990     16.000000
  0.079903  0.079903  0.129990      8.000000
 
 TETIRR: Found    106 inequivalent tetrahedra from      576


--------------------------------------------------------------------------------------------------------




 Dimension of arrays:
   k-points           NKPTS =      9   k-points in BZ     NKDIM =      9   number of bands    NBANDS=     36
   number of dos      NEDOS =    301   number of ions     NIONS =      6
   non local maximal  LDIM  =      6   non local SUM 2l+1 LMDIM =     18
   total plane-waves  NPLWV =   9216
   max r-space proj   IRMAX =      1   max aug-charges    IRDMAX=  31882
   dimension x,y,z NGX =    24 NGY =   24 NGZ =   16
   dimension x,y,z NGXF=    48 NGYF=   48 NGZF=   32
   support grid    NGXF=    96 NGYF=   96 NGZF=   64
   ions per type =               2   4
   NGX,Y,Z   is equivalent  to a cutoff of   8.50,  8.50,  8.30 a.u.
   NGXF,Y,Z  is equivalent  to a cutoff of  17.00, 17.00, 16.60 a.u.

 SYSTEM =  unknown system                          
 POSCAR =  Mn  F                                   

 Startparameter for this run:
   NWRITE =      2    write-flag & timer
   PREC   = normal    normal or accurate (medium, high low for compatibility)
   ISTART =      0    job   : 0-new  1-cont  2-samecut
   ICHARG =      2    charge: 1-file 2-atom 10-const
   ISPIN  =      2    spin polarized calculation?
   LNONCOLLINEAR =      F non collinear calculations
   LSORBIT =      F    spin-orbit coupling
   INIWAV =      1    electr: 0-lowe 1-rand  2-diag
   LASPH  =      T    aspherical Exc in radial PAW
   METAGGA=      F    non-selfconsistent MetaGGA calc.

 Electronic Relaxation 1
   ENCUT  =  400.0 eV  29.40 Ry    5.42 a.u.   7.65  7.65  5.23*2*pi/ulx,y,z
   ENINI  =  400.0     initial cutoff
   ENAUG  =  613.6 eV  augmentation charge cutoff
   NELM   =     60;   NELMIN=  2; NELMDL= -5     # of ELM steps 
   EDIFF  = 0.1E-06   stopping-criterion for ELM
   LREAL  =      F    real-space projection
   NLSPLINE    = F    spline interpolate recip. space projectors
   LCOMPAT=      F    compatible to vasp.4.4
   GGA_COMPAT  = T    GGA compatible to vasp.4.4-vasp.4.6
   LMAXPAW     = -100 max onsite density
   LMAXMIX     =    4 max onsite mixed and CHGCAR
   VOSKOWN=      0    Vosko Wilk Nusair interpolation
   ROPT   =    0.00000   0.00000
 Ionic relaxation
   EDIFFG = -.5E-02   stopping-criterion for IOM
   NSW    =     50    number of steps for IOM
   NBLOCK =      1;   KBLOCK =     50    inner block; outer block 
   IBRION =      2    ionic relax: 0-MD 1-quasi-New 2-CG
   NFREE  =      1    steps in history (QN), initial steepest desc. (CG)
   ISIF   =      3    stress and relaxation
   IWAVPR =     11    prediction:  0-non 1-charg 2-wave 3-comb
   ISYM   =      2    0-nonsym 1-usesym 2-fastsym
   LCORR  =      T    Harris-Foulkes like correction to forces

   POTIM  = 0.5000    time-step for ionic-motion
   TEIN   =    0.0    initial temperature
   TEBEG  =    0.0;   TEEND  =   0.0 temperature during run
   SMASS  =  -3.00    Nose mass-parameter (am)
   estimated Nose-frequenzy (Omega)   =  0.10E-29 period in steps =****** mass=  -0.503E-27a.u.
   SCALEE = 1.0000    scale energy and forces
   NPACO  =    256;   APACO  = 16.0  distance and # of slots for P.C.
   PSTRESS=    0.0 pullay stress

  Mass of Ions in am
   POMASS =  54.94 19.00
  Ionic Valenz
   ZVAL   =  13.00  7.00
  Atomic Wigner-Seitz radii
   RWIGS  =  -1.00 -1.00
  virtual crystal weights 
   VCA    =   1.00  1.00
   NELECT =      54.0000    total number of electrons
   NUPDOWN=      -1.0000    fix difference up-down

 DOS related values:
   EMIN   =  10.00;   EMAX   =-10.00  energy-range for DOS
   EFERMI =   0.00
   ISMEAR =    -5;   SIGMA  =   0.20  broadening in eV -4-tet -1-fermi 0-gaus

 Electronic relaxation 2 (details)
   IALGO  =     38    algorithm
   LDIAG  =      T    sub-space diagonalisation (order eigenvalues)
   LSUBROT=      F    optimize rotation matrix (better conditioning)
   TURBO    =      0    0=normal 1=particle mesh
   IRESTART =      0    0=no restart 2=restart with 2 vectors
   NREBOOT  =      0    no. of reboots
   NMIN     =      0    reboot dimension
   EREF     =   0.00    reference energy to select bands
   IMIX   =      4    mixing-type and parameters
     AMIX     =   0.40;   BMIX     =  1.00
     AMIX_MAG =   1.60;   BMIX_MAG =  1.00
     AMIN     =   0.10
     WC   =   100.;   INIMIX=   1;  MIXPRE=   1;  MAXMIX= -45

 Intra band minimization:
   WEIMIN = 0.0010     energy-eigenvalue tresh-hold
   EBREAK =  0.69E-09  absolut break condition
   DEPER  =   0.30     relativ break condition  

   TIME   =   0.40     timestep for ELM

  volume/ion in A,a.u.               =      11.77        79.41
  Fermi-wavevector in a.u.,A,eV,Ry     =   1.497161  2.829223 30.497319  2.241490
  Thomas-Fermi vector in A             =   2.609084
 
 Write flags
   LWAVE        =      F    write WAVECAR
   LDOWNSAMPLE  =      F    k-point downsampling of WAVECAR
   LCHARG       =      F    write CHGCAR
   LVTOT        =      F    write LOCPOT, total local potential
   LVHAR        =      F    write LOCPOT, Hartree potential only
   LELF         =      F    write electronic localiz. function (ELF)
   LORBIT       =     11    0 simple, 1 ext, 2 COOP (PROOUT), +10 PAW based schemes


 Dipole corrections
   LMONO  =      F    monopole corrections only (constant potential shift)
   LDIPOL =      F    correct potential (dipole corrections)
   IDIPOL =      0    1-x, 2-y, 3-z, 4-all directions 
   EPSILON=  1.0000000 bulk dielectric constant

 LDA+U is selected, type is set to LDAUTYPE =  2
   angular momentum for each species LDAUL =     2   -1
   U (eV)           for each species LDAUU =   4.0  0.0
   J (eV)           for each species LDAUJ =   0.0  0.0
 Exchange correlation treatment:
   GGA     =    --    GGA type
   LEXCH   =     2    internal setting for exchange type
   VOSKOWN=      0    Vosko Wilk Nusair interpolation
   LHFCALC =     F    Hartree Fock is set to
   LHFONE  =     F    Hartree Fock one center treatment
   AEXX    =    0.0000 exact exchange contribution

 Linear response parameters
   LEPSILON=     F    determine dielectric tensor
   LRPA    =     F    only Hartree local field effects (RPA)
   LNABLA  =     F    use nabla operator in PAW spheres
   LVEL    =     F    velocity operator in full k-point grid
   LINTERFAST=   F  fast interpolation
   KINTER  =     0    interpolate to denser k-point grid
   CSHIFT  =0.1000    complex shift for real part using Kramers Kronig
   OMEGAMAX=  -1.0    maximum frequency
   DEG_THRESHOLD= 0.2000000E-02 threshold for treating states as degnerate
   RTIME   =   -0.100 relaxation time in fs
  (WPLASMAI=    0.000 imaginary part of plasma frequency in eV, 0.658/RTIME)
   DFIELD  = 0.0000000 0.0000000 0.0000000 field for delta impulse in time
 
 Orbital magnetization related:
   ORBITALMAG=     F  switch on orbital magnetization
   LCHIMAG   =     F  perturbation theory with respect to B field
   DQ        =  0.001000  dq finite difference perturbation B field
   LLRAUG    =     F  two centre corrections for induced B field



--------------------------------------------------------------------------------------------------------


 conjugate gradient relaxation of ions
 charge density and potential will be updated during run
 spin polarized calculation
 Variant of blocked Davidson
 Davidson routine will perform the subspace rotation
 perform sub-space diagonalisation
    after iterative eigenvector-optimisation
 modified Broyden-mixing scheme, WC =      100.0
 initial mixing is a Kerker type mixing with AMIX =  0.4000 and BMIX =      1.0000
 Hartree-type preconditioning will be used
 using additional bands            9
 reciprocal scheme for non local part
 use partial core corrections
 calculate Harris-corrections to forces 
   (improved forces if not selfconsistent)
 use of overlap-Matrix (Vanderbilt PP)
 Fermi weights with tetrahedron method with Bloechl corrections


--------------------------------------------------------------------------------------------------------


  energy-cutoff  :      400.00
  volume of cell :       70.60
      direct lattice vectors                 reciprocal lattice vectors
     4.693170846  0.000000000  0.000000000     0.213075559  0.000000000  0.000000000
     0.000000000  4.693170846  0.000000000     0.000000000  0.213075559  0.000000000
     0.000000000  0.000000000  3.205386539     0.000000000  0.000000000  0.311974855

  length of vectors
     4.693170846  4.693170846  3.205386539     0.213075559  0.213075559  0.311974855


 
 k-points in units of 2pi/SCALE and weight: KPOINTS created by Atomic Simulation Env
   0.02663444  0.02663444  0.02599790       0.083
   0.07990333  0.02663444  0.02599790       0.167
   0.07990333  0.07990333  0.02599790       0.083
   0.02663444  0.02663444  0.07799371       0.083
   0.07990333  0.02663444  0.07799371       0.167
   0.07990333  0.07990333  0.07799371       0.083
   0.02663444  0.02663444  0.12998952       0.083
   0.07990333  0.02663444  0.12998952       0.167
   0.07990333  0.07990333  0.12998952       0.083
 
 k-points in reciprocal lattice and weights: KPOINTS created by Atomic Simulation Env
   0.12500000  0.12500000  0.08333333       0.083
   0.37500000  0.12500000  0.08333333       0.167
   0.37500000  0.37500000  0.08333333       0.083
   0.12500000  0.12500000  0.25000000       0.083
   0.37500000  0.12500000  0.25000000       0.167
   0.37500000  0.37500000  0.25000000       0.083
   0.12500000  0.12500000  0.41666667       0.083
   0.37500000  0.12500000  0.41666667       0.167
   0.37500000  0.37500000  0.41666667       0.083
 
 position of ions in fractional coordinates (direct lattice) 
   0.50000000  0.50000000  0.50000000
   0.00000000  0.00000000  0.00000000
   0.19630776  0.80369224  0.50000000
   0.80369224  0.19630776  0.50000000
   0.30369224  0.30369224  0.00000000
   0.69630776  0.69630776  0.00000000
 
 position of ions in cartesian coordinates  (Angst):
   2.34658542  2.34658542  1.60269327
   0.00000000  0.00000000  0.00000000
   0.92130588  3.77186497  1.60269327
   3.77186497  0.92130588  1.60269327
   1.42527955  1.42527955  0.00000000
   3.26789130  3.26789130  0.00000000
 


--------------------------------------------------------------------------------------------------------


 k-point  1 :   0.1250 0.1250 0.0833  plane waves:    1275
 k-point  2 :   0.3750 0.1250 0.0833  plane waves:    1290
 k-point  3 :   0.3750 0.3750 0.0833  plane waves:    1274
 k-point  4 :   0.1250 0.1250 0.2500  plane waves:    1292
 k-point  5 :   0.3750 0.1250 0.2500  plane waves:    1278
 k-point  6 :   0.3750 0.3750 0.2500  plane waves:    1278
 k-point  7 :   0.1250 0.1250 0.4167  plane waves:    1283
 k-point  8 :   0.3750 0.1250 0.4167  plane waves:    1284
 k-point  9 :   0.3750 0.3750 0.4167  plane waves:    1283

 maximum and minimum number of plane-waves per node :      1292     1274

 maximum number of plane-waves:      1292
 maximum index in each direction: 
   IXMAX=    7   IYMAX=    7   IZMAX=    5
   IXMIN=   -8   IYMIN=   -8   IZMIN=   -5


 serial   3D FFT for wavefunctions
 parallel 3D FFT for charge:
    minimum data exchange during FFTs selected (reduces bandwidth)


 total amount of memory used by VASP MPI-rank0    37087. kBytes
=======================================================================

   base      :      30000. kBytes
   nonl-proj :       3483. kBytes
   fftplans  :        966. kBytes
   grid      :       1271. kBytes
   one-center:        186. kBytes
   wavefun   :       1181. kBytes
 
     INWAV:  cpu time    0.0000: real time    0.0000
 Broyden mixing: mesh for mixing (old mesh)
   NGX = 15   NGY = 15   NGZ = 11
  (NGX  = 48   NGY  = 48   NGZ  = 32)
  gives a total of   2475 points

 initial charge density was supplied:
 charge density of overlapping atoms calculated
 number of electron      54.0000000 magnetization       0.0000000
 keeping initial charge density in first step


--------------------------------------------------------------------------------------------------------


 Maximum index for augmentation-charges         2647 (set IRDMAX)


--------------------------------------------------------------------------------------------------------


 First call to EWALD:  gamma=   0.429
 Maximum number of real-space cells 2x 2x 3
 Maximum number of reciprocal cells 3x 3x 2

    FEWALD:  cpu time    0.0010: real time    0.0010


--------------------------------------- Iteration      1(   1)  ---------------------------------------


    POTLOK:  cpu time    0.0044: real time    0.0044
    SETDIJ:  cpu time    0.3888: real time    0.3888
atom =   1  type =  1  l = 2
 
 onsite density matrix
 
spin component  1
 
  0.2837  0.0000  0.0000  0.0000  0.0000
  0.0000  0.2837  0.0000  0.0000  0.0000
  0.0000  0.0000  0.2837  0.0000  0.0000
  0.0000  0.0000  0.0000  0.2837  0.0000
  0.0000  0.0000  0.0000  0.0000  0.2837
 
spin component  2
 
  0.7701  0.0000  0.0000  0.0000  0.0000
  0.0000  0.7701  0.0000  0.0000  0.0000
  0.0000  0.0000  0.7701  0.0000  0.0000
  0.0000  0.0000  0.0000  0.7701  0.0000
  0.0000  0.0000  0.0000  0.0000  0.7701
 
 occupancies and eigenvectors
 
  o =  0.2837  v =  1.0000  0.0000  0.0000  0.0000  0.0000  0.0000  0.0000  0.0000  0.0000  0.0000      0.0000  0.0000  0.0000  0.0000  0.0000  0.0000  0.0000  0.0000  0.0000  0.0000
  o =  0.2837  v =  0.0000  1.0000  0.0000  0.0000  0.0000  0.0000  0.0000  0.0000  0.0000  0.0000      0.0000  0.0000  0.0000  0.0000  0.0000  0.0000  0.0000  0.0000  0.0000  0.0000
  o =  0.2837  v =  0.0000  0.0000  1.0000  0.0000  0.0000  0.0000  0.0000  0.0000  0.0000  0.0000      0.0000  0.0000  0.0000  0.0000  0.0000  0.0000  0.0000  0.0000  0.0000  0.0000
  o =  0.2837  v =  0.0000  0.0000  0.0000  1.0000  0.0000  0.0000  0.0000  0.0000  0.0000  0.0000      0.0000  0.0000  0.0000  0.0000  0.0000  0.0000  0.0000  0.0000  0.0000  0.0000
  o =  0.2837  v =  0.0000  0.0000  0.0000  0.0000  1.0000  0.0000  0.0000  0.0000  0.0000  0.0000      0.0000  0.0000  0.0000  0.0000  0.0000  0.0000  0.0000  0.0000  0.0000  0.0000
  o =  0.7701  v =  0.0000  0.0000  0.0000  0.0000  0.0000  1.0000  0.0000  0.0000  0.0000  0.0000      0.0000  0.0000  0.0000  0.0000  0.0000  0.0000  0.0000  0.0000  0.0000  0.0000
  o =  0.7701  v =  0.0000  0.0000  0.0000  0.0000  0.0000  0.0000  1.0000  0.0000  0.0000  0.0000      0.0000  0.0000  0.0000  0.0000  0.0000  0.0000  0.0000  0.0000  0.0000  0.0000
  o =  0.7701  v =  0.0000  0.0000  0.0000  0.0000  0.0000  0.0000  0.0000  1.0000  0.0000  0.0000      0.0000  0.0000  0.0000  0.0000  0.0000  0.0000  0.0000  0.0000  0.0000  0.0000
  o =  0.7701  v =  0.0000  0.0000  0.0000  0.0000  0.0000  0.0000  0.0000  0.0000  1.0000  0.0000      0.0000  0.0000  0.0000  0.0000  0.0000  0.0000  0.0000  0.0000  0.0000  0.0000
  o =  0.7701  v =  0.0000  0.0000  0.0000  0.0000  0.0000  0.0000  0.0000  0.0000  0.0000  1.0000      0.0000  0.0000  0.0000  0.0000  0.0000  0.0000  0.0000  0.0000  0.0000  0.0000
atom =   2  type =  1  l = 2
 
 onsite density matrix
 
spin component  1
 
  0.7701  0.0000  0.0000  0.0000  0.0000
  0.0000  0.7701  0.0000  0.0000  0.0000
  0.0000  0.0000  0.7701  0.0000  0.0000
  0.0000  0.0000  0.0000  0.7701  0.0000
  0.0000  0.0000  0.0000  0.0000  0.7701
 
spin component  2
 
  0.2837  0.0000  0.0000  0.0000  0.0000
  0.0000  0.2837  0.0000  0.0000  0.0000
  0.0000  0.0000  0.2837  0.0000  0.0000
  0.0000  0.0000  0.0000  0.2837  0.0000
  0.0000  0.0000  0.0000  0.0000  0.2837
 
 occupancies and eigenvectors
 
  o =  0.2837  v =  0.0000  0.0000  0.0000  0.0000  0.0000  1.0000  0.0000  0.0000  0.0000  0.0000      0.0000  0.0000  0.0000  0.0000  0.0000  0.0000  0.0000  0.0000  0.0000  0.0000
  o =  0.2837  v =  0.0000  0.0000  0.0000  0.0000  0.0000  0.0000  1.0000  0.0000  0.0000  0.0000      0.0000  0.0000  0.0000  0.0000  0.0000  0.0000  0.0000  0.0000  0.0000  0.0000
  o =  0.2837  v =  0.0000  0.0000  0.0000  0.0000  0.0000  0.0000  0.0000  1.0000  0.0000  0.0000      0.0000  0.0000  0.0000  0.0000  0.0000  0.0000  0.0000  0.0000  0.0000  0.0000
  o =  0.2837  v =  0.0000  0.0000  0.0000  0.0000  0.0000  0.0000  0.0000  0.0000  1.0000  0.0000      0.0000  0.0000  0.0000  0.0000  0.0000  0.0000  0.0000  0.0000  0.0000  0.0000
  o =  0.2837  v =  0.0000  0.0000  0.0000  0.0000  0.0000  0.0000  0.0000  0.0000  0.0000  1.0000      0.0000  0.0000  0.0000  0.0000  0.0000  0.0000  0.0000  0.0000  0.0000  0.0000
  o =  0.7701  v =  1.0000  0.0000  0.0000  0.0000  0.0000  0.0000  0.0000  0.0000  0.0000  0.0000      0.0000  0.0000  0.0000  0.0000  0.0000  0.0000  0.0000  0.0000  0.0000  0.0000
  o =  0.7701  v =  0.0000  1.0000  0.0000  0.0000  0.0000  0.0000  0.0000  0.0000  0.0000  0.0000      0.0000  0.0000  0.0000  0.0000  0.0000  0.0000  0.0000  0.0000  0.0000  0.0000
  o =  0.7701  v =  0.0000  0.0000  1.0000  0.0000  0.0000  0.0000  0.0000  0.0000  0.0000  0.0000      0.0000  0.0000  0.0000  0.0000  0.0000  0.0000  0.0000  0.0000  0.0000  0.0000
  o =  0.7701  v =  0.0000  0.0000  0.0000  1.0000  0.0000  0.0000  0.0000  0.0000  0.0000  0.0000      0.0000  0.0000  0.0000  0.0000  0.0000  0.0000  0.0000  0.0000  0.0000  0.0000
  o =  0.7701  v =  0.0000  0.0000  0.0000  0.0000  1.0000  0.0000  0.0000  0.0000  0.0000  0.0000      0.0000  0.0000  0.0000  0.0000  0.0000  0.0000  0.0000  0.0000  0.0000  0.0000
     EDDAV:  cpu time    0.2006: real time    0.2184
 BZINTS: Fermi energy: 17.401269; 54.000000 electrons
         Band energy:-141.167112;  BLOECHL correction: -0.137475
       DOS:  cpu time    0.0108: real time    0.0108
    --------------------------------------------
      LOOP:  cpu time    0.6045: real time    0.6223

 eigenvalue-minimisations  :  1308
 total energy-change (2. order) : 0.5636647E+03  (-0.2786972E+04)
 number of electron      54.0000000 magnetization       0.0000000
 augmentation part       54.0000000 magnetization       0.0000000

 Free energy of the ion-electron system (eV)
  ---------------------------------------------------
  alpha Z        PSCENC =       215.80080385
  Ewald energy   TEWEN  =     -4337.57968138
  -Hartree energ DENC   =     -2039.80686757
  -exchange      EXHF   =         0.00000000
  -V(xc)+E(xc)   XCENC  =       295.75559710
  PAW double counting   =      5431.03059579    -5549.10764102
  entropy T*S    EENTRO =         0.00000000
  eigenvalues    EBANDS =      -141.16711213
  atomic energy  EATOM  =      6688.73902225
  Solvation  Ediel_sol  =         0.00000000
  ---------------------------------------------------
  free energy    TOTEN  =       563.66471691 eV

  energy without entropy =      563.66471691  energy(sigma->0) =      563.66471691


--------------------------------------------------------------------------------------------------------




--------------------------------------- Iteration      1(   2)  ---------------------------------------


     EDDAV:  cpu time    0.2091: real time    0.2091
 BZINTS: Fermi energy:  5.105487; 54.000000 electrons
         Band energy:-707.468320;  BLOECHL correction:  0.000000
       DOS:  cpu time    0.0021: real time    0.0021
    --------------------------------------------
      LOOP:  cpu time    0.2112: real time    0.2112

 eigenvalue-minimisations  :  1428
 total energy-change (2. order) :-0.5663012E+03  (-0.5507319E+03)
 number of electron      54.0000000 magnetization       0.0000000
 augmentation part       54.0000000 magnetization       0.0000000

 Free energy of the ion-electron system (eV)
  ---------------------------------------------------
  alpha Z        PSCENC =       215.80080385
  Ewald energy   TEWEN  =     -4337.57968138
  -Hartree energ DENC   =     -2039.80686757
  -exchange      EXHF   =         0.00000000
  -V(xc)+E(xc)   XCENC  =       295.75559710
  PAW double counting   =      5431.03059579    -5549.10764102
  entropy T*S    EENTRO =         0.00000000
  eigenvalues    EBANDS =      -707.46831963
  atomic energy  EATOM  =      6688.73902225
  Solvation  Ediel_sol  =         0.00000000
  ---------------------------------------------------
  free energy    TOTEN  =        -2.63649059 eV

  energy without entropy =       -2.63649059  energy(sigma->0) =       -2.63649059


--------------------------------------------------------------------------------------------------------




--------------------------------------- Iteration      1(   3)  ---------------------------------------


     EDDAV:  cpu time    0.2264: real time    0.2264
 BZINTS: Fermi energy:  4.210485; 54.000000 electrons
         Band energy:-745.482379;  BLOECHL correction:  0.000000
       DOS:  cpu time    0.0020: real time    0.0020
    --------------------------------------------
      LOOP:  cpu time    0.2284: real time    0.2284

 eigenvalue-minimisations  :  1536
 total energy-change (2. order) :-0.3801406E+02  (-0.3786201E+02)
 number of electron      54.0000000 magnetization       0.0000000
 augmentation part       54.0000000 magnetization       0.0000000

 Free energy of the ion-electron system (eV)
  ---------------------------------------------------
  alpha Z        PSCENC =       215.80080385
  Ewald energy   TEWEN  =     -4337.57968138
  -Hartree energ DENC   =     -2039.80686757
  -exchange      EXHF   =         0.00000000
  -V(xc)+E(xc)   XCENC  =       295.75559710
  PAW double counting   =      5431.03059579    -5549.10764102
  entropy T*S    EENTRO =         0.00000000
  eigenvalues    EBANDS =      -745.48237850
  atomic energy  EATOM  =      6688.73902225
  Solvation  Ediel_sol  =         0.00000000
  ---------------------------------------------------
  free energy    TOTEN  =       -40.65054946 eV

  energy without entropy =      -40.65054946  energy(sigma->0) =      -40.65054946


--------------------------------------------------------------------------------------------------------




--------------------------------------- Iteration      1(   4)  ---------------------------------------


     EDDAV:  cpu time    0.2198: real time    0.2198
 BZINTS: Fermi energy:  4.102226; 54.000000 electrons
         Band energy:-745.931508;  BLOECHL correction:  0.000000
       DOS:  cpu time    0.0018: real time    0.0018
    --------------------------------------------
      LOOP:  cpu time    0.2215: real time    0.2215

 eigenvalue-minimisations  :  1488
 total energy-change (2. order) :-0.4491291E+00  (-0.4490382E+00)
 number of electron      54.0000000 magnetization       0.0000000
 augmentation part       54.0000000 magnetization       0.0000000

 Free energy of the ion-electron system (eV)
  ---------------------------------------------------
  alpha Z        PSCENC =       215.80080385
  Ewald energy   TEWEN  =     -4337.57968138
  -Hartree energ DENC   =     -2039.80686757
  -exchange      EXHF   =         0.00000000
  -V(xc)+E(xc)   XCENC  =       295.75559710
  PAW double counting   =      5431.03059579    -5549.10764102
  entropy T*S    EENTRO =         0.00000000
  eigenvalues    EBANDS =      -745.93150762
  atomic energy  EATOM  =      6688.73902225
  Solvation  Ediel_sol  =         0.00000000
  ---------------------------------------------------
  free energy    TOTEN  =       -41.09967858 eV

  energy without entropy =      -41.09967858  energy(sigma->0) =      -41.09967858


--------------------------------------------------------------------------------------------------------




--------------------------------------- Iteration      1(   5)  ---------------------------------------


     EDDAV:  cpu time    0.2128: real time    0.2128
 BZINTS: Fermi energy:  4.077498; 54.000000 electrons
         Band energy:-745.938065;  BLOECHL correction:  0.000000
       DOS:  cpu time    0.0017: real time    0.0017
    CHARGE:  cpu time    0.0165: real time    0.0165
    MIXING:  cpu time    0.0003: real time    0.0003
    --------------------------------------------
      LOOP:  cpu time    0.2313: real time    0.2313

 eigenvalue-minimisations  :  1452
 total energy-change (2. order) :-0.6557446E-02  (-0.6557362E-02)
 number of electron      54.0000000 magnetization      -0.0000000
 augmentation part       20.1152714 magnetization      -0.0000000

 Broyden mixing:
  rms(total) = 0.27199E+01    rms(broyden)= 0.27196E+01
  rms(prec ) = 0.33710E+01
  weight for this iteration     100.00

 Free energy of the ion-electron system (eV)
  ---------------------------------------------------
  alpha Z        PSCENC =       215.80080385
  Ewald energy   TEWEN  =     -4337.57968138
  -Hartree energ DENC   =     -2039.80686757
  -exchange      EXHF   =         0.00000000
  -V(xc)+E(xc)   XCENC  =       295.75559710
  PAW double counting   =      5431.03059579    -5549.10764102
  entropy T*S    EENTRO =         0.00000000
  eigenvalues    EBANDS =      -745.93806507
  atomic energy  EATOM  =      6688.73902225
  Solvation  Ediel_sol  =         0.00000000
  ---------------------------------------------------
  free energy    TOTEN  =       -41.10623603 eV

  energy without entropy =      -41.10623603  energy(sigma->0) =      -41.10623603


--------------------------------------------------------------------------------------------------------




--------------------------------------- Iteration      1(   6)  ---------------------------------------


    POTLOK:  cpu time    0.0028: real time    0.0028
    SETDIJ:  cpu time    0.2215: real time    0.2215
atom =   1  type =  1  l = 2
 
 onsite density matrix
 
spin component  1
 
 -0.0681  0.0000  0.0071  0.0000  0.0000
  0.0000 -0.0736  0.0000  0.0044  0.0000
  0.0071  0.0000 -0.0709  0.0000  0.0000
  0.0000  0.0044  0.0000 -0.0736  0.0000
  0.0000  0.0000  0.0000  0.0000 -0.0818
 
spin component  2
 
  1.1003  0.0000  0.0143  0.0000 -0.0000
  0.0000  1.0988  0.0000  0.0124  0.0000
  0.0143  0.0000  1.0920  0.0000 -0.0000
  0.0000  0.0124  0.0000  1.0988  0.0000
 -0.0000  0.0000 -0.0000  0.0000  1.0890
 
 occupancies and eigenvectors
 
  o = -0.0818  v = -0.0000  0.0000  0.0000 -0.0000 -1.0000  0.0000  0.0000  0.0000  0.0000  0.0000      0.0000  0.0000  0.0000  0.0000  0.0000  0.0000  0.0000  0.0000  0.0000  0.0000
  o = -0.0780  v =  0.0000  0.7071 -0.0000 -0.7071  0.0000  0.0000  0.0000  0.0000  0.0000  0.0000      0.0000  0.0000  0.0000  0.0000  0.0000  0.0000  0.0000  0.0000  0.0000  0.0000
  o = -0.0768  v =  0.6352 -0.0000 -0.7723  0.0000 -0.0000  0.0000  0.0000  0.0000  0.0000  0.0000      0.0000  0.0000  0.0000  0.0000  0.0000  0.0000  0.0000  0.0000  0.0000  0.0000
  o = -0.0691  v =  0.0000 -0.7071 -0.0000 -0.7071 -0.0000  0.0000  0.0000  0.0000  0.0000  0.0000      0.0000  0.0000  0.0000  0.0000  0.0000  0.0000  0.0000  0.0000  0.0000  0.0000
  o = -0.0622  v =  0.7723  0.0000  0.6352  0.0000  0.0000  0.0000  0.0000  0.0000  0.0000  0.0000      0.0000  0.0000  0.0000  0.0000  0.0000  0.0000  0.0000  0.0000  0.0000  0.0000
  o =  1.0813  v =  0.0000  0.0000  0.0000  0.0000  0.0000 -0.6004 -0.0000  0.7997  0.0000  0.0000      0.0000  0.0000  0.0000  0.0000  0.0000  0.0000  0.0000  0.0000  0.0000  0.0000
  o =  1.0864  v =  0.0000  0.0000  0.0000  0.0000  0.0000 -0.0000  0.7071  0.0000 -0.7071  0.0000      0.0000  0.0000  0.0000  0.0000  0.0000  0.0000  0.0000  0.0000  0.0000  0.0000
  o =  1.0890  v =  0.0000  0.0000  0.0000  0.0000  0.0000  0.0000 -0.0000 -0.0000  0.0000  1.0000      0.0000  0.0000  0.0000  0.0000  0.0000  0.0000  0.0000  0.0000  0.0000  0.0000
  o =  1.1110  v =  0.0000  0.0000  0.0000  0.0000  0.0000 -0.7997  0.0000 -0.6004  0.0000  0.0000      0.0000  0.0000  0.0000  0.0000  0.0000  0.0000  0.0000  0.0000  0.0000  0.0000
  o =  1.1112  v =  0.0000  0.0000  0.0000  0.0000  0.0000  0.0000  0.7071  0.0000  0.7071  0.0000      0.0000  0.0000  0.0000  0.0000  0.0000  0.0000  0.0000  0.0000  0.0000  0.0000
atom =   2  type =  1  l = 2
 
 onsite density matrix
 
spin component  1
 
  1.1003  0.0000 -0.0143  0.0000  0.0000
  0.0000  1.0988  0.0000 -0.0124  0.0000
 -0.0143  0.0000  1.0920  0.0000  0.0000
  0.0000 -0.0124  0.0000  1.0988  0.0000
  0.0000  0.0000  0.0000  0.0000  1.0890
 
spin component  2
 
 -0.0681  0.0000 -0.0071  0.0000  0.0000
  0.0000 -0.0736  0.0000 -0.0044  0.0000
 -0.0071  0.0000 -0.0709  0.0000 -0.0000
  0.0000 -0.0044  0.0000 -0.0736  0.0000
  0.0000  0.0000 -0.0000  0.0000 -0.0818
 
 occupancies and eigenvectors
 
  o = -0.0818  v =  0.0000  0.0000  0.0000  0.0000  0.0000  0.0000 -0.0000  0.0000  0.0000  1.0000      0.0000  0.0000  0.0000  0.0000  0.0000  0.0000  0.0000  0.0000  0.0000  0.0000
  o = -0.0780  v =  0.0000  0.0000  0.0000  0.0000  0.0000  0.0000  0.7071  0.0000  0.7071  0.0000      0.0000  0.0000  0.0000  0.0000  0.0000  0.0000  0.0000  0.0000  0.0000  0.0000
  o = -0.0768  v =  0.0000  0.0000  0.0000  0.0000  0.0000 -0.6352 -0.0000 -0.7723  0.0000  0.0000      0.0000  0.0000  0.0000  0.0000  0.0000  0.0000  0.0000  0.0000  0.0000  0.0000
  o = -0.0691  v =  0.0000  0.0000  0.0000  0.0000  0.0000  0.0000  0.7071  0.0000 -0.7071  0.0000      0.0000  0.0000  0.0000  0.0000  0.0000  0.0000  0.0000  0.0000  0.0000  0.0000
  o = -0.0622  v =  0.0000  0.0000  0.0000  0.0000  0.0000  0.7723 -0.0000 -0.6352  0.0000  0.0000      0.0000  0.0000  0.0000  0.0000  0.0000  0.0000  0.0000  0.0000  0.0000  0.0000
  o =  1.0813  v = -0.6004 -0.0000 -0.7997  0.0000  0.0000  0.0000  0.0000  0.0000  0.0000  0.0000      0.0000  0.0000  0.0000  0.0000  0.0000  0.0000  0.0000  0.0000  0.0000  0.0000
  o =  1.0864  v =  0.0000 -0.7071  0.0000 -0.7071  0.0000  0.0000  0.0000  0.0000  0.0000  0.0000      0.0000  0.0000  0.0000  0.0000  0.0000  0.0000  0.0000  0.0000  0.0000  0.0000
  o =  1.0890  v =  0.0000  0.0000  0.0000  0.0000  1.0000  0.0000  0.0000  0.0000  0.0000  0.0000      0.0000  0.0000  0.0000  0.0000  0.0000  0.0000  0.0000  0.0000  0.0000  0.0000
  o =  1.1110  v = -0.7997 -0.0000  0.6004  0.0000  0.0000  0.0000  0.0000  0.0000  0.0000  0.0000      0.0000  0.0000  0.0000  0.0000  0.0000  0.0000  0.0000  0.0000  0.0000  0.0000
  o =  1.1112  v =  0.0000  0.7071  0.0000 -0.7071  0.0000  0.0000  0.0000  0.0000  0.0000  0.0000      0.0000  0.0000  0.0000  0.0000  0.0000  0.0000  0.0000  0.0000  0.0000  0.0000
     EDDAV:  cpu time    0.2373: real time    0.2373
 BZINTS: Fermi energy:  2.497903; 54.000000 electrons
         Band energy:-730.724878;  BLOECHL correction:  0.000000
       DOS:  cpu time    0.0018: real time    0.0018
    CHARGE:  cpu time    0.0161: real time    0.0161
    MIXING:  cpu time    0.0003: real time    0.0003
    --------------------------------------------
      LOOP:  cpu time    0.4797: real time    0.4798

 eigenvalue-minimisations  :  1632
 total energy-change (2. order) : 0.1783695E+01  (-0.1351438E+01)
 number of electron      54.0000000 magnetization      -0.0000000
 augmentation part       19.9949938 magnetization      -0.0000000

 Broyden mixing:
  rms(total) = 0.17442E+01    rms(broyden)= 0.17440E+01
  rms(prec ) = 0.17887E+01
  weight for this iteration     100.00

 eigenvalues of (default mixing * dielectric matrix)
  average eigenvalue GAMMA=   0.8454
  0.8454

 Free energy of the ion-electron system (eV)
  ---------------------------------------------------
  alpha Z        PSCENC =       215.80080385
  Ewald energy   TEWEN  =     -4337.57968138
  -Hartree energ DENC   =     -2062.11376093
  -exchange      EXHF   =         0.00000000
  -V(xc)+E(xc)   XCENC  =       296.26762487
  PAW double counting   =      5797.53404697    -5907.24571845
  entropy T*S    EENTRO =         0.00000000
  eigenvalues    EBANDS =      -730.72487786
  atomic energy  EATOM  =      6688.73902225
  Solvation  Ediel_sol  =         0.00000000
  ---------------------------------------------------
  free energy    TOTEN  =       -39.32254069 eV

  energy without entropy =      -39.32254069  energy(sigma->0) =      -39.32254069


--------------------------------------------------------------------------------------------------------




--------------------------------------- Iteration      1(   7)  ---------------------------------------


    POTLOK:  cpu time    0.0027: real time    0.0027
    SETDIJ:  cpu time    0.2208: real time    0.2208
atom =   1  type =  1  l = 2
 
 onsite density matrix
 
spin component  1
 
  0.1394  0.0000  0.0254  0.0000  0.0000
  0.0000  0.1309  0.0000  0.0199  0.0000
  0.0254  0.0000  0.1253  0.0000 -0.0000
  0.0000  0.0199  0.0000  0.1309  0.0000
  0.0000  0.0000 -0.0000  0.0000  0.1096
 
spin component  2
 
  0.8903  0.0000  0.0092  0.0000 -0.0000
  0.0000  0.8873  0.0000  0.0074  0.0000
  0.0092  0.0000  0.8860  0.0000 -0.0000
  0.0000  0.0074  0.0000  0.8873  0.0000
 -0.0000  0.0000 -0.0000  0.0000  0.8792
 
 occupancies and eigenvectors
 
  o =  0.1060  v = -0.6048  0.0000  0.7964  0.0000  0.0000  0.0000  0.0000  0.0000  0.0000  0.0000      0.0000  0.0000  0.0000  0.0000  0.0000  0.0000  0.0000  0.0000  0.0000  0.0000
  o =  0.1096  v =  0.0000  0.0000  0.0000 -0.0000 -1.0000  0.0000  0.0000  0.0000  0.0000  0.0000      0.0000  0.0000  0.0000  0.0000  0.0000  0.0000  0.0000  0.0000  0.0000  0.0000
  o =  0.1110  v =  0.0000 -0.7071  0.0000  0.7071 -0.0000  0.0000  0.0000  0.0000  0.0000  0.0000      0.0000  0.0000  0.0000  0.0000  0.0000  0.0000  0.0000  0.0000  0.0000  0.0000
  o =  0.1507  v =  0.0000  0.7071 -0.0000  0.7071  0.0000  0.0000  0.0000  0.0000  0.0000  0.0000      0.0000  0.0000  0.0000  0.0000  0.0000  0.0000  0.0000  0.0000  0.0000  0.0000
  o =  0.1588  v = -0.7964  0.0000 -0.6048  0.0000 -0.0000  0.0000  0.0000  0.0000  0.0000  0.0000      0.0000  0.0000  0.0000  0.0000  0.0000  0.0000  0.0000  0.0000  0.0000  0.0000
  o =  0.8787  v =  0.0000  0.0000  0.0000  0.0000  0.0000 -0.6213  0.0000  0.7835 -0.0000  0.0000      0.0000  0.0000  0.0000  0.0000  0.0000  0.0000  0.0000  0.0000  0.0000  0.0000
  o =  0.8792  v =  0.0000  0.0000  0.0000  0.0000  0.0000 -0.0000  0.0000  0.0000 -0.0000 -1.0000      0.0000  0.0000  0.0000  0.0000  0.0000  0.0000  0.0000  0.0000  0.0000  0.0000
  o =  0.8799  v =  0.0000  0.0000  0.0000  0.0000  0.0000  0.0000  0.7071 -0.0000 -0.7071  0.0000      0.0000  0.0000  0.0000  0.0000  0.0000  0.0000  0.0000  0.0000  0.0000  0.0000
  o =  0.8947  v =  0.0000  0.0000  0.0000  0.0000  0.0000 -0.0000 -0.7071 -0.0000 -0.7071 -0.0000      0.0000  0.0000  0.0000  0.0000  0.0000  0.0000  0.0000  0.0000  0.0000  0.0000
  o =  0.8976  v =  0.0000  0.0000  0.0000  0.0000  0.0000 -0.7835  0.0000 -0.6213  0.0000  0.0000      0.0000  0.0000  0.0000  0.0000  0.0000  0.0000  0.0000  0.0000  0.0000  0.0000
atom =   2  type =  1  l = 2
 
 onsite density matrix
 
spin component  1
 
  0.8903  0.0000 -0.0092  0.0000 -0.0000
  0.0000  0.8873  0.0000 -0.0074  0.0000
 -0.0092  0.0000  0.8860  0.0000 -0.0000
  0.0000 -0.0074  0.0000  0.8873  0.0000
 -0.0000  0.0000 -0.0000  0.0000  0.8792
 
spin component  2
 
  0.1394  0.0000 -0.0254  0.0000 -0.0000
  0.0000  0.1309  0.0000 -0.0199  0.0000
 -0.0254  0.0000  0.1253  0.0000  0.0000
  0.0000 -0.0199  0.0000  0.1309  0.0000
 -0.0000  0.0000  0.0000  0.0000  0.1096
 
 occupancies and eigenvectors
 
  o =  0.1060  v =  0.0000  0.0000  0.0000  0.0000  0.0000 -0.6048  0.0000 -0.7964  0.0000  0.0000      0.0000  0.0000  0.0000  0.0000  0.0000  0.0000  0.0000  0.0000  0.0000  0.0000
  o =  0.1096  v =  0.0000  0.0000  0.0000  0.0000  0.0000 -0.0000  0.0000 -0.0000  0.0000 -1.0000      0.0000  0.0000  0.0000  0.0000  0.0000  0.0000  0.0000  0.0000  0.0000  0.0000
  o =  0.1110  v =  0.0000  0.0000  0.0000  0.0000  0.0000 -0.0000 -0.7071 -0.0000 -0.7071 -0.0000      0.0000  0.0000  0.0000  0.0000  0.0000  0.0000  0.0000  0.0000  0.0000  0.0000
  o =  0.1507  v =  0.0000  0.0000  0.0000  0.0000  0.0000 -0.0000 -0.7071  0.0000  0.7071 -0.0000      0.0000  0.0000  0.0000  0.0000  0.0000  0.0000  0.0000  0.0000  0.0000  0.0000
  o =  0.1588  v =  0.0000  0.0000  0.0000  0.0000  0.0000 -0.7964  0.0000  0.6048 -0.0000  0.0000      0.0000  0.0000  0.0000  0.0000  0.0000  0.0000  0.0000  0.0000  0.0000  0.0000
  o =  0.8787  v = -0.6213  0.0000 -0.7835  0.0000 -0.0000  0.0000  0.0000  0.0000  0.0000  0.0000      0.0000  0.0000  0.0000  0.0000  0.0000  0.0000  0.0000  0.0000  0.0000  0.0000
  o =  0.8792  v =  0.0000  0.0000 -0.0000  0.0000  1.0000  0.0000  0.0000  0.0000  0.0000  0.0000      0.0000  0.0000  0.0000  0.0000  0.0000  0.0000  0.0000  0.0000  0.0000  0.0000
  o =  0.8799  v =  0.0000 -0.7071  0.0000 -0.7071  0.0000  0.0000  0.0000  0.0000  0.0000  0.0000      0.0000  0.0000  0.0000  0.0000  0.0000  0.0000  0.0000  0.0000  0.0000  0.0000
  o =  0.8947  v =  0.0000 -0.7071  0.0000  0.7071  0.0000  0.0000  0.0000  0.0000  0.0000  0.0000      0.0000  0.0000  0.0000  0.0000  0.0000  0.0000  0.0000  0.0000  0.0000  0.0000
  o =  0.8976  v = -0.7835  0.0000  0.6213  0.0000  0.0000  0.0000  0.0000  0.0000  0.0000  0.0000      0.0000  0.0000  0.0000  0.0000  0.0000  0.0000  0.0000  0.0000  0.0000  0.0000
     EDDAV:  cpu time    0.2262: real time    0.2262
 BZINTS: Fermi energy:  2.947865; 54.000000 electrons
         Band energy:-723.301312;  BLOECHL correction:  0.000000
       DOS:  cpu time    0.0020: real time    0.0020
    CHARGE:  cpu time    0.0162: real time    0.0162
    MIXING:  cpu time    0.0004: real time    0.0004
    --------------------------------------------
      LOOP:  cpu time    0.4683: real time    0.4683

 eigenvalue-minimisations  :  1536
 total energy-change (2. order) :-0.5450708E+00  (-0.1569361E+00)
 number of electron      54.0000000 magnetization       0.0000000
 augmentation part       19.9589357 magnetization       0.0000000

 Broyden mixing:
  rms(total) = 0.12638E+01    rms(broyden)= 0.12638E+01
  rms(prec ) = 0.12884E+01
  weight for this iteration     100.00

 eigenvalues of (default mixing * dielectric matrix)
  average eigenvalue GAMMA=   1.5378
  0.6999  2.3756

 Free energy of the ion-electron system (eV)
  ---------------------------------------------------
  alpha Z        PSCENC =       215.80080385
  Ewald energy   TEWEN  =     -4337.57968138
  -Hartree energ DENC   =     -2060.54705759
  -exchange      EXHF   =         0.00000000
  -V(xc)+E(xc)   XCENC  =       297.08305299
  PAW double counting   =      6108.54575106    -6228.60819054
  entropy T*S    EENTRO =         0.00000000
  eigenvalues    EBANDS =      -723.30131214
  atomic energy  EATOM  =      6688.73902225
  Solvation  Ediel_sol  =         0.00000000
  ---------------------------------------------------
  free energy    TOTEN  =       -39.86761150 eV

  energy without entropy =      -39.86761150  energy(sigma->0) =      -39.86761150


--------------------------------------------------------------------------------------------------------




--------------------------------------- Iteration      1(   8)  ---------------------------------------


    POTLOK:  cpu time    0.0027: real time    0.0027
    SETDIJ:  cpu time    0.2226: real time    0.2226
atom =   1  type =  1  l = 2
 
 onsite density matrix
 
spin component  1
 
 -0.0191  0.0000  0.0288  0.0000 -0.0000
  0.0000 -0.0300  0.0000  0.0207  0.0000
  0.0288  0.0000 -0.0324  0.0000 -0.0000
  0.0000  0.0207  0.0000 -0.0300  0.0000
 -0.0000  0.0000 -0.0000  0.0000 -0.0565
 
spin component  2
 
  1.0532  0.0000  0.0232  0.0000 -0.0000
  0.0000  1.0464  0.0000  0.0205  0.0000
  0.0232  0.0000  1.0379  0.0000  0.0000
  0.0000  0.0205  0.0000  1.0464  0.0000
 -0.0000  0.0000  0.0000  0.0000  1.0284
 
 occupancies and eigenvectors
 
  o = -0.0565  v =  0.0000 -0.0000 -0.0000  0.0000 -1.0000  0.0000  0.0000  0.0000  0.0000  0.0000      0.0000  0.0000  0.0000  0.0000  0.0000  0.0000  0.0000  0.0000  0.0000  0.0000
  o = -0.0553  v = -0.6223 -0.0000  0.7828  0.0000 -0.0000  0.0000  0.0000  0.0000  0.0000  0.0000      0.0000  0.0000  0.0000  0.0000  0.0000  0.0000  0.0000  0.0000  0.0000  0.0000
  o = -0.0507  v =  0.0000  0.7071  0.0000 -0.7071 -0.0000  0.0000  0.0000  0.0000  0.0000  0.0000      0.0000  0.0000  0.0000  0.0000  0.0000  0.0000  0.0000  0.0000  0.0000  0.0000
  o = -0.0093  v =  0.0000 -0.7071  0.0000 -0.7071  0.0000  0.0000  0.0000  0.0000  0.0000  0.0000      0.0000  0.0000  0.0000  0.0000  0.0000  0.0000  0.0000  0.0000  0.0000  0.0000
  o =  0.0038  v =  0.7828 -0.0000  0.6223  0.0000 -0.0000  0.0000  0.0000  0.0000  0.0000  0.0000      0.0000  0.0000  0.0000  0.0000  0.0000  0.0000  0.0000  0.0000  0.0000  0.0000
  o =  1.0211  v =  0.0000  0.0000  0.0000  0.0000  0.0000 -0.5866  0.0000  0.8098  0.0000 -0.0000      0.0000  0.0000  0.0000  0.0000  0.0000  0.0000  0.0000  0.0000  0.0000  0.0000
  o =  1.0259  v =  0.0000  0.0000  0.0000  0.0000  0.0000  0.0000 -0.7071 -0.0000  0.7071 -0.0000      0.0000  0.0000  0.0000  0.0000  0.0000  0.0000  0.0000  0.0000  0.0000  0.0000
  o =  1.0284  v =  0.0000  0.0000  0.0000  0.0000  0.0000  0.0000 -0.0000  0.0000  0.0000  1.0000      0.0000  0.0000  0.0000  0.0000  0.0000  0.0000  0.0000  0.0000  0.0000  0.0000
  o =  1.0670  v =  0.0000  0.0000  0.0000  0.0000  0.0000  0.0000 -0.7071  0.0000 -0.7071  0.0000      0.0000  0.0000  0.0000  0.0000  0.0000  0.0000  0.0000  0.0000  0.0000  0.0000
  o =  1.0700  v =  0.0000  0.0000  0.0000  0.0000  0.0000 -0.8098  0.0000 -0.5866  0.0000  0.0000      0.0000  0.0000  0.0000  0.0000  0.0000  0.0000  0.0000  0.0000  0.0000  0.0000
atom =   2  type =  1  l = 2
 
 onsite density matrix
 
spin component  1
 
  1.0532  0.0000 -0.0232  0.0000 -0.0000
  0.0000  1.0464  0.0000 -0.0205  0.0000
 -0.0232  0.0000  1.0379  0.0000  0.0000
  0.0000 -0.0205  0.0000  1.0464  0.0000
 -0.0000  0.0000  0.0000  0.0000  1.0284
 
spin component  2
 
 -0.0191  0.0000 -0.0288  0.0000 -0.0000
  0.0000 -0.0300  0.0000 -0.0207  0.0000
 -0.0288  0.0000 -0.0324  0.0000 -0.0000
  0.0000 -0.0207  0.0000 -0.0300  0.0000
 -0.0000  0.0000 -0.0000  0.0000 -0.0565
 
 occupancies and eigenvectors
 
  o = -0.0565  v =  0.0000  0.0000  0.0000  0.0000  0.0000  0.0000  0.0000  0.0000  0.0000  1.0000      0.0000  0.0000  0.0000  0.0000  0.0000  0.0000  0.0000  0.0000  0.0000  0.0000
  o = -0.0553  v =  0.0000  0.0000  0.0000  0.0000  0.0000 -0.6223  0.0000 -0.7828  0.0000  0.0000      0.0000  0.0000  0.0000  0.0000  0.0000  0.0000  0.0000  0.0000  0.0000  0.0000
  o = -0.0507  v =  0.0000  0.0000  0.0000  0.0000  0.0000  0.0000  0.7071  0.0000  0.7071 -0.0000      0.0000  0.0000  0.0000  0.0000  0.0000  0.0000  0.0000  0.0000  0.0000  0.0000
  o = -0.0093  v =  0.0000  0.0000  0.0000  0.0000  0.0000  0.0000  0.7071  0.0000 -0.7071 -0.0000      0.0000  0.0000  0.0000  0.0000  0.0000  0.0000  0.0000  0.0000  0.0000  0.0000
  o =  0.0038  v =  0.0000  0.0000  0.0000  0.0000  0.0000  0.7828  0.0000 -0.6223  0.0000  0.0000      0.0000  0.0000  0.0000  0.0000  0.0000  0.0000  0.0000  0.0000  0.0000  0.0000
  o =  1.0211  v = -0.5866  0.0000 -0.8098  0.0000 -0.0000  0.0000  0.0000  0.0000  0.0000  0.0000      0.0000  0.0000  0.0000  0.0000  0.0000  0.0000  0.0000  0.0000  0.0000  0.0000
  o =  1.0259  v =  0.0000 -0.7071  0.0000 -0.7071  0.0000  0.0000  0.0000  0.0000  0.0000  0.0000      0.0000  0.0000  0.0000  0.0000  0.0000  0.0000  0.0000  0.0000  0.0000  0.0000
  o =  1.0284  v =  0.0000 -0.0000  0.0000  0.0000 -1.0000  0.0000  0.0000  0.0000  0.0000  0.0000      0.0000  0.0000  0.0000  0.0000  0.0000  0.0000  0.0000  0.0000  0.0000  0.0000
  o =  1.0670  v =  0.0000 -0.7071  0.0000  0.7071  0.0000  0.0000  0.0000  0.0000  0.0000  0.0000      0.0000  0.0000  0.0000  0.0000  0.0000  0.0000  0.0000  0.0000  0.0000  0.0000
  o =  1.0700  v = -0.8098  0.0000  0.5866  0.0000  0.0000  0.0000  0.0000  0.0000  0.0000  0.0000      0.0000  0.0000  0.0000  0.0000  0.0000  0.0000  0.0000  0.0000  0.0000  0.0000
     EDDAV:  cpu time    0.2215: real time    0.2215
 BZINTS: Fermi energy:  2.438442; 54.000000 electrons
         Band energy:-730.644154;  BLOECHL correction:  0.000000
       DOS:  cpu time    0.0018: real time    0.0018
    CHARGE:  cpu time    0.0161: real time    0.0161
    MIXING:  cpu time    0.0004: real time    0.0004
    --------------------------------------------
      LOOP:  cpu time    0.4650: real time    0.4650

 eigenvalue-minimisations  :  1512
 total energy-change (2. order) : 0.9531089E-02  (-0.5383119E-01)
 number of electron      54.0000000 magnetization       0.0000000
 augmentation part       19.9787509 magnetization       0.0000000

 Broyden mixing:
  rms(total) = 0.47793E+00    rms(broyden)= 0.47792E+00
  rms(prec ) = 0.50549E+00
  weight for this iteration     100.00

 eigenvalues of (default mixing * dielectric matrix)
  average eigenvalue GAMMA=   1.2877
  2.2305  1.0113  0.6211

 Free energy of the ion-electron system (eV)
  ---------------------------------------------------
  alpha Z        PSCENC =       215.80080385
  Ewald energy   TEWEN  =     -4337.57968138
  -Hartree energ DENC   =     -2056.07781594
  -exchange      EXHF   =         0.00000000
  -V(xc)+E(xc)   XCENC  =       296.39616248
  PAW double counting   =      6444.53852747    -6561.03094543
  entropy T*S    EENTRO =         0.00000000
  eigenvalues    EBANDS =      -730.64415372
  atomic energy  EATOM  =      6688.73902225
  Solvation  Ediel_sol  =         0.00000000
  ---------------------------------------------------
  free energy    TOTEN  =       -39.85808041 eV

  energy without entropy =      -39.85808041  energy(sigma->0) =      -39.85808041


--------------------------------------------------------------------------------------------------------




--------------------------------------- Iteration      1(   9)  ---------------------------------------


    POTLOK:  cpu time    0.0027: real time    0.0027
    SETDIJ:  cpu time    0.2209: real time    0.2209
atom =   1  type =  1  l = 2
 
 onsite density matrix
 
spin component  1
 
  0.0532  0.0000  0.0314  0.0000 -0.0000
  0.0000  0.0411  0.0000  0.0245  0.0000
  0.0314  0.0000  0.0357  0.0000 -0.0000
  0.0000  0.0245  0.0000  0.0411  0.0000
 -0.0000  0.0000 -0.0000  0.0000  0.0135
 
spin component  2
 
  0.9815  0.0000  0.0276  0.0000  0.0000
  0.0000  0.9732  0.0000  0.0224  0.0000
  0.0276  0.0000  0.9661  0.0000  0.0000
  0.0000  0.0224  0.0000  0.9732  0.0000
  0.0000  0.0000  0.0000  0.0000  0.9503
 
 occupancies and eigenvectors
 
  o =  0.0119  v = -0.6050  0.0000  0.7962  0.0000  0.0000  0.0000  0.0000  0.0000  0.0000  0.0000      0.0000  0.0000  0.0000  0.0000  0.0000  0.0000  0.0000  0.0000  0.0000  0.0000
  o =  0.0135  v = -0.0000 -0.0000  0.0000  0.0000 -1.0000  0.0000  0.0000  0.0000  0.0000  0.0000      0.0000  0.0000  0.0000  0.0000  0.0000  0.0000  0.0000  0.0000  0.0000  0.0000
  o =  0.0166  v =  0.0000  0.7071  0.0000 -0.7071 -0.0000  0.0000  0.0000  0.0000  0.0000  0.0000      0.0000  0.0000  0.0000  0.0000  0.0000  0.0000  0.0000  0.0000  0.0000  0.0000
  o =  0.0656  v =  0.0000  0.7071  0.0000  0.7071 -0.0000  0.0000  0.0000  0.0000  0.0000  0.0000      0.0000  0.0000  0.0000  0.0000  0.0000  0.0000  0.0000  0.0000  0.0000  0.0000
  o =  0.0770  v = -0.7962  0.0000 -0.6050  0.0000  0.0000  0.0000  0.0000  0.0000  0.0000  0.0000      0.0000  0.0000  0.0000  0.0000  0.0000  0.0000  0.0000  0.0000  0.0000  0.0000
  o =  0.9451  v =  0.0000  0.0000  0.0000  0.0000  0.0000 -0.6050  0.0000  0.7962  0.0000  0.0000      0.0000  0.0000  0.0000  0.0000  0.0000  0.0000  0.0000  0.0000  0.0000  0.0000
  o =  0.9503  v =  0.0000  0.0000  0.0000  0.0000  0.0000  0.0000  0.0000 -0.0000 -0.0000  1.0000      0.0000  0.0000  0.0000  0.0000  0.0000  0.0000  0.0000  0.0000  0.0000  0.0000
  o =  0.9508  v =  0.0000  0.0000  0.0000  0.0000  0.0000  0.0000 -0.7071 -0.0000  0.7071  0.0000      0.0000  0.0000  0.0000  0.0000  0.0000  0.0000  0.0000  0.0000  0.0000  0.0000
  o =  0.9956  v =  0.0000  0.0000  0.0000  0.0000  0.0000  0.0000 -0.7071 -0.0000 -0.7071  0.0000      0.0000  0.0000  0.0000  0.0000  0.0000  0.0000  0.0000  0.0000  0.0000  0.0000
  o =  1.0025  v =  0.0000  0.0000  0.0000  0.0000  0.0000 -0.7962  0.0000 -0.6050  0.0000 -0.0000      0.0000  0.0000  0.0000  0.0000  0.0000  0.0000  0.0000  0.0000  0.0000  0.0000
atom =   2  type =  1  l = 2
 
 onsite density matrix
 
spin component  1
 
  0.9815  0.0000 -0.0276  0.0000  0.0000
  0.0000  0.9732  0.0000 -0.0224  0.0000
 -0.0276  0.0000  0.9661  0.0000 -0.0000
  0.0000 -0.0224  0.0000  0.9732  0.0000
  0.0000  0.0000 -0.0000  0.0000  0.9503
 
spin component  2
 
  0.0532  0.0000 -0.0314  0.0000 -0.0000
  0.0000  0.0411  0.0000 -0.0245  0.0000
 -0.0314  0.0000  0.0357  0.0000  0.0000
  0.0000 -0.0245  0.0000  0.0411  0.0000
 -0.0000  0.0000  0.0000  0.0000  0.0135
 
 occupancies and eigenvectors
 
  o =  0.0119  v =  0.0000  0.0000  0.0000  0.0000  0.0000 -0.6050  0.0000 -0.7962  0.0000 -0.0000      0.0000  0.0000  0.0000  0.0000  0.0000  0.0000  0.0000  0.0000  0.0000  0.0000
  o =  0.0135  v =  0.0000  0.0000  0.0000  0.0000  0.0000  0.0000  0.0000 -0.0000  0.0000  1.0000      0.0000  0.0000  0.0000  0.0000  0.0000  0.0000  0.0000  0.0000  0.0000  0.0000
  o =  0.0166  v =  0.0000  0.0000  0.0000  0.0000  0.0000  0.0000 -0.7071  0.0000 -0.7071  0.0000      0.0000  0.0000  0.0000  0.0000  0.0000  0.0000  0.0000  0.0000  0.0000  0.0000
  o =  0.0656  v =  0.0000  0.0000  0.0000  0.0000  0.0000  0.0000  0.7071  0.0000 -0.7071 -0.0000      0.0000  0.0000  0.0000  0.0000  0.0000  0.0000  0.0000  0.0000  0.0000  0.0000
  o =  0.0770  v =  0.0000  0.0000  0.0000  0.0000  0.0000 -0.7962  0.0000  0.6050  0.0000  0.0000      0.0000  0.0000  0.0000  0.0000  0.0000  0.0000  0.0000  0.0000  0.0000  0.0000
  o =  0.9451  v = -0.6050  0.0000 -0.7962  0.0000  0.0000  0.0000  0.0000  0.0000  0.0000  0.0000      0.0000  0.0000  0.0000  0.0000  0.0000  0.0000  0.0000  0.0000  0.0000  0.0000
  o =  0.9503  v =  0.0000 -0.0000  0.0000  0.0000  1.0000  0.0000  0.0000  0.0000  0.0000  0.0000      0.0000  0.0000  0.0000  0.0000  0.0000  0.0000  0.0000  0.0000  0.0000  0.0000
  o =  0.9508  v =  0.0000 -0.7071  0.0000 -0.7071 -0.0000  0.0000  0.0000  0.0000  0.0000  0.0000      0.0000  0.0000  0.0000  0.0000  0.0000  0.0000  0.0000  0.0000  0.0000  0.0000
  o =  0.9956  v =  0.0000  0.7071  0.0000 -0.7071  0.0000  0.0000  0.0000  0.0000  0.0000  0.0000      0.0000  0.0000  0.0000  0.0000  0.0000  0.0000  0.0000  0.0000  0.0000  0.0000
  o =  1.0025  v = -0.7962  0.0000  0.6050  0.0000 -0.0000  0.0000  0.0000  0.0000  0.0000  0.0000      0.0000  0.0000  0.0000  0.0000  0.0000  0.0000  0.0000  0.0000  0.0000  0.0000
     EDDAV:  cpu time    0.2000: real time    0.2000
 BZINTS: Fermi energy:  2.603026; 54.000000 electrons
         Band energy:-727.211258;  BLOECHL correction:  0.000000
       DOS:  cpu time    0.0017: real time    0.0017
    CHARGE:  cpu time    0.0161: real time    0.0161
    MIXING:  cpu time    0.0004: real time    0.0004
    --------------------------------------------
      LOOP:  cpu time    0.4419: real time    0.4419

 eigenvalue-minimisations  :  1368
 total energy-change (2. order) :-0.2852987E+00  (-0.7023321E-02)
 number of electron      54.0000000 magnetization      -0.0000000
 augmentation part       19.9720893 magnetization      -0.0000000

 Broyden mixing:
  rms(total) = 0.14612E+00    rms(broyden)= 0.14612E+00
  rms(prec ) = 0.15496E+00
  weight for this iteration     100.00

 eigenvalues of (default mixing * dielectric matrix)
  average eigenvalue GAMMA=   1.2093
  2.6088  0.8054  0.8054  0.6178

 Free energy of the ion-electron system (eV)
  ---------------------------------------------------
  alpha Z        PSCENC =       215.80080385
  Ewald energy   TEWEN  =     -4337.57968138
  -Hartree energ DENC   =     -2056.21723565
  -exchange      EXHF   =         0.00000000
  -V(xc)+E(xc)   XCENC  =       296.64823358
  PAW double counting   =      6578.28248877    -6698.60575204
  entropy T*S    EENTRO =         0.00000000
  eigenvalues    EBANDS =      -727.21125848
  atomic energy  EATOM  =      6688.73902225
  Solvation  Ediel_sol  =         0.00000000
  ---------------------------------------------------
  free energy    TOTEN  =       -40.14337909 eV

  energy without entropy =      -40.14337909  energy(sigma->0) =      -40.14337909


--------------------------------------------------------------------------------------------------------




--------------------------------------- Iteration      1(  10)  ---------------------------------------


    POTLOK:  cpu time    0.0027: real time    0.0027
    SETDIJ:  cpu time    0.2209: real time    0.2209
atom =   1  type =  1  l = 2
 
 onsite density matrix
 
spin component  1
 
  0.0619  0.0000  0.0338  0.0000 -0.0000
  0.0000  0.0495  0.0000  0.0260  0.0000
  0.0338  0.0000  0.0437  0.0000 -0.0000
  0.0000  0.0260  0.0000  0.0495  0.0000
 -0.0000  0.0000 -0.0000  0.0000  0.0199
 
spin component  2
 
  0.9729  0.0000  0.0249  0.0000  0.0000
  0.0000  0.9651  0.0000  0.0207  0.0000
  0.0249  0.0000  0.9584  0.0000  0.0000
  0.0000  0.0207  0.0000  0.9651  0.0000
  0.0000  0.0000  0.0000  0.0000  0.9445
 
 occupancies and eigenvectors
 
  o =  0.0178  v = -0.6080  0.0000  0.7939  0.0000  0.0000  0.0000  0.0000  0.0000  0.0000  0.0000      0.0000  0.0000  0.0000  0.0000  0.0000  0.0000  0.0000  0.0000  0.0000  0.0000
  o =  0.0199  v = -0.0000 -0.0000  0.0000  0.0000 -1.0000  0.0000  0.0000  0.0000  0.0000  0.0000      0.0000  0.0000  0.0000  0.0000  0.0000  0.0000  0.0000  0.0000  0.0000  0.0000
  o =  0.0234  v =  0.0000  0.7071  0.0000 -0.7071 -0.0000  0.0000  0.0000  0.0000  0.0000  0.0000      0.0000  0.0000  0.0000  0.0000  0.0000  0.0000  0.0000  0.0000  0.0000  0.0000
  o =  0.0755  v =  0.0000  0.7071  0.0000  0.7071 -0.0000  0.0000  0.0000  0.0000  0.0000  0.0000      0.0000  0.0000  0.0000  0.0000  0.0000  0.0000  0.0000  0.0000  0.0000  0.0000
  o =  0.0878  v = -0.7939  0.0000 -0.6080  0.0000  0.0000  0.0000  0.0000  0.0000  0.0000  0.0000      0.0000  0.0000  0.0000  0.0000  0.0000  0.0000  0.0000  0.0000  0.0000  0.0000
  o =  0.9397  v =  0.0000  0.0000  0.0000  0.0000  0.0000 -0.6004  0.0000  0.7997  0.0000 -0.0000      0.0000  0.0000  0.0000  0.0000  0.0000  0.0000  0.0000  0.0000  0.0000  0.0000
  o =  0.9444  v =  0.0000  0.0000  0.0000  0.0000  0.0000  0.0000  0.7071  0.0000 -0.7071  0.0000      0.0000  0.0000  0.0000  0.0000  0.0000  0.0000  0.0000  0.0000  0.0000  0.0000
  o =  0.9445  v =  0.0000  0.0000  0.0000  0.0000  0.0000 -0.0000 -0.0000  0.0000  0.0000  1.0000      0.0000  0.0000  0.0000  0.0000  0.0000  0.0000  0.0000  0.0000  0.0000  0.0000
  o =  0.9858  v =  0.0000  0.0000  0.0000  0.0000  0.0000  0.0000 -0.7071  0.0000 -0.7071 -0.0000      0.0000  0.0000  0.0000  0.0000  0.0000  0.0000  0.0000  0.0000  0.0000  0.0000
  o =  0.9916  v =  0.0000  0.0000  0.0000  0.0000  0.0000 -0.7997  0.0000 -0.6004  0.0000 -0.0000      0.0000  0.0000  0.0000  0.0000  0.0000  0.0000  0.0000  0.0000  0.0000  0.0000
atom =   2  type =  1  l = 2
 
 onsite density matrix
 
spin component  1
 
  0.9729  0.0000 -0.0249  0.0000  0.0000
  0.0000  0.9651  0.0000 -0.0207  0.0000
 -0.0249  0.0000  0.9584  0.0000 -0.0000
  0.0000 -0.0207  0.0000  0.9651  0.0000
  0.0000  0.0000 -0.0000  0.0000  0.9445
 
spin component  2
 
  0.0619  0.0000 -0.0338  0.0000  0.0000
  0.0000  0.0495  0.0000 -0.0260  0.0000
 -0.0338  0.0000  0.0437  0.0000  0.0000
  0.0000 -0.0260  0.0000  0.0495  0.0000
  0.0000  0.0000  0.0000  0.0000  0.0199
 
 occupancies and eigenvectors
 
  o =  0.0178  v =  0.0000  0.0000  0.0000  0.0000  0.0000 -0.6080 -0.0000 -0.7939  0.0000  0.0000      0.0000  0.0000  0.0000  0.0000  0.0000  0.0000  0.0000  0.0000  0.0000  0.0000
  o =  0.0199  v =  0.0000  0.0000  0.0000  0.0000  0.0000 -0.0000  0.0000 -0.0000  0.0000 -1.0000      0.0000  0.0000  0.0000  0.0000  0.0000  0.0000  0.0000  0.0000  0.0000  0.0000
  o =  0.0234  v =  0.0000  0.0000  0.0000  0.0000  0.0000  0.0000  0.7071  0.0000  0.7071 -0.0000      0.0000  0.0000  0.0000  0.0000  0.0000  0.0000  0.0000  0.0000  0.0000  0.0000
  o =  0.0755  v =  0.0000  0.0000  0.0000  0.0000  0.0000  0.0000 -0.7071  0.0000  0.7071  0.0000      0.0000  0.0000  0.0000  0.0000  0.0000  0.0000  0.0000  0.0000  0.0000  0.0000
  o =  0.0878  v =  0.0000  0.0000  0.0000  0.0000  0.0000 -0.7939 -0.0000  0.6080  0.0000  0.0000      0.0000  0.0000  0.0000  0.0000  0.0000  0.0000  0.0000  0.0000  0.0000  0.0000
  o =  0.9397  v = -0.6004  0.0000 -0.7997  0.0000  0.0000  0.0000  0.0000  0.0000  0.0000  0.0000      0.0000  0.0000  0.0000  0.0000  0.0000  0.0000  0.0000  0.0000  0.0000  0.0000
  o =  0.9444  v =  0.0000 -0.7071  0.0000 -0.7071 -0.0000  0.0000  0.0000  0.0000  0.0000  0.0000      0.0000  0.0000  0.0000  0.0000  0.0000  0.0000  0.0000  0.0000  0.0000  0.0000
  o =  0.9445  v =  0.0000 -0.0000  0.0000  0.0000  1.0000  0.0000  0.0000  0.0000  0.0000  0.0000      0.0000  0.0000  0.0000  0.0000  0.0000  0.0000  0.0000  0.0000  0.0000  0.0000
  o =  0.9858  v =  0.0000  0.7071  0.0000 -0.7071  0.0000  0.0000  0.0000  0.0000  0.0000  0.0000      0.0000  0.0000  0.0000  0.0000  0.0000  0.0000  0.0000  0.0000  0.0000  0.0000
  o =  0.9916  v = -0.7997  0.0000  0.6004  0.0000 -0.0000  0.0000  0.0000  0.0000  0.0000  0.0000      0.0000  0.0000  0.0000  0.0000  0.0000  0.0000  0.0000  0.0000  0.0000  0.0000
     EDDAV:  cpu time    0.2380: real time    0.2380
 BZINTS: Fermi energy:  2.592067; 54.000000 electrons
         Band energy:-726.606283;  BLOECHL correction:  0.000000
       DOS:  cpu time    0.0018: real time    0.0018
    CHARGE:  cpu time    0.0162: real time    0.0162
    MIXING:  cpu time    0.0005: real time    0.0005
    --------------------------------------------
      LOOP:  cpu time    0.4799: real time    0.4799

 eigenvalue-minimisations  :  1608
 total energy-change (2. order) :-0.3303417E-02  (-0.1675492E-02)
 number of electron      54.0000000 magnetization       0.0000000
 augmentation part       19.9717346 magnetization       0.0000000

 Broyden mixing:
  rms(total) = 0.21824E-01    rms(broyden)= 0.21807E-01
  rms(prec ) = 0.24190E-01
  weight for this iteration     100.00

 eigenvalues of (default mixing * dielectric matrix)
  average eigenvalue GAMMA=   1.1427
  2.5524  0.9179  0.9179  0.7257  0.5997

 Free energy of the ion-electron system (eV)
  ---------------------------------------------------
  alpha Z        PSCENC =       215.80080385
  Ewald energy   TEWEN  =     -4337.57968138
  -Hartree energ DENC   =     -2056.72996880
  -exchange      EXHF   =         0.00000000
  -V(xc)+E(xc)   XCENC  =       296.74619371
  PAW double counting   =      6563.15403819    -6683.67080733
  entropy T*S    EENTRO =         0.00000000
  eigenvalues    EBANDS =      -726.60628300
  atomic energy  EATOM  =      6688.73902225
  Solvation  Ediel_sol  =         0.00000000
  ---------------------------------------------------
  free energy    TOTEN  =       -40.14668251 eV

  energy without entropy =      -40.14668251  energy(sigma->0) =      -40.14668251


--------------------------------------------------------------------------------------------------------




--------------------------------------- Iteration      1(  11)  ---------------------------------------


    POTLOK:  cpu time    0.0027: real time    0.0027
    SETDIJ:  cpu time    0.2204: real time    0.2204
atom =   1  type =  1  l = 2
 
 onsite density matrix
 
spin component  1
 
  0.0604  0.0000  0.0337  0.0000 -0.0000
  0.0000  0.0479  0.0000  0.0260  0.0000
  0.0337  0.0000  0.0421  0.0000 -0.0000
  0.0000  0.0260  0.0000  0.0479  0.0000
 -0.0000  0.0000 -0.0000  0.0000  0.0184
 
spin component  2
 
  0.9751  0.0000  0.0248  0.0000  0.0000
  0.0000  0.9674  0.0000  0.0206  0.0000
  0.0248  0.0000  0.9607  0.0000 -0.0000
  0.0000  0.0206  0.0000  0.9674  0.0000
  0.0000  0.0000 -0.0000  0.0000  0.9468
 
 occupancies and eigenvectors
 
  o =  0.0163  v = -0.6074  0.0000  0.7944  0.0000  0.0000  0.0000  0.0000  0.0000  0.0000  0.0000      0.0000  0.0000  0.0000  0.0000  0.0000  0.0000  0.0000  0.0000  0.0000  0.0000
  o =  0.0184  v = -0.0000 -0.0000  0.0000  0.0000 -1.0000  0.0000  0.0000  0.0000  0.0000  0.0000      0.0000  0.0000  0.0000  0.0000  0.0000  0.0000  0.0000  0.0000  0.0000  0.0000
  o =  0.0219  v =  0.0000  0.7071  0.0000 -0.7071 -0.0000  0.0000  0.0000  0.0000  0.0000  0.0000      0.0000  0.0000  0.0000  0.0000  0.0000  0.0000  0.0000  0.0000  0.0000  0.0000
  o =  0.0739  v =  0.0000  0.7071  0.0000  0.7071 -0.0000  0.0000  0.0000  0.0000  0.0000  0.0000      0.0000  0.0000  0.0000  0.0000  0.0000  0.0000  0.0000  0.0000  0.0000  0.0000
  o =  0.0862  v = -0.7944  0.0000 -0.6074  0.0000  0.0000  0.0000  0.0000  0.0000  0.0000  0.0000      0.0000  0.0000  0.0000  0.0000  0.0000  0.0000  0.0000  0.0000  0.0000  0.0000
  o =  0.9420  v =  0.0000  0.0000  0.0000  0.0000  0.0000 -0.6005  0.0000  0.7996  0.0000  0.0000      0.0000  0.0000  0.0000  0.0000  0.0000  0.0000  0.0000  0.0000  0.0000  0.0000
  o =  0.9468  v =  0.0000  0.0000  0.0000  0.0000  0.0000  0.0000 -0.7071  0.0000  0.7071 -0.0000      0.0000  0.0000  0.0000  0.0000  0.0000  0.0000  0.0000  0.0000  0.0000  0.0000
  o =  0.9468  v =  0.0000  0.0000  0.0000  0.0000  0.0000  0.0000  0.0000  0.0000  0.0000 -1.0000      0.0000  0.0000  0.0000  0.0000  0.0000  0.0000  0.0000  0.0000  0.0000  0.0000
  o =  0.9880  v =  0.0000  0.0000  0.0000  0.0000  0.0000  0.0000 -0.7071  0.0000 -0.7071 -0.0000      0.0000  0.0000  0.0000  0.0000  0.0000  0.0000  0.0000  0.0000  0.0000  0.0000
  o =  0.9938  v =  0.0000  0.0000  0.0000  0.0000  0.0000 -0.7996  0.0000 -0.6005  0.0000 -0.0000      0.0000  0.0000  0.0000  0.0000  0.0000  0.0000  0.0000  0.0000  0.0000  0.0000
atom =   2  type =  1  l = 2
 
 onsite density matrix
 
spin component  1
 
  0.9751  0.0000 -0.0248  0.0000  0.0000
  0.0000  0.9674  0.0000 -0.0206  0.0000
 -0.0248  0.0000  0.9607  0.0000 -0.0000
  0.0000 -0.0206  0.0000  0.9674  0.0000
  0.0000  0.0000 -0.0000  0.0000  0.9468
 
spin component  2
 
  0.0604  0.0000 -0.0337  0.0000 -0.0000
  0.0000  0.0479  0.0000 -0.0260  0.0000
 -0.0337  0.0000  0.0421  0.0000 -0.0000
  0.0000 -0.0260  0.0000  0.0479  0.0000
 -0.0000  0.0000 -0.0000  0.0000  0.0184
 
 occupancies and eigenvectors
 
  o =  0.0163  v =  0.0000  0.0000  0.0000  0.0000  0.0000 -0.6074 -0.0000 -0.7944  0.0000 -0.0000      0.0000  0.0000  0.0000  0.0000  0.0000  0.0000  0.0000  0.0000  0.0000  0.0000
  o =  0.0184  v =  0.0000  0.0000  0.0000  0.0000  0.0000 -0.0000  0.0000 -0.0000  0.0000  1.0000      0.0000  0.0000  0.0000  0.0000  0.0000  0.0000  0.0000  0.0000  0.0000  0.0000
  o =  0.0219  v =  0.0000  0.0000  0.0000  0.0000  0.0000  0.0000 -0.7071  0.0000 -0.7071 -0.0000      0.0000  0.0000  0.0000  0.0000  0.0000  0.0000  0.0000  0.0000  0.0000  0.0000
  o =  0.0739  v =  0.0000  0.0000  0.0000  0.0000  0.0000  0.0000 -0.7071  0.0000  0.7071 -0.0000      0.0000  0.0000  0.0000  0.0000  0.0000  0.0000  0.0000  0.0000  0.0000  0.0000
  o =  0.0862  v =  0.0000  0.0000  0.0000  0.0000  0.0000 -0.7944 -0.0000  0.6074  0.0000 -0.0000      0.0000  0.0000  0.0000  0.0000  0.0000  0.0000  0.0000  0.0000  0.0000  0.0000
  o =  0.9420  v = -0.6005  0.0000 -0.7996  0.0000 -0.0000  0.0000  0.0000  0.0000  0.0000  0.0000      0.0000  0.0000  0.0000  0.0000  0.0000  0.0000  0.0000  0.0000  0.0000  0.0000
  o =  0.9468  v = -0.0000 -0.7071 -0.0000 -0.7071  0.0000  0.0000  0.0000  0.0000  0.0000  0.0000      0.0000  0.0000  0.0000  0.0000  0.0000  0.0000  0.0000  0.0000  0.0000  0.0000
[...]
      4     -40.5283      1.00000
      5     -40.5091      1.00000
      6     -40.4639      1.00000
      7     -20.2582      1.00000
      8     -20.0780      1.00000
      9     -20.0119      1.00000
     10     -19.8853      1.00000
     11      -4.0739      1.00000
     12      -3.7357      1.00000
     13      -3.3617      1.00000
     14      -3.2310      1.00000
     15      -3.1924      1.00000
     16      -2.8466      1.00000
     17      -2.3127      1.00000
     18      -2.1834      1.00000
     19      -2.0471      1.00000
     20      -1.5182      1.00000
     21      -1.4117      1.00000
     22      -1.3817      1.00000
     23       0.8280      1.00000
     24       1.0538      1.00000
     25       1.3888      1.00000
     26       2.0051      1.00000
     27       2.4649      1.00000
     28       7.9010      0.00000
     29       7.9100      0.00000
     30       7.9727      0.00000
     31       8.9313      0.00000
     32       9.2512      0.00000
     33       9.9561      0.00000
     34      12.1681      0.00000
     35      13.7100      0.00000
     36      13.7586      0.00000

 k-point     8 :       0.3750    0.1250    0.4167
  band No.  band energies     occupation 
      1     -45.0921      1.00000
      2     -45.0608      1.00000
      3     -45.0251      1.00000
      4     -40.5283      1.00000
      5     -40.5091      1.00000
      6     -40.4640      1.00000
      7     -20.1730      1.00000
      8     -20.0873      1.00000
      9     -20.0398      1.00000
     10     -19.9318      1.00000
     11      -3.9545      1.00000
     12      -3.8087      1.00000
     13      -3.7381      1.00000
     14      -3.3872      1.00000
     15      -3.0869      1.00000
     16      -2.6723      1.00000
     17      -2.4570      1.00000
     18      -2.2863      1.00000
     19      -1.8365      1.00000
     20      -1.4801      1.00000
     21      -1.2780      1.00000
     22      -1.1440      1.00000
     23       0.8387      1.00000
     24       0.9725      1.00000
     25       1.2695      1.00000
     26       1.9475      1.00000
     27       2.6791      1.00000
     28       7.8787      0.00000
     29       7.9072      0.00000
     30       8.1060      0.00000
     31       8.8573      0.00000
     32       9.4842      0.00000
     33      10.5431      0.00000
     34      11.8814      0.00000
     35      12.6480      0.00000
     36      13.6724      0.00000

 k-point     9 :       0.3750    0.3750    0.4167
  band No.  band energies     occupation 
      1     -45.0920      1.00000
      2     -45.0609      1.00000
      3     -45.0251      1.00000
      4     -40.5283      1.00000
      5     -40.5092      1.00000
      6     -40.4640      1.00000
      7     -20.1367      1.00000
      8     -20.1303      1.00000
      9     -20.0387      1.00000
     10     -19.9175      1.00000
     11      -4.2552      1.00000
     12      -3.9867      1.00000
     13      -3.7146      1.00000
     14      -3.6870      1.00000
     15      -3.1258      1.00000
     16      -2.6006      1.00000
     17      -2.3331      1.00000
     18      -2.0147      1.00000
     19      -1.5912      1.00000
     20      -1.2905      1.00000
     21      -1.1716      1.00000
     22      -1.0594      1.00000
     23       0.8417      1.00000
     24       0.9618      1.00000
     25       1.2307      1.00000
     26       2.0008      1.00000
     27       2.6288      1.00000
     28       7.8971      0.00000
     29       7.9048      0.00000
     30       8.1437      0.00000
     31       8.8184      0.00000
     32       9.3602      0.00000
     33      11.1131      0.00000
     34      12.3586      0.00000
     35      12.6764      0.00000
     36      12.7111      0.00000


--------------------------------------------------------------------------------------------------------


 soft charge-density along one line, spin component           1
         0         1         2         3         4         5         6         7         8         9
 total charge-density along one line
 
 soft charge-density along one line, spin component           2
         0         1         2         3         4         5         6         7         8         9
 total charge-density along one line
 
 pseudopotential strength for first ion, spin component:           1
-41.288  -0.000  -0.042   7.624   0.000   0.017   0.000  -0.000
 -0.000 -41.262  -0.000   0.000   7.614   0.000   0.000  -0.000
 -0.042  -0.000 -41.288   0.017   0.000   7.624  -0.000   0.000
  7.624   0.000   0.017   5.429  -0.000  -0.006  -0.000   0.000
  0.000   7.614   0.000  -0.000   5.433  -0.000  -0.000  -0.000
  0.017   0.000   7.624  -0.006  -0.000   5.429  -0.000  -0.000
  0.000   0.000  -0.000  -0.000  -0.000  -0.000  -0.905  -0.000
 -0.000  -0.000   0.000   0.000  -0.000  -0.000  -0.000  -0.847
  0.000  -0.000   0.000   0.000   0.000   0.000  -0.088   0.000
  0.000   0.000  -0.000  -0.000   0.000   0.000  -0.000  -0.102
  0.000   0.000  -0.000   0.000  -0.000   0.000   0.000   0.000
  0.000   0.000  -0.000  -0.000  -0.000  -0.000  -1.357   0.000
 -0.000  -0.000   0.000   0.000  -0.000  -0.000   0.000  -1.298
  0.000  -0.000   0.000   0.000   0.000   0.000  -0.092   0.000
  0.000   0.000  -0.000  -0.000   0.000   0.000   0.000  -0.104
  0.000   0.000  -0.000   0.000  -0.000   0.000   0.000   0.000
 -0.000   0.000  -0.000  -0.000   0.000  -0.000   0.008   0.000
 -0.000   0.000  -0.000  -0.000   0.000  -0.000   0.016   0.000
 pseudopotential strength for first ion, spin component:           2
-44.346  -0.000  -0.031   9.105   0.000   0.011   0.000  -0.000
 -0.000 -44.327  -0.000   0.000   9.099   0.000   0.000  -0.000
 -0.031  -0.000 -44.346   0.011   0.000   9.105  -0.000   0.000
  9.105   0.000   0.011   4.936  -0.000  -0.004   0.000   0.000
  0.000   9.099   0.000  -0.000   4.938  -0.000  -0.000  -0.000
  0.011   0.000   9.105  -0.004  -0.000   4.936  -0.000  -0.000
  0.000   0.000  -0.000   0.000  -0.000  -0.000  -6.878   0.000
 -0.000  -0.000   0.000   0.000  -0.000  -0.000   0.000  -6.841
  0.000  -0.000   0.000   0.000   0.000   0.000  -0.063   0.000
  0.000   0.000  -0.000  -0.000   0.000   0.000   0.000  -0.085
  0.000   0.000  -0.000   0.000  -0.000  -0.000   0.000   0.000
  0.000   0.000  -0.000   0.000  -0.000  -0.000  -7.380   0.000
 -0.000  -0.000   0.000   0.000  -0.000  -0.000   0.000  -7.342
  0.000  -0.000   0.000   0.000   0.000   0.000  -0.066   0.000
  0.000   0.000  -0.000  -0.000   0.000   0.000   0.000  -0.087
  0.000   0.000  -0.000   0.000  -0.000  -0.000   0.000   0.000
 -0.000   0.000  -0.000  -0.000   0.000  -0.000   0.005   0.000
 -0.000   0.000  -0.000  -0.000   0.000  -0.000   0.009   0.000
 total augmentation occupancy for first ion, spin component:           1
  1.999   0.000  -0.000  -0.010   0.000   0.000   0.000   0.000   0.000   0.000   0.000   0.000   0.000   0.000   0.000   0.000
  0.000   1.999   0.000   0.000  -0.009   0.000   0.000   0.000   0.000   0.000   0.000   0.000   0.000   0.000   0.000   0.000
 -0.000   0.000   1.999   0.000   0.000  -0.010   0.000   0.000   0.000   0.000   0.000   0.000   0.000   0.000   0.000   0.000
 -0.010   0.000   0.000   0.111   0.000  -0.015   0.000   0.000   0.000   0.000   0.000   0.000   0.000   0.000   0.000   0.000
  0.000  -0.009   0.000   0.000   0.121   0.000   0.000   0.000   0.000   0.000   0.000   0.000   0.000   0.000   0.000   0.000
  0.000   0.000  -0.010  -0.015   0.000   0.111   0.000   0.000   0.000   0.000   0.000   0.000   0.000   0.000   0.000   0.000
  0.000   0.000   0.000   0.000   0.000   0.000   9.581   0.000   4.258   0.000   0.000  -7.675   0.000  -4.054   0.000  -0.000
  0.000   0.000   0.000   0.000   0.000   0.000   0.000   7.628   0.000   3.368   0.000   0.000  -5.795   0.000  -3.185   0.000
  0.000   0.000   0.000   0.000   0.000   0.000   4.258   0.000   7.029   0.000   0.000  -4.055   0.000  -5.259   0.000  -0.000
  0.000   0.000   0.000   0.000   0.000   0.000   0.000   3.368   0.000   7.628   0.000   0.000  -3.185   0.000  -5.795   0.000
  0.000   0.000   0.000   0.000   0.000   0.000   0.000   0.000   0.000   0.000   4.106  -0.000   0.000  -0.000   0.000  -2.431
  0.000   0.000   0.000   0.000   0.000   0.000  -7.675   0.000  -4.055   0.000  -0.000   6.945   0.000   3.901   0.000   0.000
  0.000   0.000   0.000   0.000   0.000   0.000   0.000  -5.795   0.000  -3.185   0.000   0.000   5.123   0.000   3.043   0.000
  0.000   0.000   0.000   0.000   0.000   0.000  -4.054   0.000  -5.259   0.000  -0.000   3.901   0.000   4.636   0.000   0.000
  0.000   0.000   0.000   0.000   0.000   0.000   0.000  -3.185   0.000  -5.795   0.000   0.000   3.043   0.000   5.123   0.000
  0.000   0.000   0.000   0.000   0.000   0.000  -0.000   0.000  -0.000   0.000  -2.431   0.000   0.000   0.000   0.000   1.876
  0.000   0.000   0.000   0.000   0.000   0.000   0.420   0.000  -0.215   0.000   0.000  -0.458   0.000   0.222   0.000   0.000
  0.000   0.000   0.000   0.000   0.000   0.000  -0.021   0.000   0.032   0.000   0.000   0.055   0.000  -0.041   0.000  -0.000
 total augmentation occupancy for first ion, spin component:           2
  0.004   0.000  -0.000   0.017   0.000  -0.000   0.000   0.000   0.000   0.000   0.000   0.000   0.000   0.000   0.000   0.000
  0.000   0.004   0.000   0.000   0.017   0.000   0.000   0.000   0.000   0.000   0.000   0.000   0.000   0.000   0.000   0.000
 -0.000   0.000   0.004  -0.000   0.000   0.017   0.000   0.000   0.000   0.000   0.000   0.000   0.000   0.000   0.000   0.000
  0.017   0.000  -0.000  -0.010   0.000  -0.000   0.000   0.000   0.000   0.000   0.000   0.000   0.000   0.000   0.000   0.000
  0.000   0.017   0.000   0.000  -0.009   0.000   0.000   0.000   0.000   0.000   0.000   0.000   0.000   0.000   0.000   0.000
 -0.000   0.000   0.017  -0.000   0.000  -0.010   0.000   0.000   0.000   0.000   0.000   0.000   0.000   0.000   0.000   0.000
  0.000   0.000   0.000   0.000   0.000   0.000  -6.126   0.000  -2.295   0.000  -0.000   3.732   0.000   1.822   0.000   0.000
  0.000   0.000   0.000   0.000   0.000   0.000   0.000  -5.088   0.000  -1.859   0.000   0.000   2.875   0.000   1.471   0.000
  0.000   0.000   0.000   0.000   0.000   0.000  -2.295   0.000  -4.669   0.000  -0.000   1.822   0.000   2.561   0.000   0.000
  0.000   0.000   0.000   0.000   0.000   0.000   0.000  -1.859   0.000  -5.088   0.000   0.000   1.471   0.000   2.875   0.000
  0.000   0.000   0.000   0.000   0.000   0.000  -0.000   0.000  -0.000   0.000  -3.234   0.000   0.000   0.000   0.000   1.408
  0.000   0.000   0.000   0.000   0.000   0.000   3.732   0.000   1.822   0.000   0.000  -2.434   0.000  -1.357   0.000  -0.000
  0.000   0.000   0.000   0.000   0.000   0.000   0.000   2.875   0.000   1.471   0.000   0.000  -1.759   0.000  -1.092   0.000
  0.000   0.000   0.000   0.000   0.000   0.000   1.822   0.000   2.561   0.000   0.000  -1.357   0.000  -1.544   0.000  -0.000
  0.000   0.000   0.000   0.000   0.000   0.000   0.000   1.471   0.000   2.875   0.000   0.000  -1.092   0.000  -1.759   0.000
  0.000   0.000   0.000   0.000   0.000   0.000   0.000   0.000   0.000   0.000   1.408  -0.000   0.000  -0.000   0.000  -0.674
  0.000   0.000   0.000   0.000   0.000   0.000  -0.009   0.000   0.016   0.000  -0.000  -0.008   0.000   0.002   0.000   0.000
  0.000   0.000   0.000   0.000   0.000   0.000  -0.063   0.000   0.006   0.000  -0.000   0.039   0.000  -0.000   0.000   0.000


------------------------ aborting loop because EDIFF is reached ----------------------------------------


 


 total charge     
 
# of ion       s       p       d       tot
------------------------------------------
    1        0.194   6.201   5.022  11.418
    2        0.200   6.195   5.030  11.424
    3        1.758   4.397   0.000   6.155
    4        1.758   4.397   0.000   6.155
    5        1.758   4.393   0.000   6.151
    6        1.758   4.393   0.000   6.151
--------------------------------------------------
tot          7.426  29.975  10.052  47.454
 


 magnetization (x)
 
# of ion       s       p       d       tot
------------------------------------------
    1       -0.014  -0.016  -4.580  -4.609
    2        0.015   0.014   4.576   4.605
    3        0.002   0.022   0.000   0.024
    4        0.002   0.022   0.000   0.024
    5       -0.003  -0.018   0.000  -0.021
    6       -0.003  -0.018   0.000  -0.021
--------------------------------------------------
tot         -0.001   0.007  -0.003   0.002
 
    CHARGE:  cpu time    0.0165: real time    0.0165
    FORLOC:  cpu time    0.0005: real time    0.0004
    FORNL :  cpu time    0.0801: real time    0.0801
    STRESS:  cpu time    0.2255: real time    0.2255
    FORCOR:  cpu time    0.0024: real time    0.0024
    FORHAR:  cpu time    0.0012: real time    0.0012
    MIXING:  cpu time    0.0003: real time    0.0003
    OFIELD:  cpu time    0.0000: real time    0.0000

  FORCE on cell =-STRESS in cart. coord.  units (eV):
  Direction    XX          YY          ZZ          XY          YZ          ZX
  --------------------------------------------------------------------------------------
  Alpha Z   219.34825   219.34825   219.34825
  Ewald   -1639.08507 -1639.08507 -1085.02095    -0.00000     0.00000     0.00000
  Hartree   558.20234   558.20234   925.90132    -0.00000    -0.00000    -0.00000
  E(xc)    -310.33070  -310.33070  -310.37507     0.00000     0.00000     0.00000
  Local     218.51377   218.51377  -695.94843    -0.00000     0.00000    -0.00000
  n-local  -239.19492  -239.50102  -238.39596     0.03297     0.11117     0.11274
  augment   266.68329   266.68329   266.09477     0.00000    -0.00000    -0.00000
  Kinetic   925.63296   926.35888   918.37736    -0.56543    -1.02337    -1.08384
  Fock        0.00000     0.00000     0.00000     0.00000     0.00000     0.00000
  -------------------------------------------------------------------------------------
  Total      -0.02015    -0.02015    -0.01871     0.00000     0.00000     0.00000
  in kB      -0.46484    -0.46484    -0.43156     0.00000     0.00000     0.00000
  external pressure =       -0.45 kB  Pullay stress =        0.00 kB


 VOLUME and BASIS-vectors are now :
 -----------------------------------------------------------------------------
  energy-cutoff  :      400.00
  volume of cell :       69.46
      direct lattice vectors                 reciprocal lattice vectors
     4.658811867 -0.000000000  0.000000000     0.214647002 -0.000000000  0.000000000
     0.000000000  4.658811867  0.000000000     0.000000000  0.214647002  0.000000000
     0.000000000  0.000000000  3.200233522     0.000000000  0.000000000  0.312477197

  length of vectors
     4.658811867  4.658811867  3.200233522     0.214647002  0.214647002  0.312477197


 FORCES acting on ions
    electron-ion (+dipol)            ewald-force                    non-local-force                 convergence-correction
 -----------------------------------------------------------------------------------------------
   0.368E-11 -.125E-11 -.195E-11   0.284E-13 0.000E+00 -.914E-14   0.648E-26 0.000E+00 0.000E+00   -.142E-12 0.101E-13 -.591E-13
   -.616E-13 -.231E-13 -.817E-12   -.284E-13 0.000E+00 -.112E-13   -.649E-26 0.000E+00 0.000E+00   0.116E-12 0.854E-14 0.553E-13
   -.304E+02 0.304E+02 0.187E-11   0.312E+02 -.312E+02 0.552E-14   -.778E+00 0.778E+00 0.000E+00   -.121E-03 0.121E-03 0.128E-13
   0.304E+02 -.304E+02 -.853E-12   -.312E+02 0.312E+02 0.519E-14   0.778E+00 -.778E+00 0.000E+00   0.121E-03 -.121E-03 0.288E-14
   0.304E+02 0.304E+02 0.757E-08   -.312E+02 -.312E+02 0.351E-14   0.778E+00 0.778E+00 0.542E-19   0.121E-03 0.121E-03 -.376E-11
   -.304E+02 -.304E+02 -.758E-08   0.312E+02 0.312E+02 0.288E-14   -.778E+00 -.778E+00 -.542E-19   -.121E-03 -.121E-03 0.395E-11
 -----------------------------------------------------------------------------------------------
   0.743E-11 0.110E-10 -.113E-10   0.000E+00 0.355E-14 -.321E-14   -.111E-15 0.222E-15 0.000E+00   0.389E-13 -.256E-12 0.199E-12
 
 
 POSITION                                       TOTAL-FORCE (eV/Angst)
 -----------------------------------------------------------------------------------
      2.32941      2.32941      1.60012        -0.000000     -0.000000     -0.000000
     -0.00000      0.00000      0.00000        -0.000000     -0.000000     -0.000000
      0.91393      3.74488      1.60012        -0.000538      0.000538     -0.000000
      3.74488      0.91393      1.60012         0.000538     -0.000538     -0.000000
      1.41548      1.41548     -0.00000         0.000538      0.000538     -0.000000
      3.24334      3.24334      0.00000        -0.000538     -0.000538      0.000000
 -----------------------------------------------------------------------------------
    total drift:                                0.000000      0.000000     -0.000000


--------------------------------------------------------------------------------------------------------



  FREE ENERGIE OF THE ION-ELECTRON SYSTEM (eV)
  ---------------------------------------------------
  free  energy   TOTEN  =       -40.15895175 eV

  energy  without entropy=      -40.15895175  energy(sigma->0) =      -40.15895175
 
 d Force = 0.2563764E-04[ 0.331E-05, 0.480E-04]  d Energy = 0.2809719E-04-0.246E-05
 d Force =-0.1912253E+00[-0.192E+00,-0.191E+00]  d Ewald  =-0.1618324E+00-0.294E-01


--------------------------------------------------------------------------------------------------------


    POTLOK:  cpu time    0.2241: real time    0.2241


--------------------------------------------------------------------------------------------------------




--------------------------------------------------------------------------------------------------------


  
 reached required accuracy - stopping structural energy minimisation
     LOOP+:  cpu time    3.4499: real time    3.4499
    4ORBIT:  cpu time    0.0000: real time    0.0000
 


 total charge     
 
# of ion       s       p       d       tot
------------------------------------------
    1        0.194   6.201   5.022  11.418
    2        0.200   6.195   5.030  11.424
    3        1.758   4.397   0.000   6.155
    4        1.758   4.397   0.000   6.155
    5        1.758   4.393   0.000   6.151
    6        1.758   4.393   0.000   6.151
--------------------------------------------------
tot          7.426  29.975  10.052  47.454
 


 magnetization (x)
 
# of ion       s       p       d       tot
------------------------------------------
    1       -0.014  -0.016  -4.580  -4.609
    2        0.015   0.014   4.576   4.605
    3        0.002   0.022   0.000   0.024
    4        0.002   0.022   0.000   0.024
    5       -0.003  -0.018   0.000  -0.021
    6       -0.003  -0.018   0.000  -0.021
--------------------------------------------------
tot         -0.001   0.007  -0.003   0.002
 
 BZINTS: Fermi energy:  2.883853; 54.000000 electrons
         Band energy:-719.106146;  BLOECHL correction:  0.000000

 total amount of memory used by VASP MPI-rank0    37087. kBytes
=======================================================================

   base      :      30000. kBytes
   nonl-proj :       3483. kBytes
   fftplans  :        966. kBytes
   grid      :       1271. kBytes
   one-center:        186. kBytes
   wavefun   :       1181. kBytes
 
  
  
 General timing and accounting informations for this job:
 ========================================================
  
                  Total CPU time used (sec):       35.680
                            User time (sec):       26.167
                          System time (sec):        9.513
                         Elapsed time (sec):       35.748
  
                   Maximum memory used (kb):       51352.
                   Average memory used (kb):           0.
  
                          Minor page faults:         7226
                          Major page faults:            8
                 Voluntary context switches:          314
