 vasp.5.4.4.18Apr17-6-g9f103f2a35 (build Apr 27 2017 11:13:10) complex          
  
 executed on           IFC91_ompi date 2021.06.08  16:33:41
 running on   12 total cores
 distrk:  each k-point on   12 cores,    1 groups
 distr:  one band on NCORES_PER_BAND=   1 cores,   12 groups


--------------------------------------------------------------------------------------------------------


 INCAR:
 POTCAR:    PAW_PBE Mn_pv 02Aug2007               
 POTCAR:    PAW_PBE F 08Apr2002                   

 ----------------------------------------------------------------------------- 
|                                                                             |
|           W    W    AA    RRRRR   N    N  II  N    N   GGGG   !!!           |
|           W    W   A  A   R    R  NN   N  II  NN   N  G    G  !!!           |
|           W    W  A    A  R    R  N N  N  II  N N  N  G       !!!           |
|           W WW W  AAAAAA  RRRRR   N  N N  II  N  N N  G  GGG   !            |
|           WW  WW  A    A  R   R   N   NN  II  N   NN  G    G                |
|           W    W  A    A  R    R  N    N  II  N    N   GGGG   !!!           |
|                                                                             |
|      For optimal performance we recommend to set                            |
|        NCORE= 4 - approx SQRT( number of cores)                             |
|      NCORE specifies how many cores store one orbital (NPAR=cpu/NCORE).     |
|      This setting can  greatly improve the performance of VASP for DFT.     |
|      The default,   NCORE=1            might be grossly inefficient         |
|      on modern multi-core architectures or massively parallel machines.     |
|      Do your own testing !!!!                                               |
|      Unfortunately you need to use the default for GW and RPA calculations. |
|      (for HF NCORE is supported but not extensively tested yet)             |
|                                                                             |
 ----------------------------------------------------------------------------- 

 POTCAR:    PAW_PBE Mn_pv 02Aug2007               
   VRHFIN =Mn: 3p4s3d                                                           
   LEXCH  = PE                                                                  
   EATOM  =  2025.2664 eV,  148.8529 Ry                                         
                                                                                
   TITEL  = PAW_PBE Mn_pv 02Aug2007                                             
   LULTRA =        F    use ultrasoft PP ?                                      
   IUNSCR =        1    unscreen: 0-lin 1-nonlin 2-no                           
   RPACOR =    2.080    partial core radius                                     
   POMASS =   54.938; ZVAL   =   13.000    mass and valenz                      
   RCORE  =    2.300    outmost cutoff radius                                   
   RWIGS  =    2.500; RWIGS  =    1.323    wigner-seitz radius (au A)           
   ENMAX  =  269.864; ENMIN  =  202.398 eV                                      
   ICORE  =        3    local potential                                         
   LCOR   =        T    correct aug charges                                     
   LPAW   =        T    paw PP                                                  
   EAUG   =  569.085                                                            
   DEXC   =    0.000                                                            
   RMAX   =    2.343    core radius for proj-oper                               
   RAUG   =    1.300    factor for augmentation sphere                          
   RDEP   =    2.338    radius for radial grids                                 
   RDEPT  =    1.798    core radius for aug-charge                              
                                                                                
   Atomic configuration                                                         
    8 entries                                                                   
     n  l   j            E        occ.                                          
     1  0  0.50     -6424.8287   2.0000                                         
     2  0  0.50      -739.1154   2.0000                                         
     2  1  1.50      -625.3949   6.0000                                         
     3  0  0.50       -81.6100   2.0000                                         
     3  1  1.50       -50.4667   6.0000                                         
     3  2  2.50        -3.3745   6.0000                                         
     4  0  0.50        -4.1331   1.0000                                         
     4  3  2.50        -1.3606   0.0000                                         
   Description                                                                  
     l       E           TYP  RCUT    TYP  RCUT                                 
     1    -50.4666628     23  2.000                                             
     1     -1.3605826     23  2.000                                             
     2     -3.3744729     23  2.300                                             
     2     -4.7350555     23  2.300                                             
     0     -4.1331431     23  2.300                                             
     0      7.6656591     23  2.300                                             
     3      9.5240782     23  2.300                                             
  local pseudopotential read in
  partial core-charges read in
  partial kinetic energy density read in
  atomic valenz-charges read in
  non local Contribution for L=           1  read in
    real space projection operators read in
  non local Contribution for L=           1  read in
    real space projection operators read in
  non local Contribution for L=           2  read in
    real space projection operators read in
  non local Contribution for L=           2  read in
    real space projection operators read in
  non local Contribution for L=           0  read in
    real space projection operators read in
  non local Contribution for L=           0  read in
    real space projection operators read in
    PAW grid and wavefunctions read in
 
   number of l-projection  operators is LMAX  =           6
   number of lm-projection operators is LMMAX =          18
 
 POTCAR:    PAW_PBE F 08Apr2002                   
   VRHFIN =F: s2p5                                                              
   LEXCH  = PE                                                                  
   EATOM  =   659.6475 eV,   48.4827 Ry                                         
                                                                                
   TITEL  = PAW_PBE F 08Apr2002                                                 
   LULTRA =        F    use ultrasoft PP ?                                      
   IUNSCR =        1    unscreen: 0-lin 1-nonlin 2-no                           
   RPACOR =    1.200    partial core radius                                     
   POMASS =   18.998; ZVAL   =    7.000    mass and valenz                      
   RCORE  =    1.520    outmost cutoff radius                                   
   RWIGS  =    1.500; RWIGS  =    0.794    wigner-seitz radius (au A)           
   ENMAX  =  400.000; ENMIN  =  300.000 eV                                      
   ICORE  =        2    local potential                                         
   LCOR   =        T    correct aug charges                                     
   LPAW   =        T    paw PP                                                  
   EAUG   =  613.614                                                            
   RMAX   =    1.555    core radius for proj-oper                               
   RAUG   =    1.300    factor for augmentation sphere                          
   RDEP   =    1.539    radius for radial grids                                 
   RDEPT  =    1.299    core radius for aug-charge                              
                                                                                
   Atomic configuration                                                         
    4 entries                                                                   
     n  l   j            E        occ.                                          
     1  0  0.50      -663.3661   2.0000                                         
     2  0  0.50       -29.8995   2.0000                                         
     2  1  0.50       -11.1114   5.0000                                         
     3  2  1.50       -10.8847   0.0000                                         
   Description                                                                  
     l       E           TYP  RCUT    TYP  RCUT                                 
     0    -29.8995018     23  1.200                                             
     0     -9.5240782     23  1.200                                             
     1    -11.1113914     23  1.520                                             
     1      1.3605826     23  1.520                                             
     2    -10.8846608      7  1.500                                             
  local pseudopotential read in
  partial core-charges read in
  partial kinetic energy density read in
  atomic valenz-charges read in
  non local Contribution for L=           0  read in
    real space projection operators read in
  non local Contribution for L=           0  read in
    real space projection operators read in
  non local Contribution for L=           1  read in
    real space projection operators read in
  non local Contribution for L=           1  read in
    real space projection operators read in
    PAW grid and wavefunctions read in
 
   number of l-projection  operators is LMAX  =           4
   number of lm-projection operators is LMMAX =           8
 

 ----------------------------------------------------------------------------- 
|                                                                             |
|  ADVICE TO THIS USER RUNNING 'VASP/VAMP'   (HEAR YOUR MASTER'S VOICE ...):  |
|                                                                             |
|      You enforced a specific xc-type in the INCAR file,                     |
|      a different type was found on the POTCAR file                          |
|          I HOPE YOU KNOW, WHAT YOU ARE  DOING                               |
|                                                                             |
 ----------------------------------------------------------------------------- 

  PAW_PBE Mn_pv 02Aug2007               :
 energy of atom  1       EATOM=-2025.2664
 kinetic energy error for atom=    0.0047 (will be added to EATOM!!)
  PAW_PBE F 08Apr2002                   :
 energy of atom  2       EATOM= -659.6475
 kinetic energy error for atom=    0.0256 (will be added to EATOM!!)
 
 
 POSCAR: Mn  F                                   
  positions in cartesian coordinates
  No initial velocities read in
 exchange correlation table for  LEXCH =       14
   RHO(1)=    0.500       N(1)  =     2000
   RHO(2)=  100.500       N(2)  =     4000
 


--------------------------------------------------------------------------------------------------------


 ion  position               nearest neighbor table
   1  0.500  0.500  0.500-   3 2.10   4 2.10   5 2.13   6 2.13   5 2.13   6 2.13
   2  0.000  0.000  0.000-   5 2.10   6 2.10   3 2.13   4 2.13   3 2.13   4 2.13
   3  0.195  0.805  0.500-   1 2.10   2 2.13   2 2.13
   4  0.805  0.195  0.500-   1 2.10   2 2.13   2 2.13
   5  0.305  0.305  0.000-   2 2.10   1 2.13   1 2.13
   6  0.695  0.695  0.000-   2 2.10   1 2.13   1 2.13
 

IMPORTANT INFORMATION: All symmetrisations will be switched off!
NOSYMM: (Re-)initialisation of all symmetry stuff for point group C_1.

 
 
 KPOINTS: KPOINTS created by Atomic Simulation Env

Automatic generation of k-mesh.
Space group operators:
 irot       det(A)        alpha          n_x          n_y          n_z        tau_x        tau_y        tau_z
    1     1.000000     0.000001     1.000000     0.000000     0.000000     0.000000     0.000000     0.000000
 
 Subroutine IBZKPT returns following result:
 ===========================================
 
 Found     48 irreducible k-points:
 
 Following reciprocal coordinates:
            Coordinates               Weight
  0.125000  0.125000  0.083333      2.000000
  0.375000  0.125000  0.083333      2.000000
 -0.375000  0.125000  0.083333      2.000000
 -0.125000  0.125000  0.083333      2.000000
  0.125000  0.375000  0.083333      2.000000
  0.375000  0.375000  0.083333      2.000000
 -0.375000  0.375000  0.083333      2.000000
 -0.125000  0.375000  0.083333      2.000000
  0.125000 -0.375000  0.083333      2.000000
  0.375000 -0.375000  0.083333      2.000000
 -0.375000 -0.375000  0.083333      2.000000
 -0.125000 -0.375000  0.083333      2.000000
  0.125000 -0.125000  0.083333      2.000000
  0.375000 -0.125000  0.083333      2.000000
 -0.375000 -0.125000  0.083333      2.000000
 -0.125000 -0.125000  0.083333      2.000000
  0.125000  0.125000  0.250000      2.000000
  0.375000  0.125000  0.250000      2.000000
 -0.375000  0.125000  0.250000      2.000000
 -0.125000  0.125000  0.250000      2.000000
  0.125000  0.375000  0.250000      2.000000
  0.375000  0.375000  0.250000      2.000000
 -0.375000  0.375000  0.250000      2.000000
 -0.125000  0.375000  0.250000      2.000000
  0.125000 -0.375000  0.250000      2.000000
  0.375000 -0.375000  0.250000      2.000000
 -0.375000 -0.375000  0.250000      2.000000
 -0.125000 -0.375000  0.250000      2.000000
  0.125000 -0.125000  0.250000      2.000000
  0.375000 -0.125000  0.250000      2.000000
 -0.375000 -0.125000  0.250000      2.000000
 -0.125000 -0.125000  0.250000      2.000000
  0.125000  0.125000  0.416667      2.000000
  0.375000  0.125000  0.416667      2.000000
 -0.375000  0.125000  0.416667      2.000000
 -0.125000  0.125000  0.416667      2.000000
  0.125000  0.375000  0.416667      2.000000
  0.375000  0.375000  0.416667      2.000000
 -0.375000  0.375000  0.416667      2.000000
 -0.125000  0.375000  0.416667      2.000000
  0.125000 -0.375000  0.416667      2.000000
  0.375000 -0.375000  0.416667      2.000000
 -0.375000 -0.375000  0.416667      2.000000
 -0.125000 -0.375000  0.416667      2.000000
  0.125000 -0.125000  0.416667      2.000000
  0.375000 -0.125000  0.416667      2.000000
 -0.375000 -0.125000  0.416667      2.000000
 -0.125000 -0.125000  0.416667      2.000000
 
 Following cartesian coordinates:
            Coordinates               Weight
  0.025598  0.025598  0.025246      2.000000
  0.076795  0.025598  0.025246      2.000000
 -0.076795  0.025598  0.025246      2.000000
 -0.025598  0.025598  0.025246      2.000000
  0.025598  0.076795  0.025246      2.000000
  0.076795  0.076795  0.025246      2.000000
 -0.076795  0.076795  0.025246      2.000000
 -0.025598  0.076795  0.025246      2.000000
  0.025598 -0.076795  0.025246      2.000000
  0.076795 -0.076795  0.025246      2.000000
 -0.076795 -0.076795  0.025246      2.000000
 -0.025598 -0.076795  0.025246      2.000000
  0.025598 -0.025598  0.025246      2.000000
  0.076795 -0.025598  0.025246      2.000000
 -0.076795 -0.025598  0.025246      2.000000
 -0.025598 -0.025598  0.025246      2.000000
  0.025598  0.025598  0.075739      2.000000
  0.076795  0.025598  0.075739      2.000000
 -0.076795  0.025598  0.075739      2.000000
 -0.025598  0.025598  0.075739      2.000000
  0.025598  0.076795  0.075739      2.000000
  0.076795  0.076795  0.075739      2.000000
 -0.076795  0.076795  0.075739      2.000000
 -0.025598  0.076795  0.075739      2.000000
  0.025598 -0.076795  0.075739      2.000000
  0.076795 -0.076795  0.075739      2.000000
 -0.076795 -0.076795  0.075739      2.000000
 -0.025598 -0.076795  0.075739      2.000000
  0.025598 -0.025598  0.075739      2.000000
  0.076795 -0.025598  0.075739      2.000000
 -0.076795 -0.025598  0.075739      2.000000
 -0.025598 -0.025598  0.075739      2.000000
  0.025598  0.025598  0.126232      2.000000
  0.076795  0.025598  0.126232      2.000000
 -0.076795  0.025598  0.126232      2.000000
 -0.025598  0.025598  0.126232      2.000000
  0.025598  0.076795  0.126232      2.000000
  0.076795  0.076795  0.126232      2.000000
 -0.076795  0.076795  0.126232      2.000000
 -0.025598  0.076795  0.126232      2.000000
  0.025598 -0.076795  0.126232      2.000000
  0.076795 -0.076795  0.126232      2.000000
 -0.076795 -0.076795  0.126232      2.000000
 -0.025598 -0.076795  0.126232      2.000000
  0.025598 -0.025598  0.126232      2.000000
  0.076795 -0.025598  0.126232      2.000000
 -0.076795 -0.025598  0.126232      2.000000
 -0.025598 -0.025598  0.126232      2.000000
 
 TETIRR: Found    288 inequivalent tetrahedra from      576


--------------------------------------------------------------------------------------------------------




 Dimension of arrays:
   k-points           NKPTS =     48   k-points in BZ     NKDIM =     48   number of bands    NBANDS=     36
   number of dos      NEDOS =    301   number of ions     NIONS =      6
   non local maximal  LDIM  =      6   non local SUM 2l+1 LMDIM =     18
   total plane-waves  NPLWV =  18000
   max r-space proj   IRMAX =      1   max aug-charges    IRDMAX=  55706
   dimension x,y,z NGX =    30 NGY =   30 NGZ =   20
   dimension x,y,z NGXF=    60 NGYF=   60 NGZF=   40
   support grid    NGXF=   120 NGYF=  120 NGZF=   80
   ions per type =               2   4
   NGX,Y,Z   is equivalent  to a cutoff of  10.21, 10.21, 10.07 a.u.
   NGXF,Y,Z  is equivalent  to a cutoff of  20.43, 20.43, 20.15 a.u.

 SYSTEM =  unknown system                          
 POSCAR =  Mn  F                                   

 Startparameter for this run:
   NWRITE =      2    write-flag & timer
   PREC   = normal    normal or accurate (medium, high low for compatibility)
   ISTART =      1    job   : 0-new  1-cont  2-samecut
   ICHARG =      0    charge: 1-file 2-atom 10-const
   ISPIN  =      2    spin polarized calculation?
   LNONCOLLINEAR =      F non collinear calculations
   LSORBIT =      F    spin-orbit coupling
   INIWAV =      1    electr: 0-lowe 1-rand  2-diag
   LASPH  =      T    aspherical Exc in radial PAW
   METAGGA=      F    non-selfconsistent MetaGGA calc.

 Electronic Relaxation 1
   ENCUT  =  600.0 eV  44.10 Ry    6.64 a.u.   9.75  9.75  6.59*2*pi/ulx,y,z
   ENINI  =  600.0     initial cutoff
   ENAUG  =  613.6 eV  augmentation charge cutoff
   NELM   =     60;   NELMIN=  2; NELMDL=  0     # of ELM steps 
   EDIFF  = 0.1E-07   stopping-criterion for ELM
   LREAL  =      F    real-space projection
   NLSPLINE    = F    spline interpolate recip. space projectors
   LCOMPAT=      F    compatible to vasp.4.4
   GGA_COMPAT  = T    GGA compatible to vasp.4.4-vasp.4.6
   LMAXPAW     = -100 max onsite density
   LMAXMIX     =    4 max onsite mixed and CHGCAR
   VOSKOWN=      0    Vosko Wilk Nusair interpolation
   ROPT   =    0.00000   0.00000
 Ionic relaxation
   EDIFFG = 0.1E-06   stopping-criterion for IOM
   NSW    =      0    number of steps for IOM
   NBLOCK =      1;   KBLOCK =      1    inner block; outer block 
   IBRION =     -1    ionic relax: 0-MD 1-quasi-New 2-CG
   NFREE  =      0    steps in history (QN), initial steepest desc. (CG)
   ISIF   =      2    stress and relaxation
   IWAVPR =     10    prediction:  0-non 1-charg 2-wave 3-comb
   ISYM   =      0    0-nonsym 1-usesym 2-fastsym
   LCORR  =      T    Harris-Foulkes like correction to forces

   POTIM  = 0.5000    time-step for ionic-motion
   TEIN   =    0.0    initial temperature
   TEBEG  =    0.0;   TEEND  =   0.0 temperature during run
   SMASS  =  -3.00    Nose mass-parameter (am)
   estimated Nose-frequenzy (Omega)   =  0.10E-29 period in steps =****** mass=  -0.545E-27a.u.
   SCALEE = 1.0000    scale energy and forces
   NPACO  =    256;   APACO  = 16.0  distance and # of slots for P.C.
   PSTRESS=    0.0 pullay stress

  Mass of Ions in am
   POMASS =  54.94 19.00
  Ionic Valenz
   ZVAL   =  13.00  7.00
  Atomic Wigner-Seitz radii
   RWIGS  =  -1.00 -1.00
  virtual crystal weights 
   VCA    =   1.00  1.00
   NELECT =      54.0000    total number of electrons
   NUPDOWN=      -1.0000    fix difference up-down

 DOS related values:
   EMIN   =  10.00;   EMAX   =-10.00  energy-range for DOS
   EFERMI =   0.00
   ISMEAR =    -5;   SIGMA  =   0.20  broadening in eV -4-tet -1-fermi 0-gaus

 Electronic relaxation 2 (details)
   IALGO  =     38    algorithm
   LDIAG  =      T    sub-space diagonalisation (order eigenvalues)
   LSUBROT=      F    optimize rotation matrix (better conditioning)
   TURBO    =      0    0=normal 1=particle mesh
   IRESTART =      0    0=no restart 2=restart with 2 vectors
   NREBOOT  =      0    no. of reboots
   NMIN     =      0    reboot dimension
   EREF     =   0.00    reference energy to select bands
   IMIX   =      4    mixing-type and parameters
     AMIX     =   0.40;   BMIX     =  1.00
     AMIX_MAG =   1.60;   BMIX_MAG =  1.00
     AMIN     =   0.10
     WC   =   100.;   INIMIX=   1;  MIXPRE=   1;  MAXMIX= -45

 Intra band minimization:
   WEIMIN = 0.0000     energy-eigenvalue tresh-hold
   EBREAK =  0.69E-10  absolut break condition
   DEPER  =   0.30     relativ break condition  

   TIME   =   0.40     timestep for ELM

  volume/ion in A,a.u.               =      13.12        88.52
  Fermi-wavevector in a.u.,A,eV,Ry     =   1.443888  2.728552 28.365585  2.084812
  Thomas-Fermi vector in A             =   2.562245
 
 Write flags
   LWAVE        =      T    write WAVECAR
   LDOWNSAMPLE  =      F    k-point downsampling of WAVECAR
   LCHARG       =      T    write CHGCAR
   LVTOT        =      F    write LOCPOT, total local potential
   LVHAR        =      F    write LOCPOT, Hartree potential only
   LELF         =      F    write electronic localiz. function (ELF)
   LORBIT       =     11    0 simple, 1 ext, 2 COOP (PROOUT), +10 PAW based schemes


 Dipole corrections
   LMONO  =      F    monopole corrections only (constant potential shift)
   LDIPOL =      F    correct potential (dipole corrections)
   IDIPOL =      0    1-x, 2-y, 3-z, 4-all directions 
   EPSILON=  1.0000000 bulk dielectric constant

 LDA+U is selected, type is set to LDAUTYPE =  2
   angular momentum for each species LDAUL =     2   -1
   U (eV)           for each species LDAUU =   4.0  0.0
   J (eV)           for each species LDAUJ =   0.0  0.0
 Exchange correlation treatment:
   GGA     =    PS    GGA type
   LEXCH   =    14    internal setting for exchange type
   VOSKOWN=      0    Vosko Wilk Nusair interpolation
   LHFCALC =     F    Hartree Fock is set to
   LHFONE  =     F    Hartree Fock one center treatment
   AEXX    =    0.0000 exact exchange contribution

 Linear response parameters
   LEPSILON=     F    determine dielectric tensor
   LRPA    =     F    only Hartree local field effects (RPA)
   LNABLA  =     F    use nabla operator in PAW spheres
   LVEL    =     F    velocity operator in full k-point grid
   LINTERFAST=   F  fast interpolation
   KINTER  =     0    interpolate to denser k-point grid
   CSHIFT  =0.1000    complex shift for real part using Kramers Kronig
   OMEGAMAX=  -1.0    maximum frequency
   DEG_THRESHOLD= 0.2000000E-02 threshold for treating states as degnerate
   RTIME   =   -0.100 relaxation time in fs
  (WPLASMAI=    0.000 imaginary part of plasma frequency in eV, 0.658/RTIME)
   DFIELD  = 0.0000000 0.0000000 0.0000000 field for delta impulse in time
 
 Orbital magnetization related:
   ORBITALMAG=     F  switch on orbital magnetization
   LCHIMAG   =     F  perturbation theory with respect to B field
   DQ        =  0.001000  dq finite difference perturbation B field
   LLRAUG    =     F  two centre corrections for induced B field



--------------------------------------------------------------------------------------------------------


 Static calculation
 charge density and potential will be updated during run
 spin polarized calculation
 Variant of blocked Davidson
 Davidson routine will perform the subspace rotation
 perform sub-space diagonalisation
    after iterative eigenvector-optimisation
 modified Broyden-mixing scheme, WC =      100.0
 initial mixing is a Kerker type mixing with AMIX =  0.4000 and BMIX =      1.0000
 Hartree-type preconditioning will be used
 using additional bands            9
 reciprocal scheme for non local part
 use partial core corrections
 calculate Harris-corrections to forces 
   (improved forces if not selfconsistent)
 use gradient corrections 
 use of overlap-Matrix (Vanderbilt PP)
 Fermi weights with tetrahedron method with Bloechl corrections


--------------------------------------------------------------------------------------------------------


  energy-cutoff  :      600.00
  volume of cell :       78.71
      direct lattice vectors                 reciprocal lattice vectors
     4.883144143  0.000000000  0.000000000     0.204786091  0.000000000  0.000000000
     0.000000000  4.883144143  0.000000000     0.000000000  0.204786091  0.000000000
     0.000000000  0.000000000  3.300797677     0.000000000  0.000000000  0.302957072

  length of vectors
     4.883144143  4.883144143  3.300797677     0.204786091  0.204786091  0.302957072


 
 old parameters found on file WAVECAR:
  energy-cutoff  :      600.00
  volume of cell :       78.71
      direct lattice vectors                 reciprocal lattice vectors
     4.883144143  0.000000000  0.000000000     0.204786091  0.000000000  0.000000000
     0.000000000  4.883144143  0.000000000     0.000000000  0.204786091  0.000000000
     0.000000000  0.000000000  3.300797677     0.000000000  0.000000000  0.302957072

  length of vectors

 
 k-points in units of 2pi/SCALE and weight: KPOINTS created by Atomic Simulation Env
   0.02559826  0.02559826  0.02524642       0.021
   0.07679478  0.02559826  0.02524642       0.021
  -0.07679478  0.02559826  0.02524642       0.021
  -0.02559826  0.02559826  0.02524642       0.021
   0.02559826  0.07679478  0.02524642       0.021
   0.07679478  0.07679478  0.02524642       0.021
  -0.07679478  0.07679478  0.02524642       0.021
  -0.02559826  0.07679478  0.02524642       0.021
   0.02559826 -0.07679478  0.02524642       0.021
   0.07679478 -0.07679478  0.02524642       0.021
  -0.07679478 -0.07679478  0.02524642       0.021
  -0.02559826 -0.07679478  0.02524642       0.021
   0.02559826 -0.02559826  0.02524642       0.021
   0.07679478 -0.02559826  0.02524642       0.021
  -0.07679478 -0.02559826  0.02524642       0.021
  -0.02559826 -0.02559826  0.02524642       0.021
   0.02559826  0.02559826  0.07573927       0.021
   0.07679478  0.02559826  0.07573927       0.021
  -0.07679478  0.02559826  0.07573927       0.021
  -0.02559826  0.02559826  0.07573927       0.021
   0.02559826  0.07679478  0.07573927       0.021
   0.07679478  0.07679478  0.07573927       0.021
  -0.07679478  0.07679478  0.07573927       0.021
  -0.02559826  0.07679478  0.07573927       0.021
   0.02559826 -0.07679478  0.07573927       0.021
   0.07679478 -0.07679478  0.07573927       0.021
  -0.07679478 -0.07679478  0.07573927       0.021
  -0.02559826 -0.07679478  0.07573927       0.021
   0.02559826 -0.02559826  0.07573927       0.021
   0.07679478 -0.02559826  0.07573927       0.021
  -0.07679478 -0.02559826  0.07573927       0.021
  -0.02559826 -0.02559826  0.07573927       0.021
   0.02559826  0.02559826  0.12623211       0.021
   0.07679478  0.02559826  0.12623211       0.021
  -0.07679478  0.02559826  0.12623211       0.021
  -0.02559826  0.02559826  0.12623211       0.021
   0.02559826  0.07679478  0.12623211       0.021
   0.07679478  0.07679478  0.12623211       0.021
  -0.07679478  0.07679478  0.12623211       0.021
  -0.02559826  0.07679478  0.12623211       0.021
   0.02559826 -0.07679478  0.12623211       0.021
   0.07679478 -0.07679478  0.12623211       0.021
  -0.07679478 -0.07679478  0.12623211       0.021
  -0.02559826 -0.07679478  0.12623211       0.021
   0.02559826 -0.02559826  0.12623211       0.021
   0.07679478 -0.02559826  0.12623211       0.021
  -0.07679478 -0.02559826  0.12623211       0.021
  -0.02559826 -0.02559826  0.12623211       0.021
 
 k-points in reciprocal lattice and weights: KPOINTS created by Atomic Simulation Env
   0.12500000  0.12500000  0.08333333       0.021
   0.37500000  0.12500000  0.08333333       0.021
  -0.37500000  0.12500000  0.08333333       0.021
  -0.12500000  0.12500000  0.08333333       0.021
   0.12500000  0.37500000  0.08333333       0.021
   0.37500000  0.37500000  0.08333333       0.021
  -0.37500000  0.37500000  0.08333333       0.021
  -0.12500000  0.37500000  0.08333333       0.021
   0.12500000 -0.37500000  0.08333333       0.021
   0.37500000 -0.37500000  0.08333333       0.021
  -0.37500000 -0.37500000  0.08333333       0.021
  -0.12500000 -0.37500000  0.08333333       0.021
   0.12500000 -0.12500000  0.08333333       0.021
   0.37500000 -0.12500000  0.08333333       0.021
  -0.37500000 -0.12500000  0.08333333       0.021
  -0.12500000 -0.12500000  0.08333333       0.021
   0.12500000  0.12500000  0.25000000       0.021
   0.37500000  0.12500000  0.25000000       0.021
  -0.37500000  0.12500000  0.25000000       0.021
  -0.12500000  0.12500000  0.25000000       0.021
   0.12500000  0.37500000  0.25000000       0.021
   0.37500000  0.37500000  0.25000000       0.021
  -0.37500000  0.37500000  0.25000000       0.021
  -0.12500000  0.37500000  0.25000000       0.021
   0.12500000 -0.37500000  0.25000000       0.021
   0.37500000 -0.37500000  0.25000000       0.021
  -0.37500000 -0.37500000  0.25000000       0.021
  -0.12500000 -0.37500000  0.25000000       0.021
   0.12500000 -0.12500000  0.25000000       0.021
   0.37500000 -0.12500000  0.25000000       0.021
  -0.37500000 -0.12500000  0.25000000       0.021
  -0.12500000 -0.12500000  0.25000000       0.021
   0.12500000  0.12500000  0.41666667       0.021
   0.37500000  0.12500000  0.41666667       0.021
  -0.37500000  0.12500000  0.41666667       0.021
  -0.12500000  0.12500000  0.41666667       0.021
   0.12500000  0.37500000  0.41666667       0.021
   0.37500000  0.37500000  0.41666667       0.021
  -0.37500000  0.37500000  0.41666667       0.021
  -0.12500000  0.37500000  0.41666667       0.021
   0.12500000 -0.37500000  0.41666667       0.021
   0.37500000 -0.37500000  0.41666667       0.021
  -0.37500000 -0.37500000  0.41666667       0.021
  -0.12500000 -0.37500000  0.41666667       0.021
   0.12500000 -0.12500000  0.41666667       0.021
   0.37500000 -0.12500000  0.41666667       0.021
  -0.37500000 -0.12500000  0.41666667       0.021
  -0.12500000 -0.12500000  0.41666667       0.021
 
 position of ions in fractional coordinates (direct lattice) 
   0.50000000  0.50000000  0.50000000
   0.00000000  0.00000000  0.00000000
   0.19544394  0.80455606  0.50000000
   0.80455606  0.19544394  0.50000000
   0.30455606  0.30455606  0.00000000
   0.69544394  0.69544394  0.00000000
 
 position of ions in cartesian coordinates  (Angst):
   2.44157207  2.44157207  1.65039884
   0.00000000  0.00000000  0.00000000
   0.95438093  3.92876321  1.65039884
   3.92876321  0.95438093  1.65039884
   1.48719114  1.48719114  0.00000000
   3.39595300  3.39595300  0.00000000
 


--------------------------------------------------------------------------------------------------------


 k-point  1 :   0.1250 0.1250 0.0833  plane waves:    2634
 k-point  2 :   0.3750 0.1250 0.0833  plane waves:    2631
 k-point  3 :  -0.3750 0.1250 0.0833  plane waves:    2631
 k-point  4 :  -0.1250 0.1250 0.0833  plane waves:    2634
 k-point  5 :   0.1250 0.3750 0.0833  plane waves:    2631
 k-point  6 :   0.3750 0.3750 0.0833  plane waves:    2632
 k-point  7 :  -0.3750 0.3750 0.0833  plane waves:    2632
 k-point  8 :  -0.1250 0.3750 0.0833  plane waves:    2631
 k-point  9 :   0.1250-0.3750 0.0833  plane waves:    2631
 k-point 10 :   0.3750-0.3750 0.0833  plane waves:    2632
 k-point 11 :  -0.3750-0.3750 0.0833  plane waves:    2632
 k-point 12 :  -0.1250-0.3750 0.0833  plane waves:    2631
 k-point 13 :   0.1250-0.1250 0.0833  plane waves:    2634
 k-point 14 :   0.3750-0.1250 0.0833  plane waves:    2631
 k-point 15 :  -0.3750-0.1250 0.0833  plane waves:    2631
 k-point 16 :  -0.1250-0.1250 0.0833  plane waves:    2634
 k-point 17 :   0.1250 0.1250 0.2500  plane waves:    2631
 k-point 18 :   0.3750 0.1250 0.2500  plane waves:    2626
 k-point 19 :  -0.3750 0.1250 0.2500  plane waves:    2626
 k-point 20 :  -0.1250 0.1250 0.2500  plane waves:    2631
 k-point 21 :   0.1250 0.3750 0.2500  plane waves:    2626
 k-point 22 :   0.3750 0.3750 0.2500  plane waves:    2637
 k-point 23 :  -0.3750 0.3750 0.2500  plane waves:    2637
 k-point 24 :  -0.1250 0.3750 0.2500  plane waves:    2626
 k-point 25 :   0.1250-0.3750 0.2500  plane waves:    2626
 k-point 26 :   0.3750-0.3750 0.2500  plane waves:    2637
 k-point 27 :  -0.3750-0.3750 0.2500  plane waves:    2637
 k-point 28 :  -0.1250-0.3750 0.2500  plane waves:    2626
 k-point 29 :   0.1250-0.1250 0.2500  plane waves:    2631
 k-point 30 :   0.3750-0.1250 0.2500  plane waves:    2626
 k-point 31 :  -0.3750-0.1250 0.2500  plane waves:    2626
 k-point 32 :  -0.1250-0.1250 0.2500  plane waves:    2631
 k-point 33 :   0.1250 0.1250 0.4167  plane waves:    2625
 k-point 34 :   0.3750 0.1250 0.4167  plane waves:    2622
 k-point 35 :  -0.3750 0.1250 0.4167  plane waves:    2622
 k-point 36 :  -0.1250 0.1250 0.4167  plane waves:    2625
 k-point 37 :   0.1250 0.3750 0.4167  plane waves:    2622
 k-point 38 :   0.3750 0.3750 0.4167  plane waves:    2612
 k-point 39 :  -0.3750 0.3750 0.4167  plane waves:    2612
 k-point 40 :  -0.1250 0.3750 0.4167  plane waves:    2622
 k-point 41 :   0.1250-0.3750 0.4167  plane waves:    2622
 k-point 42 :   0.3750-0.3750 0.4167  plane waves:    2612
 k-point 43 :  -0.3750-0.3750 0.4167  plane waves:    2612
 k-point 44 :  -0.1250-0.3750 0.4167  plane waves:    2622
 k-point 45 :   0.1250-0.1250 0.4167  plane waves:    2625
 k-point 46 :   0.3750-0.1250 0.4167  plane waves:    2622
 k-point 47 :  -0.3750-0.1250 0.4167  plane waves:    2622
 k-point 48 :  -0.1250-0.1250 0.4167  plane waves:    2625

 maximum and minimum number of plane-waves per node :      2637     2612

 maximum number of plane-waves:      2637
 maximum index in each direction: 
   IXMAX=   10   IYMAX=   10   IZMAX=    6
   IXMIN=  -10   IYMIN=  -10   IZMIN=   -7


 serial   3D FFT for wavefunctions
 parallel 3D FFT for charge:
    minimum data exchange during FFTs selected (reduces bandwidth)


 total amount of memory used by VASP MPI-rank0    83772. kBytes
=======================================================================

   base      :      30000. kBytes
   nonl-proj :      36748. kBytes
   fftplans  :       1875. kBytes
   grid      :       2467. kBytes
   one-center:        186. kBytes
   wavefun   :      12496. kBytes
 
     INWAV:  cpu time    0.4388: real time    0.4388
 Broyden mixing: mesh for mixing (old mesh)
   NGX = 19   NGY = 19   NGZ = 13
  (NGX  = 60   NGY  = 60   NGZ  = 40)
  gives a total of   4693 points

 charge density for first step will be calculated from the start-wavefunctions


--------------------------------------------------------------------------------------------------------


 Maximum index for augmentation-charges         4263 (set IRDMAX)


--------------------------------------------------------------------------------------------------------


 initial charge from wavefunction
 First call to EWALD:  gamma=   0.414
 Maximum number of real-space cells 2x 2x 3
 Maximum number of reciprocal cells 3x 3x 2

    FEWALD:  cpu time    0.0013: real time    0.0013


--------------------------------------- Iteration      1(   1)  ---------------------------------------


    POTLOK:  cpu time    0.0174: real time    0.0174
    SETDIJ:  cpu time    2.1265: real time    2.1265
atom =   1  type =  1  l = 2
 
 onsite density matrix
 
spin component  1
 
  0.1245  0.0117 -0.0063  0.0119  0.0000
  0.0117  0.0873  0.0087  0.0374 -0.0139
 -0.0063  0.0087  0.0671  0.0087  0.0013
  0.0119  0.0374  0.0087  0.0858  0.0143
  0.0000 -0.0139  0.0013  0.0143  0.0919
 
spin component  2
 
  0.9213 -0.0046  0.0262 -0.0046 -0.0001
 -0.0046  0.9142 -0.0033  0.0107  0.0052
  0.0262 -0.0033  0.9227 -0.0032 -0.0004
 -0.0046  0.0107 -0.0032  0.9148 -0.0054
 -0.0001  0.0052 -0.0004 -0.0054  0.8871
 
 occupancies and eigenvectors
 
  o =  0.0413  v =  0.0024  0.6518 -0.0147 -0.6635  0.3669  0.0000  0.0000  0.0000  0.0000  0.0000      0.0000  0.0000  0.0000  0.0000  0.0000  0.0000  0.0000  0.0000  0.0000  0.0000
  o =  0.0630  v =  0.1627 -0.1518  0.9571 -0.1839 -0.0256  0.0000  0.0000  0.0000  0.0000  0.0000      0.0000  0.0000  0.0000  0.0000  0.0000  0.0000  0.0000  0.0000  0.0000  0.0000
  o =  0.0998  v =  0.0186 -0.2762  0.0245  0.2423  0.9296  0.0000  0.0000  0.0000  0.0000  0.0000      0.0000  0.0000  0.0000  0.0000  0.0000  0.0000  0.0000  0.0000  0.0000  0.0000
  o =  0.1114  v =  0.7002 -0.4652 -0.2822 -0.4617 -0.0244  0.0000  0.0000  0.0000  0.0000  0.0000      0.0000  0.0000  0.0000  0.0000  0.0000  0.0000  0.0000  0.0000  0.0000  0.0000
  o =  0.1412  v = -0.6949 -0.5094 -0.0596 -0.5040 -0.0045  0.0000  0.0000  0.0000  0.0000  0.0000      0.0000  0.0000  0.0000  0.0000  0.0000  0.0000  0.0000  0.0000  0.0000  0.0000
  o =  0.8842  v =  0.0000  0.0000  0.0000  0.0000  0.0000 -0.0068 -0.2520  0.0149  0.2531  0.9339      0.0000  0.0000  0.0000  0.0000  0.0000  0.0000  0.0000  0.0000  0.0000  0.0000
  o =  0.8957  v =  0.0000  0.0000  0.0000  0.0000  0.0000 -0.7202 -0.0226  0.6916 -0.0491 -0.0091      0.0000  0.0000  0.0000  0.0000  0.0000  0.0000  0.0000  0.0000  0.0000  0.0000
  o =  0.9067  v =  0.0000  0.0000  0.0000  0.0000  0.0000 -0.0149 -0.6752  0.0036  0.6452 -0.3572      0.0000  0.0000  0.0000  0.0000  0.0000  0.0000  0.0000  0.0000  0.0000  0.0000
  o =  0.9228  v =  0.0000  0.0000  0.0000  0.0000  0.0000 -0.1692 -0.6610 -0.2465 -0.6882  0.0109      0.0000  0.0000  0.0000  0.0000  0.0000  0.0000  0.0000  0.0000  0.0000  0.0000
  o =  0.9507  v =  0.0000  0.0000  0.0000  0.0000  0.0000 -0.6726  0.2079 -0.6788  0.2089  0.0054      0.0000  0.0000  0.0000  0.0000  0.0000  0.0000  0.0000  0.0000  0.0000  0.0000
atom =   2  type =  1  l = 2
 
 onsite density matrix
 
spin component  1
 
  0.9236 -0.0042 -0.0090 -0.0043  0.0001
 -0.0042  0.9139 -0.0026 -0.0277  0.0048
 -0.0090 -0.0026  0.9240 -0.0025 -0.0005
 -0.0043 -0.0277 -0.0025  0.9144 -0.0050
  0.0001  0.0048 -0.0005 -0.0050  0.8870
 
spin component  2
 
  0.1280  0.0133 -0.0491  0.0136  0.0001
  0.0133  0.0868  0.0094  0.0100 -0.0141
 -0.0491  0.0094  0.0670  0.0093  0.0013
  0.0136  0.0100  0.0093  0.0852  0.0144
  0.0001 -0.0141  0.0013  0.0144  0.0923
 
 occupancies and eigenvectors
 
  o =  0.0328  v =  0.0000  0.0000  0.0000  0.0000  0.0000 -0.4836  0.2256 -0.8159  0.2217  0.0181      0.0000  0.0000  0.0000  0.0000  0.0000  0.0000  0.0000  0.0000  0.0000  0.0000
  o =  0.0624  v =  0.0000  0.0000  0.0000  0.0000  0.0000  0.0091  0.5667 -0.0009 -0.6055  0.5586      0.0000  0.0000  0.0000  0.0000  0.0000  0.0000  0.0000  0.0000  0.0000  0.0000
  o =  0.1012  v =  0.0000  0.0000  0.0000  0.0000  0.0000 -0.0008 -0.6830 -0.3608 -0.6350  0.0041      0.0000  0.0000  0.0000  0.0000  0.0000  0.0000  0.0000  0.0000  0.0000  0.0000
  o =  0.1059  v =  0.0000  0.0000  0.0000  0.0000  0.0000  0.0128 -0.3822  0.0158  0.4074  0.8292      0.0000  0.0000  0.0000  0.0000  0.0000  0.0000  0.0000  0.0000  0.0000  0.0000
  o =  0.1571  v =  0.0000  0.0000  0.0000  0.0000  0.0000 -0.8751 -0.1237  0.4514 -0.1223  0.0079      0.0000  0.0000  0.0000  0.0000  0.0000  0.0000  0.0000  0.0000  0.0000  0.0000
  o =  0.8848  v = -0.1802 -0.6800 -0.1316 -0.6909 -0.1022  0.0000  0.0000  0.0000  0.0000  0.0000      0.0000  0.0000  0.0000  0.0000  0.0000  0.0000  0.0000  0.0000  0.0000  0.0000
  o =  0.8862  v = -0.0183 -0.1591 -0.0023  0.0158  0.9870  0.0000  0.0000  0.0000  0.0000  0.0000      0.0000  0.0000  0.0000  0.0000  0.0000  0.0000  0.0000  0.0000  0.0000  0.0000
  o =  0.9163  v = -0.6808  0.1569 -0.6985  0.1550  0.0086  0.0000  0.0000  0.0000  0.0000  0.0000      0.0000  0.0000  0.0000  0.0000  0.0000  0.0000  0.0000  0.0000  0.0000  0.0000
  o =  0.9329  v =  0.7096 -0.0400 -0.7033 -0.0125  0.0053  0.0000  0.0000  0.0000  0.0000  0.0000      0.0000  0.0000  0.0000  0.0000  0.0000  0.0000  0.0000  0.0000  0.0000  0.0000
  o =  0.9428  v =  0.0139  0.6972 -0.0121 -0.7058  0.1239  0.0000  0.0000  0.0000  0.0000  0.0000      0.0000  0.0000  0.0000  0.0000  0.0000  0.0000  0.0000  0.0000  0.0000  0.0000
     EDDAV:  cpu time    2.2782: real time    2.2976
 BZINTS: Fermi energy:  3.976181; 54.000000 electrons
         Band energy:-765.151392;  BLOECHL correction:  0.000000
       DOS:  cpu time    0.0087: real time    0.0087
    CHARGE:  cpu time    0.0958: real time    0.0958
    MIXING:  cpu time    0.0005: real time    0.0005
    --------------------------------------------
      LOOP:  cpu time    4.5272: real time    4.5466

 eigenvalue-minimisations  :  8760
 total energy-change (2. order) :-0.2039931E+02  (-0.1037795E+03)
 number of electron      54.0000010 magnetization       0.0000000
 augmentation part       20.5879622 magnetization      -0.0024195

 Broyden mixing:
  rms(total) = 0.19237E+01    rms(broyden)= 0.19237E+01
  rms(prec ) = 0.20909E+01
  weight for this iteration     100.00

 Free energy of the ion-electron system (eV)
  ---------------------------------------------------
  alpha Z        PSCENC =       196.13658257
  Ewald energy   TEWEN  =     -4178.31221721
  -Hartree energ DENC   =     -2126.40553884
  -exchange      EXHF   =         0.00000000
  -V(xc)+E(xc)   XCENC  =       292.22028387
  PAW double counting   =      7320.63252644    -7437.16810261
  entropy T*S    EENTRO =         0.00000000
  eigenvalues    EBANDS =      -765.15139233
  atomic energy  EATOM  =      6677.64854832
  Solvation  Ediel_sol  =         0.00000000
  ---------------------------------------------------
  free energy    TOTEN  =       -20.39930979 eV

  energy without entropy =      -20.39930979  energy(sigma->0) =      -20.39930979


--------------------------------------------------------------------------------------------------------




--------------------------------------- Iteration      1(   2)  ---------------------------------------


    POTLOK:  cpu time    0.0159: real time    0.0159
    SETDIJ:  cpu time    2.1408: real time    2.1408
atom =   1  type =  1  l = 2
 
 onsite density matrix
 
spin component  1
 
  0.0244 -0.0017  0.0309 -0.0018 -0.0001
 -0.0017  0.0164 -0.0010  0.0219  0.0014
  0.0309 -0.0010  0.0156 -0.0012 -0.0002
 -0.0018  0.0219 -0.0012  0.0165 -0.0020
 -0.0001  0.0014 -0.0002 -0.0020 -0.0223
 
spin component  2
 
  1.0095  0.0064 -0.0021  0.0067  0.0001
  0.0064  0.9860  0.0050  0.0227 -0.0059
 -0.0021  0.0050  0.9760  0.0052  0.0006
  0.0067  0.0227  0.0052  0.9854  0.0066
  0.0001 -0.0059  0.0006  0.0066  0.9966
 
 occupancies and eigenvectors
 
  o = -0.0226  v =  0.0041  0.0939 -0.0090 -0.1026 -0.9902  0.0000  0.0000  0.0000  0.0000  0.0000      0.0000  0.0000  0.0000  0.0000  0.0000  0.0000  0.0000  0.0000  0.0000  0.0000
  o = -0.0112  v =  0.6552  0.0063 -0.7553  0.0067  0.0095  0.0000  0.0000  0.0000  0.0000  0.0000      0.0000  0.0000  0.0000  0.0000  0.0000  0.0000  0.0000  0.0000  0.0000  0.0000
  o = -0.0051  v = -0.0019  0.7017 -0.0003 -0.6988  0.1389  0.0000  0.0000  0.0000  0.0000  0.0000      0.0000  0.0000  0.0000  0.0000  0.0000  0.0000  0.0000  0.0000  0.0000  0.0000
  o =  0.0377  v =  0.1536  0.6906  0.1450  0.6916 -0.0068  0.0000  0.0000  0.0000  0.0000  0.0000      0.0000  0.0000  0.0000  0.0000  0.0000  0.0000  0.0000  0.0000  0.0000  0.0000
  o =  0.0518  v = -0.7397  0.1476 -0.6390  0.1508  0.0011  0.0000  0.0000  0.0000  0.0000  0.0000      0.0000  0.0000  0.0000  0.0000  0.0000  0.0000  0.0000  0.0000  0.0000  0.0000
  o =  0.9608  v =  0.0000  0.0000  0.0000  0.0000  0.0000 -0.0062 -0.6784 -0.0043  0.6942 -0.2402      0.0000  0.0000  0.0000  0.0000  0.0000  0.0000  0.0000  0.0000  0.0000  0.0000
  o =  0.9740  v =  0.0000  0.0000  0.0000  0.0000  0.0000 -0.1169  0.1671 -0.9650  0.1636  0.0208      0.0000  0.0000  0.0000  0.0000  0.0000  0.0000  0.0000  0.0000  0.0000  0.0000
  o =  0.9987  v =  0.0000  0.0000  0.0000  0.0000  0.0000  0.0831 -0.2492 -0.0173  0.0895  0.9606      0.0000  0.0000  0.0000  0.0000  0.0000  0.0000  0.0000  0.0000  0.0000  0.0000
  o =  1.0015  v =  0.0000  0.0000  0.0000  0.0000  0.0000  0.6949 -0.4512 -0.2472 -0.4835 -0.1366      0.0000  0.0000  0.0000  0.0000  0.0000  0.0000  0.0000  0.0000  0.0000  0.0000
  o =  1.0185  v =  0.0000  0.0000  0.0000  0.0000  0.0000 -0.7046 -0.4961 -0.0857 -0.4995 -0.0228      0.0000  0.0000  0.0000  0.0000  0.0000  0.0000  0.0000  0.0000  0.0000  0.0000
atom =   2  type =  1  l = 2
 
 onsite density matrix
 
spin component  1
 
  1.0047  0.0059 -0.0264  0.0060 -0.0000
  0.0059  0.9894  0.0081  0.0029 -0.0082
 -0.0264  0.0081  0.9770  0.0080  0.0008
  0.0060  0.0029  0.0080  0.9880  0.0086
 -0.0000 -0.0082  0.0008  0.0086  0.9921
 
spin component  2
 
  0.0313 -0.0017 -0.0254 -0.0016  0.0002
 -0.0017  0.0126 -0.0019 -0.0283  0.0026
 -0.0254 -0.0019  0.0159 -0.0020 -0.0004
 -0.0016 -0.0283 -0.0020  0.0133 -0.0031
  0.0002  0.0026 -0.0004 -0.0031 -0.0192
 
 occupancies and eigenvectors
 
  o = -0.0195  v =  0.0000  0.0000  0.0000  0.0000  0.0000  0.0179  0.0297  0.0328  0.1217  0.9914      0.0000  0.0000  0.0000  0.0000  0.0000  0.0000  0.0000  0.0000  0.0000  0.0000
  o = -0.0163  v =  0.0000  0.0000  0.0000  0.0000  0.0000  0.1560  0.6888  0.2032  0.6688 -0.1123      0.0000  0.0000  0.0000  0.0000  0.0000  0.0000  0.0000  0.0000  0.0000  0.0000
  o = -0.0020  v =  0.0000  0.0000  0.0000  0.0000  0.0000  0.5745 -0.1837  0.7765 -0.1821 -0.0082      0.0000  0.0000  0.0000  0.0000  0.0000  0.0000  0.0000  0.0000  0.0000  0.0000
  o =  0.0415  v =  0.0000  0.0000  0.0000  0.0000  0.0000  0.0059  0.7006 -0.0045 -0.7104  0.0663      0.0000  0.0000  0.0000  0.0000  0.0000  0.0000  0.0000  0.0000  0.0000  0.0000
  o =  0.0502  v =  0.0000  0.0000  0.0000  0.0000  0.0000 -0.8032  0.0082  0.5956 -0.0028 -0.0051      0.0000  0.0000  0.0000  0.0000  0.0000  0.0000  0.0000  0.0000  0.0000  0.0000
  o =  0.9555  v = -0.4878  0.2551 -0.7936  0.2587  0.0140  0.0000  0.0000  0.0000  0.0000  0.0000      0.0000  0.0000  0.0000  0.0000  0.0000  0.0000  0.0000  0.0000  0.0000  0.0000
  o =  0.9767  v =  0.0027  0.5294 -0.0130 -0.5898  0.6097  0.0000  0.0000  0.0000  0.0000  0.0000      0.0000  0.0000  0.0000  0.0000  0.0000  0.0000  0.0000  0.0000  0.0000  0.0000
  o =  0.9970  v = -0.1444 -0.6877 -0.3368 -0.6266 -0.0156  0.0000  0.0000  0.0000  0.0000  0.0000      0.0000  0.0000  0.0000  0.0000  0.0000  0.0000  0.0000  0.0000  0.0000  0.0000
  o =  1.0013  v = -0.0223  0.4246 -0.0064 -0.4378 -0.7922  0.0000  0.0000  0.0000  0.0000  0.0000      0.0000  0.0000  0.0000  0.0000  0.0000  0.0000  0.0000  0.0000  0.0000  0.0000
  o =  1.0208  v = -0.8606 -0.0386  0.5065 -0.0320  0.0171  0.0000  0.0000  0.0000  0.0000  0.0000      0.0000  0.0000  0.0000  0.0000  0.0000  0.0000  0.0000  0.0000  0.0000  0.0000
     EDDAV:  cpu time    1.9517: real time    1.9517
 BZINTS: Fermi energy:  1.708908; 54.000000 electrons
         Band energy:-753.248950;  BLOECHL correction:  0.000000
       DOS:  cpu time    0.0047: real time    0.0047
    CHARGE:  cpu time    0.0964: real time    0.0964
    MIXING:  cpu time    0.0005: real time    0.0005
    --------------------------------------------
      LOOP:  cpu time    4.2099: real time    4.2100

 eigenvalue-minimisations  :  7416
 total energy-change (2. order) :-0.1857042E+02  (-0.1950358E+02)
 number of electron      54.0000009 magnetization       0.0000000
 augmentation part       19.8625764 magnetization       0.0011770

 Broyden mixing:
  rms(total) = 0.21396E+01    rms(broyden)= 0.21395E+01
  rms(prec ) = 0.21674E+01
  weight for this iteration     100.00

 eigenvalues of (default mixing * dielectric matrix)
  average eigenvalue GAMMA=   0.2487
  0.2487

 Free energy of the ion-electron system (eV)
  ---------------------------------------------------
  alpha Z        PSCENC =       196.13658257
  Ewald energy   TEWEN  =     -4178.31221721
  -Hartree energ DENC   =     -2158.13745575
  -exchange      EXHF   =         0.00000000
  -V(xc)+E(xc)   XCENC  =       294.18336408
  PAW double counting   =      7192.41498674    -7309.65459093
  entropy T*S    EENTRO =         0.00000000
  eigenvalues    EBANDS =      -753.24895002
  atomic energy  EATOM  =      6677.64854832
  Solvation  Ediel_sol  =         0.00000000
  ---------------------------------------------------
  free energy    TOTEN  =       -38.96973219 eV

  energy without entropy =      -38.96973219  energy(sigma->0) =      -38.96973219


--------------------------------------------------------------------------------------------------------




--------------------------------------- Iteration      1(   3)  ---------------------------------------


    POTLOK:  cpu time    0.0158: real time    0.0158
    SETDIJ:  cpu time    2.1489: real time    2.1489
atom =   1  type =  1  l = 2
 
 onsite density matrix
 
spin component  1
 
  0.0435  0.0007  0.0211  0.0007 -0.0000
  0.0007  0.0306  0.0008  0.0222 -0.0009
  0.0211  0.0008  0.0271  0.0008  0.0001
  0.0007  0.0222  0.0008  0.0305  0.0008
 -0.0000 -0.0009  0.0001  0.0008  0.0071
 
spin component  2
 
  0.9862  0.0031  0.0105  0.0033  0.0000
  0.0031  0.9708  0.0025  0.0212 -0.0027
  0.0105  0.0025  0.9633  0.0025  0.0002
  0.0033  0.0212  0.0025  0.9705  0.0029
  0.0000 -0.0027  0.0002  0.0029  0.9641
 
 occupancies and eigenvectors
 
  o =  0.0064  v =  0.0056  0.3646 -0.0090 -0.3639  0.8570  0.0000  0.0000  0.0000  0.0000  0.0000      0.0000  0.0000  0.0000  0.0000  0.0000  0.0000  0.0000  0.0000  0.0000  0.0000
  o =  0.0091  v =  0.0023 -0.6049 -0.0036  0.6073  0.5151  0.0000  0.0000  0.0000  0.0000  0.0000      0.0000  0.0000  0.0000  0.0000  0.0000  0.0000  0.0000  0.0000  0.0000  0.0000
  o =  0.0127  v = -0.5653 -0.0046  0.8248 -0.0071  0.0113  0.0000  0.0000  0.0000  0.0000  0.0000      0.0000  0.0000  0.0000  0.0000  0.0000  0.0000  0.0000  0.0000  0.0000  0.0000
  o =  0.0524  v =  0.2098 -0.6857  0.1341 -0.6840  0.0012  0.0000  0.0000  0.0000  0.0000  0.0000      0.0000  0.0000  0.0000  0.0000  0.0000  0.0000  0.0000  0.0000  0.0000  0.0000
  o =  0.0583  v = -0.7978 -0.1762 -0.5492 -0.1757 -0.0002  0.0000  0.0000  0.0000  0.0000  0.0000      0.0000  0.0000  0.0000  0.0000  0.0000  0.0000  0.0000  0.0000  0.0000  0.0000
  o =  0.9485  v =  0.0000  0.0000  0.0000  0.0000  0.0000  0.0039  0.6821 -0.0029 -0.6893  0.2441      0.0000  0.0000  0.0000  0.0000  0.0000  0.0000  0.0000  0.0000  0.0000  0.0000
  o =  0.9591  v =  0.0000  0.0000  0.0000  0.0000  0.0000 -0.3526 -0.0276  0.9337 -0.0452 -0.0338      0.0000  0.0000  0.0000  0.0000  0.0000  0.0000  0.0000  0.0000  0.0000  0.0000
  o =  0.9651  v =  0.0000  0.0000  0.0000  0.0000  0.0000 -0.0163 -0.1770  0.0319  0.1678  0.9691      0.0000  0.0000  0.0000  0.0000  0.0000  0.0000  0.0000  0.0000  0.0000  0.0000
  o =  0.9856  v =  0.0000  0.0000  0.0000  0.0000  0.0000  0.7207 -0.4646  0.2363 -0.4571 -0.0014      0.0000  0.0000  0.0000  0.0000  0.0000  0.0000  0.0000  0.0000  0.0000  0.0000
  o =  0.9967  v =  0.0000  0.0000  0.0000  0.0000  0.0000 -0.5966 -0.5356 -0.2672 -0.5346 -0.0065      0.0000  0.0000  0.0000  0.0000  0.0000  0.0000  0.0000  0.0000  0.0000  0.0000
atom =   2  type =  1  l = 2
 
 onsite density matrix
 
spin component  1
 
  0.9853  0.0026 -0.0243  0.0027  0.0000
  0.0026  0.9715  0.0040 -0.0090 -0.0039
 -0.0243  0.0040  0.9642  0.0039  0.0003
  0.0027 -0.0090  0.0039  0.9710  0.0040
  0.0000 -0.0039  0.0003  0.0040  0.9624
 
spin component  2
 
  0.0460  0.0007 -0.0260  0.0008  0.0001
  0.0007  0.0294  0.0011 -0.0187 -0.0007
 -0.0260  0.0011  0.0274  0.0010  0.0000
  0.0008 -0.0187  0.0010  0.0294  0.0006
  0.0001 -0.0007  0.0000  0.0006  0.0077
 
 occupancies and eigenvectors
 
  o =  0.0076  v =  0.0000  0.0000  0.0000  0.0000  0.0000 -0.2191  0.1973 -0.3093  0.1689  0.8882      0.0000  0.0000  0.0000  0.0000  0.0000  0.0000  0.0000  0.0000  0.0000  0.0000
  o =  0.0079  v =  0.0000  0.0000  0.0000  0.0000  0.0000 -0.4300  0.3320 -0.6120  0.3461 -0.4588      0.0000  0.0000  0.0000  0.0000  0.0000  0.0000  0.0000  0.0000  0.0000  0.0000
  o =  0.0119  v =  0.0000  0.0000  0.0000  0.0000  0.0000  0.3133  0.5928  0.4458  0.5930 -0.0119      0.0000  0.0000  0.0000  0.0000  0.0000  0.0000  0.0000  0.0000  0.0000  0.0000
  o =  0.0481  v =  0.0000  0.0000  0.0000  0.0000  0.0000  0.0042  0.7067 -0.0027 -0.7071 -0.0224      0.0000  0.0000  0.0000  0.0000  0.0000  0.0000  0.0000  0.0000  0.0000  0.0000
  o =  0.0644  v =  0.0000  0.0000  0.0000  0.0000  0.0000 -0.8179  0.0032  0.5754 -0.0037 -0.0014      0.0000  0.0000  0.0000  0.0000  0.0000  0.0000  0.0000  0.0000  0.0000  0.0000
  o =  0.9456  v = -0.5095  0.2634 -0.7750  0.2651  0.0139  0.0000  0.0000  0.0000  0.0000  0.0000      0.0000  0.0000  0.0000  0.0000  0.0000  0.0000  0.0000  0.0000  0.0000  0.0000
  o =  0.9608  v = -0.0022  0.1505 -0.0120 -0.2391  0.9592  0.0000  0.0000  0.0000  0.0000  0.0000      0.0000  0.0000  0.0000  0.0000  0.0000  0.0000  0.0000  0.0000  0.0000  0.0000
  o =  0.9650  v = -0.2032 -0.6585 -0.3138 -0.6501 -0.0631  0.0000  0.0000  0.0000  0.0000  0.0000      0.0000  0.0000  0.0000  0.0000  0.0000  0.0000  0.0000  0.0000  0.0000  0.0000
  o =  0.9819  v = -0.0003 -0.6887  0.0005  0.6708  0.2753  0.0000  0.0000  0.0000  0.0000  0.0000      0.0000  0.0000  0.0000  0.0000  0.0000  0.0000  0.0000  0.0000  0.0000  0.0000
  o =  1.0013  v = -0.8361 -0.0006  0.5485 -0.0031  0.0042  0.0000  0.0000  0.0000  0.0000  0.0000      0.0000  0.0000  0.0000  0.0000  0.0000  0.0000  0.0000  0.0000  0.0000  0.0000
     EDDAV:  cpu time    2.1880: real time    2.1880
 BZINTS: Fermi energy:  1.597110; 54.000000 electrons
         Band energy:-755.857078;  BLOECHL correction:  0.000000
       DOS:  cpu time    0.0055: real time    0.0055
    CHARGE:  cpu time    0.0969: real time    0.0969
    MIXING:  cpu time    0.0005: real time    0.0005
    --------------------------------------------
      LOOP:  cpu time    4.4556: real time    4.4557

 eigenvalue-minimisations  :  8388
 total energy-change (2. order) :-0.2748456E+00  (-0.2823736E+00)
 number of electron      54.0000009 magnetization      -0.0000000
 augmentation part       19.8883575 magnetization       0.0012199

 Broyden mixing:
  rms(total) = 0.16315E+01    rms(broyden)= 0.16315E+01
  rms(prec ) = 0.16523E+01
  weight for this iteration     100.00

 eigenvalues of (default mixing * dielectric matrix)
  average eigenvalue GAMMA=   1.0879
  1.6078  0.5679

 Free energy of the ion-electron system (eV)
  ---------------------------------------------------
  alpha Z        PSCENC =       196.13658257
  Ewald energy   TEWEN  =     -4178.31221721
  -Hartree energ DENC   =     -2157.11360120
  -exchange      EXHF   =         0.00000000
  -V(xc)+E(xc)   XCENC  =       293.99782514
  PAW double counting   =      7017.50474048    -7133.24937830
  entropy T*S    EENTRO =         0.00000000
  eigenvalues    EBANDS =      -755.85707757
  atomic energy  EATOM  =      6677.64854832
  Solvation  Ediel_sol  =         0.00000000
  ---------------------------------------------------
  free energy    TOTEN  =       -39.24457777 eV

  energy without entropy =      -39.24457777  energy(sigma->0) =      -39.24457777


--------------------------------------------------------------------------------------------------------




--------------------------------------- Iteration      1(   4)  ---------------------------------------


    POTLOK:  cpu time    0.0164: real time    0.0164
    SETDIJ:  cpu time    2.1326: real time    2.1326
atom =   1  type =  1  l = 2
 
 onsite density matrix
 
spin component  1
 
  0.0432  0.0002  0.0275  0.0002 -0.0000
  0.0002  0.0346 -0.0000  0.0226  0.0006
  0.0275 -0.0000  0.0292 -0.0001 -0.0001
  0.0002  0.0226 -0.0001  0.0345 -0.0008
 -0.0000  0.0006 -0.0001 -0.0008  0.0078
 
spin component  2
 
  0.9747  0.0012  0.0116  0.0012  0.0000
  0.0012  0.9644  0.0013  0.0172 -0.0020
  0.0116  0.0013  0.9588  0.0013  0.0002
  0.0012  0.0172  0.0013  0.9643  0.0023
  0.0000 -0.0020  0.0002  0.0023  0.9551
 
 occupancies and eigenvectors
 
  o =  0.0076  v =  0.1284  0.1447 -0.1668 -0.1495 -0.9552  0.0000  0.0000  0.0000  0.0000  0.0000      0.0000  0.0000  0.0000  0.0000  0.0000  0.0000  0.0000  0.0000  0.0000  0.0000
  o =  0.0079  v = -0.6002  0.0333  0.7716 -0.0279 -0.2060  0.0000  0.0000  0.0000  0.0000  0.0000      0.0000  0.0000  0.0000  0.0000  0.0000  0.0000  0.0000  0.0000  0.0000  0.0000
  o =  0.0122  v = -0.0008  0.6909  0.0013 -0.6910  0.2125  0.0000  0.0000  0.0000  0.0000  0.0000      0.0000  0.0000  0.0000  0.0000  0.0000  0.0000  0.0000  0.0000  0.0000  0.0000
  o =  0.0572  v =  0.0141 -0.7074  0.0167 -0.7065  0.0024  0.0000  0.0000  0.0000  0.0000  0.0000      0.0000  0.0000  0.0000  0.0000  0.0000  0.0000  0.0000  0.0000  0.0000  0.0000
  o =  0.0645  v = -0.7893 -0.0151 -0.6136 -0.0151  0.0011  0.0000  0.0000  0.0000  0.0000  0.0000      0.0000  0.0000  0.0000  0.0000  0.0000  0.0000  0.0000  0.0000  0.0000  0.0000
  o =  0.9461  v =  0.0000  0.0000  0.0000  0.0000  0.0000 -0.0040 -0.6687  0.0069  0.6727 -0.3167      0.0000  0.0000  0.0000  0.0000  0.0000  0.0000  0.0000  0.0000  0.0000  0.0000
  o =  0.9526  v =  0.0000  0.0000  0.0000  0.0000  0.0000  0.4637  0.0047 -0.8842  0.0366  0.0428      0.0000  0.0000  0.0000  0.0000  0.0000  0.0000  0.0000  0.0000  0.0000  0.0000
  o =  0.9562  v =  0.0000  0.0000  0.0000  0.0000  0.0000 -0.0253 -0.2289  0.0404  0.2180  0.9475      0.0000  0.0000  0.0000  0.0000  0.0000  0.0000  0.0000  0.0000  0.0000  0.0000
  o =  0.9788  v =  0.0000  0.0000  0.0000  0.0000  0.0000 -0.6805  0.4619 -0.3353  0.4595  0.0020      0.0000  0.0000  0.0000  0.0000  0.0000  0.0000  0.0000  0.0000  0.0000  0.0000
  o =  0.9836  v =  0.0000  0.0000  0.0000  0.0000  0.0000 -0.5668 -0.5358 -0.3226 -0.5362 -0.0075      0.0000  0.0000  0.0000  0.0000  0.0000  0.0000  0.0000  0.0000  0.0000  0.0000
atom =   2  type =  1  l = 2
 
 onsite density matrix
 
spin component  1
 
  0.9737  0.0019 -0.0198  0.0019  0.0001
  0.0019  0.9655  0.0019 -0.0107 -0.0017
 -0.0198  0.0019  0.9578  0.0018  0.0002
  0.0019 -0.0107  0.0018  0.9651  0.0017
  0.0001 -0.0017  0.0002  0.0017  0.9546
 
spin component  2
 
  0.0447 -0.0006 -0.0264 -0.0005 -0.0000
 -0.0006  0.0332 -0.0000 -0.0231  0.0000
 -0.0264 -0.0000  0.0302  0.0000 -0.0001
 -0.0005 -0.0231  0.0000  0.0334 -0.0001
 -0.0000  0.0000 -0.0001 -0.0001  0.0079
 
 occupancies and eigenvectors
 
  o =  0.0079  v =  0.0000  0.0000  0.0000  0.0000  0.0000  0.0270  0.0243  0.0363  0.0262  0.9983      0.0000  0.0000  0.0000  0.0000  0.0000  0.0000  0.0000  0.0000  0.0000  0.0000
  o =  0.0096  v =  0.0000  0.0000  0.0000  0.0000  0.0000  0.4508  0.4802  0.5788  0.4773 -0.0575      0.0000  0.0000  0.0000  0.0000  0.0000  0.0000  0.0000  0.0000  0.0000  0.0000
  o =  0.0106  v =  0.0000  0.0000  0.0000  0.0000  0.0000 -0.4043  0.5200 -0.5444  0.5194  0.0044      0.0000  0.0000  0.0000  0.0000  0.0000  0.0000  0.0000  0.0000  0.0000  0.0000
  o =  0.0564  v =  0.0000  0.0000  0.0000  0.0000  0.0000 -0.0003 -0.7059  0.0017  0.7083 -0.0014      0.0000  0.0000  0.0000  0.0000  0.0000  0.0000  0.0000  0.0000  0.0000  0.0000
  o =  0.0648  v =  0.0000  0.0000  0.0000  0.0000  0.0000  0.7953 -0.0089 -0.6060 -0.0072  0.0009      0.0000  0.0000  0.0000  0.0000  0.0000  0.0000  0.0000  0.0000  0.0000  0.0000
  o =  0.9432  v = -0.5376  0.2193 -0.7844  0.2175  0.0175  0.0000  0.0000  0.0000  0.0000  0.0000      0.0000  0.0000  0.0000  0.0000  0.0000  0.0000  0.0000  0.0000  0.0000  0.0000
  o =  0.9544  v = -0.0049  0.0032 -0.0162 -0.1534  0.9880  0.0000  0.0000  0.0000  0.0000  0.0000      0.0000  0.0000  0.0000  0.0000  0.0000  0.0000  0.0000  0.0000  0.0000  0.0000
  o =  0.9558  v =  0.1549  0.6703  0.2683  0.6659  0.1064  0.0000  0.0000  0.0000  0.0000  0.0000      0.0000  0.0000  0.0000  0.0000  0.0000  0.0000  0.0000  0.0000  0.0000  0.0000
  o =  0.9763  v =  0.0031  0.7088  0.0004 -0.6967 -0.1105  0.0000  0.0000  0.0000  0.0000  0.0000      0.0000  0.0000  0.0000  0.0000  0.0000  0.0000  0.0000  0.0000  0.0000  0.0000
  o =  0.9871  v = -0.8288 -0.0144  0.5590 -0.0183  0.0022  0.0000  0.0000  0.0000  0.0000  0.0000      0.0000  0.0000  0.0000  0.0000  0.0000  0.0000  0.0000  0.0000  0.0000  0.0000
     EDDAV:  cpu time    2.0673: real time    2.0673
 BZINTS: Fermi energy:  1.232205; 54.000000 electrons
         Band energy:-761.600212;  BLOECHL correction:  0.000000
       DOS:  cpu time    0.0047: real time    0.0047
    CHARGE:  cpu time    0.0968: real time    0.0968
    MIXING:  cpu time    0.0006: real time    0.0006
    --------------------------------------------
      LOOP:  cpu time    4.3182: real time    4.3183

 eigenvalue-minimisations  :  8052
 total energy-change (2. order) : 0.6504986E-01  (-0.8921227E-01)
 number of electron      54.0000009 magnetization      -0.0000000
 augmentation part       19.9397958 magnetization       0.0004660

 Broyden mixing:
  rms(total) = 0.40989E+00    rms(broyden)= 0.40987E+00
  rms(prec ) = 0.44308E+00
  weight for this iteration     100.00

 eigenvalues of (default mixing * dielectric matrix)
  average eigenvalue GAMMA=   1.1876
  2.0020  0.7804  0.7804

 Free energy of the ion-electron system (eV)
  ---------------------------------------------------
  alpha Z        PSCENC =       196.13658257
  Ewald energy   TEWEN  =     -4178.31221721
  -Hartree energ DENC   =     -2157.17724908
  -exchange      EXHF   =         0.00000000
  -V(xc)+E(xc)   XCENC  =       294.07619509
  PAW double counting   =      6466.35088329    -6576.30205936
  entropy T*S    EENTRO =         0.00000000
  eigenvalues    EBANDS =      -761.60021153
  atomic energy  EATOM  =      6677.64854832
  Solvation  Ediel_sol  =         0.00000000
  ---------------------------------------------------
  free energy    TOTEN  =       -39.17952791 eV

  energy without entropy =      -39.17952791  energy(sigma->0) =      -39.17952791


--------------------------------------------------------------------------------------------------------




--------------------------------------- Iteration      1(   5)  ---------------------------------------


    POTLOK:  cpu time    0.0159: real time    0.0159
    SETDIJ:  cpu time    2.1291: real time    2.1291
atom =   1  type =  1  l = 2
 
 onsite density matrix
 
spin component  1
 
  0.0558  0.0011  0.0210  0.0011  0.0000
  0.0011  0.0433  0.0010  0.0231 -0.0016
  0.0210  0.0010  0.0368  0.0011  0.0002
  0.0011  0.0231  0.0011  0.0432  0.0019
  0.0000 -0.0016  0.0002  0.0019  0.0258
 
spin component  2
 
  0.9599 -0.0009  0.0228 -0.0009 -0.0000
 -0.0009  0.9577 -0.0008  0.0157  0.0014
  0.0228 -0.0008  0.9528 -0.0008 -0.0002
 -0.0009  0.0157 -0.0008  0.9578 -0.0016
 -0.0000  0.0014 -0.0002 -0.0016  0.9354
 
 occupancies and eigenvectors
 
  o =  0.0192  v = -0.0057 -0.6600  0.0087  0.6629 -0.3534  0.0000  0.0000  0.0000  0.0000  0.0000      0.0000  0.0000  0.0000  0.0000  0.0000  0.0000  0.0000  0.0000  0.0000  0.0000
  o =  0.0232  v =  0.5412 -0.0098 -0.8399  0.0231  0.0323  0.0000  0.0000  0.0000  0.0000  0.0000      0.0000  0.0000  0.0000  0.0000  0.0000  0.0000  0.0000  0.0000  0.0000  0.0000
  o =  0.0268  v = -0.0228 -0.2526  0.0310  0.2463  0.9349  0.0000  0.0000  0.0000  0.0000  0.0000      0.0000  0.0000  0.0000  0.0000  0.0000  0.0000  0.0000  0.0000  0.0000  0.0000
  o =  0.0652  v = -0.3993  0.6250 -0.2473  0.6236  0.0030  0.0000  0.0000  0.0000  0.0000  0.0000      0.0000  0.0000  0.0000  0.0000  0.0000  0.0000  0.0000  0.0000  0.0000  0.0000
  o =  0.0704  v = -0.7397 -0.3316 -0.4820 -0.3324 -0.0041  0.0000  0.0000  0.0000  0.0000  0.0000      0.0000  0.0000  0.0000  0.0000  0.0000  0.0000  0.0000  0.0000  0.0000  0.0000
  o =  0.9333  v =  0.0000  0.0000  0.0000  0.0000  0.0000  0.6488  0.0107 -0.7578 -0.0129 -0.0667      0.0000  0.0000  0.0000  0.0000  0.0000  0.0000  0.0000  0.0000  0.0000  0.0000
  o =  0.9348  v =  0.0000  0.0000  0.0000  0.0000  0.0000 -0.0468  0.1922  0.0504 -0.1978 -0.9587      0.0000  0.0000  0.0000  0.0000  0.0000  0.0000  0.0000  0.0000  0.0000  0.0000
  o =  0.9426  v =  0.0000  0.0000  0.0000  0.0000  0.0000  0.0015  0.6812 -0.0019 -0.6779  0.2763      0.0000  0.0000  0.0000  0.0000  0.0000  0.0000  0.0000  0.0000  0.0000  0.0000
  o =  0.9730  v =  0.0000  0.0000  0.0000  0.0000  0.0000  0.1983  0.6822  0.1681  0.6834 -0.0051      0.0000  0.0000  0.0000  0.0000  0.0000  0.0000  0.0000  0.0000  0.0000  0.0000
  o =  0.9799  v =  0.0000  0.0000  0.0000  0.0000  0.0000 -0.7331  0.1831 -0.6284  0.1846  0.0013      0.0000  0.0000  0.0000  0.0000  0.0000  0.0000  0.0000  0.0000  0.0000  0.0000
atom =   2  type =  1  l = 2
 
 onsite density matrix
 
spin component  1
 
  0.9620 -0.0013 -0.0177 -0.0013 -0.0000
 -0.0013  0.9561 -0.0013 -0.0200  0.0013
 -0.0177 -0.0013  0.9534 -0.0012 -0.0002
 -0.0013 -0.0200 -0.0012  0.9564 -0.0014
 -0.0000  0.0013 -0.0002 -0.0014  0.9362
 
spin component  2
 
  0.0537  0.0016 -0.0273  0.0016  0.0000
  0.0016  0.0449  0.0016 -0.0178 -0.0015
 -0.0273  0.0016  0.0360  0.0016  0.0002
  0.0016 -0.0178  0.0016  0.0446  0.0017
  0.0000 -0.0015  0.0002  0.0017  0.0250
 
 occupancies and eigenvectors
 
  o =  0.0153  v =  0.0000  0.0000  0.0000  0.0000  0.0000 -0.5699  0.1851 -0.7790  0.1840  0.0175      0.0000  0.0000  0.0000  0.0000  0.0000  0.0000  0.0000  0.0000  0.0000  0.0000
  o =  0.0248  v =  0.0000  0.0000  0.0000  0.0000  0.0000  0.0041  0.0033  0.0006 -0.0825  0.9966      0.0000  0.0000  0.0000  0.0000  0.0000  0.0000  0.0000  0.0000  0.0000  0.0000
  o =  0.0278  v =  0.0000  0.0000  0.0000  0.0000  0.0000 -0.1462 -0.6801 -0.2170 -0.6828 -0.0535      0.0000  0.0000  0.0000  0.0000  0.0000  0.0000  0.0000  0.0000  0.0000  0.0000
  o =  0.0627  v =  0.0000  0.0000  0.0000  0.0000  0.0000 -0.0011 -0.7094 -0.0005  0.7022  0.0605      0.0000  0.0000  0.0000  0.0000  0.0000  0.0000  0.0000  0.0000  0.0000  0.0000
  o =  0.0736  v =  0.0000  0.0000  0.0000  0.0000  0.0000 -0.8086 -0.0064  0.5883 -0.0076  0.0024      0.0000  0.0000  0.0000  0.0000  0.0000  0.0000  0.0000  0.0000  0.0000  0.0000
  o =  0.9348  v = -0.3026 -0.6136 -0.3734 -0.6156 -0.1164  0.0000  0.0000  0.0000  0.0000  0.0000      0.0000  0.0000  0.0000  0.0000  0.0000  0.0000  0.0000  0.0000  0.0000  0.0000
  o =  0.9361  v = -0.0263 -0.1127 -0.0270 -0.0458  0.9919  0.0000  0.0000  0.0000  0.0000  0.0000      0.0000  0.0000  0.0000  0.0000  0.0000  0.0000  0.0000  0.0000  0.0000  0.0000
  o =  0.9409  v =  0.5370 -0.3405  0.6923 -0.3405 -0.0213  0.0000  0.0000  0.0000  0.0000  0.0000      0.0000  0.0000  0.0000  0.0000  0.0000  0.0000  0.0000  0.0000  0.0000  0.0000
  o =  0.9759  v = -0.7867  0.0277  0.6166 -0.0146 -0.0016  0.0000  0.0000  0.0000  0.0000  0.0000      0.0000  0.0000  0.0000  0.0000  0.0000  0.0000  0.0000  0.0000  0.0000  0.0000
  o =  0.9763  v =  0.0228  0.7029 -0.0192 -0.7091  0.0472  0.0000  0.0000  0.0000  0.0000  0.0000      0.0000  0.0000  0.0000  0.0000  0.0000  0.0000  0.0000  0.0000  0.0000  0.0000
     EDDAV:  cpu time    2.0155: real time    2.0155
 BZINTS: Fermi energy:  1.228436; 54.000000 electrons
         Band energy:-763.978440;  BLOECHL correction:  0.000000
       DOS:  cpu time    0.0047: real time    0.0047
    CHARGE:  cpu time    0.0967: real time    0.0967
    MIXING:  cpu time    0.0006: real time    0.0006
    --------------------------------------------
      LOOP:  cpu time    4.2624: real time    4.2624

 eigenvalue-minimisations  :  7776
 total energy-change (2. order) : 0.1816811E-01  (-0.9351366E-02)
 number of electron      54.0000009 magnetization      -0.0000000
 augmentation part       19.9467288 magnetization      -0.0002066

 Broyden mixing:
  rms(total) = 0.13553E+00    rms(broyden)= 0.13553E+00
  rms(prec ) = 0.15295E+00
  weight for this iteration     100.00

 eigenvalues of (default mixing * dielectric matrix)
  average eigenvalue GAMMA=   1.1286
  2.3460  0.7797  0.7797  0.6088

 Free energy of the ion-electron system (eV)
  ---------------------------------------------------
  alpha Z        PSCENC =       196.13658257
  Ewald energy   TEWEN  =     -4178.31221721
  -Hartree energ DENC   =     -2156.29168507
  -exchange      EXHF   =         0.00000000
  -V(xc)+E(xc)   XCENC  =       293.98034663
  PAW double counting   =      6277.41889546    -6385.76339031
  entropy T*S    EENTRO =         0.00000000
  eigenvalues    EBANDS =      -763.97844019
  atomic energy  EATOM  =      6677.64854832
  Solvation  Ediel_sol  =         0.00000000
  ---------------------------------------------------
  free energy    TOTEN  =       -39.16135980 eV

  energy without entropy =      -39.16135980  energy(sigma->0) =      -39.16135980


--------------------------------------------------------------------------------------------------------




--------------------------------------- Iteration      1(   6)  ---------------------------------------


    POTLOK:  cpu time    0.0159: real time    0.0158
    SETDIJ:  cpu time    2.1295: real time    2.1295
atom =   1  type =  1  l = 2
 
 onsite density matrix
 
spin component  1
 
  0.0450 -0.0000  0.0260  0.0000  0.0000
 -0.0000  0.0371 -0.0000  0.0218  0.0002
  0.0260 -0.0000  0.0313 -0.0000 -0.0000
  0.0000  0.0218 -0.0000  0.0371 -0.0002
  0.0000  0.0002 -0.0000 -0.0002  0.0127
 
spin component  2
 
  0.9709  0.0001  0.0185  0.0001 -0.0000
  0.0001  0.9647  0.0001  0.0171 -0.0003
  0.0185  0.0001  0.9590  0.0001  0.0000
  0.0001  0.0171  0.0001  0.9647  0.0003
 -0.0000 -0.0003  0.0000  0.0003  0.9486
 
 occupancies and eigenvectors
 
  o =  0.0113  v =  0.6099  0.0009 -0.7924 -0.0013 -0.0106  0.0000  0.0000  0.0000  0.0000  0.0000      0.0000  0.0000  0.0000  0.0000  0.0000  0.0000  0.0000  0.0000  0.0000  0.0000
  o =  0.0127  v =  0.0067 -0.0610 -0.0084  0.0614  0.9962  0.0000  0.0000  0.0000  0.0000  0.0000      0.0000  0.0000  0.0000  0.0000  0.0000  0.0000  0.0000  0.0000  0.0000  0.0000
  o =  0.0154  v =  0.0003 -0.7045 -0.0005  0.7045 -0.0865  0.0000  0.0000  0.0000  0.0000  0.0000      0.0000  0.0000  0.0000  0.0000  0.0000  0.0000  0.0000  0.0000  0.0000  0.0000
  o =  0.0589  v =  0.0020  0.7071  0.0011  0.7071 -0.0003  0.0000  0.0000  0.0000  0.0000  0.0000      0.0000  0.0000  0.0000  0.0000  0.0000  0.0000  0.0000  0.0000  0.0000  0.0000
  o =  0.0650  v = -0.7925  0.0016 -0.6099  0.0015  0.0002  0.0000  0.0000  0.0000  0.0000  0.0000      0.0000  0.0000  0.0000  0.0000  0.0000  0.0000  0.0000  0.0000  0.0000  0.0000
  o =  0.9455  v =  0.0000  0.0000  0.0000  0.0000  0.0000 -0.5886 -0.0014  0.8084 -0.0011 -0.0077      0.0000  0.0000  0.0000  0.0000  0.0000  0.0000  0.0000  0.0000  0.0000  0.0000
  o =  0.9475  v =  0.0000  0.0000  0.0000  0.0000  0.0000 -0.0017  0.6694  0.0021 -0.6698  0.3213      0.0000  0.0000  0.0000  0.0000  0.0000  0.0000  0.0000  0.0000  0.0000  0.0000
  o =  0.9488  v =  0.0000  0.0000  0.0000  0.0000  0.0000  0.0045  0.2277 -0.0056 -0.2267 -0.9469      0.0000  0.0000  0.0000  0.0000  0.0000  0.0000  0.0000  0.0000  0.0000  0.0000
  o =  0.9817  v =  0.0000  0.0000  0.0000  0.0000  0.0000  0.0606 -0.7052  0.0420 -0.7052 -0.0007      0.0000  0.0000  0.0000  0.0000  0.0000  0.0000  0.0000  0.0000  0.0000  0.0000
  o =  0.9843  v =  0.0000  0.0000  0.0000  0.0000  0.0000 -0.8062 -0.0521 -0.5871 -0.0521 -0.0004      0.0000  0.0000  0.0000  0.0000  0.0000  0.0000  0.0000  0.0000  0.0000  0.0000
atom =   2  type =  1  l = 2
 
 onsite density matrix
 
spin component  1
 
  0.9706  0.0002 -0.0193  0.0002  0.0000
  0.0002  0.9649  0.0002 -0.0165 -0.0001
 -0.0193  0.0002  0.9587  0.0002  0.0000
  0.0002 -0.0165  0.0002  0.9649  0.0001
  0.0000 -0.0001  0.0000  0.0001  0.9486
 
spin component  2
 
  0.0453 -0.0001 -0.0256 -0.0001 -0.0000
 -0.0001  0.0368 -0.0001 -0.0219  0.0000
 -0.0256 -0.0001  0.0314 -0.0000 -0.0000
 -0.0001 -0.0219 -0.0000  0.0368 -0.0000
 -0.0000  0.0000 -0.0000 -0.0000  0.0127
 
 occupancies and eigenvectors
 
  o =  0.0119  v =  0.0000  0.0000  0.0000  0.0000  0.0000 -0.6067 -0.0403 -0.7926 -0.0401 -0.0223      0.0000  0.0000  0.0000  0.0000  0.0000  0.0000  0.0000  0.0000  0.0000  0.0000
  o =  0.0127  v =  0.0000  0.0000  0.0000  0.0000  0.0000 -0.0136 -0.0005 -0.0177  0.0007  0.9997      0.0000  0.0000  0.0000  0.0000  0.0000  0.0000  0.0000  0.0000  0.0000  0.0000
  o =  0.0149  v =  0.0000  0.0000  0.0000  0.0000  0.0000  0.0327 -0.7061  0.0466 -0.7058  0.0014      0.0000  0.0000  0.0000  0.0000  0.0000  0.0000  0.0000  0.0000  0.0000  0.0000
  o =  0.0588  v =  0.0000  0.0000  0.0000  0.0000  0.0000  0.0001  0.7069 -0.0002 -0.7073  0.0008      0.0000  0.0000  0.0000  0.0000  0.0000  0.0000  0.0000  0.0000  0.0000  0.0000
  o =  0.0648  v =  0.0000  0.0000  0.0000  0.0000  0.0000  0.7942 -0.0018 -0.6077 -0.0015  0.0001      0.0000  0.0000  0.0000  0.0000  0.0000  0.0000  0.0000  0.0000  0.0000  0.0000
  o =  0.9444  v = -0.5911  0.0687 -0.8007  0.0683  0.0072  0.0000  0.0000  0.0000  0.0000  0.0000      0.0000  0.0000  0.0000  0.0000  0.0000  0.0000  0.0000  0.0000  0.0000  0.0000
  o =  0.9485  v = -0.0547 -0.7015 -0.0792 -0.7029  0.0673  0.0000  0.0000  0.0000  0.0000  0.0000      0.0000  0.0000  0.0000  0.0000  0.0000  0.0000  0.0000  0.0000  0.0000  0.0000
  o =  0.9486  v =  0.0081  0.0507  0.0110  0.0430  0.9977  0.0000  0.0000  0.0000  0.0000  0.0000      0.0000  0.0000  0.0000  0.0000  0.0000  0.0000  0.0000  0.0000  0.0000  0.0000
  o =  0.9814  v = -0.0013 -0.7075  0.0006  0.7067  0.0055  0.0000  0.0000  0.0000  0.0000  0.0000      0.0000  0.0000  0.0000  0.0000  0.0000  0.0000  0.0000  0.0000  0.0000  0.0000
  o =  0.9848  v = -0.8047 -0.0012  0.5937 -0.0032  0.0001  0.0000  0.0000  0.0000  0.0000  0.0000      0.0000  0.0000  0.0000  0.0000  0.0000  0.0000  0.0000  0.0000  0.0000  0.0000
     EDDAV:  cpu time    2.0519: real time    2.0520
 BZINTS: Fermi energy:  1.243857; 54.000000 electrons
         Band energy:-763.948162;  BLOECHL correction:  0.000000
       DOS:  cpu time    0.0047: real time    0.0047
    CHARGE:  cpu time    0.0968: real time    0.0968
    MIXING:  cpu time    0.0007: real time    0.0007
    --------------------------------------------
      LOOP:  cpu time    4.2994: real time    4.2995

 eigenvalue-minimisations  :  7944
 total energy-change (2. order) :-0.1722377E-02  (-0.1819050E-02)
 number of electron      54.0000009 magnetization      -0.0000000
 augmentation part       19.9505003 magnetization      -0.0002525

 Broyden mixing:
  rms(total) = 0.61460E-01    rms(broyden)= 0.61458E-01
  rms(prec ) = 0.67995E-01
  weight for this iteration     100.00

 eigenvalues of (default mixing * dielectric matrix)
  average eigenvalue GAMMA=   1.1131
  2.3919  0.9125  0.9125  0.6742  0.6742

 Free energy of the ion-electron system (eV)
  ---------------------------------------------------
  alpha Z        PSCENC =       196.13658257
  Ewald energy   TEWEN  =     -4178.31221721
  -Hartree energ DENC   =     -2156.79787286
  -exchange      EXHF   =         0.00000000
  -V(xc)+E(xc)   XCENC  =       293.98496859
  PAW double counting   =      6258.78371452    -6366.65864460
  entropy T*S    EENTRO =         0.00000000
  eigenvalues    EBANDS =      -763.94816150
  atomic energy  EATOM  =      6677.64854832
  Solvation  Ediel_sol  =         0.00000000
  ---------------------------------------------------
  free energy    TOTEN  =       -39.16308218 eV

  energy without entropy =      -39.16308218  energy(sigma->0) =      -39.16308218


--------------------------------------------------------------------------------------------------------




--------------------------------------- Iteration      1(   7)  ---------------------------------------


    POTLOK:  cpu time    0.0162: real time    0.0162
    SETDIJ:  cpu time    2.1296: real time    2.1296
atom =   1  type =  1  l = 2
 
 onsite density matrix
 
spin component  1
 
  0.0463  0.0001  0.0252  0.0001 -0.0000
  0.0001  0.0378  0.0001  0.0218 -0.0001
  0.0252  0.0001  0.0321  0.0001  0.0000
  0.0001  0.0218  0.0001  0.0378  0.0001
 -0.0000 -0.0001  0.0000  0.0001  0.0142
 
spin component  2
 
  0.9699 -0.0000  0.0193 -0.0000 -0.0000
 -0.0000  0.9643 -0.0000  0.0171  0.0000
  0.0193 -0.0000  0.9584 -0.0000 -0.0000
 -0.0000  0.0171 -0.0000  0.9643 -0.0000
 -0.0000  0.0000 -0.0000 -0.0000  0.9473
 
 occupancies and eigenvectors
 
  o =  0.0130  v = -0.6042 -0.0001  0.7968  0.0001 -0.0049  0.0000  0.0000  0.0000  0.0000  0.0000      0.0000  0.0000  0.0000  0.0000  0.0000  0.0000  0.0000  0.0000  0.0000  0.0000
  o =  0.0142  v =  0.0030 -0.0397 -0.0038  0.0399 -0.9984  0.0000  0.0000  0.0000  0.0000  0.0000      0.0000  0.0000  0.0000  0.0000  0.0000  0.0000  0.0000  0.0000  0.0000  0.0000
  o =  0.0161  v =  0.0001  0.7059 -0.0001 -0.7060 -0.0563  0.0000  0.0000  0.0000  0.0000  0.0000      0.0000  0.0000  0.0000  0.0000  0.0000  0.0000  0.0000  0.0000  0.0000  0.0000
  o =  0.0596  v =  0.0195 -0.7070  0.0147 -0.7068 -0.0002  0.0000  0.0000  0.0000  0.0000  0.0000      0.0000  0.0000  0.0000  0.0000  0.0000  0.0000  0.0000  0.0000  0.0000  0.0000
  o =  0.0654  v = -0.7966 -0.0172 -0.6040 -0.0173 -0.0001  0.0000  0.0000  0.0000  0.0000  0.0000      0.0000  0.0000  0.0000  0.0000  0.0000  0.0000  0.0000  0.0000  0.0000  0.0000
  o =  0.9440  v =  0.0000  0.0000  0.0000  0.0000  0.0000  0.5980  0.0005 -0.8015  0.0002 -0.0004      0.0000  0.0000  0.0000  0.0000  0.0000  0.0000  0.0000  0.0000  0.0000  0.0000
  o =  0.9472  v =  0.0000  0.0000  0.0000  0.0000  0.0000 -0.0002  0.6984  0.0001 -0.6984 -0.1564      0.0000  0.0000  0.0000  0.0000  0.0000  0.0000  0.0000  0.0000  0.0000  0.0000
  o =  0.9473  v =  0.0000  0.0000  0.0000  0.0000  0.0000 -0.0003 -0.1106  0.0003  0.1106 -0.9877      0.0000  0.0000  0.0000  0.0000  0.0000  0.0000  0.0000  0.0000  0.0000  0.0000
  o =  0.9814  v =  0.0000  0.0000  0.0000  0.0000  0.0000  0.0096  0.7070  0.0078  0.7071 -0.0000      0.0000  0.0000  0.0000  0.0000  0.0000  0.0000  0.0000  0.0000  0.0000  0.0000
  o =  0.9843  v =  0.0000  0.0000  0.0000  0.0000  0.0000 -0.8014  0.0087 -0.5980  0.0088  0.0001      0.0000  0.0000  0.0000  0.0000  0.0000  0.0000  0.0000  0.0000  0.0000  0.0000
atom =   2  type =  1  l = 2
 
 onsite density matrix
 
spin component  1
 
  0.9699 -0.0000 -0.0193 -0.0000  0.0000
 -0.0000  0.9643 -0.0000 -0.0172  0.0000
 -0.0193 -0.0000  0.9583 -0.0000 -0.0000
 -0.0000 -0.0172 -0.0000  0.9643 -0.0000
  0.0000  0.0000 -0.0000 -0.0000  0.9473
 
spin component  2
 
  0.0462  0.0001 -0.0255  0.0001  0.0000
  0.0001  0.0378  0.0001 -0.0214 -0.0001
 -0.0255  0.0001  0.0321  0.0001  0.0000
  0.0001 -0.0214  0.0001  0.0378  0.0001
  0.0000 -0.0001  0.0000  0.0001  0.0142
 
 occupancies and eigenvectors
 
  o =  0.0126  v =  0.0000  0.0000  0.0000  0.0000  0.0000  0.6052 -0.0317  0.7948 -0.0317 -0.0055      0.0000  0.0000  0.0000  0.0000  0.0000  0.0000  0.0000  0.0000  0.0000  0.0000
  o =  0.0142  v =  0.0000  0.0000  0.0000  0.0000  0.0000  0.0034  0.0003  0.0042 -0.0038  1.0000      0.0000  0.0000  0.0000  0.0000  0.0000  0.0000  0.0000  0.0000  0.0000  0.0000
  o =  0.0164  v =  0.0000  0.0000  0.0000  0.0000  0.0000  0.0273  0.7063  0.0356  0.7065  0.0022      0.0000  0.0000  0.0000  0.0000  0.0000  0.0000  0.0000  0.0000  0.0000  0.0000
[...]
     18      -2.6309      1.00000
     19      -2.2308      1.00000
     20      -1.9300      1.00000
     21      -1.6909      1.00000
     22      -1.5728      1.00000
     23      -0.4961      1.00000
     24      -0.3307      1.00000
     25      -0.0348      1.00000
     26       0.5424      1.00000
     27       1.1155      1.00000
     28       7.1265      0.00000
     29       7.1542      0.00000
     30       7.3822      0.00000
     31       7.8427      0.00000
     32       8.3403      0.00000
     33       9.0793      0.00000
     34      10.5432      0.00000
     35      11.0406      0.00000
     36      12.2315      0.00000

 k-point    48 :      -0.1250   -0.1250    0.4167
  band No.  band energies     occupation 
      1     -46.7070      1.00000
      2     -46.6683      1.00000
      3     -46.6519      1.00000
      4     -41.7261      1.00000
      5     -41.6930      1.00000
      6     -41.6702      1.00000
      7     -20.8175      1.00000
      8     -20.6913      1.00000
      9     -20.6419      1.00000
     10     -20.5538      1.00000
     11      -4.2259      1.00000
     12      -3.9240      1.00000
     13      -3.5671      1.00000
     14      -3.5048      1.00000
     15      -3.3896      1.00000
     16      -3.1406      1.00000
     17      -2.6744      1.00000
     18      -2.4695      1.00000
     19      -2.4425      1.00000
     20      -1.9755      1.00000
     21      -1.8021      1.00000
     22      -1.7398      1.00000
     23      -0.5048      1.00000
     24      -0.2686      1.00000
     25       0.0694      1.00000
     26       0.5904      1.00000
     27       0.9060      1.00000
     28       7.1292      0.00000
     29       7.1595      0.00000
     30       7.2541      0.00000
     31       7.9351      0.00000
     32       8.0780      0.00000
     33       8.5810      0.00000
     34      10.7420      0.00000
     35      12.0293      0.00000
     36      12.4951      0.00000


--------------------------------------------------------------------------------------------------------


 soft charge-density along one line, spin component           1
         0         1         2         3         4         5         6         7         8         9
 total charge-density along one line
 
 soft charge-density along one line, spin component           2
         0         1         2         3         4         5         6         7         8         9
 total charge-density along one line
 
 pseudopotential strength for first ion, spin component:           1
-42.471   0.000  -0.028   7.857  -0.000   0.012   0.000  -0.000
  0.000 -42.443   0.000  -0.000   7.845  -0.000   0.000  -0.000
 -0.028   0.000 -42.471   0.012  -0.000   7.857  -0.000   0.000
  7.857  -0.000   0.012   5.260   0.000  -0.002  -0.000   0.000
 -0.000   7.845  -0.000   0.000   5.262   0.000  -0.000   0.000
  0.012  -0.000   7.857  -0.002   0.000   5.260   0.000  -0.000
  0.000   0.000  -0.000  -0.000  -0.000   0.000  -1.444   0.000
 -0.000  -0.000   0.000   0.000   0.000  -0.000   0.000  -1.403
  0.000  -0.000  -0.000  -0.000   0.000   0.000  -0.065   0.000
  0.000  -0.000   0.000  -0.000  -0.000  -0.000   0.000  -0.082
  0.000   0.000   0.000  -0.000  -0.000  -0.000   0.000  -0.000
  0.000   0.000  -0.000  -0.000  -0.000   0.000  -1.886   0.000
 -0.000  -0.000   0.000   0.000   0.000  -0.000   0.000  -1.844
  0.000  -0.000  -0.000  -0.000   0.000   0.000  -0.069   0.000
  0.000  -0.000   0.000  -0.000  -0.000  -0.000   0.000  -0.085
  0.000   0.000   0.000  -0.000  -0.000  -0.000   0.000  -0.000
  0.000  -0.000  -0.000  -0.000   0.000   0.000   0.007   0.000
  0.000  -0.000  -0.000  -0.000   0.000   0.000   0.013   0.000
 pseudopotential strength for first ion, spin component:           2
-45.812   0.000  -0.020   9.388  -0.000   0.007  -0.000  -0.000
  0.000 -45.792   0.000  -0.000   9.382  -0.000  -0.000  -0.000
 -0.020   0.000 -45.812   0.007  -0.000   9.388  -0.000  -0.000
  9.388  -0.000   0.007   4.745   0.000  -0.001   0.000  -0.000
 -0.000   9.382  -0.000   0.000   4.746   0.000   0.000   0.000
  0.007  -0.000   9.388  -0.001   0.000   4.745   0.000   0.000
 -0.000  -0.000  -0.000   0.000   0.000   0.000  -7.736   0.000
 -0.000  -0.000  -0.000  -0.000   0.000   0.000   0.000  -7.708
  0.000  -0.000   0.000   0.000   0.000  -0.000  -0.045   0.000
 -0.000  -0.000  -0.000   0.000   0.000   0.000   0.000  -0.065
 -0.000  -0.000  -0.000   0.000   0.000   0.000  -0.000   0.000
 -0.000  -0.000  -0.000   0.000   0.000   0.000  -8.233   0.000
 -0.000  -0.000  -0.000  -0.000   0.000   0.000   0.000  -8.203
  0.000  -0.000   0.000   0.000   0.000  -0.000  -0.047   0.000
 -0.000  -0.000  -0.000   0.000   0.000   0.000   0.000  -0.067
  0.000  -0.000  -0.000   0.000   0.000   0.000  -0.000   0.000
  0.000   0.000   0.000   0.000  -0.000  -0.000   0.003  -0.000
  0.000   0.000   0.000   0.000  -0.000  -0.000   0.005  -0.000
 total augmentation occupancy for first ion, spin component:           1
  1.998  -0.000   0.000  -0.013  -0.000   0.000   0.000   0.000   0.000  -0.000   0.000  -0.000  -0.000  -0.000   0.000  -0.000
 -0.000   1.998  -0.000   0.000  -0.013   0.000   0.000   0.000   0.000  -0.000  -0.000  -0.000  -0.000  -0.000   0.000   0.000
  0.000  -0.000   1.998   0.000  -0.000  -0.013   0.000  -0.000   0.000  -0.000   0.000  -0.000   0.000  -0.000   0.000  -0.000
 -0.013   0.000   0.000   0.086  -0.000  -0.008  -0.000   0.000   0.000  -0.000   0.000   0.000  -0.000  -0.000   0.000  -0.000
 -0.000  -0.013  -0.000  -0.000   0.098  -0.000  -0.000   0.000   0.000  -0.000  -0.000   0.000  -0.000  -0.000   0.000   0.000
  0.000   0.000  -0.013  -0.008  -0.000   0.086   0.000   0.000   0.000  -0.000  -0.000  -0.000  -0.000  -0.000   0.000   0.000
  0.000   0.000   0.000  -0.000  -0.000   0.000   7.616  -0.000   2.906  -0.000  -0.000  -5.668   0.000  -2.744   0.000   0.000
  0.000   0.000  -0.000   0.000   0.000   0.000  -0.000   6.518  -0.000   2.558   0.000   0.000  -4.624   0.000  -2.410  -0.000
  0.000   0.000   0.000   0.000   0.000   0.000   2.906  -0.000   5.894  -0.000   0.000  -2.745   0.000  -4.059   0.000  -0.000
 -0.000  -0.000  -0.000  -0.000  -0.000  -0.000  -0.000   2.558  -0.000   6.518  -0.000   0.000  -2.410   0.000  -4.624   0.000
  0.000  -0.000   0.000   0.000  -0.000  -0.000  -0.000   0.000   0.000  -0.000   3.843   0.000  -0.000  -0.000   0.000  -2.081
 -0.000  -0.000  -0.000   0.000   0.000  -0.000  -5.668   0.000  -2.745   0.000   0.000   4.889  -0.000   2.623  -0.000  -0.000
 -0.000  -0.000   0.000  -0.000  -0.000  -0.000   0.000  -4.624   0.000  -2.410  -0.000  -0.000   3.888  -0.000   2.296   0.000
 -0.000  -0.000  -0.000  -0.000  -0.000  -0.000  -2.744   0.000  -4.059   0.000  -0.000   2.623  -0.000   3.369  -0.000  -0.000
  0.000   0.000   0.000   0.000   0.000   0.000   0.000  -2.410   0.000  -4.624   0.000  -0.000   2.296  -0.000   3.888  -0.000
 -0.000   0.000  -0.000  -0.000   0.000   0.000   0.000  -0.000  -0.000   0.000  -2.081  -0.000   0.000  -0.000  -0.000   1.442
 -0.000   0.000   0.000  -0.000  -0.000  -0.000   0.200   0.000  -0.214   0.000  -0.000  -0.231  -0.000   0.230  -0.000   0.000
  0.000  -0.000  -0.000   0.000   0.000  -0.000   0.003  -0.000   0.015  -0.000   0.000   0.023   0.000  -0.030   0.000  -0.000
 total augmentation occupancy for first ion, spin component:           2
  0.003  -0.000  -0.000   0.011  -0.000  -0.000   0.000  -0.000   0.000  -0.000   0.000  -0.000   0.000  -0.000   0.000  -0.000
 -0.000   0.003  -0.000  -0.000   0.012  -0.000  -0.000   0.000   0.000  -0.000   0.000   0.000  -0.000  -0.000   0.000  -0.000
 -0.000  -0.000   0.003  -0.000  -0.000   0.011  -0.000  -0.000   0.000   0.000   0.000   0.000   0.000  -0.000  -0.000  -0.000
  0.011  -0.000  -0.000  -0.011   0.000  -0.000  -0.000   0.000   0.000  -0.000  -0.000   0.000  -0.000  -0.000   0.000   0.000
 -0.000   0.012  -0.000   0.000  -0.011   0.000   0.000   0.000   0.000  -0.000  -0.000  -0.000  -0.000  -0.000   0.000   0.000
 -0.000  -0.000   0.011  -0.000   0.000  -0.011   0.000   0.000   0.000  -0.000  -0.000  -0.000  -0.000  -0.000   0.000   0.000
  0.000  -0.000  -0.000  -0.000   0.000   0.000  -5.376   0.000  -1.636   0.000   0.000   3.087  -0.000   1.287  -0.000  -0.000
 -0.000   0.000  -0.000   0.000   0.000   0.000   0.000  -4.765   0.000  -1.455  -0.000  -0.000   2.594  -0.000   1.146   0.000
  0.000   0.000   0.000   0.000   0.000   0.000  -1.636   0.000  -4.332   0.000  -0.000   1.288  -0.000   2.259  -0.000   0.000
 -0.000  -0.000   0.000  -0.000  -0.000  -0.000   0.000  -1.455   0.000  -4.765   0.000  -0.000   1.146  -0.000   2.594  -0.000
  0.000   0.000   0.000  -0.000  -0.000  -0.000   0.000  -0.000  -0.000   0.000  -3.300  -0.000   0.000   0.000  -0.000   1.438
 -0.000   0.000   0.000   0.000  -0.000  -0.000   3.087  -0.000   1.288  -0.000  -0.000  -1.908   0.000  -0.945   0.000   0.000
  0.000  -0.000   0.000  -0.000  -0.000  -0.000  -0.000   2.594  -0.000   1.146   0.000   0.000  -1.530   0.000  -0.843  -0.000
 -0.000  -0.000  -0.000  -0.000  -0.000  -0.000   1.287  -0.000   2.259  -0.000   0.000  -0.945   0.000  -1.291   0.000  -0.000
  0.000   0.000  -0.000   0.000   0.000   0.000  -0.000   1.146  -0.000   2.594  -0.000   0.000  -0.843   0.000  -1.530   0.000
 -0.000  -0.000  -0.000   0.000   0.000   0.000  -0.000   0.000   0.000  -0.000   1.438   0.000  -0.000  -0.000   0.000  -0.680
 -0.000  -0.000  -0.000  -0.000   0.000   0.000   0.024  -0.000   0.008  -0.000   0.000  -0.025   0.000   0.004   0.000  -0.000
  0.000   0.000   0.000   0.000  -0.000  -0.000  -0.048   0.000   0.025   0.000  -0.000   0.029  -0.000  -0.014  -0.000   0.000


------------------------ aborting loop because EDIFF is reached ----------------------------------------


 


 total charge     
 
# of ion       s       p       d       tot
------------------------------------------
    1        0.166   6.151   4.953  11.270
    2        0.166   6.151   4.953  11.270
    3        1.726   4.364   0.000   6.090
    4        1.726   4.364   0.000   6.090
    5        1.726   4.364   0.000   6.090
    6        1.726   4.364   0.000   6.090
--------------------------------------------------
tot          7.238  29.758   9.907  46.902
 


 magnetization (x)
 
# of ion       s       p       d       tot
------------------------------------------
    1       -0.018  -0.019  -4.628  -4.665
    2        0.018   0.019   4.628   4.665
    3        0.002   0.015   0.000   0.017
    4        0.002   0.015   0.000   0.017
    5       -0.002  -0.015   0.000  -0.017
    6       -0.002  -0.015   0.000  -0.017
--------------------------------------------------
tot          0.000  -0.000   0.000  -0.000
 
    CHARGE:  cpu time    0.0729: real time    0.0729
    FORLOC:  cpu time    0.0011: real time    0.0011
    FORNL :  cpu time    0.5474: real time    0.5474
    STRESS:  cpu time    1.5153: real time    1.5153
    FORCOR:  cpu time    0.0151: real time    0.0151
    FORHAR:  cpu time    0.0021: real time    0.0021
    MIXING:  cpu time    0.0009: real time    0.0009
    OFIELD:  cpu time    0.0000: real time    0.0000

  FORCE on cell =-STRESS in cart. coord.  units (eV):
  Direction    XX          YY          ZZ          XY          YZ          ZX
  --------------------------------------------------------------------------------------
  Alpha Z   196.13658   196.13658   196.13658
  Ewald   -1582.29950 -1582.29950 -1013.71634    -0.00000     0.00000     0.00000
  Hartree   591.40535   591.40535   975.81016    -0.00009    -0.00001    -0.00001
  E(xc)    -314.10139  -314.10139  -313.88188    -0.00000    -0.00000    -0.00000
  Local     161.04996   161.04996  -784.98797     0.00012     0.00001     0.00001
  n-local  -242.54861  -242.54861  -241.50480    -0.00000     0.00000     0.00000
  augment   265.56174   265.56174   265.04636     0.00002     0.00002     0.00002
  Kinetic   924.80455   924.80455   917.10025     0.00001     0.00000     0.00000
  Fock        0.00000     0.00000     0.00000     0.00000     0.00000     0.00000
  -------------------------------------------------------------------------------------
  Total       0.00868     0.00869     0.00237     0.00005     0.00003     0.00003
  in kB       0.17675     0.17683     0.04820     0.00104     0.00055     0.00055
  external pressure =        0.13 kB  Pullay stress =        0.00 kB


 VOLUME and BASIS-vectors are now :
 -----------------------------------------------------------------------------
  energy-cutoff  :      600.00
  volume of cell :       78.71
      direct lattice vectors                 reciprocal lattice vectors
     4.883144143  0.000000000  0.000000000     0.204786091  0.000000000  0.000000000
     0.000000000  4.883144143  0.000000000     0.000000000  0.204786091  0.000000000
     0.000000000  0.000000000  3.300797677     0.000000000  0.000000000  0.302957072

  length of vectors
     4.883144143  4.883144143  3.300797677     0.204786091  0.204786091  0.302957072


 FORCES acting on ions
    electron-ion (+dipol)            ewald-force                    non-local-force                 convergence-correction
 -----------------------------------------------------------------------------------------------
   -.134E-08 0.131E-08 -.150E-09   0.853E-13 -.568E-13 0.114E-13   0.198E-08 -.174E-08 0.111E-09   0.124E-08 -.154E-08 0.151E-10
   0.262E-09 -.854E-10 -.429E-10   -.568E-13 -.142E-12 0.117E-13   -.326E-09 -.299E-08 0.249E-08   -.388E-09 0.937E-10 -.743E-11
   -.344E+02 0.344E+02 -.153E-06   0.358E+02 -.358E+02 -.818E-14   -.140E+01 0.140E+01 0.351E-06   -.542E-05 0.129E-04 -.284E-07
   0.344E+02 -.344E+02 0.153E-06   -.358E+02 0.358E+02 -.834E-14   0.140E+01 -.140E+01 -.351E-06   0.542E-05 -.129E-04 0.286E-07
   0.344E+02 0.344E+02 -.715E-05   -.358E+02 -.358E+02 -.565E-14   0.140E+01 0.140E+01 -.451E-05   -.161E-04 -.247E-04 0.928E-05
   -.344E+02 -.344E+02 0.715E-05   0.358E+02 0.358E+02 -.594E-14   -.140E+01 -.140E+01 0.451E-05   0.161E-04 0.247E-04 -.928E-05
 -----------------------------------------------------------------------------------------------
   -.146E-08 0.213E-08 -.394E-09   0.000E+00 -.711E-14 -.497E-14   0.212E-08 -.426E-08 0.274E-08   0.904E-09 -.173E-08 0.281E-09
 
 
 POSITION                                       TOTAL-FORCE (eV/Angst)
 -----------------------------------------------------------------------------------
      2.44157      2.44157      1.65040         0.000000     -0.000000     -0.000000
      0.00000      0.00000      0.00000        -0.000000     -0.000000      0.000000
      0.95438      3.92876      1.65040        -0.001933      0.001932      0.000000
      3.92876      0.95438      1.65040         0.001933     -0.001932     -0.000000
      1.48719      1.48719      0.00000         0.001938      0.001939     -0.000002
      3.39595      3.39595      0.00000        -0.001938     -0.001939      0.000002
 -----------------------------------------------------------------------------------
    total drift:                                0.000000     -0.000000      0.000000


--------------------------------------------------------------------------------------------------------



  FREE ENERGIE OF THE ION-ELECTRON SYSTEM (eV)
  ---------------------------------------------------
  free  energy   TOTEN  =       -39.16221555 eV

  energy  without entropy=      -39.16221555  energy(sigma->0) =      -39.16221555
 


--------------------------------------------------------------------------------------------------------


    POTLOK:  cpu time    2.1428: real time    2.1428

 Total magnetic moment S=     1.0000000

 Fermi contact (isotropic) hyperfine coupling parameter (MHz) 
 -------------------------------------------------------------
  ion      A_pw      A_1PS     A_1AE     A_1c      A_tot
 -------------------------------------------------------------
   1   -1286.451 -1286.382  -395.728  1224.673  -395.797
   2    1286.451  1286.382   395.729 -1224.673   395.798
   3      33.593    33.464   218.904   -23.381   219.032
   4      33.593    33.464   218.904   -23.381   219.032
   5     -33.593   -33.464  -218.906    23.381  -219.034
   6     -33.593   -33.464  -218.906    23.381  -219.034
 -------------------------------------------------------------


 Dipolar hyperfine coupling parameters (MHz)
 ---------------------------------------------------------------------
  ion      A_xx      A_yy      A_zz      A_xy      A_xz      A_yz
 ---------------------------------------------------------------------
   1       7.052     7.052   -14.104     3.190     0.000     0.000
   2      -7.052    -7.052    14.104     3.190    -0.000    -0.000
   3     -51.117   -51.117   102.233     9.424    -0.000    -0.000
   4     -51.117   -51.117   102.233     9.424    -0.000    -0.000
   5      51.117    51.117  -102.234     9.424    -0.000    -0.000
   6      51.117    51.117  -102.234     9.424    -0.000    -0.000
 ---------------------------------------------------------------------


 Total hyperfine coupling parameters after diagonalization (MHz)
 (convention: |A_zz| > |A_xx| > |A_yy|)
 ----------------------------------------------------------------------
  ion      A_xx      A_yy      A_zz     asymmetry (A_yy - A_xx)/ A_zz 
 ----------------------------------------------------------------------
   1    -391.935  -385.556  -409.902      -0.016
   2     391.936   385.555   409.902      -0.016
   3     177.339   158.492   321.265      -0.059
   4     177.339   158.492   321.265      -0.059
   5    -177.341  -158.494  -321.268      -0.059
   6    -177.341  -158.494  -321.268      -0.059
 ---------------------------------------------------------------------



--------------------------------------------------------------------------------------------------------


 writing wavefunctions
     LOOP+:  cpu time   65.4702: real time   65.4904
    4ORBIT:  cpu time    0.0000: real time    0.0000
 


 total charge     
 
# of ion       s       p       d       tot
------------------------------------------
    1        0.166   6.151   4.953  11.270
    2        0.166   6.151   4.953  11.270
    3        1.726   4.364   0.000   6.090
    4        1.726   4.364   0.000   6.090
    5        1.726   4.364   0.000   6.090
    6        1.726   4.364   0.000   6.090
--------------------------------------------------
tot          7.238  29.758   9.907  46.902
 


 magnetization (x)
 
# of ion       s       p       d       tot
------------------------------------------
    1       -0.018  -0.019  -4.628  -4.665
    2        0.018   0.019   4.628   4.665
    3        0.002   0.015   0.000   0.017
    4        0.002   0.015   0.000   0.017
    5       -0.002  -0.015   0.000  -0.017
    6       -0.002  -0.015   0.000  -0.017
--------------------------------------------------
tot          0.000  -0.000   0.000  -0.000
 
 BZINTS: Fermi energy:  1.271168; 54.000000 electrons
         Band energy:-762.113297;  BLOECHL correction:  0.000000

 total amount of memory used by VASP MPI-rank0    83772. kBytes
=======================================================================

   base      :      30000. kBytes
   nonl-proj :      36748. kBytes
   fftplans  :       1875. kBytes
   grid      :       2467. kBytes
   one-center:        186. kBytes
   wavefun   :      12496. kBytes
 
  
  
 General timing and accounting informations for this job:
 ========================================================
  
                  Total CPU time used (sec):       67.496
                            User time (sec):       48.292
                          System time (sec):       19.203
                         Elapsed time (sec):       67.591
  
                   Maximum memory used (kb):       94980.
                   Average memory used (kb):           0.
  
                          Minor page faults:        19617
                          Major page faults:            7
                 Voluntary context switches:          219
