 vasp.5.4.4.18Apr17-6-g9f103f2a35 (build Apr 24 2018 11:19:41) complex          
  
 executed on         CrayXC-Intel date 2022.02.21  17:04:59
 running on  192 total cores
 distrk:  each k-point on   48 cores,    4 groups
 distr:  one band on NCORES_PER_BAND=  12 cores,    4 groups


--------------------------------------------------------------------------------------------------------


 INCAR:
 POTCAR:    PAW_PBE Mn_pv 02Aug2007               
 POTCAR:    PAW_PBE F 08Apr2002                   
 POTCAR:    PAW_PBE H 15Jun2001                   

 ----------------------------------------------------------------------------- 
|                                                                             |
|           W    W    AA    RRRRR   N    N  II  N    N   GGGG   !!!           |
|           W    W   A  A   R    R  NN   N  II  NN   N  G    G  !!!           |
|           W    W  A    A  R    R  N N  N  II  N N  N  G       !!!           |
|           W WW W  AAAAAA  RRRRR   N  N N  II  N  N N  G  GGG   !            |
|           WW  WW  A    A  R   R   N   NN  II  N   NN  G    G                |
|           W    W  A    A  R    R  N    N  II  N    N   GGGG   !!!           |
|                                                                             |
|      You have enabled k-point parallelism (KPAR>1).                         |
|      This developmental code was originally  written by Paul Kent at ORNL,  |
|      and carefully double checked in Vienna.                                |
|      GW as well as linear response parallelism added by Martijn Marsman     |
|      and Georg Kresse.                                                      |
|      Carefully verify results versus KPAR=1.                                |
|      Report problems to Paul Kent and Vienna.                               |
|                                                                             |
 ----------------------------------------------------------------------------- 

 POTCAR:    PAW_PBE Mn_pv 02Aug2007               
   VRHFIN =Mn: 3p4s3d                                                           
   LEXCH  = PE                                                                  
   EATOM  =  2025.2664 eV,  148.8529 Ry                                         
                                                                                
   TITEL  = PAW_PBE Mn_pv 02Aug2007                                             
   LULTRA =        F    use ultrasoft PP ?                                      
   IUNSCR =        1    unscreen: 0-lin 1-nonlin 2-no                           
   RPACOR =    2.080    partial core radius                                     
   POMASS =   54.938; ZVAL   =   13.000    mass and valenz                      
   RCORE  =    2.300    outmost cutoff radius                                   
   RWIGS  =    2.500; RWIGS  =    1.323    wigner-seitz radius (au A)           
   ENMAX  =  269.864; ENMIN  =  202.398 eV                                      
   ICORE  =        3    local potential                                         
   LCOR   =        T    correct aug charges                                     
   LPAW   =        T    paw PP                                                  
   EAUG   =  569.085                                                            
   DEXC   =    0.000                                                            
   RMAX   =    2.343    core radius for proj-oper                               
   RAUG   =    1.300    factor for augmentation sphere                          
   RDEP   =    2.338    radius for radial grids                                 
   RDEPT  =    1.798    core radius for aug-charge                              
                                                                                
   Atomic configuration                                                         
    8 entries                                                                   
     n  l   j            E        occ.                                          
     1  0  0.50     -6424.8287   2.0000                                         
     2  0  0.50      -739.1154   2.0000                                         
     2  1  1.50      -625.3949   6.0000                                         
     3  0  0.50       -81.6100   2.0000                                         
     3  1  1.50       -50.4667   6.0000                                         
     3  2  2.50        -3.3745   6.0000                                         
     4  0  0.50        -4.1331   1.0000                                         
     4  3  2.50        -1.3606   0.0000                                         
   Description                                                                  
     l       E           TYP  RCUT    TYP  RCUT                                 
     1    -50.4666628     23  2.000                                             
     1     -1.3605826     23  2.000                                             
     2     -3.3744729     23  2.300                                             
     2     -4.7350555     23  2.300                                             
     0     -4.1331431     23  2.300                                             
     0      7.6656591     23  2.300                                             
     3      9.5240782     23  2.300                                             
  local pseudopotential read in
  partial core-charges read in
  partial kinetic energy density read in
  atomic valenz-charges read in
  non local Contribution for L=           1  read in
    real space projection operators read in
  non local Contribution for L=           1  read in
    real space projection operators read in
  non local Contribution for L=           2  read in
    real space projection operators read in
  non local Contribution for L=           2  read in
    real space projection operators read in
  non local Contribution for L=           0  read in
    real space projection operators read in
  non local Contribution for L=           0  read in
    real space projection operators read in
    PAW grid and wavefunctions read in
 
   number of l-projection  operators is LMAX  =           6
   number of lm-projection operators is LMMAX =          18
 
 POTCAR:    PAW_PBE F 08Apr2002                   
   VRHFIN =F: s2p5                                                              
   LEXCH  = PE                                                                  
   EATOM  =   659.6475 eV,   48.4827 Ry                                         
                                                                                
   TITEL  = PAW_PBE F 08Apr2002                                                 
   LULTRA =        F    use ultrasoft PP ?                                      
   IUNSCR =        1    unscreen: 0-lin 1-nonlin 2-no                           
   RPACOR =    1.200    partial core radius                                     
   POMASS =   18.998; ZVAL   =    7.000    mass and valenz                      
   RCORE  =    1.520    outmost cutoff radius                                   
   RWIGS  =    1.500; RWIGS  =    0.794    wigner-seitz radius (au A)           
   ENMAX  =  400.000; ENMIN  =  300.000 eV                                      
   ICORE  =        2    local potential                                         
   LCOR   =        T    correct aug charges                                     
   LPAW   =        T    paw PP                                                  
   EAUG   =  613.614                                                            
   RMAX   =    1.555    core radius for proj-oper                               
   RAUG   =    1.300    factor for augmentation sphere                          
   RDEP   =    1.539    radius for radial grids                                 
   RDEPT  =    1.299    core radius for aug-charge                              
                                                                                
   Atomic configuration                                                         
    4 entries                                                                   
     n  l   j            E        occ.                                          
     1  0  0.50      -663.3661   2.0000                                         
     2  0  0.50       -29.8995   2.0000                                         
     2  1  0.50       -11.1114   5.0000                                         
     3  2  1.50       -10.8847   0.0000                                         
   Description                                                                  
     l       E           TYP  RCUT    TYP  RCUT                                 
     0    -29.8995018     23  1.200                                             
     0     -9.5240782     23  1.200                                             
     1    -11.1113914     23  1.520                                             
     1      1.3605826     23  1.520                                             
     2    -10.8846608      7  1.500                                             
  local pseudopotential read in
  partial core-charges read in
  partial kinetic energy density read in
  atomic valenz-charges read in
  non local Contribution for L=           0  read in
    real space projection operators read in
  non local Contribution for L=           0  read in
    real space projection operators read in
  non local Contribution for L=           1  read in
    real space projection operators read in
  non local Contribution for L=           1  read in
    real space projection operators read in
    PAW grid and wavefunctions read in
 
   number of l-projection  operators is LMAX  =           4
   number of lm-projection operators is LMMAX =           8
 
 POTCAR:    PAW_PBE H 15Jun2001                   
   VRHFIN =H: ultrasoft test                                                    
   LEXCH  = PE                                                                  
   EATOM  =    12.4884 eV,    0.9179 Ry                                         
                                                                                
   TITEL  = PAW_PBE H 15Jun2001                                                 
   LULTRA =        F    use ultrasoft PP ?                                      
   IUNSCR =        0    unscreen: 0-lin 1-nonlin 2-no                           
   RPACOR =    0.000    partial core radius                                     
   POMASS =    1.000; ZVAL   =    1.000    mass and valenz                      
   RCORE  =    1.100    outmost cutoff radius                                   
   RWIGS  =    0.700; RWIGS  =    0.370    wigner-seitz radius (au A)           
   ENMAX  =  250.000; ENMIN  =  200.000 eV                                      
   RCLOC  =    0.701    cutoff for local pot                                    
   LCOR   =        T    correct aug charges                                     
   LPAW   =        T    paw PP                                                  
   EAUG   =  400.000                                                            
   RMAX   =    1.123    core radius for proj-oper                               
   RAUG   =    1.200    factor for augmentation sphere                          
   RDEP   =    1.112    radius for radial grids                                 
   RDEPT  =    0.926    core radius for aug-charge                              
                                                                                
   Atomic configuration                                                         
    2 entries                                                                   
     n  l   j            E        occ.                                          
     1  0  0.50        -6.4927   1.0000                                         
     2  1  0.50        -3.4015   0.0000                                         
   Description                                                                  
     l       E           TYP  RCUT    TYP  RCUT                                 
     0     -6.4927494     23  1.100                                             
     0      6.8029130     23  1.100                                             
     1     -4.0817478     23  1.100                                             
  local pseudopotential read in
  atomic valenz-charges read in
  non local Contribution for L=           0  read in
    real space projection operators read in
  non local Contribution for L=           0  read in
    real space projection operators read in
  non local Contribution for L=           1  read in
    real space projection operators read in
    PAW grid and wavefunctions read in
 
   number of l-projection  operators is LMAX  =           3
   number of lm-projection operators is LMMAX =           5
 

 ----------------------------------------------------------------------------- 
|                                                                             |
|  ADVICE TO THIS USER RUNNING 'VASP/VAMP'   (HEAR YOUR MASTER'S VOICE ...):  |
|                                                                             |
|      You have a (more or less) 'large supercell' and for larger cells       |
|      it might be more efficient to use real space projection opertators     |
|      So try LREAL= Auto  in the INCAR   file.                               |
|      Mind:          For very  accurate calculation you might also keep the  |
|      reciprocal projection scheme          (i.e. LREAL=.FALSE.)             |
|                                                                             |
 ----------------------------------------------------------------------------- 


 ----------------------------------------------------------------------------- 
|                                                                             |
|  ADVICE TO THIS USER RUNNING 'VASP/VAMP'   (HEAR YOUR MASTER'S VOICE ...):  |
|                                                                             |
|      You enforced a specific xc-type in the INCAR file,                     |
|      a different type was found on the POTCAR file                          |
|          I HOPE YOU KNOW, WHAT YOU ARE  DOING                               |
|                                                                             |
 ----------------------------------------------------------------------------- 

  PAW_PBE Mn_pv 02Aug2007               :
 energy of atom  1       EATOM=-2025.2664
 kinetic energy error for atom=    0.0020 (will be added to EATOM!!)
  PAW_PBE F 08Apr2002                   :
 energy of atom  2       EATOM= -659.6475
 kinetic energy error for atom=    0.0140 (will be added to EATOM!!)
  PAW_PBE H 15Jun2001                   :
 energy of atom  3       EATOM=  -12.4884
 kinetic energy error for atom=    0.0002 (will be added to EATOM!!)
 
 
 POSCAR: Mn  F  H                                
  positions in direct lattice
  velocities in cartesian coordinates
 exchange correlation table for  LEXCH =       14
   RHO(1)=    0.500       N(1)  =     2000
   RHO(2)=  100.500       N(2)  =     4000
 


--------------------------------------------------------------------------------------------------------


 ion  position               nearest neighbor table
   1  0.169  0.165  0.124-  74 2.09  73 2.10  76 2.12  80 2.13  75 2.13  79 2.14
   2  0.002  0.996  0.998- 170 2.09 204 2.09  75 2.10 117 2.11 105 2.12 182 2.14
   3  0.169  0.165  0.375-  78 2.09  77 2.10  84 2.12  80 2.13  83 2.13  79 2.14
   4  0.995  0.015  0.249- 217 1.59  79 2.08 208 2.13 170 2.13 174 2.14 109 2.18 105 2.18
   5  0.167  0.165  0.624-  82 2.09  81 2.09  87 2.13  88 2.13  84 2.13  83 2.13
   6  0.002  0.996  0.501- 174 2.09 212 2.09  83 2.10 113 2.11 109 2.12 178 2.14
   7  0.167  0.165  0.874-  86 2.09  85 2.09  87 2.13  88 2.13  76 2.13  75 2.13
   8  0.999  1.000  0.749- 216 2.10  87 2.10 182 2.12 178 2.12 117 2.13 113 2.13
   9  0.167  0.499  0.124-  89 2.09  90 2.10  92 2.12  96 2.13  91 2.13  95 2.13
  10  0.001  0.331  1.000-  91 2.09 172 2.09  85 2.12 186 2.12 198 2.13  73 2.15
  11  0.167  0.499  0.374-  93 2.09  94 2.10 100 2.12  96 2.13  99 2.13  95 2.13
  12  0.999  0.333  0.249-  95 2.09 176 2.11 186 2.12 190 2.12  77 2.13  73 2.13
  13  0.167  0.499  0.624-  97 2.09  98 2.09 100 2.13 103 2.13 104 2.13  99 2.13
  14  0.001  0.331  0.499-  99 2.09 180 2.09  81 2.12 190 2.12 194 2.13  77 2.15
  15  0.167  0.499  0.875- 101 2.09 102 2.09  92 2.13 103 2.13 104 2.13  91 2.13
  16  1.000  0.332  0.749- 184 2.09 103 2.09 194 2.13 198 2.13  85 2.13  81 2.13
  17  0.164  0.836  0.125- 105 2.11 106 2.12 111 2.12 112 2.12 108 2.13 107 2.13
  18  1.000  0.667  1.000- 188 2.10 107 2.10 214 2.12 202 2.13  89 2.13 101 2.13
  19  0.164  0.836  0.374- 109 2.11 110 2.12 111 2.12 112 2.12 116 2.13 115 2.13
  20  0.001  0.666  0.249- 111 2.09 192 2.10 206 2.12 202 2.12  93 2.13  89 2.13
  21  0.167  0.832  0.625- 114 2.09 113 2.09 120 2.13 119 2.13 115 2.13 116 2.13
  22  1.000  0.667  0.499- 196 2.10 115 2.10 210 2.12 206 2.13  93 2.13  97 2.13
  23  0.167  0.832  0.874- 118 2.09 117 2.09 120 2.13 119 2.13 107 2.13 108 2.13
  24  0.001  0.665  0.749- 119 2.09 200 2.10 210 2.12 214 2.12 101 2.13  97 2.13
  25  0.500  0.166  0.124- 122 2.10 121 2.10 127 2.12 124 2.13 128 2.13 123 2.13
  26  0.335  0.999  0.999- 123 2.10 108 2.10  74 2.12 165 2.12 153 2.13  86 2.13
  27  0.500  0.166  0.375- 126 2.10 125 2.10 127 2.13 132 2.13 131 2.13 128 2.13
  28  0.334  1.000  0.249- 112 2.09 127 2.09  78 2.13  74 2.13 153 2.13 157 2.13
  29  0.500  0.166  0.625- 130 2.09 129 2.10 131 2.12 136 2.13 132 2.13 135 2.13
  30  0.335  0.999  0.500- 131 2.10 116 2.10  78 2.12 161 2.12 157 2.13  82 2.13
  31  0.500  0.166  0.874- 134 2.09 133 2.10 123 2.12 136 2.13 124 2.13 135 2.13
  32  0.334  0.999  0.749- 135 2.09 120 2.09  86 2.13  82 2.13 165 2.13 161 2.13
  33  0.500  0.501  0.125- 137 2.10 138 2.10 140 2.13 144 2.13 143 2.13 139 2.13
  34  0.334  0.333  0.999- 139 2.09  76 2.10 102 2.13 121 2.13 133 2.13  90 2.13
  35  0.500  0.501  0.374- 141 2.10 142 2.10 148 2.13 144 2.13 143 2.13 147 2.13
  36  0.334  0.333  0.249- 143 2.09  80 2.10  94 2.13  90 2.13 125 2.13 121 2.13
  37  0.500  0.500  0.624- 145 2.09 146 2.09 147 2.13 152 2.13 151 2.13 148 2.13
  38  0.334  0.333  0.499- 147 2.09  84 2.10  98 2.13 129 2.13 125 2.13  94 2.13
  39  0.500  0.500  0.875- 149 2.09 150 2.09 139 2.13 152 2.13 151 2.13 140 2.13
  40  0.334  0.332  0.749- 151 2.10  88 2.10 133 2.13 129 2.13 102 2.13  98 2.13
  41  0.500  0.832  0.125- 153 2.09 154 2.09 159 2.13 155 2.13 156 2.13 160 2.13
  42  0.333  0.666  0.000- 155 2.09  92 2.10 137 2.12 118 2.13 106 2.13 149 2.13
  43  0.500  0.832  0.374- 157 2.09 158 2.09 159 2.13 163 2.13 164 2.13 160 2.13
  44  0.331  0.668  0.249- 159 2.09  96 2.10 106 2.13 110 2.13 141 2.14 137 2.14
  45  0.500  0.832  0.625- 162 2.09 161 2.10 168 2.13 164 2.13 167 2.13 163 2.13
  46  0.333  0.666  0.499- 163 2.09 100 2.10 141 2.12 114 2.13 110 2.13 145 2.13
  47  0.500  0.832  0.874- 166 2.09 165 2.10 168 2.13 156 2.13 167 2.13 155 2.13
  48  0.333  0.665  0.749- 104 2.09 167 2.09 145 2.13 149 2.13 118 2.13 114 2.13
  49  0.831  0.165  0.124- 169 2.09 170 2.12 175 2.12 172 2.12 171 2.12 176 2.15
  50  0.666  0.999  0.999- 171 2.09 156 2.09 201 2.13 134 2.13 213 2.13 122 2.13
  51  0.831  0.165  0.375- 173 2.09 174 2.12 175 2.12 180 2.12 179 2.12 176 2.15
  52  0.667  0.999  0.249- 160 2.09 175 2.10 201 2.13 205 2.13 126 2.13 122 2.13
  53  0.833  0.166  0.624- 178 2.10 177 2.10 179 2.12 184 2.13 183 2.13 180 2.13
  54  0.666  0.999  0.500- 179 2.09 164 2.09 205 2.13 130 2.13 209 2.13 126 2.13
  55  0.833  0.166  0.874- 182 2.10 181 2.10 171 2.12 184 2.13 183 2.13 172 2.13
  56  0.667  0.999  0.749- 183 2.10 168 2.10 130 2.13 134 2.13 213 2.13 209 2.13
  57  0.834  0.499  0.124- 185 2.09 186 2.10 188 2.13 187 2.13 192 2.13 191 2.13
  58  0.666  0.333  0.999- 124 2.09 187 2.10 169 2.12 150 2.12 138 2.13 181 2.13
  59  0.834  0.499  0.374- 189 2.09 190 2.10 196 2.13 195 2.13 192 2.13 191 2.13
  60  0.666  0.334  0.249- 128 2.10 191 2.10 142 2.13 138 2.13 173 2.13 169 2.13
  61  0.834  0.499  0.624- 193 2.10 194 2.10 200 2.13 196 2.13 199 2.13 195 2.13
  62  0.666  0.333  0.500- 132 2.09 195 2.10 173 2.12 146 2.12 142 2.13 177 2.13
  63  0.834  0.499  0.875- 197 2.10 198 2.10 200 2.13 188 2.13 199 2.13 187 2.13
  64  0.667  0.333  0.749- 199 2.09 136 2.10 177 2.13 181 2.13 150 2.13 146 2.13
  65  0.836  0.836  0.125- 201 2.09 202 2.10 204 2.12 207 2.13 208 2.14 203 2.15
  66  0.668  0.666  1.000- 203 2.09 140 2.10 185 2.13 166 2.13 154 2.13 197 2.13
  67  0.836  0.836  0.374- 205 2.09 206 2.10 212 2.12 207 2.13 208 2.14 211 2.15
  68  0.669  0.668  0.249- 207 2.10 144 2.11 158 2.12 154 2.12 189 2.13 185 2.13
  69  0.833  0.831  0.625- 210 2.10 209 2.10 212 2.11 215 2.12 211 2.13 216 2.13
  70  0.668  0.666  0.499- 211 2.09 148 2.10 189 2.13 162 2.13 158 2.13 193 2.13
  71  0.833  0.831  0.874- 214 2.10 213 2.10 204 2.11 215 2.12 203 2.13 216 2.13
  72  0.667  0.665  0.749- 152 2.09 215 2.09 197 2.13 193 2.13 166 2.13 162 2.13
  73  0.063  0.263  0.127-   1 2.10  12 2.13  10 2.15
  74  0.272  0.066  0.123-   1 2.09  26 2.12  28 2.13
  75  0.102  0.100  0.000-   2 2.10   1 2.13   7 2.13
  76  0.231  0.232  0.999-  34 2.10   1 2.12   7 2.13
  77  0.063  0.263  0.372-   3 2.10  12 2.13  14 2.15
  78  0.272  0.066  0.376-   3 2.09  30 2.12  28 2.13
  79  0.117  0.089  0.249-   4 2.08   1 2.14   3 2.14
  80  0.231  0.233  0.249-  36 2.10   1 2.13   3 2.13
  81  0.065  0.266  0.625-   5 2.09  14 2.12  16 2.13
  82  0.269  0.065  0.624-   5 2.09  32 2.13  30 2.13
  83  0.102  0.100  0.499-   6 2.10   3 2.13   5 2.13
  84  0.231  0.232  0.500-  38 2.10   3 2.12   5 2.13
  85  0.065  0.266  0.874-   7 2.09  10 2.12  16 2.13
  86  0.269  0.065  0.875-   7 2.09  32 2.13  26 2.13
  87  0.101  0.100  0.749-   8 2.10   7 2.13   5 2.13
  88  0.232  0.231  0.749-  40 2.10   7 2.13   5 2.13
  89  0.065  0.601  0.124-   9 2.09  20 2.13  18 2.13
  90  0.268  0.398  0.125-   9 2.10  36 2.13  34 2.13
  91  0.102  0.432  1.000-  10 2.09   9 2.13  15 2.13
  92  0.232  0.565  1.000-  42 2.10   9 2.12  15 2.13
  93  0.065  0.601  0.375-  11 2.09  20 2.13  22 2.13
  94  0.268  0.398  0.374-  11 2.10  36 2.13  38 2.13
  95  0.102  0.433  0.249-  12 2.09  11 2.13   9 2.13
  96  0.231  0.565  0.249-  44 2.10   9 2.13  11 2.13
  97  0.066  0.601  0.623-  13 2.09  24 2.13  22 2.13
  98  0.268  0.398  0.625-  13 2.09  38 2.13  40 2.13
  99  0.102  0.432  0.499-  14 2.09  11 2.13  13 2.13
 100  0.232  0.565  0.499-  46 2.10  11 2.12  13 2.13
 101  0.066  0.601  0.876-  15 2.09  24 2.13  18 2.13
 102  0.268  0.398  0.874-  15 2.09  34 2.13  40 2.13
 103  0.101  0.434  0.749-  16 2.09  13 2.13  15 2.13
 104  0.232  0.564  0.749-  48 2.09  15 2.13  13 2.13
 105  0.063  0.938  0.129-  17 2.11   2 2.12   4 2.18
 106  0.266  0.733  0.124-  17 2.12  44 2.13  42 2.13
 107  0.100  0.770  1.000-  18 2.10  23 2.13  17 2.13
 108  0.231  0.900  1.000-  26 2.10  17 2.13  23 2.13
 109  0.063  0.938  0.370-  19 2.11   6 2.12   4 2.18
 110  0.266  0.733  0.375-  19 2.12  44 2.13  46 2.13
 111  0.102  0.768  0.249-  20 2.09  19 2.12  17 2.12
 112  0.233  0.898  0.249-  28 2.09  19 2.12  17 2.12
 113  0.067  0.934  0.627-  21 2.09   6 2.11   8 2.13
 114  0.268  0.731  0.624-  21 2.09  46 2.13  48 2.13
 115  0.100  0.770  0.499-  22 2.10  21 2.13  19 2.13
 116  0.231  0.900  0.499-  30 2.10  19 2.13  21 2.13
 117  0.067  0.934  0.872-  23 2.09   2 2.11   8 2.13
 118  0.268  0.731  0.875-  23 2.09  42 2.13  48 2.13
 119  0.102  0.767  0.749-  24 2.09  21 2.13  23 2.13
 120  0.233  0.897  0.749-  32 2.09  23 2.13  21 2.13
 121  0.398  0.267  0.124-  25 2.10  34 2.13  36 2.13
 122  0.602  0.065  0.125-  25 2.10  52 2.13  50 2.13
 123  0.436  0.100  0.999-  26 2.10  31 2.12  25 2.13
 124  0.565  0.232  0.999-  58 2.09  31 2.13  25 2.13
 125  0.398  0.267  0.375-  27 2.10  38 2.13  36 2.13
 126  0.602  0.065  0.374-  27 2.10  52 2.13  54 2.13
 127  0.436  0.101  0.249-  28 2.09  25 2.12  27 2.13
 128  0.565  0.232  0.249-  60 2.10  27 2.13  25 2.13
 129  0.399  0.268  0.624-  29 2.10  40 2.13  38 2.13
 130  0.601  0.064  0.625-  29 2.09  56 2.13  54 2.13
 131  0.436  0.100  0.500-  30 2.10  29 2.12  27 2.13
 132  0.565  0.232  0.500-  62 2.09  29 2.13  27 2.13
 133  0.399  0.268  0.875-  31 2.10  40 2.13  34 2.13
 134  0.601  0.064  0.874-  31 2.09  56 2.13  50 2.13
 135  0.435  0.101  0.749-  32 2.09  29 2.13  31 2.13
 136  0.566  0.232  0.749-  64 2.10  31 2.13  29 2.13
 137  0.398  0.602  0.125-  33 2.10  42 2.12  44 2.14
 138  0.602  0.399  0.124-  33 2.10  60 2.13  58 2.13
 139  0.435  0.435  0.000-  34 2.09  39 2.13  33 2.13
 140  0.566  0.565  0.999-  66 2.10  33 2.13  39 2.13
 141  0.398  0.602  0.373-  35 2.10  46 2.12  44 2.14
 142  0.602  0.399  0.375-  35 2.10  60 2.13  62 2.13
 143  0.435  0.435  0.249-  36 2.09  33 2.13  35 2.13
 144  0.566  0.566  0.249-  68 2.11  33 2.13  35 2.13
 145  0.398  0.601  0.624-  37 2.09  48 2.13  46 2.13
 146  0.601  0.399  0.625-  37 2.09  62 2.12  64 2.13
 147  0.435  0.435  0.499-  38 2.09  37 2.13  35 2.13
 148  0.566  0.565  0.500-  70 2.10  35 2.13  37 2.13
 149  0.398  0.601  0.875-  39 2.09  48 2.13  42 2.13
 150  0.601  0.399  0.874-  39 2.09  58 2.12  64 2.13
 151  0.435  0.434  0.749-  40 2.10  37 2.13  39 2.13
 152  0.565  0.565  0.749-  72 2.09  39 2.13  37 2.13
 153  0.399  0.933  0.125-  41 2.09  26 2.13  28 2.13
 154  0.602  0.731  0.125-  41 2.09  68 2.12  66 2.13
 155  0.435  0.767  0.999-  42 2.09  41 2.13  47 2.13
 156  0.565  0.898  0.999-  50 2.09  47 2.13  41 2.13
 157  0.399  0.933  0.374-  43 2.09  30 2.13  28 2.13
 158  0.602  0.731  0.374-  43 2.09  68 2.12  70 2.13
 159  0.434  0.767  0.249-  44 2.09  43 2.13  41 2.13
 160  0.566  0.897  0.249-  52 2.09  43 2.13  41 2.13
 161  0.399  0.933  0.625-  45 2.10  30 2.12  32 2.13
 162  0.602  0.731  0.624-  45 2.09  70 2.13  72 2.13
 163  0.435  0.767  0.499-  46 2.09  43 2.13  45 2.13
 164  0.565  0.898  0.499-  54 2.09  45 2.13  43 2.13
 165  0.399  0.933  0.874-  47 2.10  26 2.12  32 2.13
 166  0.602  0.731  0.875-  47 2.09  66 2.13  72 2.13
 167  0.435  0.766  0.749-  48 2.09  45 2.13  47 2.13
 168  0.566  0.897  0.749-  56 2.10  47 2.13  45 2.13
 169  0.730  0.267  0.124-  49 2.09  58 2.12  60 2.13
 170  0.925  0.056  0.114-   2 2.09  49 2.12   4 2.13
 171  0.765  0.103  0.998-  50 2.09  55 2.12  49 2.12
 172  0.899  0.231  0.000-  10 2.09  49 2.12  55 2.13
 173  0.730  0.267  0.375-  51 2.09  62 2.12  60 2.13
 174  0.925  0.056  0.385-   6 2.09  51 2.12   4 2.14
 175  0.768  0.100  0.249-  52 2.10  51 2.12  49 2.12
 176  0.891  0.237  0.249-  12 2.11  49 2.15  51 2.15
 177  0.733  0.268  0.625-  53 2.10  64 2.13  62 2.13
 178  0.935  0.064  0.624-  53 2.10   8 2.12   6 2.14
 179  0.765  0.103  0.501-  54 2.09  53 2.12  51 2.12
 180  0.899  0.230  0.498-  14 2.09  51 2.12  53 2.13
 181  0.733  0.268  0.874-  55 2.10  64 2.13  58 2.13
 182  0.935  0.064  0.875-  55 2.10   8 2.12   2 2.14
 183  0.769  0.100  0.749-  56 2.10  55 2.13  53 2.13
 184  0.899  0.231  0.749-  16 2.09  53 2.13  55 2.13
 185  0.733  0.601  0.125-  57 2.09  68 2.13  66 2.13
 186  0.936  0.398  0.124-  57 2.10  12 2.12  10 2.12
 187  0.769  0.434  1.000-  58 2.10  57 2.13  63 2.13
 188  0.899  0.565  1.000-  18 2.10  57 2.13  63 2.13
 189  0.733  0.601  0.374-  59 2.09  68 2.13  70 2.13
 190  0.936  0.398  0.375-  59 2.10  12 2.12  14 2.12
 191  0.769  0.434  0.249-  60 2.10  57 2.13  59 2.13
 192  0.900  0.564  0.249-  20 2.10  57 2.13  59 2.13
 193  0.733  0.601  0.624-  61 2.10  72 2.13  70 2.13
 194  0.935  0.397  0.624-  61 2.10  16 2.13  14 2.13
 195  0.769  0.434  0.499-  62 2.10  59 2.13  61 2.13
 196  0.899  0.565  0.499-  22 2.10  59 2.13  61 2.13
 197  0.733  0.601  0.875-  63 2.10  72 2.13  66 2.13
 198  0.935  0.397  0.875-  63 2.10  16 2.13  10 2.13
 199  0.769  0.434  0.749-  64 2.09  63 2.13  61 2.13
 200  0.900  0.563  0.749-  24 2.10  63 2.13  61 2.13
 201  0.732  0.935  0.124-  65 2.09  50 2.13  52 2.13
 202  0.935  0.732  0.125-  65 2.10  20 2.12  18 2.13
 203  0.769  0.768  0.001-  66 2.09  71 2.13  65 2.15
 204  0.902  0.894  0.997-   2 2.09  71 2.11  65 2.12
 205  0.732  0.935  0.375-  67 2.09  54 2.13  52 2.13
 206  0.935  0.732  0.373-  67 2.10  20 2.12  22 2.13
 207  0.770  0.770  0.249-  68 2.10  65 2.13  67 2.13
 208  0.899  0.905  0.249-   4 2.13  65 2.14  67 2.14
 209  0.732  0.934  0.624-  69 2.10  56 2.13  54 2.13
 210  0.934  0.730  0.625-  69 2.10  22 2.12  24 2.12
 211  0.769  0.768  0.498-  70 2.09  69 2.13  67 2.15
 212  0.902  0.894  0.502-   6 2.09  69 2.11  67 2.12
 213  0.732  0.934  0.875-  71 2.10  56 2.13  50 2.13
 214  0.934  0.730  0.873-  71 2.10  18 2.12  24 2.12
 215  0.767  0.767  0.749-  72 2.09  69 2.12  71 2.12
 216  0.898  0.897  0.749-   8 2.10  71 2.13  69 2.13
 217  0.973  0.122  0.250-   4 1.59
 

IMPORTANT INFORMATION: All symmetrisations will be switched off!
NOSYMM: (Re-)initialisation of all symmetry stuff for point group C_1.

 
 
 KPOINTS: KPOINTS created by Atomic Simulation Env

Automatic generation of k-mesh.
Space group operators:
 irot       det(A)        alpha          n_x          n_y          n_z        tau_x        tau_y        tau_z
    1     1.000000     0.000000     1.000000     0.000000     0.000000     0.000000     0.000000     0.000000
 
 Subroutine IBZKPT returns following result:
 ===========================================
 
 Found      4 irreducible k-points:
 
 Following reciprocal coordinates:
            Coordinates               Weight
  0.250000  0.250000  0.250000      2.000000
 -0.250000  0.250000  0.250000      2.000000
  0.250000 -0.250000  0.250000      2.000000
 -0.250000 -0.250000  0.250000      2.000000
 
 Following cartesian coordinates:
            Coordinates               Weight
  0.017111  0.017111  0.018996      2.000000
 -0.017111  0.017111  0.018996      2.000000
  0.017111 -0.017111  0.018996      2.000000
 -0.017111 -0.017111  0.018996      2.000000
 


--------------------------------------------------------------------------------------------------------




 Dimension of arrays:
   k-points           NKPTS =      4   k-points in BZ     NKDIM =      4   number of bands    NBANDS=   1168
   number of dos      NEDOS =    301   number of ions     NIONS =    217
   non local maximal  LDIM  =      6   non local SUM 2l+1 LMDIM =     18
   total plane-waves  NPLWV = 829440
   max r-space proj   IRMAX =      1   max aug-charges    IRDMAX=  71863
   dimension x,y,z NGX =    96 NGY =   96 NGZ =   90
   dimension x,y,z NGXF=   192 NGYF=  192 NGZF=  180
   support grid    NGXF=   384 NGYF=  384 NGZF=  360
   ions per type =              72 144   1
   NGX,Y,Z   is equivalent  to a cutoff of  10.92, 10.92, 11.37 a.u.
   NGXF,Y,Z  is equivalent  to a cutoff of  21.85, 21.85, 22.74 a.u.

 SYSTEM =  unknown system                          
 POSCAR =  Mn  F  H                                

 Startparameter for this run:
   NWRITE =      2    write-flag & timer
   PREC   = normal    normal or accurate (medium, high low for compatibility)
   ISTART =      0    job   : 0-new  1-cont  2-samecut
   ICHARG =      2    charge: 1-file 2-atom 10-const
   ISPIN  =      2    spin polarized calculation?
   LNONCOLLINEAR =      F non collinear calculations
   LSORBIT =      F    spin-orbit coupling
   INIWAV =      1    electr: 0-lowe 1-rand  2-diag
   LASPH  =      T    aspherical Exc in radial PAW
   METAGGA=      F    non-selfconsistent MetaGGA calc.

 Electronic Relaxation 1
   ENCUT  =  700.0 eV  51.45 Ry    7.17 a.u.  31.52 31.52 28.39*2*pi/ulx,y,z
   ENINI  =  700.0     initial cutoff
   ENAUG  =  613.6 eV  augmentation charge cutoff
   NELM   =     60;   NELMIN=  2; NELMDL= -5     # of ELM steps 
   EDIFF  = 0.1E-06   stopping-criterion for ELM
   LREAL  =      F    real-space projection
   NLSPLINE    = F    spline interpolate recip. space projectors
   LCOMPAT=      F    compatible to vasp.4.4
   GGA_COMPAT  = T    GGA compatible to vasp.4.4-vasp.4.6
   LMAXPAW     = -100 max onsite density
   LMAXMIX     =    4 max onsite mixed and CHGCAR
   VOSKOWN=      0    Vosko Wilk Nusair interpolation
   ROPT   =    0.00000   0.00000   0.00000
 Ionic relaxation
   EDIFFG = -.5E-02   stopping-criterion for IOM
   NSW    =     80    number of steps for IOM
   NBLOCK =      1;   KBLOCK =     80    inner block; outer block 
   IBRION =      1    ionic relax: 0-MD 1-quasi-New 2-CG
   NFREE  =      0    steps in history (QN), initial steepest desc. (CG)
   ISIF   =      2    stress and relaxation
   IWAVPR =     11    prediction:  0-non 1-charg 2-wave 3-comb
   ISYM   =      0    0-nonsym 1-usesym 2-fastsym
   LCORR  =      T    Harris-Foulkes like correction to forces

   POTIM  = 0.5000    time-step for ionic-motion
   TEIN   =    0.0    initial temperature
   TEBEG  =    0.0;   TEEND  =   0.0 temperature during run
   SMASS  =  -3.00    Nose mass-parameter (am)
   estimated Nose-frequenzy (Omega)   =  0.10E-29 period in steps =****** mass=  -0.488E-26a.u.
   SCALEE = 1.0000    scale energy and forces
   NPACO  =    256;   APACO  = 16.0  distance and # of slots for P.C.
   PSTRESS=    0.0 pullay stress

  Mass of Ions in am
   POMASS =  54.94 19.00  1.00
  Ionic Valenz
   ZVAL   =  13.00  7.00  1.00
  Atomic Wigner-Seitz radii
   RWIGS  =  -1.00 -1.00 -1.00
  virtual crystal weights 
   VCA    =   1.00  1.00  1.00
   NELECT =    1945.0000    total number of electrons
   NUPDOWN=      -1.0000    fix difference up-down

 DOS related values:
   EMIN   =  10.00;   EMAX   =-10.00  energy-range for DOS
   EFERMI =   0.00
   ISMEAR =     0;   SIGMA  =   0.02  broadening in eV -4-tet -1-fermi 0-gaus

 Electronic relaxation 2 (details)
   IALGO  =     68    algorithm
   LDIAG  =      T    sub-space diagonalisation (order eigenvalues)
   LSUBROT=      F    optimize rotation matrix (better conditioning)
   TURBO    =      0    0=normal 1=particle mesh
   IRESTART =      0    0=no restart 2=restart with 2 vectors
   NREBOOT  =      0    no. of reboots
   NMIN     =      0    reboot dimension
   EREF     =   0.00    reference energy to select bands
   IMIX   =      4    mixing-type and parameters
     AMIX     =   0.40;   BMIX     =  1.00
     AMIX_MAG =   1.60;   BMIX_MAG =  1.00
     AMIN     =   0.10
     WC   =   100.;   INIMIX=   1;  MIXPRE=   1;  MAXMIX= -45

 Intra band minimization:
   WEIMIN = 0.0010     energy-eigenvalue tresh-hold
   EBREAK =  0.21E-10  absolut break condition
   DEPER  =   0.30     relativ break condition  

   TIME   =   0.40     timestep for ELM

  volume/ion in A,a.u.               =      12.95        87.36
  Fermi-wavevector in a.u.,A,eV,Ry     =   1.448291  2.736872 28.538842  2.097546
  Thomas-Fermi vector in A             =   2.566148
 
 Write flags
   LWAVE        =      T    write WAVECAR
   LDOWNSAMPLE  =      F    k-point downsampling of WAVECAR
   LCHARG       =      T    write CHGCAR
   LVTOT        =      F    write LOCPOT, total local potential
   LVHAR        =      F    write LOCPOT, Hartree potential only
   LELF         =      F    write electronic localiz. function (ELF)
   LORBIT       =     11    0 simple, 1 ext, 2 COOP (PROOUT), +10 PAW based schemes


 Dipole corrections
   LMONO  =      F    monopole corrections only (constant potential shift)
   LDIPOL =      F    correct potential (dipole corrections)
   IDIPOL =      0    1-x, 2-y, 3-z, 4-all directions 
   EPSILON=  1.0000000 bulk dielectric constant

 LDA+U is selected, type is set to LDAUTYPE =  2
   angular momentum for each species LDAUL =     2   -1   -1
   U (eV)           for each species LDAUU =   2.0  0.0  0.0
   J (eV)           for each species LDAUJ =   0.0  0.0  0.0
 Exchange correlation treatment:
   GGA     =    PS    GGA type
   LEXCH   =    14    internal setting for exchange type
   VOSKOWN=      0    Vosko Wilk Nusair interpolation
   LHFCALC =     F    Hartree Fock is set to
   LHFONE  =     F    Hartree Fock one center treatment
   AEXX    =    0.0000 exact exchange contribution

 Linear response parameters
   LEPSILON=     F    determine dielectric tensor
   LRPA    =     F    only Hartree local field effects (RPA)
   LNABLA  =     F    use nabla operator in PAW spheres
   LVEL    =     F    velocity operator in full k-point grid
   LINTERFAST=   F  fast interpolation
   KINTER  =     0    interpolate to denser k-point grid
   CSHIFT  =0.1000    complex shift for real part using Kramers Kronig
   OMEGAMAX=  -1.0    maximum frequency
   DEG_THRESHOLD= 0.2000000E-02 threshold for treating states as degnerate
   RTIME   =   -0.100 relaxation time in fs
  (WPLASMAI=    0.000 imaginary part of plasma frequency in eV, 0.658/RTIME)
   DFIELD  = 0.0000000 0.0000000 0.0000000 field for delta impulse in time
 
 Orbital magnetization related:
   ORBITALMAG=     F  switch on orbital magnetization
   LCHIMAG   =     F  perturbation theory with respect to B field
   DQ        =  0.001000  dq finite difference perturbation B field
   LLRAUG    =     F  two centre corrections for induced B field



--------------------------------------------------------------------------------------------------------


 quasi-Newton-method for relaxation of ions
 charge density and potential will be updated during run
 spin polarized calculation
 RMM-DIIS sequential band-by-band and
  variant of blocked Davidson during initial phase
 perform sub-space diagonalisation
    before iterative eigenvector-optimisation
 modified Broyden-mixing scheme, WC =      100.0
 initial mixing is a Kerker type mixing with AMIX =  0.4000 and BMIX =      1.0000
 Hartree-type preconditioning will be used
 using additional bands          195
 reciprocal scheme for non local part
 use partial core corrections
 calculate Harris-corrections to forces 
   (improved forces if not selfconsistent)
 use gradient corrections 
 use of overlap-Matrix (Vanderbilt PP)
 Gauss-broadening in eV      SIGMA  =   0.02


--------------------------------------------------------------------------------------------------------


  energy-cutoff  :      700.00
  volume of cell :     2809.16
      direct lattice vectors                 reciprocal lattice vectors
    14.610086635  0.000000000  0.000000000     0.068445864  0.000000000  0.000000000
     0.000000000 14.610086635  0.000000000     0.000000000  0.068445864  0.000000000
     0.000000000  0.000000000 13.160468869     0.000000000  0.000000000  0.075985135

  length of vectors
    14.610086635 14.610086635 13.160468869     0.068445864  0.068445864  0.075985135


 
 k-points in units of 2pi/SCALE and weight: KPOINTS created by Atomic Simulation Env
   0.01711147  0.01711147  0.01899628       0.250
  -0.01711147  0.01711147  0.01899628       0.250
   0.01711147 -0.01711147  0.01899628       0.250
  -0.01711147 -0.01711147  0.01899628       0.250
 
 k-points in reciprocal lattice and weights: KPOINTS created by Atomic Simulation Env
   0.25000000  0.25000000  0.25000000       0.250
  -0.25000000  0.25000000  0.25000000       0.250
   0.25000000 -0.25000000  0.25000000       0.250
  -0.25000000 -0.25000000  0.25000000       0.250
 
 position of ions in fractional coordinates (direct lattice) 
   0.16932318  0.16543335  0.12400795
   0.00246207  0.99613159  0.99773629
   0.16930133  0.16540204  0.37483261
   0.99485424  0.01530330  0.24948578
   0.16683653  0.16524388  0.62449103
   0.00243275  0.99610693  0.50121552
   0.16684966  0.16525875  0.87435634
   0.99861061  0.99974684  0.74946995
   0.16661790  0.49939263  0.12442437
   0.00089694  0.33093895  0.99990966
   0.16660623  0.49938520  0.37446155
   0.99937022  0.33326565  0.24944377
   0.16662345  0.49892204  0.62420258
   0.00089082  0.33091487  0.49896930
   0.16662756  0.49892308  0.87467045
   0.99999765  0.33243660  0.74944210
   0.16442288  0.83587991  0.12528688
   0.99969888  0.66709642  0.99965130
   0.16442885  0.83590217  0.37358442
   0.00075006  0.66595939  0.24945285
   0.16747524  0.83238308  0.62454356
   0.99968998  0.66711537  0.49925318
   0.16748082  0.83238230  0.87433715
   0.00109758  0.66500257  0.74945478
   0.50026454  0.16614773  0.12436830
   0.33489601  0.99854647  0.99899368
   0.50027080  0.16614933  0.37452413
   0.33394306  0.99967870  0.24943132
   0.50043366  0.16622871  0.62465037
   0.33489678  0.99854008  0.49987288
   0.50044362  0.16623612  0.87424401
   0.33374172  0.99939013  0.74943451
   0.50026740  0.50112919  0.12478628
   0.33369032  0.33323371  0.99946647
   0.50026465  0.50112298  0.37410524
   0.33409349  0.33336496  0.24944091
   0.49979889  0.49960628  0.62417561
   0.33367833  0.33321679  0.49940818
   0.49980627  0.49961915  0.87470968
   0.33355836  0.33244209  0.74943608
   0.50016114  0.83203700  0.12450361
   0.33273886  0.66636768  0.00014340
   0.50015416  0.83202879  0.37437497
   0.33097548  0.66819656  0.24943781
   0.50044220  0.83182488  0.62455481
   0.33272975  0.66636544  0.49872309
   0.50044483  0.83183180  0.87432682
   0.33337187  0.66539645  0.74943126
   0.83103618  0.16548772  0.12352521
   0.66584664  0.99931168  0.99914302
   0.83099157  0.16542161  0.37540213
   0.66685353  0.99850031  0.24945199
   0.83345517  0.16589740  0.62443868
   0.66582570  0.99930762  0.49977306
   0.83345300  0.16588790  0.87448695
   0.66726164  0.99862302  0.74945376
   0.83402059  0.49930621  0.12443924
   0.66637551  0.33334076  0.99928346
   0.83402909  0.49930567  0.37446255
   0.66632876  0.33356002  0.24945804
   0.83420855  0.49901409  0.62422562
   0.66638071  0.33332977  0.49962930
   0.83420382  0.49901818  0.87467116
   0.66710620  0.33309126  0.74945829
   0.83609436  0.83577562  0.12506362
   0.66792086  0.66621963  0.99978677
   0.83610922  0.83580251  0.37385693
   0.66858317  0.66753769  0.24945140
   0.83275807  0.83125857  0.62462531
   0.66792116  0.66621020  0.49910625
   0.83278285  0.83129309  0.87430686
   0.66672635  0.66507126  0.74944800
   0.06327974  0.26285967  0.12665845
   0.27246063  0.06647566  0.12289328
   0.10208291  0.09997421  0.00021933
   0.23146008  0.23230861  0.99893963
   0.06327067  0.26283805  0.37221272
   0.27243266  0.06644746  0.37597088
   0.11713037  0.08855116  0.24939241
   0.23138715  0.23284994  0.24943673
   0.06522274  0.26639792  0.62452470
   0.26870272  0.06454024  0.62428827
   0.10202347  0.09998494  0.49863147
   0.23145658  0.23227522  0.49990108
   0.06523765  0.26641638  0.87435497
   0.26870595  0.06454311  0.87457267
   0.10126331  0.10045558  0.74943479
   0.23207767  0.23097683  0.74941829
   0.06518430  0.60062941  0.12387645
   0.26847654  0.39845158  0.12459419
   0.10240073  0.43214772  0.99988835
   0.23173477  0.56455847  0.99951654
   0.06518422  0.60063615  0.37503107
   0.26847210  0.39844687  0.37428407
   0.10176095  0.43325327  0.24943897
   0.23090333  0.56545574  0.24944542
   0.06589578  0.60075746  0.62333459
   0.26840556  0.39811860  0.62459698
   0.10240281  0.43212421  0.49899458
   0.23173045  0.56455402  0.49935611
   0.06588077  0.60073733  0.87555518
   0.26841086  0.39812599  0.87427047
   0.10120790  0.43389899  0.74943496
   0.23155857  0.56447609  0.74943610
   0.06311595  0.93830527  0.12937879
   0.26629628  0.73301630  0.12372945
   0.09985762  0.76999782  0.99990470
   0.23065387  0.89962983  0.99984376
   0.06314784  0.93837781  0.36953392
   0.26629673  0.73302937  0.37514116
   0.10178683  0.76757293  0.24945075
   0.23295989  0.89843332  0.24942764
   0.06666892  0.93395520  0.62669909
   0.26817744  0.73111592  0.62431366
   0.09982971  0.77003814  0.49896493
   0.23064812  0.89963322  0.49903628
   0.06665319  0.93393772  0.87223852
   0.26818911  0.73112011  0.87454977
   0.10235471  0.76651925  0.74944145
   0.23315066  0.89733446  0.74943903
   0.39822777  0.26711487  0.12435213
   0.60157982  0.06463341  0.12494612
   0.43621697  0.10011484  0.99895099
   0.56505101  0.23192986  0.99931598
   0.39823334  0.26711355  0.37452117
   0.60157253  0.06462322  0.37394849
   0.43573926  0.10059729  0.24944527
   0.56477893  0.23224753  0.24944430
   0.39880486  0.26755490  0.62421512
   0.60103886  0.06412877  0.62533129
   0.43621154  0.10011065  0.49992621
   0.56505745  0.23191467  0.49958690
   0.39880875  0.26756138  0.87465689
   0.60107507  0.06415749  0.87358863
   0.43462523  0.10114152  0.74944934
   0.56565922  0.23172253  0.74944358
   0.39769264  0.60166333  0.12539169
   0.60159558  0.39931214  0.12440509
   0.43495952  0.43470226  0.00012865
   0.56553953  0.56545582  0.99932411
   0.39768972  0.60166021  0.37348243
   0.60159488  0.39930532  0.37450461
   0.43541987  0.43471191  0.24944255
   0.56613253  0.56612266  0.24944668
   0.39815867  0.60062403  0.62389894
   0.60145818  0.39851421  0.62465458
   0.43495486  0.43468688  0.49875326
   0.56553940  0.56544499  0.49956798
   0.39816316  0.60062942  0.87496495
   0.60146424  0.39852620  0.87424906
   0.43466109  0.43424645  0.74944487
   0.56487728  0.56473023  0.74943843
   0.39914883  0.93349722  0.12460031
   0.60205298  0.73137056  0.12458369
   0.43470351  0.76711122  0.99939207
   0.56499755  0.89769802  0.99938269
   0.39913910  0.93348772  0.37426320
   0.60204537  0.73136236  0.37431205
   0.43426679  0.76747032  0.24943453
   0.56589641  0.89712423  0.24944461
   0.39896510  0.93321240  0.62494163
   0.60222127  0.73100658  0.62420562
   0.43469960  0.76710438  0.49948582
   0.56498805  0.89769004  0.49949779
   0.39897236  0.93322082  0.87392817
   0.60221100  0.73100277  0.87468460
   0.43521299  0.76632324  0.74943880
   0.56584485  0.89708020  0.74944034
   0.73024834  0.26714410  0.12411824
   0.92539074  0.05597004  0.11415041
   0.76486682  0.10269879  0.99793024
   0.89856182  0.23053961  0.00049459
   0.73023230  0.26711738  0.37478519
   0.92512244  0.05572046  0.38489197
   0.76842922  0.10009231  0.24942969
   0.89139081  0.23732432  0.24948476
   0.73256342  0.26816271  0.62453122
   0.93489911  0.06426589  0.62385638
   0.76477158  0.10275393  0.50104167
   0.89856928  0.23049296  0.49838764
   0.73254214  0.26813720  0.87438957
   0.93492321  0.06427997  0.87508652
   0.76852602  0.10031372  0.74946125
   0.89890075  0.23087128  0.74946309
   0.73285478  0.60085576  0.12494243
   0.93628423  0.39836082  0.12362569
   0.76856542  0.43403721  0.99968819
   0.89891253  0.56497957  0.99959202
   0.73284884  0.60083985  0.37395234
   0.93630444  0.39837331  0.37526791
   0.76915965  0.43359496  0.24945211
   0.89960106  0.56419624  0.24944630
   0.73280533  0.60058221  0.62433777
   0.93524140  0.39704371  0.62362680
   0.76857310  0.43402714  0.49920605
   0.89891784  0.56497976  0.49930696
   0.73279743  0.60058064  0.87455776
   0.93524620  0.39705894  0.87525103
   0.76865543  0.43427764  0.74944942
   0.90020275  0.56306807  0.74944960
   0.73241528  0.93473686  0.12364627
   0.93548682  0.73230070  0.12543545
   0.76883425  0.76785099  0.00121140
   0.90180131  0.89421728  0.99687922
   0.73242761  0.93475858  0.37527373
   0.93547852  0.73230016  0.37345363
   0.77007963  0.76964299  0.24946701
   0.89948071  0.90497274  0.24943912
   0.73215024  0.93369828  0.62399996
   0.93432696  0.72981240  0.62547538
   0.76882126  0.76785148  0.49768394
   0.90187205  0.89409429  0.50208393
   0.73214378  0.93369885  0.87490105
   0.93435867  0.72985486  0.87345004
   0.76744658  0.76675150  0.74947497
   0.89804760  0.89749784  0.74945482
   0.97274609  0.12207480  0.24974989
 
 position of ions in cartesian coordinates  (Angst):
   2.47382633  2.41699554  1.63200277
   0.03597109 14.55356876 13.13067732
   2.47350708  2.41653816  4.93297287
  14.53490669  0.22358259  3.28334985
   2.43749615  2.41422738  8.21859472
   0.03554264 14.55320850  6.59623123
   2.43768800  2.41444467 11.50693936
  14.58978751 14.60638797  9.86337594
   2.43430202  7.29616953  1.63748309
   0.01310434  4.83504679 13.15928002
   2.43413143  7.29606101  4.92808961
  14.60088554  4.86904006  3.28279695
   2.43438311  7.28929416  8.21479858
   0.01301498  4.83469499  6.56666990
   2.43444305  7.28930949 11.51107325
  14.61005229  4.85692758  9.86300945
   2.40223258 12.21227793  1.64883413
  14.60568730  9.74633654 13.15587977
   2.40231976 12.21260313  4.91654616
   0.01095846  9.72972437  3.28291650
   2.44682780 12.16118890  8.21928609
  14.60555727  9.74661340  6.57040593
   2.44690926 12.16117747 11.50668688
   0.01603570  9.71574512  9.86317633
   7.30890834  2.42743280  1.63674512
   4.89285971 14.58885050 13.14722522
   7.30899979  2.42745606  4.92891321
   4.87893697 14.60539244  3.28263306
   7.31137916  2.42861587  8.22069178
   4.89287091 14.58875707  6.57856142
   7.31152466  2.42872408 11.50546111
   4.87599539 14.60117642  9.86290947
   7.30895000  7.32154082  1.64224594
   4.87524453  4.86857342 13.15344743
   7.30890988  7.32145011  4.92340038
   4.88113476  4.87049099  3.28275927
   7.30210510  7.29929100  8.21444370
   4.87506937  4.86832613  6.57244577
   7.30221286  7.29947904 11.51158950
   4.87331649  4.85700774  9.86293022
   7.30739761 12.15613273  1.63852586
   4.86134353  9.73568954  0.00188724
   7.30729554 12.15601267  4.92695019
   4.83558049  9.76240965  3.28271847
   7.31150395 12.15303359  8.21943412
   4.86121048  9.73565682  6.56342968
   7.31154236 12.15313462 11.50655083
   4.87059187  9.72149973  9.86286674
  12.14151066  2.41778995  1.62564963
   9.72807710 14.60003016 13.14919056
  12.14085885  2.41682406  4.94046807
   9.74278780 14.58817598  3.28290509
  12.17685225  2.42377538  8.21790576
   9.72777119 14.59997086  6.57724783
  12.17682056  2.42363654 11.50865823
   9.74875044 14.58996884  9.86316291
  12.18511309  7.29490702  1.63767878
   9.73580392  4.87013742 13.15103886
  12.18523722  7.29489916  4.92810274
   9.73512084  4.87334074  3.28298479
  12.18785913  7.29063905  8.21510190
   9.73587996  4.86997678  6.57535588
  12.18779006  7.29069878 11.51108261
   9.74647934  4.86649220  9.86322247
  12.21541103 12.21075415  1.64589587
   9.75838160  9.73352650 13.15766266
  12.21562814 12.21114707  4.92013251
   9.76805809  9.75278348  3.28289744
  12.16666750 12.14475977  8.22036189
   9.75838604  9.73338869  6.56847221
  12.16702964 12.14526403 11.50628817
   9.74092979  9.71674872  9.86308704
   0.92452246  3.84040258  1.66688454
   3.98067347  0.97121510  1.61733317
   1.49144018  1.46063190  0.00288642
   3.38165185  3.39404885 13.14651389
   0.92438994  3.84008665  4.89849393
   3.98026483  0.97080317  4.94795300
   1.71128486  1.29374016  3.28212105
   3.38058625  3.40195782  3.28270436
   0.95290988  3.89209670  8.21903790
   3.92577006  0.94293851  8.21592639
   1.49057176  1.46078871  6.56222398
   3.38160075  3.39356113  6.57893261
   0.95312770  3.89236646 11.50692132
   3.92581728  0.94298048 11.50978636
   1.47946576  1.46766467  9.86291319
   3.39067492  3.37459151  9.86269602
   0.95234820  8.77524766  1.63027221
   3.92246556  5.82141211  1.63971790
   1.49608350  6.31371566 13.15899951
   3.38566512  8.24824809 13.15410631
   0.95234708  8.77534614  4.93558466
   3.92240070  5.82134327  4.92575385
   1.48673634  6.32986779  3.28273374
   3.37351773  8.26135739  3.28281863
   0.96274304  8.77711855  8.20337551
   3.92142847  5.81654725  8.21998917
   1.49611390  6.31337209  6.56700268
   3.38560201  8.24818312  6.57176048
   0.96252373  8.77682439 11.52271668
   3.92150595  5.81665518 11.50580925
   1.47865626  6.33930179  9.86291546
   3.38309071  8.24704465  9.86293040
   0.92212948 13.70872132  1.70268558
   3.89061174 10.70943162  1.62833753
   1.45892846 11.24973487 13.15921471
   3.36987298 13.14366981 13.15841261
   0.92259547 13.70978115  4.86323970
   3.89061826 10.70962254  4.93703356
   1.48711439 11.21430696  3.28288881
   3.40356413 13.12618857  3.28258467
   0.97403875 13.64516635  8.24765390
   3.91809569 10.68166700  8.21626055
   1.45852074 11.25032396  6.56661248
   3.36978897 13.14371922  6.56755148
   0.97380888 13.64491097 11.47906793
   3.91826619 10.68172813 11.50948504
   1.49541114 11.19891263  9.86300090
   3.40635137 13.11013426  9.86296903
   5.81814225  3.90257141  1.63653228
   8.78913331  0.94429977  1.64434946
   6.37316766  1.46268653 13.14666334
   8.25544421  3.38851531 13.15146690
   5.81822367  3.90255204  4.92887422
   8.78902671  0.94415081  4.92133741
   6.36618827  1.46973519  3.28281670
   8.25146909  3.39315658  3.28280397
   5.82657351  3.90900022  8.21496362
   8.78122984  0.93692688  8.22965301
   6.37308838  1.46262524  6.57926337
   8.25553823  3.38829344  6.57479784
   5.82663035  3.90909499 11.51089477
   8.78175885  0.93734642 11.49683593
   6.34991220  1.47768632  9.86310469
   8.26433018  3.38548618  9.86302890
   5.81032394  8.79035342  1.65021339
   8.78936358  5.83398503  1.63722932
   6.35479634  6.35103772  0.00169303
   8.26258153  8.26135856 13.15157388
   5.81028120  8.79030786  4.91520390
   8.78935332  5.83388537  4.92865623
   6.36152209  6.35117868  3.28278094
   8.27124532  8.27110116  3.28283530
   5.81713262  8.77516914  8.21080263
   8.78735619  5.82232720  8.22074712
   6.35472816  6.35081294  6.56382679
   8.26257957  8.26120028  6.57454881
   5.81719826  8.77524779 11.51494895
   8.78744463  5.82250235 11.50552755
   6.35043611  6.34437826  9.86304587
   8.25290607  8.25075754  9.86296108
   5.83159897 13.63847531  1.63979856
   8.79604627 10.68538724  1.63957979
   6.35105597 11.20756137 13.15246818
   8.25466310 13.11544590 13.15234483
   5.83145679 13.63833649  4.92547917
   8.79593507 10.68526738  4.92612208
   6.34467540 11.21280785  3.28267540
   8.26779554 13.10706275  3.28280796
   5.82891466 13.63431401  8.22452490
   8.79850487 10.68006950  8.21483865
   6.35099879 11.20746151  6.57346765
   8.25452430 13.11532924  6.57362514
   5.82902081 13.63443701 11.50130449
   8.79835490 10.68001385 11.51125948
   6.35849951 11.19604892  9.86296601
   8.26704231 13.10641943  9.86298630
  10.66899148  3.90299839  1.63345427
  13.52003894  0.81772712  1.50227287
  11.17477055  1.50043818 13.13322987
  13.12806597  3.36820372  0.00650908
  10.66875718  3.90260808  4.93234884
  13.51611895  0.81408073  5.06535885
  11.22681744  1.46235736  3.28261162
  13.02329700  3.46732886  3.28333645
  10.70281497  3.91788049  8.21912362
  13.65895696  0.93893026  8.21024246
  11.17337910  1.50124382  6.59394331
  13.12817498  3.36752216  6.55901501
  10.70250410  3.91750771 11.50737668
  13.65930914  0.93913600 11.51654890
  11.22823174  1.46559213  9.86326146
  13.13301782  3.37304935  9.86328569
  10.70707176  8.77855466  1.64430095
  13.67919374  5.82008610  1.62697198
  11.22880739  6.34132118 13.15636536
  13.13318991  8.25440040 13.15509960
  10.70698503  8.77832231  4.92138812
  13.67948893  5.82026851  4.93870167
  11.23748916  6.33485987  3.28290668
  13.14324944  8.24295594  3.28283026
  10.70634941  8.77455810  8.21657784
  13.66395794  5.80084295  8.20722108
  11.22891955  6.34117413  6.56978566
  13.13326755  8.25440328  6.57111372
  10.70623393  8.77453522 11.50959024
  13.66402808  5.80106557 11.51871400
  11.23012241  6.34483387  9.86310578
  13.15204015  8.22647335  9.86310819
  10.70065069 13.65658655  1.62724285
  13.66754348 10.69897668  1.65078932
  11.23273497 11.21836943  0.01594265
  13.17539524 13.06459191 13.11939793
  10.70083091 13.65690384  4.93877821
  13.66742228 10.69896884  4.91482481
  11.25093016 11.24455076  3.28310285
  13.14149113 13.22173013  3.28273572
  10.69677844 13.64141276  8.21213201
  13.65059780 10.66262244  8.23154932
  11.23254525 11.21837667  6.54975396
  13.17642882 13.06279498  6.60765998
  10.69668405 13.64142113 11.51410806
  13.65106116 10.66324277 11.49501208
  11.21246103 11.20230588  9.86344203
  13.12055319 13.11252113  9.86317681
  14.21190465  1.78352338  3.28682568
 


--------------------------------------------------------------------------------------------------------


 k-point  1 :   0.2500 0.2500 0.2500  plane waves:  118129
 k-point  2 :  -0.2500 0.2500 0.2500  plane waves:  118129
 k-point  3 :   0.2500-0.2500 0.2500  plane waves:  118129
 k-point  4 :  -0.2500-0.2500 0.2500  plane waves:  118129

 maximum and minimum number of plane-waves per node :      9912     9799

 maximum number of plane-waves:    118129
 maximum index in each direction: 
   IXMAX=   31   IYMAX=   31   IZMAX=   28
   IXMIN=  -31   IYMIN=  -31   IZMIN=  -28


 parallel 3D FFT for wavefunctions:
    minimum data exchange during FFTs selected (reduces bandwidth)
 parallel 3D FFT for charge:
    minimum data exchange during FFTs selected (reduces bandwidth)


 total amount of memory used by VASP MPI-rank0   498684. kBytes
=======================================================================

   base      :      30000. kBytes
   nonl-proj :      51292. kBytes
   fftplans  :      22373. kBytes
   grid      :      17829. kBytes
   one-center:        590. kBytes
   wavefun   :     376600. kBytes
 
     INWAV:  cpu time    0.0000: real time    0.0000
 Broyden mixing: mesh for mixing (old mesh)
   NGX = 63   NGY = 63   NGZ = 57
  (NGX  =192   NGY  =192   NGZ  =180)
  gives a total of 226233 points

 initial charge density was supplied:
 charge density of overlapping atoms calculated
 number of electron    1945.0000000 magnetization       0.7010000
 keeping initial charge density in first step


--------------------------------------------------------------------------------------------------------


 Maximum index for augmentation-charges         2079 (set IRDMAX)


--------------------------------------------------------------------------------------------------------


 First call to EWALD:  gamma=   0.126
 Maximum number of real-space cells 3x 3x 3
 Maximum number of reciprocal cells 3x 3x 3

    FEWALD:  cpu time    0.2324: real time    0.2324


--------------------------------------- Iteration      1(   1)  ---------------------------------------


    POTLOK:  cpu time    0.2246: real time    0.2455
    SETDIJ:  cpu time    4.5807: real time    4.5808
atom =   1  type =  1  l = 2
 
 onsite density matrix
 
spin component  1
 
  0.7153  0.0000  0.0000  0.0000  0.0000
  0.0000  0.7153  0.0000  0.0000  0.0000
  0.0000  0.0000  0.7153  0.0000  0.0000
  0.0000  0.0000  0.0000  0.7153  0.0000
  0.0000  0.0000  0.0000  0.0000  0.7153
 
spin component  2
 
  0.3375  0.0000  0.0000  0.0000  0.0000
  0.0000  0.3375  0.0000  0.0000  0.0000
  0.0000  0.0000  0.3375  0.0000  0.0000
  0.0000  0.0000  0.0000  0.3375  0.0000
  0.0000  0.0000  0.0000  0.0000  0.3375
 
 occupancies and eigenvectors
 
  o =  0.3375  v =  0.0000  0.0000  0.0000  0.0000  0.0000  1.0000  0.0000  0.0000  0.0000  0.0000      0.0000  0.0000  0.0000  0.0000  0.0000  0.0000  0.0000  0.0000  0.0000  0.0000
  o =  0.3375  v =  0.0000  0.0000  0.0000  0.0000  0.0000  0.0000  1.0000  0.0000  0.0000  0.0000      0.0000  0.0000  0.0000  0.0000  0.0000  0.0000  0.0000  0.0000  0.0000  0.0000
  o =  0.3375  v =  0.0000  0.0000  0.0000  0.0000  0.0000  0.0000  0.0000  1.0000  0.0000  0.0000      0.0000  0.0000  0.0000  0.0000  0.0000  0.0000  0.0000  0.0000  0.0000  0.0000
  o =  0.3375  v =  0.0000  0.0000  0.0000  0.0000  0.0000  0.0000  0.0000  0.0000  0.0000 -1.0000      0.0000  0.0000  0.0000  0.0000  0.0000  0.0000  0.0000  0.0000  0.0000  0.0000
  o =  0.3375  v =  0.0000  0.0000  0.0000  0.0000  0.0000  0.0000  0.0000  0.0000 -1.0000  0.0000      0.0000  0.0000  0.0000  0.0000  0.0000  0.0000  0.0000  0.0000  0.0000  0.0000
  o =  0.7153  v =  1.0000  0.0000  0.0000  0.0000  0.0000  0.0000  0.0000  0.0000  0.0000  0.0000      0.0000  0.0000  0.0000  0.0000  0.0000  0.0000  0.0000  0.0000  0.0000  0.0000
  o =  0.7153  v =  0.0000  1.0000  0.0000  0.0000  0.0000  0.0000  0.0000  0.0000  0.0000  0.0000      0.0000  0.0000  0.0000  0.0000  0.0000  0.0000  0.0000  0.0000  0.0000  0.0000
  o =  0.7153  v =  0.0000  0.0000  1.0000  0.0000  0.0000  0.0000  0.0000  0.0000  0.0000  0.0000      0.0000  0.0000  0.0000  0.0000  0.0000  0.0000  0.0000  0.0000  0.0000  0.0000
  o =  0.7153  v =  0.0000  0.0000  0.0000  0.0000 -1.0000  0.0000  0.0000  0.0000  0.0000  0.0000      0.0000  0.0000  0.0000  0.0000  0.0000  0.0000  0.0000  0.0000  0.0000  0.0000
  o =  0.7153  v =  0.0000  0.0000  0.0000 -1.0000  0.0000  0.0000  0.0000  0.0000  0.0000  0.0000      0.0000  0.0000  0.0000  0.0000  0.0000  0.0000  0.0000  0.0000  0.0000  0.0000
atom =   2  type =  1  l = 2
 
 onsite density matrix
 
spin component  1
 
  0.3378  0.0000  0.0000  0.0000  0.0000
  0.0000  0.3378  0.0000  0.0000  0.0000
  0.0000  0.0000  0.3378  0.0000  0.0000
  0.0000  0.0000  0.0000  0.3378  0.0000
  0.0000  0.0000  0.0000  0.0000  0.3378
 
spin component  2
 
  0.7151  0.0000  0.0000  0.0000  0.0000
  0.0000  0.7151  0.0000  0.0000  0.0000
  0.0000  0.0000  0.7151  0.0000  0.0000
  0.0000  0.0000  0.0000  0.7151  0.0000
  0.0000  0.0000  0.0000  0.0000  0.7151
 
 occupancies and eigenvectors
 
  o =  0.3378  v =  1.0000  0.0000  0.0000  0.0000  0.0000  0.0000  0.0000  0.0000  0.0000  0.0000      0.0000  0.0000  0.0000  0.0000  0.0000  0.0000  0.0000  0.0000  0.0000  0.0000
  o =  0.3378  v =  0.0000  1.0000  0.0000  0.0000  0.0000  0.0000  0.0000  0.0000  0.0000  0.0000      0.0000  0.0000  0.0000  0.0000  0.0000  0.0000  0.0000  0.0000  0.0000  0.0000
  o =  0.3378  v =  0.0000  0.0000  1.0000  0.0000  0.0000  0.0000  0.0000  0.0000  0.0000  0.0000      0.0000  0.0000  0.0000  0.0000  0.0000  0.0000  0.0000  0.0000  0.0000  0.0000
  o =  0.3378  v =  0.0000  0.0000  0.0000  0.0000 -1.0000  0.0000  0.0000  0.0000  0.0000  0.0000      0.0000  0.0000  0.0000  0.0000  0.0000  0.0000  0.0000  0.0000  0.0000  0.0000
  o =  0.3378  v =  0.0000  0.0000  0.0000 -1.0000  0.0000  0.0000  0.0000  0.0000  0.0000  0.0000      0.0000  0.0000  0.0000  0.0000  0.0000  0.0000  0.0000  0.0000  0.0000  0.0000
  o =  0.7151  v =  0.0000  0.0000  0.0000  0.0000  0.0000  1.0000  0.0000  0.0000  0.0000  0.0000      0.0000  0.0000  0.0000  0.0000  0.0000  0.0000  0.0000  0.0000  0.0000  0.0000
  o =  0.7151  v =  0.0000  0.0000  0.0000  0.0000  0.0000  0.0000  1.0000  0.0000  0.0000  0.0000      0.0000  0.0000  0.0000  0.0000  0.0000  0.0000  0.0000  0.0000  0.0000  0.0000
  o =  0.7151  v =  0.0000  0.0000  0.0000  0.0000  0.0000  0.0000  0.0000  1.0000  0.0000  0.0000      0.0000  0.0000  0.0000  0.0000  0.0000  0.0000  0.0000  0.0000  0.0000  0.0000
  o =  0.7151  v =  0.0000  0.0000  0.0000  0.0000  0.0000  0.0000  0.0000  0.0000  0.0000 -1.0000      0.0000  0.0000  0.0000  0.0000  0.0000  0.0000  0.0000  0.0000  0.0000  0.0000
  o =  0.7151  v =  0.0000  0.0000  0.0000  0.0000  0.0000  0.0000  0.0000  0.0000 -1.0000  0.0000      0.0000  0.0000  0.0000  0.0000  0.0000  0.0000  0.0000  0.0000  0.0000  0.0000
atom =   3  type =  1  l = 2
 
 onsite density matrix
 
spin component  1
 
  0.7153  0.0000  0.0000  0.0000  0.0000
  0.0000  0.7153  0.0000  0.0000  0.0000
  0.0000  0.0000  0.7153  0.0000  0.0000
  0.0000  0.0000  0.0000  0.7153  0.0000
  0.0000  0.0000  0.0000  0.0000  0.7153
 
spin component  2
 
  0.3375  0.0000  0.0000  0.0000  0.0000
  0.0000  0.3375  0.0000  0.0000  0.0000
  0.0000  0.0000  0.3375  0.0000  0.0000
  0.0000  0.0000  0.0000  0.3375  0.0000
  0.0000  0.0000  0.0000  0.0000  0.3375
 
 occupancies and eigenvectors
 
  o =  0.3375  v =  0.0000  0.0000  0.0000  0.0000  0.0000  1.0000  0.0000  0.0000  0.0000  0.0000      0.0000  0.0000  0.0000  0.0000  0.0000  0.0000  0.0000  0.0000  0.0000  0.0000
  o =  0.3375  v =  0.0000  0.0000  0.0000  0.0000  0.0000  0.0000  1.0000  0.0000  0.0000  0.0000      0.0000  0.0000  0.0000  0.0000  0.0000  0.0000  0.0000  0.0000  0.0000  0.0000
  o =  0.3375  v =  0.0000  0.0000  0.0000  0.0000  0.0000  0.0000  0.0000  1.0000  0.0000  0.0000      0.0000  0.0000  0.0000  0.0000  0.0000  0.0000  0.0000  0.0000  0.0000  0.0000
  o =  0.3375  v =  0.0000  0.0000  0.0000  0.0000  0.0000  0.0000  0.0000  0.0000  0.0000 -1.0000      0.0000  0.0000  0.0000  0.0000  0.0000  0.0000  0.0000  0.0000  0.0000  0.0000
  o =  0.3375  v =  0.0000  0.0000  0.0000  0.0000  0.0000  0.0000  0.0000  0.0000 -1.0000  0.0000      0.0000  0.0000  0.0000  0.0000  0.0000  0.0000  0.0000  0.0000  0.0000  0.0000
  o =  0.7153  v =  1.0000  0.0000  0.0000  0.0000  0.0000  0.0000  0.0000  0.0000  0.0000  0.0000      0.0000  0.0000  0.0000  0.0000  0.0000  0.0000  0.0000  0.0000  0.0000  0.0000
  o =  0.7153  v =  0.0000  1.0000  0.0000  0.0000  0.0000  0.0000  0.0000  0.0000  0.0000  0.0000      0.0000  0.0000  0.0000  0.0000  0.0000  0.0000  0.0000  0.0000  0.0000  0.0000
  o =  0.7153  v =  0.0000  0.0000  1.0000  0.0000  0.0000  0.0000  0.0000  0.0000  0.0000  0.0000      0.0000  0.0000  0.0000  0.0000  0.0000  0.0000  0.0000  0.0000  0.0000  0.0000
  o =  0.7153  v =  0.0000  0.0000  0.0000  0.0000 -1.0000  0.0000  0.0000  0.0000  0.0000  0.0000      0.0000  0.0000  0.0000  0.0000  0.0000  0.0000  0.0000  0.0000  0.0000  0.0000
  o =  0.7153  v =  0.0000  0.0000  0.0000 -1.0000  0.0000  0.0000  0.0000  0.0000  0.0000  0.0000      0.0000  0.0000  0.0000  0.0000  0.0000  0.0000  0.0000  0.0000  0.0000  0.0000
atom =   4  type =  1  l = 2
 
 onsite density matrix
 
spin component  1
 
  0.3484  0.0000  0.0000  0.0000  0.0000
  0.0000  0.3484  0.0000  0.0000  0.0000
  0.0000  0.0000  0.3484  0.0000  0.0000
  0.0000  0.0000  0.0000  0.3484  0.0000
  0.0000  0.0000  0.0000  0.0000  0.3484
 
spin component  2
 
  0.7044  0.0000  0.0000  0.0000  0.0000
  0.0000  0.7044  0.0000  0.0000  0.0000
  0.0000  0.0000  0.7044  0.0000  0.0000
  0.0000  0.0000  0.0000  0.7044  0.0000
  0.0000  0.0000  0.0000  0.0000  0.7044
 
 occupancies and eigenvectors
 
  o =  0.3484  v =  0.0000  0.0000  0.0000  0.7071  0.7071  0.0000  0.0000  0.0000  0.0000  0.0000      0.0000  0.0000  0.0000  0.0000  0.0000  0.0000  0.0000  0.0000  0.0000  0.0000
  o =  0.3484  v =  0.0000  1.0000  0.0000  0.0000  0.0000  0.0000  0.0000  0.0000  0.0000  0.0000      0.0000  0.0000  0.0000  0.0000  0.0000  0.0000  0.0000  0.0000  0.0000  0.0000
  o =  0.3484  v =  0.0000  0.0000  1.0000  0.0000  0.0000  0.0000  0.0000  0.0000  0.0000  0.0000      0.0000  0.0000  0.0000  0.0000  0.0000  0.0000  0.0000  0.0000  0.0000  0.0000
  o =  0.3484  v =  0.0000  0.0000  0.0000 -0.7071  0.7071  0.0000  0.0000  0.0000  0.0000  0.0000      0.0000  0.0000  0.0000  0.0000  0.0000  0.0000  0.0000  0.0000  0.0000  0.0000
  o =  0.3484  v =  1.0000  0.0000  0.0000  0.0000  0.0000  0.0000  0.0000  0.0000  0.0000  0.0000      0.0000  0.0000  0.0000  0.0000  0.0000  0.0000  0.0000  0.0000  0.0000  0.0000
  o =  0.7044  v =  0.0000  0.0000  0.0000  0.0000  0.0000  1.0000  0.0000  0.0000  0.0000  0.0000      0.0000  0.0000  0.0000  0.0000  0.0000  0.0000  0.0000  0.0000  0.0000  0.0000
  o =  0.7044  v =  0.0000  0.0000  0.0000  0.0000  0.0000  0.0000  1.0000  0.0000  0.0000  0.0000      0.0000  0.0000  0.0000  0.0000  0.0000  0.0000  0.0000  0.0000  0.0000  0.0000
  o =  0.7044  v =  0.0000  0.0000  0.0000  0.0000  0.0000  0.0000  0.0000  1.0000  0.0000  0.0000      0.0000  0.0000  0.0000  0.0000  0.0000  0.0000  0.0000  0.0000  0.0000  0.0000
  o =  0.7044  v =  0.0000  0.0000  0.0000  0.0000  0.0000  0.0000  0.0000  0.0000  0.0000 -1.0000      0.0000  0.0000  0.0000  0.0000  0.0000  0.0000  0.0000  0.0000  0.0000  0.0000
  o =  0.7044  v =  0.0000  0.0000  0.0000  0.0000  0.0000  0.0000  0.0000  0.0000 -1.0000  0.0000      0.0000  0.0000  0.0000  0.0000  0.0000  0.0000  0.0000  0.0000  0.0000  0.0000
atom =   5  type =  1  l = 2
 
 onsite density matrix
 
spin component  1
 
  0.7153  0.0000  0.0000  0.0000  0.0000
  0.0000  0.7153  0.0000  0.0000  0.0000
  0.0000  0.0000  0.7153  0.0000  0.0000
  0.0000  0.0000  0.0000  0.7153  0.0000
  0.0000  0.0000  0.0000  0.0000  0.7153
 
spin component  2
 
  0.3375  0.0000  0.0000  0.0000  0.0000
  0.0000  0.3375  0.0000  0.0000  0.0000
  0.0000  0.0000  0.3375  0.0000  0.0000
  0.0000  0.0000  0.0000  0.3375  0.0000
  0.0000  0.0000  0.0000  0.0000  0.3375
 
 occupancies and eigenvectors
 
  o =  0.3375  v =  0.0000  0.0000  0.0000  0.0000  0.0000  1.0000  0.0000  0.0000  0.0000  0.0000      0.0000  0.0000  0.0000  0.0000  0.0000  0.0000  0.0000  0.0000  0.0000  0.0000
  o =  0.3375  v =  0.0000  0.0000  0.0000  0.0000  0.0000  0.0000  1.0000  0.0000  0.0000  0.0000      0.0000  0.0000  0.0000  0.0000  0.0000  0.0000  0.0000  0.0000  0.0000  0.0000
  o =  0.3375  v =  0.0000  0.0000  0.0000  0.0000  0.0000  0.0000  0.0000  1.0000  0.0000  0.0000      0.0000  0.0000  0.0000  0.0000  0.0000  0.0000  0.0000  0.0000  0.0000  0.0000
  o =  0.3375  v =  0.0000  0.0000  0.0000  0.0000  0.0000  0.0000  0.0000  0.0000  0.0000 -1.0000      0.0000  0.0000  0.0000  0.0000  0.0000  0.0000  0.0000  0.0000  0.0000  0.0000
  o =  0.3375  v =  0.0000  0.0000  0.0000  0.0000  0.0000  0.0000  0.0000  0.0000 -1.0000  0.0000      0.0000  0.0000  0.0000  0.0000  0.0000  0.0000  0.0000  0.0000  0.0000  0.0000
  o =  0.7153  v =  1.0000  0.0000  0.0000  0.0000  0.0000  0.0000  0.0000  0.0000  0.0000  0.0000      0.0000  0.0000  0.0000  0.0000  0.0000  0.0000  0.0000  0.0000  0.0000  0.0000
  o =  0.7153  v =  0.0000  1.0000  0.0000  0.0000  0.0000  0.0000  0.0000  0.0000  0.0000  0.0000      0.0000  0.0000  0.0000  0.0000  0.0000  0.0000  0.0000  0.0000  0.0000  0.0000
  o =  0.7153  v =  0.0000  0.0000  1.0000  0.0000  0.0000  0.0000  0.0000  0.0000  0.0000  0.0000      0.0000  0.0000  0.0000  0.0000  0.0000  0.0000  0.0000  0.0000  0.0000  0.0000
  o =  0.7153  v =  0.0000  0.0000  0.0000  0.0000 -1.0000  0.0000  0.0000  0.0000  0.0000  0.0000      0.0000  0.0000  0.0000  0.0000  0.0000  0.0000  0.0000  0.0000  0.0000  0.0000
  o =  0.7153  v =  0.0000  0.0000  0.0000 -1.0000  0.0000  0.0000  0.0000  0.0000  0.0000  0.0000      0.0000  0.0000  0.0000  0.0000  0.0000  0.0000  0.0000  0.0000  0.0000  0.0000
atom =   6  type =  1  l = 2
 
 onsite density matrix
 
spin component  1
 
  0.3378  0.0000  0.0000  0.0000  0.0000
  0.0000  0.3378  0.0000  0.0000  0.0000
  0.0000  0.0000  0.3378  0.0000  0.0000
  0.0000  0.0000  0.0000  0.3378  0.0000
  0.0000  0.0000  0.0000  0.0000  0.3378
 
spin component  2
 
  0.7151  0.0000  0.0000  0.0000  0.0000
  0.0000  0.7151  0.0000  0.0000  0.0000
  0.0000  0.0000  0.7151  0.0000  0.0000
  0.0000  0.0000  0.0000  0.7151  0.0000
  0.0000  0.0000  0.0000  0.0000  0.7151
 
 occupancies and eigenvectors
 
  o =  0.3378  v =  1.0000  0.0000  0.0000  0.0000  0.0000  0.0000  0.0000  0.0000  0.0000  0.0000      0.0000  0.0000  0.0000  0.0000  0.0000  0.0000  0.0000  0.0000  0.0000  0.0000
  o =  0.3378  v =  0.0000  1.0000  0.0000  0.0000  0.0000  0.0000  0.0000  0.0000  0.0000  0.0000      0.0000  0.0000  0.0000  0.0000  0.0000  0.0000  0.0000  0.0000  0.0000  0.0000
  o =  0.3378  v =  0.0000  0.0000  1.0000  0.0000  0.0000  0.0000  0.0000  0.0000  0.0000  0.0000      0.0000  0.0000  0.0000  0.0000  0.0000  0.0000  0.0000  0.0000  0.0000  0.0000
  o =  0.3378  v =  0.0000  0.0000  0.0000  0.0000 -1.0000  0.0000  0.0000  0.0000  0.0000  0.0000      0.0000  0.0000  0.0000  0.0000  0.0000  0.0000  0.0000  0.0000  0.0000  0.0000
  o =  0.3378  v =  0.0000  0.0000  0.0000 -1.0000  0.0000  0.0000  0.0000  0.0000  0.0000  0.0000      0.0000  0.0000  0.0000  0.0000  0.0000  0.0000  0.0000  0.0000  0.0000  0.0000
  o =  0.7151  v =  0.0000  0.0000  0.0000  0.0000  0.0000  1.0000  0.0000  0.0000  0.0000  0.0000      0.0000  0.0000  0.0000  0.0000  0.0000  0.0000  0.0000  0.0000  0.0000  0.0000
  o =  0.7151  v =  0.0000  0.0000  0.0000  0.0000  0.0000  0.0000  1.0000  0.0000  0.0000  0.0000      0.0000  0.0000  0.0000  0.0000  0.0000  0.0000  0.0000  0.0000  0.0000  0.0000
  o =  0.7151  v =  0.0000  0.0000  0.0000  0.0000  0.0000  0.0000  0.0000  1.0000  0.0000  0.0000      0.0000  0.0000  0.0000  0.0000  0.0000  0.0000  0.0000  0.0000  0.0000  0.0000
  o =  0.7151  v =  0.0000  0.0000  0.0000  0.0000  0.0000  0.0000  0.0000  0.0000  0.0000 -1.0000      0.0000  0.0000  0.0000  0.0000  0.0000  0.0000  0.0000  0.0000  0.0000  0.0000
  o =  0.7151  v =  0.0000  0.0000  0.0000  0.0000  0.0000  0.0000  0.0000  0.0000 -1.0000  0.0000      0.0000  0.0000  0.0000  0.0000  0.0000  0.0000  0.0000  0.0000  0.0000  0.0000
atom =   7  type =  1  l = 2
 
 onsite density matrix
 
spin component  1
 
  0.7153  0.0000  0.0000  0.0000  0.0000
  0.0000  0.7153  0.0000  0.0000  0.0000
  0.0000  0.0000  0.7153  0.0000  0.0000
  0.0000  0.0000  0.0000  0.7153  0.0000
  0.0000  0.0000  0.0000  0.0000  0.7153
 
spin component  2
 
  0.3375  0.0000  0.0000  0.0000  0.0000
  0.0000  0.3375  0.0000  0.0000  0.0000
  0.0000  0.0000  0.3375  0.0000  0.0000
  0.0000  0.0000  0.0000  0.3375  0.0000
  0.0000  0.0000  0.0000  0.0000  0.3375
 
 occupancies and eigenvectors
 
  o =  0.3375  v =  0.0000  0.0000  0.0000  0.0000  0.0000  1.0000  0.0000  0.0000  0.0000  0.0000      0.0000  0.0000  0.0000  0.0000  0.0000  0.0000  0.0000  0.0000  0.0000  0.0000
  o =  0.3375  v =  0.0000  0.0000  0.0000  0.0000  0.0000  0.0000  1.0000  0.0000  0.0000  0.0000      0.0000  0.0000  0.0000  0.0000  0.0000  0.0000  0.0000  0.0000  0.0000  0.0000
  o =  0.3375  v =  0.0000  0.0000  0.0000  0.0000  0.0000  0.0000  0.0000  1.0000  0.0000  0.0000      0.0000  0.0000  0.0000  0.0000  0.0000  0.0000  0.0000  0.0000  0.0000  0.0000
  o =  0.3375  v =  0.0000  0.0000  0.0000  0.0000  0.0000  0.0000  0.0000  0.0000  0.0000 -1.0000      0.0000  0.0000  0.0000  0.0000  0.0000  0.0000  0.0000  0.0000  0.0000  0.0000
  o =  0.3375  v =  0.0000  0.0000  0.0000  0.0000  0.0000  0.0000  0.0000  0.0000 -1.0000  0.0000      0.0000  0.0000  0.0000  0.0000  0.0000  0.0000  0.0000  0.0000  0.0000  0.0000
  o =  0.7153  v =  1.0000  0.0000  0.0000  0.0000  0.0000  0.0000  0.0000  0.0000  0.0000  0.0000      0.0000  0.0000  0.0000  0.0000  0.0000  0.0000  0.0000  0.0000  0.0000  0.0000
  o =  0.7153  v =  0.0000  1.0000  0.0000  0.0000  0.0000  0.0000  0.0000  0.0000  0.0000  0.0000      0.0000  0.0000  0.0000  0.0000  0.0000  0.0000  0.0000  0.0000  0.0000  0.0000
  o =  0.7153  v =  0.0000  0.0000  1.0000  0.0000  0.0000  0.0000  0.0000  0.0000  0.0000  0.0000      0.0000  0.0000  0.0000  0.0000  0.0000  0.0000  0.0000  0.0000  0.0000  0.0000
  o =  0.7153  v =  0.0000  0.0000  0.0000  0.0000 -1.0000  0.0000  0.0000  0.0000  0.0000  0.0000      0.0000  0.0000  0.0000  0.0000  0.0000  0.0000  0.0000  0.0000  0.0000  0.0000
  o =  0.7153  v =  0.0000  0.0000  0.0000 -1.0000  0.0000  0.0000  0.0000  0.0000  0.0000  0.0000      0.0000  0.0000  0.0000  0.0000  0.0000  0.0000  0.0000  0.0000  0.0000  0.0000
atom =   8  type =  1  l = 2
 
 onsite density matrix
 
spin component  1
 
  0.3376  0.0000  0.0000  0.0000  0.0000
  0.0000  0.3376  0.0000  0.0000  0.0000
  0.0000  0.0000  0.3376  0.0000  0.0000
  0.0000  0.0000  0.0000  0.3376  0.0000
  0.0000  0.0000  0.0000  0.0000  0.3376
 
spin component  2
 
  0.7153  0.0000  0.0000  0.0000  0.0000
  0.0000  0.7153  0.0000  0.0000  0.0000
  0.0000  0.0000  0.7153  0.0000  0.0000
  0.0000  0.0000  0.0000  0.7153  0.0000
  0.0000  0.0000  0.0000  0.0000  0.7153
 
 occupancies and eigenvectors
 
  o =  0.3376  v =  1.0000  0.0000  0.0000  0.0000  0.0000  0.0000  0.0000  0.0000  0.0000  0.0000      0.0000  0.0000  0.0000  0.0000  0.0000  0.0000  0.0000  0.0000  0.0000  0.0000
  o =  0.3376  v =  0.0000  1.0000  0.0000  0.0000  0.0000  0.0000  0.0000  0.0000  0.0000  0.0000      0.0000  0.0000  0.0000  0.0000  0.0000  0.0000  0.0000  0.0000  0.0000  0.0000
  o =  0.3376  v =  0.0000  0.0000  1.0000  0.0000  0.0000  0.0000  0.0000  0.0000  0.0000  0.0000      0.0000  0.0000  0.0000  0.0000  0.0000  0.0000  0.0000  0.0000  0.0000  0.0000
  o =  0.3376  v =  0.0000  0.0000  0.0000  0.0000 -1.0000  0.0000  0.0000  0.0000  0.0000  0.0000      0.0000  0.0000  0.0000  0.0000  0.0000  0.0000  0.0000  0.0000  0.0000  0.0000
  o =  0.3376  v =  0.0000  0.0000  0.0000 -1.0000  0.0000  0.0000  0.0000  0.0000  0.0000  0.0000      0.0000  0.0000  0.0000  0.0000  0.0000  0.0000  0.0000  0.0000  0.0000  0.0000
  o =  0.7153  v =  0.0000  0.0000  0.0000  0.0000  0.0000  1.0000  0.0000  0.0000  0.0000  0.0000      0.0000  0.0000  0.0000  0.0000  0.0000  0.0000  0.0000  0.0000  0.0000  0.0000
  o =  0.7153  v =  0.0000  0.0000  0.0000  0.0000  0.0000  0.0000  1.0000  0.0000  0.0000  0.0000      0.0000  0.0000  0.0000  0.0000  0.0000  0.0000  0.0000  0.0000  0.0000  0.0000
  o =  0.7153  v =  0.0000  0.0000  0.0000  0.0000  0.0000  0.0000  0.0000  1.0000  0.0000  0.0000      0.0000  0.0000  0.0000  0.0000  0.0000  0.0000  0.0000  0.0000  0.0000  0.0000
  o =  0.7153  v =  0.0000  0.0000  0.0000  0.0000  0.0000  0.0000  0.0000  0.0000  0.0000 -1.0000      0.0000  0.0000  0.0000  0.0000  0.0000  0.0000  0.0000  0.0000  0.0000  0.0000
  o =  0.7153  v =  0.0000  0.0000  0.0000  0.0000  0.0000  0.0000  0.0000  0.0000 -1.0000  0.0000      0.0000  0.0000  0.0000  0.0000  0.0000  0.0000  0.0000  0.0000  0.0000  0.0000
atom =   9  type =  1  l = 2
 
 onsite density matrix
 
spin component  1
 
  0.7153  0.0000  0.0000  0.0000  0.0000
  0.0000  0.7153  0.0000  0.0000  0.0000
  0.0000  0.0000  0.7153  0.0000  0.0000
  0.0000  0.0000  0.0000  0.7153  0.0000
  0.0000  0.0000  0.0000  0.0000  0.7153
 
spin component  2
 
  0.3375  0.0000  0.0000  0.0000  0.0000
  0.0000  0.3375  0.0000  0.0000  0.0000
  0.0000  0.0000  0.3375  0.0000  0.0000
  0.0000  0.0000  0.0000  0.3375  0.0000
  0.0000  0.0000  0.0000  0.0000  0.3375
 
 occupancies and eigenvectors
 
  o =  0.3375  v =  0.0000  0.0000  0.0000  0.0000  0.0000  1.0000  0.0000  0.0000  0.0000  0.0000      0.0000  0.0000  0.0000  0.0000  0.0000  0.0000  0.0000  0.0000  0.0000  0.0000
  o =  0.3375  v =  0.0000  0.0000  0.0000  0.0000  0.0000  0.0000  1.0000  0.0000  0.0000  0.0000      0.0000  0.0000  0.0000  0.0000  0.0000  0.0000  0.0000  0.0000  0.0000  0.0000
  o =  0.3375  v =  0.0000  0.0000  0.0000  0.0000  0.0000  0.0000  0.0000  1.0000  0.0000  0.0000      0.0000  0.0000  0.0000  0.0000  0.0000  0.0000  0.0000  0.0000  0.0000  0.0000
  o =  0.3375  v =  0.0000  0.0000  0.0000  0.0000  0.0000  0.0000  0.0000  0.0000  0.0000 -1.0000      0.0000  0.0000  0.0000  0.0000  0.0000  0.0000  0.0000  0.0000  0.0000  0.0000
  o =  0.3375  v =  0.0000  0.0000  0.0000  0.0000  0.0000  0.0000  0.0000  0.0000 -1.0000  0.0000      0.0000  0.0000  0.0000  0.0000  0.0000  0.0000  0.0000  0.0000  0.0000  0.0000
  o =  0.7153  v =  1.0000  0.0000  0.0000  0.0000  0.0000  0.0000  0.0000  0.0000  0.0000  0.0000      0.0000  0.0000  0.0000  0.0000  0.0000  0.0000  0.0000  0.0000  0.0000  0.0000
  o =  0.7153  v =  0.0000  1.0000  0.0000  0.0000  0.0000  0.0000  0.0000  0.0000  0.0000  0.0000      0.0000  0.0000  0.0000  0.0000  0.0000  0.0000  0.0000  0.0000  0.0000  0.0000
  o =  0.7153  v =  0.0000  0.0000  1.0000  0.0000  0.0000  0.0000  0.0000  0.0000  0.0000  0.0000      0.0000  0.0000  0.0000  0.0000  0.0000  0.0000  0.0000  0.0000  0.0000  0.0000
  o =  0.7153  v =  0.0000  0.0000  0.0000  0.0000 -1.0000  0.0000  0.0000  0.0000  0.0000  0.0000      0.0000  0.0000  0.0000  0.0000  0.0000  0.0000  0.0000  0.0000  0.0000  0.0000
  o =  0.7153  v =  0.0000  0.0000  0.0000 -1.0000  0.0000  0.0000  0.0000  0.0000  0.0000  0.0000      0.0000  0.0000  0.0000  0.0000  0.0000  0.0000  0.0000  0.0000  0.0000  0.0000
atom =  10  type =  1  l = 2
 
 onsite density matrix
 
spin component  1
 
  0.3375  0.0000  0.0000  0.0000  0.0000
  0.0000  0.3375  0.0000  0.0000  0.0000
  0.0000  0.0000  0.3375  0.0000  0.0000
  0.0000  0.0000  0.0000  0.3375  0.0000
  0.0000  0.0000  0.0000  0.0000  0.3375
 
spin component  2
 
  0.7153  0.0000  0.0000  0.0000  0.0000
  0.0000  0.7153  0.0000  0.0000  0.0000
  0.0000  0.0000  0.7153  0.0000  0.0000
  0.0000  0.0000  0.0000  0.7153  0.0000
[...]
    1        0.168   6.152   4.957  11.277
    2        0.170   6.156   4.959  11.286
    3        0.168   6.152   4.957  11.277
    4        0.212   6.192   4.947  11.351
    5        0.167   6.152   4.957  11.277
    6        0.170   6.156   4.959  11.286
    7        0.167   6.152   4.957  11.277
    8        0.168   6.153   4.959  11.281
    9        0.168   6.152   4.958  11.278
   10        0.167   6.151   4.956  11.275
   11        0.168   6.152   4.958  11.278
   12        0.168   6.153   4.957  11.277
   13        0.167   6.152   4.957  11.277
   14        0.167   6.151   4.956  11.275
   15        0.167   6.152   4.957  11.277
   16        0.167   6.152   4.957  11.276
   17        0.166   6.150   4.954  11.271
   18        0.167   6.152   4.957  11.276
   19        0.166   6.150   4.954  11.271
   20        0.168   6.153   4.958  11.279
   21        0.168   6.153   4.958  11.279
   22        0.167   6.152   4.957  11.276
   23        0.168   6.153   4.958  11.279
   24        0.168   6.153   4.958  11.279
   25        0.167   6.152   4.957  11.277
   26        0.168   6.153   4.959  11.280
   27        0.167   6.152   4.957  11.277
   28        0.167   6.152   4.957  11.276
   29        0.168   6.153   4.958  11.279
   30        0.168   6.153   4.959  11.280
   31        0.168   6.153   4.958  11.279
   32        0.168   6.153   4.958  11.279
   33        0.167   6.152   4.957  11.275
   34        0.167   6.152   4.957  11.277
   35        0.167   6.152   4.957  11.275
   36        0.167   6.152   4.957  11.277
   37        0.167   6.152   4.957  11.277
   38        0.167   6.152   4.957  11.277
   39        0.167   6.152   4.957  11.277
   40        0.167   6.152   4.958  11.277
   41        0.168   6.153   4.958  11.279
   42        0.167   6.152   4.958  11.277
   43        0.168   6.153   4.958  11.279
   44        0.167   6.151   4.956  11.275
   45        0.168   6.153   4.958  11.278
   46        0.167   6.152   4.958  11.277
   47        0.168   6.153   4.958  11.278
   48        0.167   6.152   4.957  11.276
   49        0.167   6.151   4.955  11.273
   50        0.168   6.153   4.958  11.279
   51        0.167   6.151   4.955  11.273
   52        0.167   6.152   4.957  11.277
   53        0.167   6.152   4.957  11.276
   54        0.168   6.153   4.958  11.279
   55        0.167   6.152   4.957  11.276
   56        0.167   6.152   4.958  11.278
   57        0.167   6.152   4.958  11.277
   58        0.167   6.152   4.958  11.278
   59        0.167   6.152   4.958  11.277
   60        0.167   6.152   4.957  11.276
   61        0.167   6.152   4.957  11.276
   62        0.167   6.152   4.958  11.278
   63        0.167   6.152   4.957  11.277
   64        0.168   6.153   4.958  11.278
   65        0.166   6.151   4.955  11.272
   66        0.167   6.152   4.957  11.277
   67        0.166   6.151   4.955  11.272
   68        0.167   6.151   4.956  11.275
   69        0.168   6.153   4.959  11.280
   70        0.167   6.152   4.957  11.277
   71        0.168   6.153   4.959  11.280
   72        0.168   6.153   4.958  11.279
   73        1.726   4.358   0.000   6.084
   74        1.727   4.364   0.000   6.090
   75        1.726   4.360   0.000   6.087
   76        1.726   4.362   0.000   6.088
   77        1.726   4.358   0.000   6.084
   78        1.727   4.364   0.000   6.090
   79        1.729   4.351   0.000   6.080
   80        1.726   4.362   0.000   6.088
   81        1.726   4.362   0.000   6.088
   82        1.726   4.362   0.000   6.088
   83        1.726   4.360   0.000   6.086
   84        1.726   4.362   0.000   6.088
   85        1.726   4.362   0.000   6.088
   86        1.726   4.362   0.000   6.088
   87        1.726   4.362   0.000   6.088
   88        1.726   4.361   0.000   6.088
   89        1.726   4.362   0.000   6.088
   90        1.726   4.362   0.000   6.088
   91        1.726   4.361   0.000   6.088
   92        1.726   4.362   0.000   6.088
   93        1.726   4.362   0.000   6.088
   94        1.726   4.362   0.000   6.088
   95        1.726   4.362   0.000   6.088
   96        1.726   4.362   0.000   6.088
   97        1.726   4.362   0.000   6.088
   98        1.726   4.362   0.000   6.088
   99        1.726   4.361   0.000   6.087
  100        1.726   4.362   0.000   6.088
  101        1.726   4.362   0.000   6.088
  102        1.726   4.362   0.000   6.088
  103        1.726   4.362   0.000   6.088
  104        1.726   4.362   0.000   6.088
  105        1.727   4.357   0.000   6.083
  106        1.726   4.359   0.000   6.086
  107        1.726   4.361   0.000   6.087
  108        1.726   4.361   0.000   6.087
  109        1.727   4.357   0.000   6.083
  110        1.726   4.359   0.000   6.086
  111        1.726   4.363   0.000   6.089
  112        1.726   4.363   0.000   6.089
  113        1.727   4.364   0.000   6.091
  114        1.726   4.363   0.000   6.089
  115        1.726   4.361   0.000   6.087
  116        1.726   4.361   0.000   6.087
  117        1.727   4.364   0.000   6.091
  118        1.726   4.363   0.000   6.089
  119        1.726   4.362   0.000   6.088
  120        1.726   4.362   0.000   6.089
  121        1.726   4.362   0.000   6.088
  122        1.726   4.362   0.000   6.088
  123        1.726   4.362   0.000   6.089
  124        1.726   4.362   0.000   6.088
  125        1.726   4.362   0.000   6.088
  126        1.726   4.362   0.000   6.088
  127        1.726   4.363   0.000   6.089
  128        1.726   4.362   0.000   6.088
  129        1.726   4.362   0.000   6.088
  130        1.726   4.362   0.000   6.089
  131        1.726   4.362   0.000   6.089
  132        1.726   4.362   0.000   6.088
  133        1.726   4.362   0.000   6.088
  134        1.726   4.362   0.000   6.089
  135        1.726   4.362   0.000   6.088
  136        1.726   4.362   0.000   6.088
  137        1.726   4.361   0.000   6.087
  138        1.726   4.361   0.000   6.088
  139        1.726   4.362   0.000   6.088
  140        1.726   4.361   0.000   6.088
  141        1.726   4.361   0.000   6.087
  142        1.726   4.361   0.000   6.088
  143        1.726   4.362   0.000   6.088
  144        1.726   4.361   0.000   6.087
  145        1.726   4.362   0.000   6.088
  146        1.726   4.362   0.000   6.088
  147        1.726   4.362   0.000   6.088
  148        1.726   4.361   0.000   6.088
  149        1.726   4.362   0.000   6.088
  150        1.726   4.362   0.000   6.088
  151        1.726   4.361   0.000   6.088
  152        1.726   4.362   0.000   6.089
  153        1.726   4.362   0.000   6.089
  154        1.726   4.362   0.000   6.089
  155        1.726   4.362   0.000   6.088
  156        1.726   4.362   0.000   6.089
  157        1.726   4.362   0.000   6.089
  158        1.726   4.362   0.000   6.089
  159        1.726   4.362   0.000   6.089
  160        1.726   4.362   0.000   6.088
  161        1.726   4.362   0.000   6.089
  162        1.726   4.362   0.000   6.088
  163        1.726   4.362   0.000   6.088
  164        1.726   4.362   0.000   6.089
  165        1.726   4.362   0.000   6.089
  166        1.726   4.362   0.000   6.088
  167        1.726   4.362   0.000   6.088
  168        1.726   4.362   0.000   6.088
  169        1.727   4.363   0.000   6.089
  170        1.730   4.352   0.000   6.081
  171        1.727   4.363   0.000   6.090
  172        1.726   4.362   0.000   6.088
  173        1.727   4.363   0.000   6.089
  174        1.730   4.351   0.000   6.081
  175        1.727   4.362   0.000   6.089
  176        1.729   4.349   0.000   6.079
  177        1.726   4.361   0.000   6.088
  178        1.726   4.361   0.000   6.088
  179        1.727   4.363   0.000   6.090
  180        1.726   4.362   0.000   6.088
  181        1.726   4.361   0.000   6.088
  182        1.726   4.361   0.000   6.088
  183        1.726   4.362   0.000   6.088
  184        1.726   4.362   0.000   6.088
  185        1.726   4.362   0.000   6.088
  186        1.726   4.362   0.000   6.089
  187        1.726   4.362   0.000   6.088
  188        1.726   4.362   0.000   6.088
  189        1.726   4.362   0.000   6.088
  190        1.726   4.362   0.000   6.089
  191        1.726   4.362   0.000   6.088
  192        1.726   4.362   0.000   6.088
  193        1.726   4.361   0.000   6.088
  194        1.726   4.361   0.000   6.088
  195        1.726   4.362   0.000   6.088
  196        1.726   4.362   0.000   6.088
  197        1.726   4.361   0.000   6.088
  198        1.726   4.361   0.000   6.088
  199        1.726   4.362   0.000   6.088
  200        1.726   4.362   0.000   6.088
  201        1.726   4.362   0.000   6.088
  202        1.726   4.362   0.000   6.088
  203        1.726   4.361   0.000   6.087
  204        1.727   4.364   0.000   6.091
  205        1.726   4.362   0.000   6.088
  206        1.726   4.362   0.000   6.088
  207        1.726   4.360   0.000   6.086
  208        1.727   4.356   0.000   6.083
  209        1.726   4.361   0.000   6.088
  210        1.726   4.362   0.000   6.089
  211        1.726   4.361   0.000   6.087
  212        1.727   4.364   0.000   6.091
  213        1.726   4.361   0.000   6.088
  214        1.726   4.362   0.000   6.089
  215        1.726   4.363   0.000   6.090
  216        1.726   4.361   0.000   6.087
  217        0.492   0.013   0.000   0.505
--------------------------------------------------
tot        261.2061071.053 356.9251689.183
 


 magnetization (x)
 
# of ion       s       p       d       tot
------------------------------------------
    1        0.018   0.018   4.568   4.603
    2       -0.017  -0.018  -4.559  -4.594
    3        0.018   0.018   4.568   4.603
    4       -0.003  -0.001  -4.151  -4.156
    5        0.018   0.018   4.569   4.604
    6       -0.017  -0.018  -4.559  -4.594
    7        0.018   0.018   4.569   4.604
    8       -0.017  -0.018  -4.568  -4.603
    9        0.018   0.018   4.568   4.604
   10       -0.018  -0.018  -4.569  -4.604
   11        0.018   0.018   4.568   4.604
   12       -0.018  -0.018  -4.568  -4.603
   13        0.018   0.018   4.569   4.604
   14       -0.018  -0.018  -4.569  -4.604
   15        0.018   0.018   4.569   4.604
   16       -0.018  -0.018  -4.569  -4.604
   17        0.018   0.018   4.570   4.605
   18       -0.018  -0.018  -4.569  -4.604
   19        0.018   0.018   4.570   4.605
   20       -0.018  -0.018  -4.568  -4.604
   21        0.018   0.018   4.568   4.603
   22       -0.018  -0.018  -4.569  -4.604
   23        0.018   0.018   4.568   4.603
   24       -0.018  -0.018  -4.568  -4.604
   25        0.018   0.018   4.569   4.604
   26       -0.018  -0.018  -4.568  -4.603
   27        0.018   0.018   4.569   4.604
   28       -0.018  -0.018  -4.569  -4.604
   29        0.018   0.018   4.568   4.604
   30       -0.018  -0.018  -4.568  -4.603
   31        0.018   0.018   4.568   4.604
   32       -0.018  -0.018  -4.568  -4.603
   33        0.018   0.018   4.569   4.604
   34       -0.018  -0.018  -4.569  -4.604
   35        0.018   0.018   4.569   4.604
   36       -0.018  -0.018  -4.569  -4.604
   37        0.018   0.018   4.569   4.604
   38       -0.018  -0.018  -4.569  -4.604
   39        0.018   0.018   4.569   4.604
   40       -0.018  -0.018  -4.569  -4.604
   41        0.018   0.018   4.568   4.604
   42       -0.018  -0.018  -4.569  -4.604
   43        0.018   0.018   4.568   4.604
   44       -0.018  -0.018  -4.569  -4.604
   45        0.018   0.018   4.568   4.604
   46       -0.018  -0.018  -4.569  -4.604
   47        0.018   0.018   4.568   4.604
   48       -0.018  -0.018  -4.569  -4.604
   49        0.018   0.018   4.569   4.604
   50       -0.018  -0.018  -4.568  -4.603
   51        0.018   0.018   4.569   4.604
   52       -0.018  -0.018  -4.568  -4.604
   53        0.018   0.018   4.569   4.604
   54       -0.018  -0.018  -4.568  -4.603
   55        0.018   0.018   4.569   4.604
   56       -0.018  -0.018  -4.569  -4.604
   57        0.018   0.018   4.569   4.604
   58       -0.018  -0.018  -4.569  -4.604
   59        0.018   0.018   4.569   4.604
   60       -0.018  -0.018  -4.569  -4.604
   61        0.018   0.018   4.569   4.604
   62       -0.018  -0.018  -4.569  -4.604
   63        0.018   0.018   4.569   4.604
   64       -0.018  -0.018  -4.568  -4.604
   65        0.018   0.018   4.570   4.605
   66       -0.018  -0.018  -4.569  -4.604
   67        0.018   0.018   4.570   4.605
   68       -0.018  -0.018  -4.569  -4.604
   69        0.018   0.018   4.568   4.603
   70       -0.018  -0.018  -4.569  -4.604
   71        0.018   0.018   4.568   4.603
   72       -0.018  -0.018  -4.568  -4.604
   73       -0.002  -0.017   0.000  -0.020
   74       -0.002  -0.019   0.000  -0.021
   75        0.002   0.020   0.000   0.022
   76        0.002   0.021   0.000   0.023
   77       -0.002  -0.017   0.000  -0.020
   78       -0.002  -0.019   0.000  -0.021
   79        0.004   0.039   0.000   0.042
   80        0.002   0.021   0.000   0.023
   81       -0.002  -0.020   0.000  -0.022
   82       -0.002  -0.019   0.000  -0.022
   83        0.002   0.020   0.000   0.022
   84        0.002   0.021   0.000   0.023
   85       -0.002  -0.020   0.000  -0.022
   86       -0.002  -0.019   0.000  -0.022
   87        0.002   0.020   0.000   0.023
   88        0.002   0.020   0.000   0.022
   89       -0.002  -0.019   0.000  -0.021
   90       -0.002  -0.020   0.000  -0.022
   91        0.002   0.019   0.000   0.022
   92        0.002   0.020   0.000   0.022
   93       -0.002  -0.019   0.000  -0.021
   94       -0.002  -0.020   0.000  -0.022
   95        0.002   0.018   0.000   0.021
   96        0.002   0.020   0.000   0.022
   97       -0.002  -0.019   0.000  -0.021
   98       -0.002  -0.019   0.000  -0.022
   99        0.002   0.019   0.000   0.022
  100        0.002   0.020   0.000   0.022
  101       -0.002  -0.019   0.000  -0.021
  102       -0.002  -0.019   0.000  -0.022
  103        0.002   0.019   0.000   0.021
  104        0.002   0.020   0.000   0.022
  105       -0.002  -0.019   0.000  -0.021
  106       -0.002  -0.021   0.000  -0.023
  107        0.002   0.019   0.000   0.021
  108        0.002   0.019   0.000   0.021
  109       -0.002  -0.019   0.000  -0.021
  110       -0.002  -0.021   0.000  -0.023
  111        0.002   0.020   0.000   0.022
  112        0.002   0.020   0.000   0.022
  113       -0.002  -0.020   0.000  -0.022
  114       -0.002  -0.019   0.000  -0.021
  115        0.002   0.019   0.000   0.021
  116        0.002   0.019   0.000   0.021
  117       -0.002  -0.020   0.000  -0.022
  118       -0.002  -0.019   0.000  -0.021
  119        0.002   0.020   0.000   0.022
  120        0.002   0.020   0.000   0.022
  121       -0.002  -0.020   0.000  -0.022
  122       -0.002  -0.020   0.000  -0.022
  123        0.002   0.020   0.000   0.022
  124        0.002   0.020   0.000   0.022
  125       -0.002  -0.020   0.000  -0.022
  126       -0.002  -0.020   0.000  -0.022
  127        0.002   0.020   0.000   0.022
  128        0.002   0.020   0.000   0.022
  129       -0.002  -0.020   0.000  -0.022
  130       -0.002  -0.020   0.000  -0.022
  131        0.002   0.020   0.000   0.022
  132        0.002   0.020   0.000   0.022
  133       -0.002  -0.020   0.000  -0.022
  134       -0.002  -0.020   0.000  -0.022
  135        0.002   0.020   0.000   0.022
  136        0.002   0.020   0.000   0.022
  137       -0.002  -0.020   0.000  -0.022
  138       -0.002  -0.020   0.000  -0.022
  139        0.002   0.019   0.000   0.021
  140        0.002   0.020   0.000   0.022
  141       -0.002  -0.020   0.000  -0.022
  142       -0.002  -0.020   0.000  -0.022
  143        0.002   0.019   0.000   0.021
  144        0.002   0.021   0.000   0.023
  145       -0.002  -0.019   0.000  -0.021
  146       -0.002  -0.020   0.000  -0.022
  147        0.002   0.019   0.000   0.021
  148        0.002   0.020   0.000   0.022
  149       -0.002  -0.019   0.000  -0.021
  150       -0.002  -0.020   0.000  -0.022
  151        0.002   0.019   0.000   0.022
  152        0.002   0.019   0.000   0.021
  153       -0.002  -0.019   0.000  -0.022
  154       -0.002  -0.020   0.000  -0.022
  155        0.002   0.020   0.000   0.022
  156        0.002   0.019   0.000   0.022
  157       -0.002  -0.019   0.000  -0.022
  158       -0.002  -0.020   0.000  -0.022
  159        0.002   0.020   0.000   0.022
  160        0.002   0.019   0.000   0.021
  161       -0.002  -0.020   0.000  -0.022
  162       -0.002  -0.019   0.000  -0.022
  163        0.002   0.020   0.000   0.022
  164        0.002   0.019   0.000   0.022
  165       -0.002  -0.020   0.000  -0.022
  166       -0.002  -0.019   0.000  -0.022
  167        0.002   0.020   0.000   0.022
  168        0.002   0.020   0.000   0.022
  169       -0.002  -0.018   0.000  -0.021
  170       -0.001   0.006   0.000   0.005
  171        0.002   0.021   0.000   0.023
  172        0.002   0.020   0.000   0.022
  173       -0.002  -0.018   0.000  -0.021
  174       -0.001   0.006   0.000   0.005
  175        0.002   0.021   0.000   0.023
  176        0.004   0.045   0.000   0.049
  177       -0.002  -0.020   0.000  -0.022
  178       -0.002  -0.020   0.000  -0.022
  179        0.002   0.021   0.000   0.023
  180        0.002   0.020   0.000   0.022
  181       -0.002  -0.020   0.000  -0.022
  182       -0.002  -0.020   0.000  -0.022
  183        0.002   0.020   0.000   0.022
  184        0.002   0.019   0.000   0.021
  185       -0.002  -0.019   0.000  -0.022
  186       -0.002  -0.021   0.000  -0.023
  187        0.002   0.020   0.000   0.022
  188        0.002   0.020   0.000   0.022
  189       -0.002  -0.019   0.000  -0.022
  190       -0.002  -0.021   0.000  -0.023
  191        0.002   0.020   0.000   0.022
  192        0.002   0.020   0.000   0.022
  193       -0.002  -0.020   0.000  -0.022
  194       -0.002  -0.020   0.000  -0.022
  195        0.002   0.020   0.000   0.022
  196        0.002   0.020   0.000   0.022
  197       -0.002  -0.020   0.000  -0.022
  198       -0.002  -0.020   0.000  -0.022
  199        0.002   0.019   0.000   0.022
  200        0.002   0.020   0.000   0.022
  201       -0.002  -0.020   0.000  -0.022
  202       -0.002  -0.020   0.000  -0.022
  203        0.002   0.019   0.000   0.021
  204        0.002   0.020   0.000   0.022
  205       -0.002  -0.020   0.000  -0.022
  206       -0.002  -0.020   0.000  -0.022
  207        0.002   0.020   0.000   0.022
  208        0.002   0.021   0.000   0.023
  209       -0.002  -0.020   0.000  -0.022
  210       -0.002  -0.020   0.000  -0.022
  211        0.002   0.018   0.000   0.021
  212        0.002   0.020   0.000   0.022
  213       -0.002  -0.020   0.000  -0.022
  214       -0.002  -0.020   0.000  -0.022
  215        0.002   0.019   0.000   0.021
  216        0.002   0.019   0.000   0.021
  217        0.187  -0.003   0.000   0.184
--------------------------------------------------
tot          0.209   0.121   0.440   0.770
 

 total amount of memory used by VASP MPI-rank0   498684. kBytes
=======================================================================

   base      :      30000. kBytes
   nonl-proj :      51292. kBytes
   fftplans  :      22373. kBytes
   grid      :      17829. kBytes
   one-center:        590. kBytes
   wavefun   :     376600. kBytes
 
  
  
 General timing and accounting informations for this job:
 ========================================================
  
                  Total CPU time used (sec):     2529.210
                            User time (sec):     2511.722
                          System time (sec):       17.487
                         Elapsed time (sec):     2538.553
  
                   Maximum memory used (kb):      719172.
                   Average memory used (kb):           0.
  
                          Minor page faults:       188166
                          Major page faults:           19
                 Voluntary context switches:          763
