       N       E                     dE             d eps       ncg     rms          rms(c)
DAV:   1     0.960929012926E+03    0.96093E+03   -0.37423E+04  3468   0.200E+03
DAV:   2     0.403906302632E+03   -0.55702E+03   -0.53300E+03  3996   0.511E+02
DAV:   3     0.369551898197E+03   -0.34354E+02   -0.33844E+02  3924   0.135E+02
DAV:   4     0.369126485390E+03   -0.42541E+00   -0.42511E+00  4044   0.165E+01
DAV:   5     0.369119437767E+03   -0.70476E-02   -0.70469E-02  4020   0.197E+00    0.588E+01
DAV:   6    -0.688141731533E+02   -0.43793E+03   -0.28335E+02  4320   0.212E+02    0.629E+01
DAV:   7    -0.714471964155E+02   -0.26330E+01   -0.50480E+01  3528   0.454E+01    0.172E+01
DAV:   8    -0.686347637535E+02    0.28124E+01   -0.71443E+00  4284   0.219E+01    0.648E+00
DAV:   9    -0.681680902856E+02    0.46667E+00   -0.48489E+00  4068   0.188E+01    0.812E+00
DAV:  10    -0.680972720366E+02    0.70818E-01   -0.42844E-01  3720   0.573E+00    0.581E+00
DAV:  11    -0.680726564849E+02    0.24616E-01   -0.10303E+00  4080   0.735E+00    0.191E+00
DAV:  12    -0.680369752049E+02    0.35681E-01   -0.97203E-02  4428   0.314E+00    0.128E+00
DAV:  13    -0.680293200506E+02    0.76552E-02   -0.72594E-02  4008   0.159E+00    0.109E+00
DAV:  14    -0.680242655858E+02    0.50545E-02   -0.50038E-02  3480   0.254E+00    0.410E-01
DAV:  15    -0.680250667975E+02   -0.80121E-03   -0.39732E-03  3876   0.421E-01    0.387E-01
DAV:  16    -0.680244954281E+02    0.57137E-03   -0.25444E-03  3600   0.374E-01    0.143E-01
DAV:  17    -0.680243683545E+02    0.12707E-03   -0.25495E-03  3888   0.363E-01    0.100E-01
DAV:  18    -0.680241924569E+02    0.17590E-03   -0.10828E-04  3588   0.787E-02    0.343E-02
DAV:  19    -0.680242012801E+02   -0.88232E-05   -0.83007E-05  4212   0.553E-02    0.558E-03
DAV:  20    -0.680242105479E+02   -0.92678E-05   -0.55863E-06  3684   0.158E-02    0.568E-03
DAV:  21    -0.680242145771E+02   -0.40292E-05   -0.80833E-07  3840   0.675E-03    0.261E-03
DAV:  22    -0.680242159364E+02   -0.13593E-05   -0.39240E-07  3336   0.378E-03    0.139E-03
DAV:  23    -0.680242162129E+02   -0.27652E-06   -0.12305E-07  2568   0.249E-03    0.517E-04
DAV:  24    -0.680242177144E+02   -0.15014E-05   -0.12388E-08  1800   0.923E-04    0.300E-04
DAV:  25    -0.680242178453E+02   -0.13091E-06   -0.25798E-09  1752   0.350E-04    0.342E-04
DAV:  26    -0.680242177422E+02    0.10306E-06   -0.14830E-09  1800   0.294E-04    0.242E-04
DAV:  27    -0.680242176699E+02    0.72288E-07   -0.47481E-10  1752   0.131E-04
   1 F= -.68024218E+02 E0= -.68024218E+02  d E =-.680242E+02  mag=    -0.0000
