       N       E                     dE             d eps       ncg     rms          rms(c)
DAV:   1     0.981073856461E+03    0.98107E+03   -0.38962E+04  1320   0.212E+03
DAV:   2     0.405662210844E+03   -0.57541E+03   -0.55173E+03  1512   0.529E+02
DAV:   3     0.369814504864E+03   -0.35848E+02   -0.35448E+02  1476   0.138E+02
DAV:   4     0.369352182496E+03   -0.46232E+00   -0.46196E+00  1536   0.173E+01
DAV:   5     0.369344701626E+03   -0.74809E-02   -0.74807E-02  1512   0.207E+00    0.589E+01
DAV:   6    -0.688072435344E+02   -0.43815E+03   -0.28373E+02  1572   0.213E+02    0.627E+01
DAV:   7    -0.715402492320E+02   -0.27330E+01   -0.50940E+01  1356   0.452E+01    0.172E+01
DAV:   8    -0.686615558371E+02    0.28787E+01   -0.70172E+00  1584   0.218E+01    0.665E+00
DAV:   9    -0.681639684442E+02    0.49759E+00   -0.49954E+00  1488   0.192E+01    0.821E+00
DAV:  10    -0.681142869176E+02    0.49682E-01   -0.43592E-01  1404   0.555E+00    0.600E+00
DAV:  11    -0.680785444526E+02    0.35742E-01   -0.11213E+00  1560   0.798E+00    0.201E+00
DAV:  12    -0.680402151362E+02    0.38329E-01   -0.10278E-01  1584   0.327E+00    0.122E+00
DAV:  13    -0.680319074703E+02    0.83077E-02   -0.71174E-02  1500   0.157E+00    0.104E+00
DAV:  14    -0.680271302769E+02    0.47772E-02   -0.52467E-02  1296   0.248E+00    0.406E-01
DAV:  15    -0.680279655050E+02   -0.83523E-03   -0.36982E-03  1488   0.447E-01    0.401E-01
DAV:  16    -0.680271602109E+02    0.80529E-03   -0.29120E-03  1392   0.356E-01    0.157E-01
DAV:  17    -0.680270990267E+02    0.61184E-04   -0.36067E-03  1416   0.429E-01    0.113E-01
DAV:  18    -0.680268719545E+02    0.22707E-03   -0.21426E-04  1332   0.108E-01    0.335E-02
DAV:  19    -0.680268611624E+02    0.10792E-04   -0.12191E-04  1500   0.734E-02    0.827E-03
DAV:  20    -0.680268836811E+02   -0.22519E-04   -0.74310E-06  1452   0.175E-02    0.964E-03
DAV:  21    -0.680268860161E+02   -0.23349E-05   -0.31229E-06  1332   0.122E-02    0.394E-03
DAV:  22    -0.680268844682E+02    0.15479E-05   -0.13118E-06  1452   0.683E-03    0.182E-03
DAV:  23    -0.680268874640E+02   -0.29958E-05   -0.10833E-07   876   0.250E-03    0.107E-03
DAV:  24    -0.680268880623E+02   -0.59826E-06   -0.14356E-08   648   0.104E-03    0.370E-04
DAV:  25    -0.680268885008E+02   -0.43852E-06   -0.20994E-08   648   0.963E-04    0.363E-04
DAV:  26    -0.680268886196E+02   -0.11880E-06   -0.23242E-09   648   0.343E-04    0.245E-04
DAV:  27    -0.680268885608E+02    0.58829E-07   -0.10831E-09   648   0.214E-04
   1 F= -.68026889E+02 E0= -.68026889E+02  d E =-.680269E+02  mag=    -0.0000
       N       E                     dE             d eps       ncg     rms          rms(c)
DAV:   1    -0.680269564200E+02   -0.67800E-04   -0.33627E-03  1296   0.487E-01    0.794E-02
DAV:   2    -0.680268603819E+02    0.96038E-04   -0.20048E-04  1296   0.119E-01    0.477E-02
DAV:   3    -0.680268922126E+02   -0.31831E-04   -0.66808E-05  1404   0.569E-02    0.184E-02
DAV:   4    -0.680269153792E+02   -0.23167E-04   -0.36100E-06  1416   0.169E-02    0.147E-02
DAV:   5    -0.680269154086E+02   -0.29393E-07   -0.83289E-06  1596   0.189E-02    0.920E-03
DAV:   6    -0.680269145189E+02    0.88973E-06   -0.11837E-06  1416   0.864E-03    0.375E-03
DAV:   7    -0.680269150614E+02   -0.54253E-06   -0.33235E-06  1512   0.110E-02    0.410E-03
DAV:   8    -0.680269132696E+02    0.17918E-05   -0.24635E-07  1176   0.432E-03    0.195E-03
DAV:   9    -0.680269133113E+02   -0.41782E-07   -0.39265E-07  1140   0.366E-03
   2 F= -.68026913E+02 E0= -.68026913E+02  d E =-.247506E-04  mag=     0.0000
