 vasp.5.4.4.18Apr17-6-g9f103f2a35 (build Apr 27 2017 11:13:10) complex          
  
 executed on           IFC91_ompi date 2020.05.13  11:50:14
 running on   12 total cores
 distrk:  each k-point on   12 cores,    1 groups
 distr:  one band on NCORES_PER_BAND=   1 cores,   12 groups


--------------------------------------------------------------------------------------------------------


 INCAR:
 POTCAR:    PAW_PBE Mn_pv 02Aug2007               
 POTCAR:    PAW_PBE F 08Apr2002                   

 ----------------------------------------------------------------------------- 
|                                                                             |
|           W    W    AA    RRRRR   N    N  II  N    N   GGGG   !!!           |
|           W    W   A  A   R    R  NN   N  II  NN   N  G    G  !!!           |
|           W    W  A    A  R    R  N N  N  II  N N  N  G       !!!           |
|           W WW W  AAAAAA  RRRRR   N  N N  II  N  N N  G  GGG   !            |
|           WW  WW  A    A  R   R   N   NN  II  N   NN  G    G                |
|           W    W  A    A  R    R  N    N  II  N    N   GGGG   !!!           |
|                                                                             |
|      For optimal performance we recommend to set                            |
|        NCORE= 4 - approx SQRT( number of cores)                             |
|      NCORE specifies how many cores store one orbital (NPAR=cpu/NCORE).     |
|      This setting can  greatly improve the performance of VASP for DFT.     |
|      The default,   NCORE=1            might be grossly inefficient         |
|      on modern multi-core architectures or massively parallel machines.     |
|      Do your own testing !!!!                                               |
|      Unfortunately you need to use the default for GW and RPA calculations. |
|      (for HF NCORE is supported but not extensively tested yet)             |
|                                                                             |
 ----------------------------------------------------------------------------- 

 POTCAR:    PAW_PBE Mn_pv 02Aug2007               
   VRHFIN =Mn: 3p4s3d                                                           
   LEXCH  = PE                                                                  
   EATOM  =  2025.2664 eV,  148.8529 Ry                                         
                                                                                
   TITEL  = PAW_PBE Mn_pv 02Aug2007                                             
   LULTRA =        F    use ultrasoft PP ?                                      
   IUNSCR =        1    unscreen: 0-lin 1-nonlin 2-no                           
   RPACOR =    2.080    partial core radius                                     
   POMASS =   54.938; ZVAL   =   13.000    mass and valenz                      
   RCORE  =    2.300    outmost cutoff radius                                   
   RWIGS  =    2.500; RWIGS  =    1.323    wigner-seitz radius (au A)           
   ENMAX  =  269.864; ENMIN  =  202.398 eV                                      
   ICORE  =        3    local potential                                         
   LCOR   =        T    correct aug charges                                     
   LPAW   =        T    paw PP                                                  
   EAUG   =  569.085                                                            
   DEXC   =    0.000                                                            
   RMAX   =    2.343    core radius for proj-oper                               
   RAUG   =    1.300    factor for augmentation sphere                          
   RDEP   =    2.338    radius for radial grids                                 
   RDEPT  =    1.798    core radius for aug-charge                              
                                                                                
   Atomic configuration                                                         
    8 entries                                                                   
     n  l   j            E        occ.                                          
     1  0  0.50     -6424.8287   2.0000                                         
     2  0  0.50      -739.1154   2.0000                                         
     2  1  1.50      -625.3949   6.0000                                         
     3  0  0.50       -81.6100   2.0000                                         
     3  1  1.50       -50.4667   6.0000                                         
     3  2  2.50        -3.3745   6.0000                                         
     4  0  0.50        -4.1331   1.0000                                         
     4  3  2.50        -1.3606   0.0000                                         
   Description                                                                  
     l       E           TYP  RCUT    TYP  RCUT                                 
     1    -50.4666628     23  2.000                                             
     1     -1.3605826     23  2.000                                             
     2     -3.3744729     23  2.300                                             
     2     -4.7350555     23  2.300                                             
     0     -4.1331431     23  2.300                                             
     0      7.6656591     23  2.300                                             
     3      9.5240782     23  2.300                                             
  local pseudopotential read in
  partial core-charges read in
  partial kinetic energy density read in
  atomic valenz-charges read in
  non local Contribution for L=           1  read in
    real space projection operators read in
  non local Contribution for L=           1  read in
    real space projection operators read in
  non local Contribution for L=           2  read in
    real space projection operators read in
  non local Contribution for L=           2  read in
    real space projection operators read in
  non local Contribution for L=           0  read in
    real space projection operators read in
  non local Contribution for L=           0  read in
    real space projection operators read in
    PAW grid and wavefunctions read in
 
   number of l-projection  operators is LMAX  =           6
   number of lm-projection operators is LMMAX =          18
 
 POTCAR:    PAW_PBE F 08Apr2002                   
   VRHFIN =F: s2p5                                                              
   LEXCH  = PE                                                                  
   EATOM  =   659.6475 eV,   48.4827 Ry                                         
                                                                                
   TITEL  = PAW_PBE F 08Apr2002                                                 
   LULTRA =        F    use ultrasoft PP ?                                      
   IUNSCR =        1    unscreen: 0-lin 1-nonlin 2-no                           
   RPACOR =    1.200    partial core radius                                     
   POMASS =   18.998; ZVAL   =    7.000    mass and valenz                      
   RCORE  =    1.520    outmost cutoff radius                                   
   RWIGS  =    1.500; RWIGS  =    0.794    wigner-seitz radius (au A)           
   ENMAX  =  400.000; ENMIN  =  300.000 eV                                      
   ICORE  =        2    local potential                                         
   LCOR   =        T    correct aug charges                                     
   LPAW   =        T    paw PP                                                  
   EAUG   =  613.614                                                            
   RMAX   =    1.555    core radius for proj-oper                               
   RAUG   =    1.300    factor for augmentation sphere                          
   RDEP   =    1.539    radius for radial grids                                 
   RDEPT  =    1.299    core radius for aug-charge                              
                                                                                
   Atomic configuration                                                         
    4 entries                                                                   
     n  l   j            E        occ.                                          
     1  0  0.50      -663.3661   2.0000                                         
     2  0  0.50       -29.8995   2.0000                                         
     2  1  0.50       -11.1114   5.0000                                         
     3  2  1.50       -10.8847   0.0000                                         
   Description                                                                  
     l       E           TYP  RCUT    TYP  RCUT                                 
     0    -29.8995018     23  1.200                                             
     0     -9.5240782     23  1.200                                             
     1    -11.1113914     23  1.520                                             
     1      1.3605826     23  1.520                                             
     2    -10.8846608      7  1.500                                             
  local pseudopotential read in
  partial core-charges read in
  partial kinetic energy density read in
  atomic valenz-charges read in
  non local Contribution for L=           0  read in
    real space projection operators read in
  non local Contribution for L=           0  read in
    real space projection operators read in
  non local Contribution for L=           1  read in
    real space projection operators read in
  non local Contribution for L=           1  read in
    real space projection operators read in
    PAW grid and wavefunctions read in
 
   number of l-projection  operators is LMAX  =           4
   number of lm-projection operators is LMMAX =           8
 
  PAW_PBE Mn_pv 02Aug2007               :
 energy of atom  1       EATOM=-2025.2664
 kinetic energy error for atom=    0.0032 (will be added to EATOM!!)
  PAW_PBE F 08Apr2002                   :
 energy of atom  2       EATOM= -659.6475
 kinetic energy error for atom=    0.0198 (will be added to EATOM!!)
 
 
 POSCAR: Mn  F                                   
  positions in cartesian coordinates
  No initial velocities read in

 METAGGA = SCAN     LMAXTAU =  6    LMIXTAU =  F

 exchange correlation table for  LEXCH =        8
   RHO(1)=    0.500       N(1)  =     2000
   RHO(2)=  100.500       N(2)  =     4000
 


--------------------------------------------------------------------------------------------------------


 ion  position               nearest neighbor table
   1  0.500  0.500  0.500-   3 2.08   4 2.08   5 2.12   6 2.12   5 2.12   6 2.12
   2  0.000  0.000  0.000-   5 2.08   6 2.08   3 2.12   4 2.12   3 2.12   4 2.12
   3  0.196  0.804  0.500-   1 2.08   2 2.12   2 2.12
   4  0.804  0.196  0.500-   1 2.08   2 2.12   2 2.12
   5  0.304  0.304  0.000-   2 2.08   1 2.12   1 2.12
   6  0.696  0.696  0.000-   2 2.08   1 2.12   1 2.12
 
  LATTYP: Found a simple tetragonal cell.
 ALAT       =     4.8492193463
 C/A-ratio  =     0.6775307558
  
  Lattice vectors:
  
 A1 = (   4.8492193463,   0.0000000000,   0.0000000000)
 A2 = (   0.0000000000,   4.8492193463,   0.0000000000)
 A3 = (   0.0000000000,   0.0000000000,   3.2854952486)


Analysis of symmetry for initial positions (statically):
=====================================================================
 Subroutine PRICEL returns:
 Original cell was already a primitive cell.
 

 Routine SETGRP: Setting up the symmetry group for a 
 simple tetragonal supercell.


 Subroutine GETGRP returns: Found 16 space group operations
 (whereof  8 operations were pure point group operations)
 out of a pool of 16 trial point group operations.


The static configuration has the point symmetry D_2h.
 The point group associated with its full space group is D_4h.


Analysis of symmetry for dynamics (positions and initial velocities):
=====================================================================
 Subroutine PRICEL returns:
 Original cell was already a primitive cell.
 

 Routine SETGRP: Setting up the symmetry group for a 
 simple tetragonal supercell.


 Subroutine GETGRP returns: Found 16 space group operations
 (whereof  8 operations were pure point group operations)
 out of a pool of 16 trial point group operations.


The dynamic configuration has the point symmetry D_2h.
 The point group associated with its full space group is D_4h.


Analysis of structural, dynamic, and magnetic symmetry:
=====================================================================
 Subroutine PRICEL returns:
 Original cell was already a primitive cell.
 

 Routine SETGRP: Setting up the symmetry group for a 
 simple tetragonal supercell.


 Subroutine GETGRP returns: Found 16 space group operations
 (whereof  8 operations were pure point group operations)
 out of a pool of 16 trial point group operations.


The magnetic configuration has the point symmetry D_2h.
 The point group associated with its full space group is D_4h.


 Subroutine INISYM returns: Found 16 space group operations
 (whereof  8 operations are pure point group operations),
 and found     1 'primitive' translations

 
 
 KPOINTS: KPOINTS created by Atomic Simulation Env

Automatic generation of k-mesh.
Space group operators:
 irot       det(A)        alpha          n_x          n_y          n_z        tau_x        tau_y        tau_z
    1     1.000000     0.000000     1.000000     0.000000     0.000000     0.000000     0.000000     0.000000
    2    -1.000000     0.000000     1.000000     0.000000     0.000000     0.000000     0.000000     0.000000
    3     1.000000   180.000000     0.000000     0.000000     1.000000     0.000000     0.000000     0.000000
    4    -1.000000   180.000000     0.000000     0.000000     1.000000     0.000000     0.000000     0.000000
    5     1.000000   180.000000     0.707107     0.707107     0.000000     0.000000     0.000000     0.000000
    6    -1.000000   180.000000     0.707107     0.707107     0.000000     0.000000     0.000000     0.000000
    7     1.000000   180.000000     0.707107    -0.707107     0.000000     0.000000     0.000000     0.000000
    8    -1.000000   180.000000     0.707107    -0.707107     0.000000     0.000000     0.000000     0.000000
    9     1.000000    90.000000     0.000000     0.000000    -1.000000     0.500000     0.500000     0.500000
   10    -1.000000    90.000000     0.000000     0.000000    -1.000000     0.500000     0.500000     0.500000
   11     1.000000    90.000000     0.000000     0.000000     1.000000     0.500000     0.500000     0.500000
   12    -1.000000    90.000000     0.000000     0.000000     1.000000     0.500000     0.500000     0.500000
   13     1.000000   180.000000     0.000000     1.000000     0.000000     0.500000     0.500000     0.500000
   14    -1.000000   180.000000     0.000000     1.000000     0.000000     0.500000     0.500000     0.500000
   15     1.000000   180.000000     1.000000     0.000000     0.000000     0.500000     0.500000     0.500000
   16    -1.000000   180.000000     1.000000     0.000000     0.000000     0.500000     0.500000     0.500000
 
 Subroutine IBZKPT returns following result:
 ===========================================
 
 Found      9 irreducible k-points:
 
 Following reciprocal coordinates:
            Coordinates               Weight
  0.125000  0.125000  0.083333      8.000000
  0.375000  0.125000  0.083333     16.000000
  0.375000  0.375000  0.083333      8.000000
  0.125000  0.125000  0.250000      8.000000
  0.375000  0.125000  0.250000     16.000000
  0.375000  0.375000  0.250000      8.000000
  0.125000  0.125000  0.416667      8.000000
  0.375000  0.125000  0.416667     16.000000
  0.375000  0.375000  0.416667      8.000000
 
 Following cartesian coordinates:
            Coordinates               Weight
  0.025777  0.025777  0.025364      8.000000
  0.077332  0.025777  0.025364     16.000000
  0.077332  0.077332  0.025364      8.000000
  0.025777  0.025777  0.076092      8.000000
  0.077332  0.025777  0.076092     16.000000
  0.077332  0.077332  0.076092      8.000000
  0.025777  0.025777  0.126820      8.000000
  0.077332  0.025777  0.126820     16.000000
  0.077332  0.077332  0.126820      8.000000
 
 TETIRR: Found    106 inequivalent tetrahedra from      576


--------------------------------------------------------------------------------------------------------




 Dimension of arrays:
   k-points           NKPTS =      9   k-points in BZ     NKDIM =      9   number of bands    NBANDS=     36
   number of dos      NEDOS =    301   number of ions     NIONS =      6
   non local maximal  LDIM  =      6   non local SUM 2l+1 LMDIM =     18
   total plane-waves  NPLWV =  18000
   max r-space proj   IRMAX =      1   max aug-charges    IRDMAX=  56748
   dimension x,y,z NGX =    30 NGY =   30 NGZ =   20
   dimension x,y,z NGXF=    60 NGYF=   60 NGZF=   40
   support grid    NGXF=   120 NGYF=  120 NGZF=   80
   ions per type =               2   4
   NGX,Y,Z   is equivalent  to a cutoff of  10.28, 10.28, 10.12 a.u.
   NGXF,Y,Z  is equivalent  to a cutoff of  20.57, 20.57, 20.24 a.u.

 SYSTEM =  unknown system                          
 POSCAR =  Mn  F                                   

 Startparameter for this run:
   NWRITE =      2    write-flag & timer
   PREC   = normal    normal or accurate (medium, high low for compatibility)
   ISTART =      0    job   : 0-new  1-cont  2-samecut
   ICHARG =      2    charge: 1-file 2-atom 10-const
   ISPIN  =      2    spin polarized calculation?
   LNONCOLLINEAR =      F non collinear calculations
   LSORBIT =      F    spin-orbit coupling
   INIWAV =      1    electr: 0-lowe 1-rand  2-diag
   LASPH  =      T    aspherical Exc in radial PAW
   METAGGA=      F    non-selfconsistent MetaGGA calc.

 Electronic Relaxation 1
   ENCUT  =  650.0 eV  47.77 Ry    6.91 a.u.  10.08 10.08  6.83*2*pi/ulx,y,z
   ENINI  =  650.0     initial cutoff
   ENAUG  =  613.6 eV  augmentation charge cutoff
   NELM   =     60;   NELMIN=  2; NELMDL= -5     # of ELM steps 
   EDIFF  = 0.1E-06   stopping-criterion for ELM
   LREAL  =      F    real-space projection
   NLSPLINE    = F    spline interpolate recip. space projectors
   LCOMPAT=      F    compatible to vasp.4.4
   GGA_COMPAT  = T    GGA compatible to vasp.4.4-vasp.4.6
   LMAXPAW     = -100 max onsite density
   LMAXMIX     =    4 max onsite mixed and CHGCAR
   VOSKOWN=      0    Vosko Wilk Nusair interpolation
   ROPT   =    0.00000   0.00000
 Ionic relaxation
   EDIFFG = -.5E-02   stopping-criterion for IOM
   NSW    =     50    number of steps for IOM
   NBLOCK =      1;   KBLOCK =     50    inner block; outer block 
   IBRION =      2    ionic relax: 0-MD 1-quasi-New 2-CG
   NFREE  =      1    steps in history (QN), initial steepest desc. (CG)
   ISIF   =      3    stress and relaxation
   IWAVPR =     11    prediction:  0-non 1-charg 2-wave 3-comb
   ISYM   =      2    0-nonsym 1-usesym 2-fastsym
   LCORR  =      T    Harris-Foulkes like correction to forces

   POTIM  = 0.5000    time-step for ionic-motion
   TEIN   =    0.0    initial temperature
   TEBEG  =    0.0;   TEEND  =   0.0 temperature during run
   SMASS  =  -3.00    Nose mass-parameter (am)
   estimated Nose-frequenzy (Omega)   =  0.10E-29 period in steps =****** mass=  -0.537E-27a.u.
   SCALEE = 1.0000    scale energy and forces
   NPACO  =    256;   APACO  = 16.0  distance and # of slots for P.C.
   PSTRESS=    0.0 pullay stress

  Mass of Ions in am
   POMASS =  54.94 19.00
  Ionic Valenz
   ZVAL   =  13.00  7.00
  Atomic Wigner-Seitz radii
   RWIGS  =  -1.00 -1.00
  virtual crystal weights 
   VCA    =   1.00  1.00
   NELECT =      54.0000    total number of electrons
   NUPDOWN=      -1.0000    fix difference up-down

 DOS related values:
   EMIN   =  10.00;   EMAX   =-10.00  energy-range for DOS
   EFERMI =   0.00
   ISMEAR =    -5;   SIGMA  =   0.20  broadening in eV -4-tet -1-fermi 0-gaus

 Electronic relaxation 2 (details)
   IALGO  =     38    algorithm
   LDIAG  =      T    sub-space diagonalisation (order eigenvalues)
   LSUBROT=      F    optimize rotation matrix (better conditioning)
   TURBO    =      0    0=normal 1=particle mesh
   IRESTART =      0    0=no restart 2=restart with 2 vectors
   NREBOOT  =      0    no. of reboots
   NMIN     =      0    reboot dimension
   EREF     =   0.00    reference energy to select bands
   IMIX   =      4    mixing-type and parameters
     AMIX     =   0.40;   BMIX     =  1.00
     AMIX_MAG =   1.60;   BMIX_MAG =  1.00
     AMIN     =   0.10
     WC   =   100.;   INIMIX=   1;  MIXPRE=   1;  MAXMIX= -45

 Intra band minimization:
   WEIMIN = 0.0010     energy-eigenvalue tresh-hold
   EBREAK =  0.69E-09  absolut break condition
   DEPER  =   0.30     relativ break condition  

   TIME   =   0.40     timestep for ELM

  volume/ion in A,a.u.               =      12.88        86.89
  Fermi-wavevector in a.u.,A,eV,Ry     =   1.452863  2.745512 28.719315  2.110810
  Thomas-Fermi vector in A             =   2.570196
 
 Write flags
   LWAVE        =      F    write WAVECAR
   LDOWNSAMPLE  =      F    k-point downsampling of WAVECAR
   LCHARG       =      F    write CHGCAR
   LVTOT        =      F    write LOCPOT, total local potential
   LVHAR        =      F    write LOCPOT, Hartree potential only
   LELF         =      F    write electronic localiz. function (ELF)
   LORBIT       =     11    0 simple, 1 ext, 2 COOP (PROOUT), +10 PAW based schemes


 Dipole corrections
   LMONO  =      F    monopole corrections only (constant potential shift)
   LDIPOL =      F    correct potential (dipole corrections)
   IDIPOL =      0    1-x, 2-y, 3-z, 4-all directions 
   EPSILON=  1.0000000 bulk dielectric constant

 LDA+U is selected, type is set to LDAUTYPE =  2
   angular momentum for each species LDAUL =     2   -1
   U (eV)           for each species LDAUU =   0.0  0.0
   J (eV)           for each species LDAUJ =   0.0  0.0
 Exchange correlation treatment:
   GGA     =    --    GGA type
   LEXCH   =     8    internal setting for exchange type
   VOSKOWN=      0    Vosko Wilk Nusair interpolation
   LHFCALC =     F    Hartree Fock is set to
   LHFONE  =     F    Hartree Fock one center treatment
   AEXX    =    0.0000 exact exchange contribution

 Linear response parameters
   LEPSILON=     F    determine dielectric tensor
   LRPA    =     F    only Hartree local field effects (RPA)
   LNABLA  =     F    use nabla operator in PAW spheres
   LVEL    =     F    velocity operator in full k-point grid
   LINTERFAST=   F  fast interpolation
   KINTER  =     0    interpolate to denser k-point grid
   CSHIFT  =0.1000    complex shift for real part using Kramers Kronig
   OMEGAMAX=  -1.0    maximum frequency
   DEG_THRESHOLD= 0.2000000E-02 threshold for treating states as degnerate
   RTIME   =   -0.100 relaxation time in fs
  (WPLASMAI=    0.000 imaginary part of plasma frequency in eV, 0.658/RTIME)
   DFIELD  = 0.0000000 0.0000000 0.0000000 field for delta impulse in time
 
 Orbital magnetization related:
   ORBITALMAG=     F  switch on orbital magnetization
   LCHIMAG   =     F  perturbation theory with respect to B field
   DQ        =  0.001000  dq finite difference perturbation B field
   LLRAUG    =     F  two centre corrections for induced B field



--------------------------------------------------------------------------------------------------------


 conjugate gradient relaxation of ions
 charge density and potential will be updated during run
 spin polarized calculation
 Variant of blocked Davidson
 Davidson routine will perform the subspace rotation
 perform sub-space diagonalisation
    after iterative eigenvector-optimisation
 modified Broyden-mixing scheme, WC =      100.0
 initial mixing is a Kerker type mixing with AMIX =  0.4000 and BMIX =      1.0000
 Hartree-type preconditioning will be used
 using additional bands            9
 reciprocal scheme for non local part
 use partial core corrections
 calculate Harris-corrections to forces 
   (improved forces if not selfconsistent)
 use gradient corrections 
 use of overlap-Matrix (Vanderbilt PP)
 Fermi weights with tetrahedron method with Bloechl corrections


--------------------------------------------------------------------------------------------------------


  energy-cutoff  :      650.00
  volume of cell :       77.26
      direct lattice vectors                 reciprocal lattice vectors
     4.849219346  0.000000000  0.000000000     0.206218760  0.000000000  0.000000000
     0.000000000  4.849219346  0.000000000     0.000000000  0.206218760  0.000000000
     0.000000000  0.000000000  3.285495249     0.000000000  0.000000000  0.304368116

  length of vectors
     4.849219346  4.849219346  3.285495249     0.206218760  0.206218760  0.304368116


 
 k-points in units of 2pi/SCALE and weight: KPOINTS created by Atomic Simulation Env
   0.02577734  0.02577734  0.02536401       0.083
   0.07733203  0.02577734  0.02536401       0.167
   0.07733203  0.07733203  0.02536401       0.083
   0.02577734  0.02577734  0.07609203       0.083
   0.07733203  0.02577734  0.07609203       0.167
   0.07733203  0.07733203  0.07609203       0.083
   0.02577734  0.02577734  0.12682005       0.083
   0.07733203  0.02577734  0.12682005       0.167
   0.07733203  0.07733203  0.12682005       0.083
 
 k-points in reciprocal lattice and weights: KPOINTS created by Atomic Simulation Env
   0.12500000  0.12500000  0.08333333       0.083
   0.37500000  0.12500000  0.08333333       0.167
   0.37500000  0.37500000  0.08333333       0.083
   0.12500000  0.12500000  0.25000000       0.083
   0.37500000  0.12500000  0.25000000       0.167
   0.37500000  0.37500000  0.25000000       0.083
   0.12500000  0.12500000  0.41666667       0.083
   0.37500000  0.12500000  0.41666667       0.167
   0.37500000  0.37500000  0.41666667       0.083
 
 position of ions in fractional coordinates (direct lattice) 
   0.50000000  0.50000000  0.50000000
   0.00000000  0.00000000  0.00000000
   0.19610927  0.80389073  0.50000000
   0.80389073  0.19610927  0.50000000
   0.30389073  0.30389073  0.00000000
   0.69610927  0.69610927  0.00000000
 
 position of ions in cartesian coordinates  (Angst):
   2.42460967  2.42460967  1.64274762
   0.00000000  0.00000000  0.00000000
   0.95097688  3.89824246  1.64274762
   3.89824246  0.95097688  1.64274762
   1.47363279  1.47363279  0.00000000
   3.37558656  3.37558656  0.00000000
 


--------------------------------------------------------------------------------------------------------


 k-point  1 :   0.1250 0.1250 0.0833  plane waves:    2894
 k-point  2 :   0.3750 0.1250 0.0833  plane waves:    2904
 k-point  3 :   0.3750 0.3750 0.0833  plane waves:    2912
 k-point  4 :   0.1250 0.1250 0.2500  plane waves:    2901
 k-point  5 :   0.3750 0.1250 0.2500  plane waves:    2905
 k-point  6 :   0.3750 0.3750 0.2500  plane waves:    2909
 k-point  7 :   0.1250 0.1250 0.4167  plane waves:    2911
 k-point  8 :   0.3750 0.1250 0.4167  plane waves:    2915
 k-point  9 :   0.3750 0.3750 0.4167  plane waves:    2917

 maximum and minimum number of plane-waves per node :      2917     2894

 maximum number of plane-waves:      2917
 maximum index in each direction: 
   IXMAX=    9   IYMAX=    9   IZMAX=    6
   IXMIN=  -10   IYMIN=  -10   IZMIN=   -7


 serial   3D FFT for wavefunctions
 parallel 3D FFT for charge:
    minimum data exchange during FFTs selected (reduces bandwidth)


 total amount of memory used by VASP MPI-rank0    46343. kBytes
=======================================================================

   base      :      30000. kBytes
   nonl-proj :       7870. kBytes
   fftplans  :       1875. kBytes
   grid      :       3820. kBytes
   one-center:        186. kBytes
   wavefun   :       2592. kBytes
 
     INWAV:  cpu time    0.0000: real time    0.0000
 Broyden mixing: mesh for mixing (old mesh)
   NGX = 21   NGY = 21   NGZ = 13
  (NGX  = 60   NGY  = 60   NGZ  = 40)
  gives a total of   5733 points

 initial charge density was supplied:
 charge density of overlapping atoms calculated
 number of electron      54.0000000 magnetization       0.0000000
 keeping initial charge density in first step


--------------------------------------------------------------------------------------------------------


 Maximum index for augmentation-charges         4331 (set IRDMAX)


--------------------------------------------------------------------------------------------------------


 First call to EWALD:  gamma=   0.416
 Maximum number of real-space cells 2x 2x 3
 Maximum number of reciprocal cells 3x 3x 2

    FEWALD:  cpu time    0.0010: real time    0.0010


--------------------------------------- Iteration      1(   1)  ---------------------------------------


    POTLOK:  cpu time    0.0355: real time    0.0355
    SETDIJ:  cpu time    1.4732: real time    1.4732
atom =   1  type =  1  l = 2
 
 onsite density matrix
 
spin component  1
 
  0.2835  0.0000  0.0000  0.0000  0.0000
  0.0000  0.2835  0.0000  0.0000  0.0000
  0.0000  0.0000  0.2835  0.0000  0.0000
  0.0000  0.0000  0.0000  0.2835  0.0000
  0.0000  0.0000  0.0000  0.0000  0.2835
 
spin component  2
 
  0.7694  0.0000  0.0000  0.0000  0.0000
  0.0000  0.7694  0.0000  0.0000  0.0000
  0.0000  0.0000  0.7694  0.0000  0.0000
  0.0000  0.0000  0.0000  0.7694  0.0000
  0.0000  0.0000  0.0000  0.0000  0.7694
 
 occupancies and eigenvectors
 
  o =  0.2835  v =  1.0000  0.0000  0.0000  0.0000  0.0000  0.0000  0.0000  0.0000  0.0000  0.0000      0.0000  0.0000  0.0000  0.0000  0.0000  0.0000  0.0000  0.0000  0.0000  0.0000
  o =  0.2835  v =  0.0000  1.0000  0.0000  0.0000  0.0000  0.0000  0.0000  0.0000  0.0000  0.0000      0.0000  0.0000  0.0000  0.0000  0.0000  0.0000  0.0000  0.0000  0.0000  0.0000
  o =  0.2835  v =  0.0000  0.0000  1.0000  0.0000  0.0000  0.0000  0.0000  0.0000  0.0000  0.0000      0.0000  0.0000  0.0000  0.0000  0.0000  0.0000  0.0000  0.0000  0.0000  0.0000
  o =  0.2835  v =  0.0000  0.0000  0.0000  1.0000  0.0000  0.0000  0.0000  0.0000  0.0000  0.0000      0.0000  0.0000  0.0000  0.0000  0.0000  0.0000  0.0000  0.0000  0.0000  0.0000
  o =  0.2835  v =  0.0000  0.0000  0.0000  0.0000  1.0000  0.0000  0.0000  0.0000  0.0000  0.0000      0.0000  0.0000  0.0000  0.0000  0.0000  0.0000  0.0000  0.0000  0.0000  0.0000
  o =  0.7694  v =  0.0000  0.0000  0.0000  0.0000  0.0000  1.0000  0.0000  0.0000  0.0000  0.0000      0.0000  0.0000  0.0000  0.0000  0.0000  0.0000  0.0000  0.0000  0.0000  0.0000
  o =  0.7694  v =  0.0000  0.0000  0.0000  0.0000  0.0000  0.0000  1.0000  0.0000  0.0000  0.0000      0.0000  0.0000  0.0000  0.0000  0.0000  0.0000  0.0000  0.0000  0.0000  0.0000
  o =  0.7694  v =  0.0000  0.0000  0.0000  0.0000  0.0000  0.0000  0.0000  1.0000  0.0000  0.0000      0.0000  0.0000  0.0000  0.0000  0.0000  0.0000  0.0000  0.0000  0.0000  0.0000
  o =  0.7694  v =  0.0000  0.0000  0.0000  0.0000  0.0000  0.0000  0.0000  0.0000  1.0000  0.0000      0.0000  0.0000  0.0000  0.0000  0.0000  0.0000  0.0000  0.0000  0.0000  0.0000
  o =  0.7694  v =  0.0000  0.0000  0.0000  0.0000  0.0000  0.0000  0.0000  0.0000  0.0000  1.0000      0.0000  0.0000  0.0000  0.0000  0.0000  0.0000  0.0000  0.0000  0.0000  0.0000
atom =   2  type =  1  l = 2
 
 onsite density matrix
 
spin component  1
 
  0.7694  0.0000  0.0000  0.0000  0.0000
  0.0000  0.7694  0.0000  0.0000  0.0000
  0.0000  0.0000  0.7694  0.0000  0.0000
  0.0000  0.0000  0.0000  0.7694  0.0000
  0.0000  0.0000  0.0000  0.0000  0.7694
 
spin component  2
 
  0.2835  0.0000  0.0000  0.0000  0.0000
  0.0000  0.2835  0.0000  0.0000  0.0000
  0.0000  0.0000  0.2835  0.0000  0.0000
  0.0000  0.0000  0.0000  0.2835  0.0000
  0.0000  0.0000  0.0000  0.0000  0.2835
 
 occupancies and eigenvectors
 
  o =  0.2835  v =  0.0000  0.0000  0.0000  0.0000  0.0000  1.0000  0.0000  0.0000  0.0000  0.0000      0.0000  0.0000  0.0000  0.0000  0.0000  0.0000  0.0000  0.0000  0.0000  0.0000
  o =  0.2835  v =  0.0000  0.0000  0.0000  0.0000  0.0000  0.0000  1.0000  0.0000  0.0000  0.0000      0.0000  0.0000  0.0000  0.0000  0.0000  0.0000  0.0000  0.0000  0.0000  0.0000
  o =  0.2835  v =  0.0000  0.0000  0.0000  0.0000  0.0000  0.0000  0.0000  1.0000  0.0000  0.0000      0.0000  0.0000  0.0000  0.0000  0.0000  0.0000  0.0000  0.0000  0.0000  0.0000
  o =  0.2835  v =  0.0000  0.0000  0.0000  0.0000  0.0000  0.0000  0.0000  0.0000  1.0000  0.0000      0.0000  0.0000  0.0000  0.0000  0.0000  0.0000  0.0000  0.0000  0.0000  0.0000
  o =  0.2835  v =  0.0000  0.0000  0.0000  0.0000  0.0000  0.0000  0.0000  0.0000  0.0000  1.0000      0.0000  0.0000  0.0000  0.0000  0.0000  0.0000  0.0000  0.0000  0.0000  0.0000
  o =  0.7694  v =  1.0000  0.0000  0.0000  0.0000  0.0000  0.0000  0.0000  0.0000  0.0000  0.0000      0.0000  0.0000  0.0000  0.0000  0.0000  0.0000  0.0000  0.0000  0.0000  0.0000
  o =  0.7694  v =  0.0000  1.0000  0.0000  0.0000  0.0000  0.0000  0.0000  0.0000  0.0000  0.0000      0.0000  0.0000  0.0000  0.0000  0.0000  0.0000  0.0000  0.0000  0.0000  0.0000
  o =  0.7694  v =  0.0000  0.0000  1.0000  0.0000  0.0000  0.0000  0.0000  0.0000  0.0000  0.0000      0.0000  0.0000  0.0000  0.0000  0.0000  0.0000  0.0000  0.0000  0.0000  0.0000
  o =  0.7694  v =  0.0000  0.0000  0.0000  1.0000  0.0000  0.0000  0.0000  0.0000  0.0000  0.0000      0.0000  0.0000  0.0000  0.0000  0.0000  0.0000  0.0000  0.0000  0.0000  0.0000
  o =  0.7694  v =  0.0000  0.0000  0.0000  0.0000  1.0000  0.0000  0.0000  0.0000  0.0000  0.0000      0.0000  0.0000  0.0000  0.0000  0.0000  0.0000  0.0000  0.0000  0.0000  0.0000
     EDDAV:  cpu time    0.7270: real time    0.7449
 BZINTS: Fermi energy: 25.979775; 54.000000 electrons
         Band energy: 392.728904;  BLOECHL correction: -0.172779
       DOS:  cpu time    0.0065: real time    0.0065
    --------------------------------------------
      LOOP:  cpu time    2.2423: real time    2.2602

 eigenvalue-minimisations  :  1320
 total energy-change (2. order) : 0.9810739E+03  (-0.3896244E+04)
 number of electron      54.0000000 magnetization       0.0000000
 augmentation part       54.0000000 magnetization       0.0000000

 Free energy of the ion-electron system (eV)
  ---------------------------------------------------
  alpha Z        PSCENC =       199.81684422
  Ewald energy   TEWEN  =     -4206.06152665
  -Hartree energ DENC   =     -2128.79190015
  -exchange      EXHF   =         0.00000000
  -V(xc)+E(xc)   XCENC  =        -3.96110781
  PAW double counting   =      5566.43601843    -5528.13058630
  entropy T*S    EENTRO =         0.00000000
  eigenvalues    EBANDS =       392.72890399
  atomic energy  EATOM  =      6689.03721073
  Solvation  Ediel_sol  =         0.00000000
  ---------------------------------------------------
  free energy    TOTEN  =       981.07385646 eV

  energy without entropy =      981.07385646  energy(sigma->0) =      981.07385646


--------------------------------------------------------------------------------------------------------




--------------------------------------- Iteration      1(   2)  ---------------------------------------


     EDDAV:  cpu time    0.7926: real time    0.7926
 BZINTS: Fermi energy: 11.956984; 54.006909 electrons
         Band energy:-182.682742;  BLOECHL correction: -0.010844
       DOS:  cpu time    0.0085: real time    0.0085
    --------------------------------------------
      LOOP:  cpu time    0.8011: real time    0.8011

 eigenvalue-minimisations  :  1512
 total energy-change (2. order) :-0.5754116E+03  (-0.5517277E+03)
 number of electron      54.0000000 magnetization       0.0000000
 augmentation part       54.0000000 magnetization       0.0000000

 Free energy of the ion-electron system (eV)
  ---------------------------------------------------
  alpha Z        PSCENC =       199.81684422
  Ewald energy   TEWEN  =     -4206.06152665
  -Hartree energ DENC   =     -2128.79190015
  -exchange      EXHF   =         0.00000000
  -V(xc)+E(xc)   XCENC  =        -3.96110781
  PAW double counting   =      5566.43601843    -5528.13058630
  entropy T*S    EENTRO =         0.00000000
  eigenvalues    EBANDS =      -182.68274163
  atomic energy  EATOM  =      6689.03721073
  Solvation  Ediel_sol  =         0.00000000
  ---------------------------------------------------
  free energy    TOTEN  =       405.66221084 eV

  energy without entropy =      405.66221084  energy(sigma->0) =      405.66221084


--------------------------------------------------------------------------------------------------------




--------------------------------------- Iteration      1(   3)  ---------------------------------------


     EDDAV:  cpu time    0.7810: real time    0.7810
 BZINTS: Fermi energy:  9.976128; 54.000000 electrons
         Band energy:-218.530448;  BLOECHL correction:  0.000000
       DOS:  cpu time    0.0012: real time    0.0012
    --------------------------------------------
      LOOP:  cpu time    0.7822: real time    0.7822

 eigenvalue-minimisations  :  1476
 total energy-change (2. order) :-0.3584771E+02  (-0.3544779E+02)
 number of electron      54.0000000 magnetization       0.0000000
 augmentation part       54.0000000 magnetization       0.0000000

 Free energy of the ion-electron system (eV)
  ---------------------------------------------------
  alpha Z        PSCENC =       199.81684422
  Ewald energy   TEWEN  =     -4206.06152665
  -Hartree energ DENC   =     -2128.79190015
  -exchange      EXHF   =         0.00000000
  -V(xc)+E(xc)   XCENC  =        -3.96110781
  PAW double counting   =      5566.43601843    -5528.13058630
  entropy T*S    EENTRO =         0.00000000
  eigenvalues    EBANDS =      -218.53044761
  atomic energy  EATOM  =      6689.03721073
  Solvation  Ediel_sol  =         0.00000000
  ---------------------------------------------------
  free energy    TOTEN  =       369.81450486 eV

  energy without entropy =      369.81450486  energy(sigma->0) =      369.81450486


--------------------------------------------------------------------------------------------------------




--------------------------------------- Iteration      1(   4)  ---------------------------------------


     EDDAV:  cpu time    0.7983: real time    0.7983
 BZINTS: Fermi energy:  9.984291; 54.000000 electrons
         Band energy:-218.992770;  BLOECHL correction:  0.000000
       DOS:  cpu time    0.0011: real time    0.0011
    --------------------------------------------
      LOOP:  cpu time    0.7994: real time    0.7994

 eigenvalue-minimisations  :  1536
 total energy-change (2. order) :-0.4623224E+00  (-0.4619624E+00)
 number of electron      54.0000000 magnetization       0.0000000
 augmentation part       54.0000000 magnetization       0.0000000

 Free energy of the ion-electron system (eV)
  ---------------------------------------------------
  alpha Z        PSCENC =       199.81684422
  Ewald energy   TEWEN  =     -4206.06152665
  -Hartree energ DENC   =     -2128.79190015
  -exchange      EXHF   =         0.00000000
  -V(xc)+E(xc)   XCENC  =        -3.96110781
  PAW double counting   =      5566.43601843    -5528.13058630
  entropy T*S    EENTRO =         0.00000000
  eigenvalues    EBANDS =      -218.99276998
  atomic energy  EATOM  =      6689.03721073
  Solvation  Ediel_sol  =         0.00000000
  ---------------------------------------------------
  free energy    TOTEN  =       369.35218250 eV

  energy without entropy =      369.35218250  energy(sigma->0) =      369.35218250


--------------------------------------------------------------------------------------------------------




--------------------------------------- Iteration      1(   5)  ---------------------------------------


     EDDAV:  cpu time    0.7899: real time    0.7899
 BZINTS: Fermi energy:  9.960208; 54.000000 electrons
         Band energy:-219.000251;  BLOECHL correction:  0.000000
       DOS:  cpu time    0.0011: real time    0.0011
    CHARGE:  cpu time    0.1517: real time    0.1517
    MIXING:  cpu time    0.0005: real time    0.0005
    --------------------------------------------
      LOOP:  cpu time    0.9433: real time    0.9433

 eigenvalue-minimisations  :  1512
 total energy-change (2. order) :-0.7480870E-02  (-0.7480718E-02)
 number of electron      54.0000008 magnetization      -0.0000000
 augmentation part       22.6591056 magnetization      -0.0000000

 Broyden mixing:
  rms(total) = 0.58861E+01    rms(broyden)= 0.58858E+01
  rms(prec ) = 0.61224E+01
  weight for this iteration     100.00

 Free energy of the ion-electron system (eV)
  ---------------------------------------------------
  alpha Z        PSCENC =       199.81684422
  Ewald energy   TEWEN  =     -4206.06152665
  -Hartree energ DENC   =     -2128.79190015
  -exchange      EXHF   =         0.00000000
  -V(xc)+E(xc)   XCENC  =        -3.96110781
  PAW double counting   =      5566.43601843    -5528.13058630
  entropy T*S    EENTRO =         0.00000000
  eigenvalues    EBANDS =      -219.00025085
  atomic energy  EATOM  =      6689.03721073
  Solvation  Ediel_sol  =         0.00000000
  ---------------------------------------------------
  free energy    TOTEN  =       369.34470163 eV

  energy without entropy =      369.34470163  energy(sigma->0) =      369.34470163


--------------------------------------------------------------------------------------------------------




--------------------------------------- Iteration      1(   6)  ---------------------------------------


    POTLOK:  cpu time    0.0326: real time    0.0326
    SETDIJ:  cpu time    1.4924: real time    1.4924
atom =   1  type =  1  l = 2
 
 onsite density matrix
 
spin component  1
 
  0.0362  0.0000  0.0670  0.0000 -0.0000
  0.0000  0.0077  0.0000  0.0614  0.0000
  0.0670  0.0000 -0.0037  0.0000 -0.0000
  0.0000  0.0614  0.0000  0.0077  0.0000
 -0.0000  0.0000 -0.0000  0.0000 -0.0733
 
spin component  2
 
  1.0562  0.0000 -0.0323  0.0000  0.0000
  0.0000  1.0709  0.0000 -0.0297  0.0000
 -0.0323  0.0000  1.0751  0.0000 -0.0000
  0.0000 -0.0297  0.0000  1.0709  0.0000
  0.0000  0.0000 -0.0000  0.0000  1.1108
 
 occupancies and eigenvectors
 
  o = -0.0733  v =  0.0000 -0.0000 -0.0000  0.0000 -1.0000  0.0000  0.0000  0.0000  0.0000  0.0000      0.0000  0.0000  0.0000  0.0000  0.0000  0.0000  0.0000  0.0000  0.0000  0.0000
  o = -0.0537  v =  0.0000 -0.7071  0.0000  0.7071  0.0000  0.0000  0.0000  0.0000  0.0000  0.0000      0.0000  0.0000  0.0000  0.0000  0.0000  0.0000  0.0000  0.0000  0.0000  0.0000
  o = -0.0537  v = -0.5977 -0.0000  0.8018  0.0000 -0.0000  0.0000  0.0000  0.0000  0.0000  0.0000      0.0000  0.0000  0.0000  0.0000  0.0000  0.0000  0.0000  0.0000  0.0000  0.0000
  o =  0.0692  v =  0.0000 -0.7071  0.0000 -0.7071  0.0000  0.0000  0.0000  0.0000  0.0000  0.0000      0.0000  0.0000  0.0000  0.0000  0.0000  0.0000  0.0000  0.0000  0.0000  0.0000
  o =  0.0862  v =  0.8018 -0.0000  0.5977  0.0000 -0.0000  0.0000  0.0000  0.0000  0.0000  0.0000      0.0000  0.0000  0.0000  0.0000  0.0000  0.0000  0.0000  0.0000  0.0000  0.0000
  o =  1.0320  v =  0.0000  0.0000  0.0000  0.0000  0.0000  0.8006 -0.0000  0.5992  0.0000  0.0000      0.0000  0.0000  0.0000  0.0000  0.0000  0.0000  0.0000  0.0000  0.0000  0.0000
  o =  1.0413  v =  0.0000  0.0000  0.0000  0.0000  0.0000  0.0000 -0.7071  0.0000 -0.7071 -0.0000      0.0000  0.0000  0.0000  0.0000  0.0000  0.0000  0.0000  0.0000  0.0000  0.0000
  o =  1.0993  v =  0.0000  0.0000  0.0000  0.0000  0.0000 -0.5992 -0.0000  0.8006  0.0000  0.0000      0.0000  0.0000  0.0000  0.0000  0.0000  0.0000  0.0000  0.0000  0.0000  0.0000
  o =  1.1006  v =  0.0000  0.0000  0.0000  0.0000  0.0000  0.0000  0.7071  0.0000 -0.7071  0.0000      0.0000  0.0000  0.0000  0.0000  0.0000  0.0000  0.0000  0.0000  0.0000  0.0000
  o =  1.1108  v =  0.0000  0.0000  0.0000  0.0000  0.0000  0.0000 -0.0000 -0.0000  0.0000  1.0000      0.0000  0.0000  0.0000  0.0000  0.0000  0.0000  0.0000  0.0000  0.0000  0.0000
atom =   2  type =  1  l = 2
 
 onsite density matrix
 
spin component  1
 
  1.0562  0.0000  0.0323  0.0000  0.0000
  0.0000  1.0709  0.0000  0.0297  0.0000
  0.0323  0.0000  1.0751  0.0000 -0.0000
  0.0000  0.0297  0.0000  1.0709  0.0000
  0.0000  0.0000 -0.0000  0.0000  1.1108
 
spin component  2
 
  0.0362  0.0000 -0.0670  0.0000 -0.0000
  0.0000  0.0077  0.0000 -0.0614  0.0000
 -0.0670  0.0000 -0.0037  0.0000  0.0000
  0.0000 -0.0614  0.0000  0.0077  0.0000
 -0.0000  0.0000  0.0000  0.0000 -0.0733
 
 occupancies and eigenvectors
 
  o = -0.0733  v =  0.0000  0.0000  0.0000  0.0000  0.0000  0.0000 -0.0000  0.0000  0.0000 -1.0000      0.0000  0.0000  0.0000  0.0000  0.0000  0.0000  0.0000  0.0000  0.0000  0.0000
  o = -0.0537  v =  0.0000  0.0000  0.0000  0.0000  0.0000  0.0000 -0.7071  0.0000 -0.7071  0.0000      0.0000  0.0000  0.0000  0.0000  0.0000  0.0000  0.0000  0.0000  0.0000  0.0000
  o = -0.0537  v =  0.0000  0.0000  0.0000  0.0000  0.0000 -0.5977  0.0000 -0.8018  0.0000 -0.0000      0.0000  0.0000  0.0000  0.0000  0.0000  0.0000  0.0000  0.0000  0.0000  0.0000
  o =  0.0692  v =  0.0000  0.0000  0.0000  0.0000  0.0000  0.0000 -0.7071  0.0000  0.7071  0.0000      0.0000  0.0000  0.0000  0.0000  0.0000  0.0000  0.0000  0.0000  0.0000  0.0000
  o =  0.0862  v =  0.0000  0.0000  0.0000  0.0000  0.0000 -0.8018  0.0000  0.5977  0.0000  0.0000      0.0000  0.0000  0.0000  0.0000  0.0000  0.0000  0.0000  0.0000  0.0000  0.0000
  o =  1.0320  v =  0.8006  0.0000 -0.5992  0.0000 -0.0000  0.0000  0.0000  0.0000  0.0000  0.0000      0.0000  0.0000  0.0000  0.0000  0.0000  0.0000  0.0000  0.0000  0.0000  0.0000
  o =  1.0413  v =  0.0000 -0.7071  0.0000  0.7071 -0.0000  0.0000  0.0000  0.0000  0.0000  0.0000      0.0000  0.0000  0.0000  0.0000  0.0000  0.0000  0.0000  0.0000  0.0000  0.0000
  o =  1.0993  v = -0.5992  0.0000 -0.8006  0.0000 -0.0000  0.0000  0.0000  0.0000  0.0000  0.0000      0.0000  0.0000  0.0000  0.0000  0.0000  0.0000  0.0000  0.0000  0.0000  0.0000
  o =  1.1006  v =  0.0000 -0.7071  0.0000 -0.7071 -0.0000  0.0000  0.0000  0.0000  0.0000  0.0000      0.0000  0.0000  0.0000  0.0000  0.0000  0.0000  0.0000  0.0000  0.0000  0.0000
  o =  1.1108  v =  0.0000  0.0000  0.0000  0.0000 -1.0000  0.0000  0.0000  0.0000  0.0000  0.0000      0.0000  0.0000  0.0000  0.0000  0.0000  0.0000  0.0000  0.0000  0.0000  0.0000
     EDDAV:  cpu time    0.8130: real time    0.8131
 BZINTS: Fermi energy:  7.039565; 54.000000 electrons
         Band energy:-731.343804;  BLOECHL correction: -0.008773
       DOS:  cpu time    0.0065: real time    0.0065
    CHARGE:  cpu time    0.1530: real time    0.1531
    MIXING:  cpu time    0.0006: real time    0.0006
    --------------------------------------------
      LOOP:  cpu time    2.4981: real time    2.4981

 eigenvalue-minimisations  :  1572
 total energy-change (2. order) :-0.4381519E+03  (-0.2837252E+02)
 number of electron      54.0000007 magnetization      -0.0000000
 augmentation part       19.6778876 magnetization      -0.0000000

 Broyden mixing:
  rms(total) = 0.62745E+01    rms(broyden)= 0.62745E+01
  rms(prec ) = 0.67595E+01
  weight for this iteration     100.00

 eigenvalues of (default mixing * dielectric matrix)
  average eigenvalue GAMMA=   0.4171
  0.4171

 Free energy of the ion-electron system (eV)
  ---------------------------------------------------
  alpha Z        PSCENC =       199.81684422
  Ewald energy   TEWEN  =     -4206.06152665
  -Hartree energ DENC   =     -2198.11234686
  -exchange      EXHF   =         0.00000000
  -V(xc)+E(xc)   XCENC  =       144.35493342
  PAW double counting   =      6430.76522511    -6397.26377988
  entropy T*S    EENTRO =         0.00000000
  eigenvalues    EBANDS =      -731.34380363
  atomic energy  EATOM  =      6689.03721073
  Solvation  Ediel_sol  =         0.00000000
  ---------------------------------------------------
  free energy    TOTEN  =       -68.80724353 eV

  energy without entropy =      -68.80724353  energy(sigma->0) =      -68.80724353


--------------------------------------------------------------------------------------------------------




--------------------------------------- Iteration      1(   7)  ---------------------------------------


    POTLOK:  cpu time    0.0325: real time    0.0325
    SETDIJ:  cpu time    1.4740: real time    1.4740
atom =   1  type =  1  l = 2
 
 onsite density matrix
 
spin component  1
 
  0.0847  0.0000  0.0367  0.0000 -0.0000
  0.0000  0.0549  0.0000  0.0246  0.0000
  0.0367  0.0000  0.0595  0.0000 -0.0000
  0.0000  0.0246  0.0000  0.0549  0.0000
 -0.0000  0.0000 -0.0000  0.0000  0.0188
 
spin component  2
 
  0.9749  0.0000 -0.0064  0.0000  0.0000
  0.0000  1.0027  0.0000  0.0084  0.0000
 -0.0064  0.0000  0.9859  0.0000 -0.0000
  0.0000  0.0084  0.0000  1.0027  0.0000
  0.0000  0.0000 -0.0000  0.0000  0.9983
 
 occupancies and eigenvectors
 
  o =  0.0188  v =  0.0000 -0.0000 -0.0000  0.0000 -1.0000  0.0000  0.0000  0.0000  0.0000  0.0000      0.0000  0.0000  0.0000  0.0000  0.0000  0.0000  0.0000  0.0000  0.0000  0.0000
  o =  0.0303  v = -0.0000 -0.7071  0.0000  0.7071  0.0000  0.0000  0.0000  0.0000  0.0000  0.0000      0.0000  0.0000  0.0000  0.0000  0.0000  0.0000  0.0000  0.0000  0.0000  0.0000
  o =  0.0333  v = -0.5809  0.0000  0.8140 -0.0000 -0.0000  0.0000  0.0000  0.0000  0.0000  0.0000      0.0000  0.0000  0.0000  0.0000  0.0000  0.0000  0.0000  0.0000  0.0000  0.0000
  o =  0.0796  v =  0.0000 -0.7071 -0.0000 -0.7071  0.0000  0.0000  0.0000  0.0000  0.0000  0.0000      0.0000  0.0000  0.0000  0.0000  0.0000  0.0000  0.0000  0.0000  0.0000  0.0000
  o =  0.1109  v = -0.8140 -0.0000 -0.5809 -0.0000  0.0000  0.0000  0.0000  0.0000  0.0000  0.0000      0.0000  0.0000  0.0000  0.0000  0.0000  0.0000  0.0000  0.0000  0.0000  0.0000
  o =  0.9720  v =  0.0000  0.0000  0.0000  0.0000  0.0000  0.9091 -0.0000  0.4166  0.0000  0.0000      0.0000  0.0000  0.0000  0.0000  0.0000  0.0000  0.0000  0.0000  0.0000  0.0000
  o =  0.9888  v =  0.0000  0.0000  0.0000  0.0000  0.0000 -0.4166 -0.0000  0.9091  0.0000  0.0000      0.0000  0.0000  0.0000  0.0000  0.0000  0.0000  0.0000  0.0000  0.0000  0.0000
  o =  0.9943  v =  0.0000  0.0000  0.0000  0.0000  0.0000  0.0000  0.7071  0.0000 -0.7071 -0.0000      0.0000  0.0000  0.0000  0.0000  0.0000  0.0000  0.0000  0.0000  0.0000  0.0000
  o =  0.9983  v =  0.0000  0.0000  0.0000  0.0000  0.0000  0.0000  0.0000 -0.0000 -0.0000  1.0000      0.0000  0.0000  0.0000  0.0000  0.0000  0.0000  0.0000  0.0000  0.0000  0.0000
  o =  1.0112  v =  0.0000  0.0000  0.0000  0.0000  0.0000  0.0000 -0.7071  0.0000 -0.7071 -0.0000      0.0000  0.0000  0.0000  0.0000  0.0000  0.0000  0.0000  0.0000  0.0000  0.0000
atom =   2  type =  1  l = 2
 
 onsite density matrix
 
spin component  1
 
  0.9749  0.0000  0.0064  0.0000 -0.0000
  0.0000  1.0027  0.0000 -0.0084  0.0000
  0.0064  0.0000  0.9859  0.0000 -0.0000
  0.0000 -0.0084  0.0000  1.0027  0.0000
 -0.0000  0.0000 -0.0000  0.0000  0.9983
 
spin component  2
 
  0.0847  0.0000 -0.0367  0.0000 -0.0000
  0.0000  0.0549  0.0000 -0.0246  0.0000
 -0.0367  0.0000  0.0595  0.0000 -0.0000
  0.0000 -0.0246  0.0000  0.0549  0.0000
 -0.0000  0.0000 -0.0000  0.0000  0.0188
 
 occupancies and eigenvectors
 
  o =  0.0188  v =  0.0000  0.0000  0.0000  0.0000  0.0000  0.0000  0.0000  0.0000  0.0000  1.0000      0.0000  0.0000  0.0000  0.0000  0.0000  0.0000  0.0000  0.0000  0.0000  0.0000
  o =  0.0303  v =  0.0000  0.0000  0.0000  0.0000  0.0000 -0.0000  0.7071 -0.0000  0.7071 -0.0000      0.0000  0.0000  0.0000  0.0000  0.0000  0.0000  0.0000  0.0000  0.0000  0.0000
  o =  0.0333  v =  0.0000  0.0000  0.0000  0.0000  0.0000 -0.5809 -0.0000 -0.8140 -0.0000  0.0000      0.0000  0.0000  0.0000  0.0000  0.0000  0.0000  0.0000  0.0000  0.0000  0.0000
  o =  0.0796  v =  0.0000  0.0000  0.0000  0.0000  0.0000  0.0000  0.7071  0.0000 -0.7071 -0.0000      0.0000  0.0000  0.0000  0.0000  0.0000  0.0000  0.0000  0.0000  0.0000  0.0000
  o =  0.1109  v =  0.0000  0.0000  0.0000  0.0000  0.0000 -0.8140  0.0000  0.5809 -0.0000 -0.0000      0.0000  0.0000  0.0000  0.0000  0.0000  0.0000  0.0000  0.0000  0.0000  0.0000
  o =  0.9720  v =  0.9091 -0.0000 -0.4166 -0.0000 -0.0000  0.0000  0.0000  0.0000  0.0000  0.0000      0.0000  0.0000  0.0000  0.0000  0.0000  0.0000  0.0000  0.0000  0.0000  0.0000
  o =  0.9888  v = -0.4166 -0.0000 -0.9091 -0.0000 -0.0000  0.0000  0.0000  0.0000  0.0000  0.0000      0.0000  0.0000  0.0000  0.0000  0.0000  0.0000  0.0000  0.0000  0.0000  0.0000
  o =  0.9943  v = -0.0000  0.7071 -0.0000  0.7071  0.0000  0.0000  0.0000  0.0000  0.0000  0.0000      0.0000  0.0000  0.0000  0.0000  0.0000  0.0000  0.0000  0.0000  0.0000  0.0000
  o =  0.9983  v =  0.0000  0.0000  0.0000  0.0000 -1.0000  0.0000  0.0000  0.0000  0.0000  0.0000      0.0000  0.0000  0.0000  0.0000  0.0000  0.0000  0.0000  0.0000  0.0000  0.0000
  o =  1.0112  v =  0.0000 -0.7071  0.0000  0.7071  0.0000  0.0000  0.0000  0.0000  0.0000  0.0000      0.0000  0.0000  0.0000  0.0000  0.0000  0.0000  0.0000  0.0000  0.0000  0.0000
     EDDAV:  cpu time    0.7390: real time    0.7390
 BZINTS: Fermi energy:  4.984889; 54.000000 electrons
         Band energy:-776.754912;  BLOECHL correction:  0.000000
       DOS:  cpu time    0.0011: real time    0.0011
    CHARGE:  cpu time    0.1498: real time    0.1498
    MIXING:  cpu time    0.0006: real time    0.0006
    --------------------------------------------
      LOOP:  cpu time    2.3971: real time    2.3971

 eigenvalue-minimisations  :  1356
 total energy-change (2. order) :-0.2733006E+01  (-0.5094044E+01)
 number of electron      54.0000007 magnetization      -0.0000000
 augmentation part       19.6891249 magnetization      -0.0000000

 Broyden mixing:
  rms(total) = 0.17214E+01    rms(broyden)= 0.17213E+01
  rms(prec ) = 0.25214E+01
  weight for this iteration     100.00

 eigenvalues of (default mixing * dielectric matrix)
  average eigenvalue GAMMA=   0.6948
  0.6948  0.6948

 Free energy of the ion-electron system (eV)
  ---------------------------------------------------
  alpha Z        PSCENC =       199.81684422
  Ewald energy   TEWEN  =     -4206.06152665
  -Hartree energ DENC   =     -2178.39378469
  -exchange      EXHF   =         0.00000000
  -V(xc)+E(xc)   XCENC  =       167.65037894
  PAW double counting   =      6489.37569872    -6456.21015827
  entropy T*S    EENTRO =         0.00000000
  eigenvalues    EBANDS =      -776.75491223
  atomic energy  EATOM  =      6689.03721073
  Solvation  Ediel_sol  =         0.00000000
  ---------------------------------------------------
  free energy    TOTEN  =       -71.54024923 eV

  energy without entropy =      -71.54024923  energy(sigma->0) =      -71.54024923


--------------------------------------------------------------------------------------------------------




--------------------------------------- Iteration      1(   8)  ---------------------------------------


    POTLOK:  cpu time    0.0325: real time    0.0325
    SETDIJ:  cpu time    1.4761: real time    1.4761
atom =   1  type =  1  l = 2
 
 onsite density matrix
 
spin component  1
 
  0.0473  0.0000  0.0142  0.0000 -0.0000
  0.0000  0.0507  0.0000  0.0218  0.0000
  0.0142  0.0000  0.0413  0.0000 -0.0000
  0.0000  0.0218  0.0000  0.0507  0.0000
 -0.0000  0.0000 -0.0000  0.0000  0.0238
 
spin component  2
 
  0.9915  0.0000  0.0230  0.0000  0.0000
  0.0000  0.9814  0.0000  0.0121  0.0000
  0.0230  0.0000  0.9802  0.0000 -0.0000
  0.0000  0.0121  0.0000  0.9814  0.0000
  0.0000  0.0000 -0.0000  0.0000  0.9683
 
 occupancies and eigenvectors
 
  o =  0.0238  v =  0.0000 -0.0000 -0.0000  0.0000 -1.0000  0.0000  0.0000  0.0000  0.0000  0.0000      0.0000  0.0000  0.0000  0.0000  0.0000  0.0000  0.0000  0.0000  0.0000  0.0000
  o =  0.0289  v =  0.0000 -0.7071  0.0000  0.7071  0.0000  0.0000  0.0000  0.0000  0.0000  0.0000      0.0000  0.0000  0.0000  0.0000  0.0000  0.0000  0.0000  0.0000  0.0000  0.0000
  o =  0.0298  v = -0.6309  0.0000  0.7759  0.0000 -0.0000  0.0000  0.0000  0.0000  0.0000  0.0000      0.0000  0.0000  0.0000  0.0000  0.0000  0.0000  0.0000  0.0000  0.0000  0.0000
  o =  0.0588  v = -0.7759  0.0000 -0.6309  0.0000  0.0000  0.0000  0.0000  0.0000  0.0000  0.0000      0.0000  0.0000  0.0000  0.0000  0.0000  0.0000  0.0000  0.0000  0.0000  0.0000
  o =  0.0725  v =  0.0000 -0.7071  0.0000 -0.7071  0.0000  0.0000  0.0000  0.0000  0.0000  0.0000      0.0000  0.0000  0.0000  0.0000  0.0000  0.0000  0.0000  0.0000  0.0000  0.0000
  o =  0.9621  v =  0.0000  0.0000  0.0000  0.0000  0.0000 -0.6166  0.0000  0.7873  0.0000  0.0000      0.0000  0.0000  0.0000  0.0000  0.0000  0.0000  0.0000  0.0000  0.0000  0.0000
  o =  0.9683  v =  0.0000  0.0000  0.0000  0.0000  0.0000  0.0000  0.0000  0.0000  0.0000 -1.0000      0.0000  0.0000  0.0000  0.0000  0.0000  0.0000  0.0000  0.0000  0.0000  0.0000
  o =  0.9693  v =  0.0000  0.0000  0.0000  0.0000  0.0000  0.0000 -0.7071  0.0000  0.7071 -0.0000      0.0000  0.0000  0.0000  0.0000  0.0000  0.0000  0.0000  0.0000  0.0000  0.0000
  o =  0.9935  v =  0.0000  0.0000  0.0000  0.0000  0.0000  0.0000 -0.7071  0.0000 -0.7071 -0.0000      0.0000  0.0000  0.0000  0.0000  0.0000  0.0000  0.0000  0.0000  0.0000  0.0000
  o =  1.0096  v =  0.0000  0.0000  0.0000  0.0000  0.0000 -0.7873  0.0000 -0.6166  0.0000 -0.0000      0.0000  0.0000  0.0000  0.0000  0.0000  0.0000  0.0000  0.0000  0.0000  0.0000
atom =   2  type =  1  l = 2
 
 onsite density matrix
 
spin component  1
 
  0.9915  0.0000 -0.0230  0.0000  0.0000
  0.0000  0.9814  0.0000 -0.0121  0.0000
 -0.0230  0.0000  0.9802  0.0000 -0.0000
  0.0000 -0.0121  0.0000  0.9814  0.0000
  0.0000  0.0000 -0.0000  0.0000  0.9683
 
spin component  2
 
  0.0473  0.0000 -0.0142  0.0000 -0.0000
  0.0000  0.0507  0.0000 -0.0218  0.0000
 -0.0142  0.0000  0.0413  0.0000 -0.0000
  0.0000 -0.0218  0.0000  0.0507  0.0000
 -0.0000  0.0000 -0.0000  0.0000  0.0238
 
 occupancies and eigenvectors
 
  o =  0.0238  v =  0.0000  0.0000  0.0000  0.0000  0.0000  0.0000  0.0000  0.0000  0.0000  1.0000      0.0000  0.0000  0.0000  0.0000  0.0000  0.0000  0.0000  0.0000  0.0000  0.0000
  o =  0.0289  v =  0.0000  0.0000  0.0000  0.0000  0.0000  0.0000 -0.7071  0.0000 -0.7071  0.0000      0.0000  0.0000  0.0000  0.0000  0.0000  0.0000  0.0000  0.0000  0.0000  0.0000
  o =  0.0298  v =  0.0000  0.0000  0.0000  0.0000  0.0000 -0.6309  0.0000 -0.7759  0.0000  0.0000      0.0000  0.0000  0.0000  0.0000  0.0000  0.0000  0.0000  0.0000  0.0000  0.0000
  o =  0.0588  v =  0.0000  0.0000  0.0000  0.0000  0.0000 -0.7759 -0.0000  0.6309  0.0000 -0.0000      0.0000  0.0000  0.0000  0.0000  0.0000  0.0000  0.0000  0.0000  0.0000  0.0000
  o =  0.0725  v =  0.0000  0.0000  0.0000  0.0000  0.0000  0.0000  0.7071  0.0000 -0.7071 -0.0000      0.0000  0.0000  0.0000  0.0000  0.0000  0.0000  0.0000  0.0000  0.0000  0.0000
  o =  0.9621  v = -0.6166  0.0000 -0.7873  0.0000  0.0000  0.0000  0.0000  0.0000  0.0000  0.0000      0.0000  0.0000  0.0000  0.0000  0.0000  0.0000  0.0000  0.0000  0.0000  0.0000
  o =  0.9683  v =  0.0000 -0.0000  0.0000 -0.0000  1.0000  0.0000  0.0000  0.0000  0.0000  0.0000      0.0000  0.0000  0.0000  0.0000  0.0000  0.0000  0.0000  0.0000  0.0000  0.0000
  o =  0.9693  v =  0.0000  0.7071  0.0000  0.7071  0.0000  0.0000  0.0000  0.0000  0.0000  0.0000      0.0000  0.0000  0.0000  0.0000  0.0000  0.0000  0.0000  0.0000  0.0000  0.0000
  o =  0.9935  v =  0.0000  0.7071  0.0000 -0.7071  0.0000  0.0000  0.0000  0.0000  0.0000  0.0000      0.0000  0.0000  0.0000  0.0000  0.0000  0.0000  0.0000  0.0000  0.0000  0.0000
  o =  1.0096  v = -0.7873  0.0000  0.6166  0.0000 -0.0000  0.0000  0.0000  0.0000  0.0000  0.0000      0.0000  0.0000  0.0000  0.0000  0.0000  0.0000  0.0000  0.0000  0.0000  0.0000
     EDDAV:  cpu time    0.8185: real time    0.8185
 BZINTS: Fermi energy:  3.313110; 54.000000 electrons
         Band energy:-787.201072;  BLOECHL correction:  0.000000
       DOS:  cpu time    0.0011: real time    0.0011
    CHARGE:  cpu time    0.1507: real time    0.1507
    MIXING:  cpu time    0.0007: real time    0.0007
    --------------------------------------------
      LOOP:  cpu time    2.4795: real time    2.4796

 eigenvalue-minimisations  :  1584
 total energy-change (2. order) : 0.2878693E+01  (-0.7017169E+00)
 number of electron      54.0000007 magnetization       0.0000000
 augmentation part       19.8576418 magnetization       0.0000000

 Broyden mixing:
  rms(total) = 0.66490E+00    rms(broyden)= 0.66481E+00
  rms(prec ) = 0.99863E+00
  weight for this iteration     100.00

 eigenvalues of (default mixing * dielectric matrix)
  average eigenvalue GAMMA=   0.7726
  0.9979  0.6600  0.6600

 Free energy of the ion-electron system (eV)
  ---------------------------------------------------
  alpha Z        PSCENC =       199.81684422
  Ewald energy   TEWEN  =     -4206.06152665
  -Hartree energ DENC   =     -2169.87623075
  -exchange      EXHF   =         0.00000000
  -V(xc)+E(xc)   XCENC  =       170.56075302
  PAW double counting   =      6419.72373276    -6384.66126713
  entropy T*S    EENTRO =         0.00000000
  eigenvalues    EBANDS =      -787.20107204
  atomic energy  EATOM  =      6689.03721073
  Solvation  Ediel_sol  =         0.00000000
  ---------------------------------------------------
  free energy    TOTEN  =       -68.66155584 eV

  energy without entropy =      -68.66155584  energy(sigma->0) =      -68.66155584


--------------------------------------------------------------------------------------------------------




--------------------------------------- Iteration      1(   9)  ---------------------------------------


    POTLOK:  cpu time    0.0330: real time    0.0330
    SETDIJ:  cpu time    1.5895: real time    1.5896
atom =   1  type =  1  l = 2
 
 onsite density matrix
 
spin component  1
 
  0.0688  0.0000  0.0376  0.0000 -0.0000
  0.0000  0.0474  0.0000  0.0197  0.0000
  0.0376  0.0000  0.0500  0.0000 -0.0000
  0.0000  0.0197  0.0000  0.0474  0.0000
 -0.0000  0.0000 -0.0000  0.0000  0.0230
 
spin component  2
 
  0.9492  0.0000  0.0064  0.0000 -0.0000
  0.0000  0.9584  0.0000  0.0165  0.0000
  0.0064  0.0000  0.9454  0.0000  0.0000
  0.0000  0.0165  0.0000  0.9584  0.0000
 -0.0000  0.0000  0.0000  0.0000  0.9425
 
 occupancies and eigenvectors
 
  o =  0.0206  v = -0.6156  0.0000  0.7881  0.0000  0.0000  0.0000  0.0000  0.0000  0.0000  0.0000      0.0000  0.0000  0.0000  0.0000  0.0000  0.0000  0.0000  0.0000  0.0000  0.0000
  o =  0.0230  v = -0.0000 -0.0000  0.0000  0.0000 -1.0000  0.0000  0.0000  0.0000  0.0000  0.0000      0.0000  0.0000  0.0000  0.0000  0.0000  0.0000  0.0000  0.0000  0.0000  0.0000
  o =  0.0278  v =  0.0000 -0.7071  0.0000  0.7071  0.0000  0.0000  0.0000  0.0000  0.0000  0.0000      0.0000  0.0000  0.0000  0.0000  0.0000  0.0000  0.0000  0.0000  0.0000  0.0000
  o =  0.0671  v =  0.0000 -0.7071  0.0000 -0.7071  0.0000  0.0000  0.0000  0.0000  0.0000  0.0000      0.0000  0.0000  0.0000  0.0000  0.0000  0.0000  0.0000  0.0000  0.0000  0.0000
  o =  0.0982  v = -0.7881  0.0000 -0.6156  0.0000  0.0000  0.0000  0.0000  0.0000  0.0000  0.0000      0.0000  0.0000  0.0000  0.0000  0.0000  0.0000  0.0000  0.0000  0.0000  0.0000
  o =  0.9407  v =  0.0000  0.0000  0.0000  0.0000  0.0000 -0.5964 -0.0000  0.8027  0.0000 -0.0000      0.0000  0.0000  0.0000  0.0000  0.0000  0.0000  0.0000  0.0000  0.0000  0.0000
  o =  0.9419  v =  0.0000  0.0000  0.0000  0.0000  0.0000  0.0000  0.7071  0.0000 -0.7071 -0.0000      0.0000  0.0000  0.0000  0.0000  0.0000  0.0000  0.0000  0.0000  0.0000  0.0000
  o =  0.9425  v =  0.0000  0.0000  0.0000  0.0000  0.0000 -0.0000  0.0000  0.0000  0.0000  1.0000      0.0000  0.0000  0.0000  0.0000  0.0000  0.0000  0.0000  0.0000  0.0000  0.0000
  o =  0.9540  v =  0.0000  0.0000  0.0000  0.0000  0.0000 -0.8027 -0.0000 -0.5964  0.0000 -0.0000      0.0000  0.0000  0.0000  0.0000  0.0000  0.0000  0.0000  0.0000  0.0000  0.0000
  o =  0.9748  v =  0.0000  0.0000  0.0000  0.0000  0.0000  0.0000  0.7071  0.0000  0.7071 -0.0000      0.0000  0.0000  0.0000  0.0000  0.0000  0.0000  0.0000  0.0000  0.0000  0.0000
atom =   2  type =  1  l = 2
 
 onsite density matrix
 
spin component  1
 
  0.9492  0.0000 -0.0064  0.0000 -0.0000
  0.0000  0.9584  0.0000 -0.0165  0.0000
 -0.0064  0.0000  0.9454  0.0000 -0.0000
  0.0000 -0.0165  0.0000  0.9584  0.0000
 -0.0000  0.0000 -0.0000  0.0000  0.9425
 
spin component  2
 
  0.0688  0.0000 -0.0376  0.0000  0.0000
  0.0000  0.0474  0.0000 -0.0197  0.0000
 -0.0376  0.0000  0.0500  0.0000 -0.0000
  0.0000 -0.0197  0.0000  0.0474  0.0000
  0.0000  0.0000 -0.0000  0.0000  0.0230
 
 occupancies and eigenvectors
 
  o =  0.0206  v =  0.0000  0.0000  0.0000  0.0000  0.0000 -0.6156  0.0000 -0.7881  0.0000 -0.0000      0.0000  0.0000  0.0000  0.0000  0.0000  0.0000  0.0000  0.0000  0.0000  0.0000
  o =  0.0230  v =  0.0000  0.0000  0.0000  0.0000  0.0000 -0.0000 -0.0000 -0.0000  0.0000  1.0000      0.0000  0.0000  0.0000  0.0000  0.0000  0.0000  0.0000  0.0000  0.0000  0.0000
  o =  0.0278  v =  0.0000  0.0000  0.0000  0.0000  0.0000  0.0000 -0.7071  0.0000 -0.7071 -0.0000      0.0000  0.0000  0.0000  0.0000  0.0000  0.0000  0.0000  0.0000  0.0000  0.0000
  o =  0.0671  v =  0.0000  0.0000  0.0000  0.0000  0.0000  0.0000  0.7071  0.0000 -0.7071  0.0000      0.0000  0.0000  0.0000  0.0000  0.0000  0.0000  0.0000  0.0000  0.0000  0.0000
  o =  0.0982  v =  0.0000  0.0000  0.0000  0.0000  0.0000 -0.7881  0.0000  0.6156  0.0000 -0.0000      0.0000  0.0000  0.0000  0.0000  0.0000  0.0000  0.0000  0.0000  0.0000  0.0000
  o =  0.9407  v = -0.5964 -0.0000 -0.8027  0.0000 -0.0000  0.0000  0.0000  0.0000  0.0000  0.0000      0.0000  0.0000  0.0000  0.0000  0.0000  0.0000  0.0000  0.0000  0.0000  0.0000
  o =  0.9419  v =  0.0000 -0.7071  0.0000 -0.7071  0.0000  0.0000  0.0000  0.0000  0.0000  0.0000      0.0000  0.0000  0.0000  0.0000  0.0000  0.0000  0.0000  0.0000  0.0000  0.0000
  o =  0.9425  v = -0.0000  0.0000 -0.0000  0.0000  1.0000  0.0000  0.0000  0.0000  0.0000  0.0000      0.0000  0.0000  0.0000  0.0000  0.0000  0.0000  0.0000  0.0000  0.0000  0.0000
  o =  0.9540  v = -0.8027 -0.0000  0.5964  0.0000 -0.0000  0.0000  0.0000  0.0000  0.0000  0.0000      0.0000  0.0000  0.0000  0.0000  0.0000  0.0000  0.0000  0.0000  0.0000  0.0000
  o =  0.9748  v =  0.0000 -0.7071  0.0000  0.7071  0.0000  0.0000  0.0000  0.0000  0.0000  0.0000      0.0000  0.0000  0.0000  0.0000  0.0000  0.0000  0.0000  0.0000  0.0000  0.0000
     EDDAV:  cpu time    0.7837: real time    0.7837
 BZINTS: Fermi energy:  2.270318; 54.000000 electrons
         Band energy:-794.737768;  BLOECHL correction:  0.000000
       DOS:  cpu time    0.0013: real time    0.0013
    CHARGE:  cpu time    0.1504: real time    0.1504
    MIXING:  cpu time    0.0007: real time    0.0007
    --------------------------------------------
      LOOP:  cpu time    2.5588: real time    2.5588

 eigenvalue-minimisations  :  1488
 total energy-change (2. order) : 0.4975874E+00  (-0.4995446E+00)
 number of electron      54.0000007 magnetization       0.0000000
 augmentation part       19.9962903 magnetization       0.0000000

 Broyden mixing:
  rms(total) = 0.82090E+00    rms(broyden)= 0.82087E+00
  rms(prec ) = 0.90006E+00
  weight for this iteration     100.00

 eigenvalues of (default mixing * dielectric matrix)
  average eigenvalue GAMMA=   0.9481
  1.7242  0.5743  0.7469  0.7469

 Free energy of the ion-electron system (eV)
  ---------------------------------------------------
  alpha Z        PSCENC =       199.81684422
  Ewald energy   TEWEN  =     -4206.06152665
  -Hartree energ DENC   =     -2161.13183298
  -exchange      EXHF   =         0.00000000
  -V(xc)+E(xc)   XCENC  =       168.64229489
  PAW double counting   =      6444.75547739    -6408.48466831
  entropy T*S    EENTRO =         0.00000000
  eigenvalues    EBANDS =      -794.73776773
  atomic energy  EATOM  =      6689.03721073
  Solvation  Ediel_sol  =         0.00000000
  ---------------------------------------------------
  free energy    TOTEN  =       -68.16396844 eV

  energy without entropy =      -68.16396844  energy(sigma->0) =      -68.16396844


--------------------------------------------------------------------------------------------------------




--------------------------------------- Iteration      1(  10)  ---------------------------------------


    POTLOK:  cpu time    0.0326: real time    0.0326
    SETDIJ:  cpu time    1.4725: real time    1.4725
atom =   1  type =  1  l = 2
 
 onsite density matrix
 
spin component  1
 
  0.0471  0.0000  0.0153  0.0000 -0.0000
  0.0000  0.0512  0.0000  0.0210  0.0000
  0.0153  0.0000  0.0398  0.0000  0.0000
  0.0000  0.0210  0.0000  0.0512  0.0000
 -0.0000  0.0000  0.0000  0.0000  0.0289
 
spin component  2
 
  0.9677  0.0000  0.0305  0.0000 -0.0000
  0.0000  0.9517  0.0000  0.0169  0.0000
  0.0305  0.0000  0.9517  0.0000 -0.0000
  0.0000  0.0169  0.0000  0.9517  0.0000
 -0.0000  0.0000 -0.0000  0.0000  0.9325
 
 occupancies and eigenvectors
 
  o =  0.0278  v = -0.6200  0.0000  0.7846 -0.0000 -0.0000  0.0000  0.0000  0.0000  0.0000  0.0000      0.0000  0.0000  0.0000  0.0000  0.0000  0.0000  0.0000  0.0000  0.0000  0.0000
  o =  0.0289  v = -0.0000 -0.0000  0.0000  0.0000  1.0000  0.0000  0.0000  0.0000  0.0000  0.0000      0.0000  0.0000  0.0000  0.0000  0.0000  0.0000  0.0000  0.0000  0.0000  0.0000
  o =  0.0302  v =  0.0000  0.7071 -0.0000 -0.7071  0.0000  0.0000  0.0000  0.0000  0.0000  0.0000      0.0000  0.0000  0.0000  0.0000  0.0000  0.0000  0.0000  0.0000  0.0000  0.0000
  o =  0.0591  v = -0.7846 -0.0000 -0.6200 -0.0000 -0.0000  0.0000  0.0000  0.0000  0.0000  0.0000      0.0000  0.0000  0.0000  0.0000  0.0000  0.0000  0.0000  0.0000  0.0000  0.0000
  o =  0.0722  v =  0.0000 -0.7071  0.0000 -0.7071 -0.0000  0.0000  0.0000  0.0000  0.0000  0.0000      0.0000  0.0000  0.0000  0.0000  0.0000  0.0000  0.0000  0.0000  0.0000  0.0000
  o =  0.9282  v =  0.0000  0.0000  0.0000  0.0000  0.0000 -0.6107  0.0000  0.7918  0.0000 -0.0000      0.0000  0.0000  0.0000  0.0000  0.0000  0.0000  0.0000  0.0000  0.0000  0.0000
  o =  0.9325  v =  0.0000  0.0000  0.0000  0.0000  0.0000  0.0000 -0.0000 -0.0000  0.0000 -1.0000      0.0000  0.0000  0.0000  0.0000  0.0000  0.0000  0.0000  0.0000  0.0000  0.0000
  o =  0.9348  v =  0.0000  0.0000  0.0000  0.0000  0.0000  0.0000  0.7071  0.0000 -0.7071 -0.0000      0.0000  0.0000  0.0000  0.0000  0.0000  0.0000  0.0000  0.0000  0.0000  0.0000
  o =  0.9686  v =  0.0000  0.0000  0.0000  0.0000  0.0000  0.0000  0.7071  0.0000  0.7071 -0.0000      0.0000  0.0000  0.0000  0.0000  0.0000  0.0000  0.0000  0.0000  0.0000  0.0000
  o =  0.9912  v =  0.0000  0.0000  0.0000  0.0000  0.0000 -0.7918  0.0000 -0.6107  0.0000  0.0000      0.0000  0.0000  0.0000  0.0000  0.0000  0.0000  0.0000  0.0000  0.0000  0.0000
atom =   2  type =  1  l = 2
 
 onsite density matrix
 
spin component  1
 
  0.9677  0.0000 -0.0305  0.0000  0.0000
  0.0000  0.9517  0.0000 -0.0169  0.0000
 -0.0305  0.0000  0.9517  0.0000 -0.0000
  0.0000 -0.0169  0.0000  0.9517  0.0000
  0.0000  0.0000 -0.0000  0.0000  0.9325
 
spin component  2
 
  0.0471  0.0000 -0.0153  0.0000 -0.0000
  0.0000  0.0512  0.0000 -0.0210  0.0000
 -0.0153  0.0000  0.0398  0.0000 -0.0000
  0.0000 -0.0210  0.0000  0.0512  0.0000
 -0.0000  0.0000 -0.0000  0.0000  0.0289
 
 occupancies and eigenvectors
 
  o =  0.0278  v =  0.0000  0.0000  0.0000  0.0000  0.0000 -0.6200 -0.0000 -0.7846  0.0000 -0.0000      0.0000  0.0000  0.0000  0.0000  0.0000  0.0000  0.0000  0.0000  0.0000  0.0000
  o =  0.0289  v =  0.0000  0.0000  0.0000  0.0000  0.0000 -0.0000  0.0000 -0.0000  0.0000  1.0000      0.0000  0.0000  0.0000  0.0000  0.0000  0.0000  0.0000  0.0000  0.0000  0.0000
  o =  0.0302  v =  0.0000  0.0000  0.0000  0.0000  0.0000  0.0000  0.7071  0.0000  0.7071  0.0000      0.0000  0.0000  0.0000  0.0000  0.0000  0.0000  0.0000  0.0000  0.0000  0.0000
  o =  0.0591  v =  0.0000  0.0000  0.0000  0.0000  0.0000 -0.7846 -0.0000  0.6200  0.0000 -0.0000      0.0000  0.0000  0.0000  0.0000  0.0000  0.0000  0.0000  0.0000  0.0000  0.0000
  o =  0.0722  v =  0.0000  0.0000  0.0000  0.0000  0.0000  0.0000  0.7071  0.0000 -0.7071  0.0000      0.0000  0.0000  0.0000  0.0000  0.0000  0.0000  0.0000  0.0000  0.0000  0.0000
  o =  0.9282  v = -0.6107  0.0000 -0.7918  0.0000  0.0000  0.0000  0.0000  0.0000  0.0000  0.0000      0.0000  0.0000  0.0000  0.0000  0.0000  0.0000  0.0000  0.0000  0.0000  0.0000
  o =  0.9325  v =  0.0000  0.0000  0.0000  0.0000  1.0000  0.0000  0.0000  0.0000  0.0000  0.0000      0.0000  0.0000  0.0000  0.0000  0.0000  0.0000  0.0000  0.0000  0.0000  0.0000
  o =  0.9348  v =  0.0000 -0.7071  0.0000 -0.7071  0.0000  0.0000  0.0000  0.0000  0.0000  0.0000      0.0000  0.0000  0.0000  0.0000  0.0000  0.0000  0.0000  0.0000  0.0000  0.0000
  o =  0.9686  v =  0.0000 -0.7071  0.0000  0.7071  0.0000  0.0000  0.0000  0.0000  0.0000  0.0000      0.0000  0.0000  0.0000  0.0000  0.0000  0.0000  0.0000  0.0000  0.0000  0.0000
  o =  0.9912  v = -0.7918  0.0000  0.6107  0.0000 -0.0000  0.0000  0.0000  0.0000  0.0000  0.0000      0.0000  0.0000  0.0000  0.0000  0.0000  0.0000  0.0000  0.0000  0.0000  0.0000
     EDDAV:  cpu time    0.7559: real time    0.7559
 BZINTS: Fermi energy:  2.231975; 54.000000 electrons
         Band energy:-797.036423;  BLOECHL correction:  0.000000
       DOS:  cpu time    0.0013: real time    0.0013
    CHARGE:  cpu time    0.1501: real time    0.1501
    MIXING:  cpu time    0.0008: real time    0.0008
    --------------------------------------------
      LOOP:  cpu time    2.4132: real time    2.4132

 eigenvalue-minimisations  :  1404
 total energy-change (2. order) : 0.4968153E-01  (-0.4359245E-01)
 number of electron      54.0000007 magnetization      -0.0000000
 augmentation part       19.9921539 magnetization      -0.0000000

 Broyden mixing:
  rms(total) = 0.60004E+00    rms(broyden)= 0.60004E+00
  rms(prec ) = 0.66883E+00
  weight for this iteration     100.00

 eigenvalues of (default mixing * dielectric matrix)
  average eigenvalue GAMMA=   1.2150
  2.8818  0.9936  0.9936  0.6030  0.6030

 Free energy of the ion-electron system (eV)
  ---------------------------------------------------
  alpha Z        PSCENC =       199.81684422
  Ewald energy   TEWEN  =     -4206.06152665
  -Hartree energ DENC   =     -2154.81756944
  -exchange      EXHF   =         0.00000000
  -V(xc)+E(xc)   XCENC  =       165.88111664
  PAW double counting   =      6511.61430623    -6476.54824549
  entropy T*S    EENTRO =         0.00000000
  eigenvalues    EBANDS =      -797.03642315
  atomic energy  EATOM  =      6689.03721073
  Solvation  Ediel_sol  =         0.00000000
  ---------------------------------------------------
  free energy    TOTEN  =       -68.11428692 eV

  energy without entropy =      -68.11428692  energy(sigma->0) =      -68.11428692


--------------------------------------------------------------------------------------------------------




--------------------------------------- Iteration      1(  11)  ---------------------------------------


    POTLOK:  cpu time    0.0325: real time    0.0325
    SETDIJ:  cpu time    1.6099: real time    1.6099
atom =   1  type =  1  l = 2
 
 onsite density matrix
 
spin component  1
 
  0.0513  0.0000  0.0305  0.0000 -0.0000
  0.0000  0.0439  0.0000  0.0255  0.0000
  0.0305  0.0000  0.0370  0.0000 -0.0000
  0.0000  0.0255  0.0000  0.0439  0.0000
 -0.0000  0.0000 -0.0000  0.0000  0.0146
 
spin component  2
 
  0.9637  0.0000  0.0190  0.0000 -0.0000
  0.0000  0.9593  0.0000  0.0168  0.0000
  0.0190  0.0000  0.9521  0.0000  0.0000
  0.0000  0.0168  0.0000  0.9593  0.0000
 -0.0000  0.0000  0.0000  0.0000  0.9433
 
 occupancies and eigenvectors
 
  o =  0.0129  v = -0.6216  0.0000  0.7834  0.0000  0.0000  0.0000  0.0000  0.0000  0.0000  0.0000      0.0000  0.0000  0.0000  0.0000  0.0000  0.0000  0.0000  0.0000  0.0000  0.0000
  o =  0.0146  v = -0.0000 -0.0000  0.0000  0.0000 -1.0000  0.0000  0.0000  0.0000  0.0000  0.0000      0.0000  0.0000  0.0000  0.0000  0.0000  0.0000  0.0000  0.0000  0.0000  0.0000
  o =  0.0184  v =  0.0000 -0.7071  0.0000  0.7071  0.0000  0.0000  0.0000  0.0000  0.0000  0.0000      0.0000  0.0000  0.0000  0.0000  0.0000  0.0000  0.0000  0.0000  0.0000  0.0000
  o =  0.0694  v =  0.0000 -0.7071  0.0000 -0.7071  0.0000  0.0000  0.0000  0.0000  0.0000  0.0000      0.0000  0.0000  0.0000  0.0000  0.0000  0.0000  0.0000  0.0000  0.0000  0.0000
  o =  0.0754  v = -0.7834  0.0000 -0.6216  0.0000  0.0000  0.0000  0.0000  0.0000  0.0000  0.0000      0.0000  0.0000  0.0000  0.0000  0.0000  0.0000  0.0000  0.0000  0.0000  0.0000
  o =  0.9380  v =  0.0000  0.0000  0.0000  0.0000  0.0000 -0.5948 -0.0000  0.8038  0.0000 -0.0000      0.0000  0.0000  0.0000  0.0000  0.0000  0.0000  0.0000  0.0000  0.0000  0.0000
  o =  0.9424  v =  0.0000  0.0000  0.0000  0.0000  0.0000 -0.0000 -0.7071  0.0000  0.7071  0.0000      0.0000  0.0000  0.0000  0.0000  0.0000  0.0000  0.0000  0.0000  0.0000  0.0000
  o =  0.9433  v =  0.0000  0.0000  0.0000  0.0000  0.0000  0.0000 -0.0000 -0.0000  0.0000 -1.0000      0.0000  0.0000  0.0000  0.0000  0.0000  0.0000  0.0000  0.0000  0.0000  0.0000
  o =  0.9761  v =  0.0000  0.0000  0.0000  0.0000  0.0000  0.0000 -0.7071 -0.0000 -0.7071 -0.0000      0.0000  0.0000  0.0000  0.0000  0.0000  0.0000  0.0000  0.0000  0.0000  0.0000
  o =  0.9778  v =  0.0000  0.0000  0.0000  0.0000  0.0000 -0.8038 -0.0000 -0.5948  0.0000 -0.0000      0.0000  0.0000  0.0000  0.0000  0.0000  0.0000  0.0000  0.0000  0.0000  0.0000
atom =   2  type =  1  l = 2
 
 onsite density matrix
 
spin component  1
 
  0.9637  0.0000 -0.0190  0.0000 -0.0000
  0.0000  0.9593  0.0000 -0.0168  0.0000
 -0.0190  0.0000  0.9521  0.0000 -0.0000
  0.0000 -0.0168  0.0000  0.9593  0.0000
 -0.0000  0.0000 -0.0000  0.0000  0.9433
 
spin component  2
 
  0.0513  0.0000 -0.0305  0.0000  0.0000
  0.0000  0.0439  0.0000 -0.0255  0.0000
 -0.0305  0.0000  0.0370  0.0000  0.0000
  0.0000 -0.0255  0.0000  0.0439  0.0000
  0.0000  0.0000  0.0000  0.0000  0.0146
 
 occupancies and eigenvectors
 
  o =  0.0129  v =  0.0000  0.0000  0.0000  0.0000  0.0000 -0.6216  0.0000 -0.7834  0.0000  0.0000      0.0000  0.0000  0.0000  0.0000  0.0000  0.0000  0.0000  0.0000  0.0000  0.0000
  o =  0.0146  v =  0.0000  0.0000  0.0000  0.0000  0.0000 -0.0000 -0.0000 -0.0000 -0.0000 -1.0000      0.0000  0.0000  0.0000  0.0000  0.0000  0.0000  0.0000  0.0000  0.0000  0.0000
  o =  0.0184  v =  0.0000  0.0000  0.0000  0.0000  0.0000 -0.0000  0.7071 -0.0000  0.7071 -0.0000      0.0000  0.0000  0.0000  0.0000  0.0000  0.0000  0.0000  0.0000  0.0000  0.0000
  o =  0.0694  v =  0.0000  0.0000  0.0000  0.0000  0.0000  0.0000 -0.7071 -0.0000  0.7071  0.0000      0.0000  0.0000  0.0000  0.0000  0.0000  0.0000  0.0000  0.0000  0.0000  0.0000
  o =  0.0754  v =  0.0000  0.0000  0.0000  0.0000  0.0000 -0.7834 -0.0000  0.6216  0.0000  0.0000      0.0000  0.0000  0.0000  0.0000  0.0000  0.0000  0.0000  0.0000  0.0000  0.0000
  o =  0.9380  v =  0.5948  0.0000  0.8038  0.0000  0.0000  0.0000  0.0000  0.0000  0.0000  0.0000      0.0000  0.0000  0.0000  0.0000  0.0000  0.0000  0.0000  0.0000  0.0000  0.0000
  o =  0.9424  v =  0.0000  0.7071 -0.0000  0.7071 -0.0000  0.0000  0.0000  0.0000  0.0000  0.0000      0.0000  0.0000  0.0000  0.0000  0.0000  0.0000  0.0000  0.0000  0.0000  0.0000
  o =  0.9433  v = -0.0000  0.0000 -0.0000  0.0000  1.0000  0.0000  0.0000  0.0000  0.0000  0.0000      0.0000  0.0000  0.0000  0.0000  0.0000  0.0000  0.0000  0.0000  0.0000  0.0000
[...]
     16      -3.4873      1.00000
     17      -3.1051      1.00000
     18      -2.9268      1.00000
     19      -2.7946      1.00000
     20      -2.3861      1.00000
     21      -2.2978      1.00000
     22      -2.2395      1.00000
     23       0.8061      1.00000
     24       0.8497      1.00000
     25       1.0934      1.00000
     26       1.7209      1.00000
     27       2.0719      1.00000
     28       6.4116      0.00000
     29       6.4411      0.00000
     30       6.5445      0.00000
     31       7.3981      0.00000
     32       7.6917      0.00000
     33       9.0064      0.00000
     34      11.3009      0.00000
     35      12.7676      0.00000
     36      13.1272      0.00000

 k-point     8 :       0.3750    0.1250    0.4167
  band No.  band energies     occupation 
      1     -49.2259      1.00000
      2     -49.1852      1.00000
      3     -49.1649      1.00000
      4     -42.7179      1.00000
      5     -42.6738      1.00000
      6     -42.6433      1.00000
      7     -22.6161      1.00000
      8     -22.5595      1.00000
      9     -22.5096      1.00000
     10     -22.4406      1.00000
     11      -4.5010      1.00000
     12      -4.2444      1.00000
     13      -4.1619      1.00000
     14      -3.9832      1.00000
     15      -3.6135      1.00000
     16      -3.3766      1.00000
     17      -3.2029      1.00000
     18      -3.0976      1.00000
     19      -2.5287      1.00000
     20      -2.3677      1.00000
     21      -2.1891      1.00000
     22      -2.0866      1.00000
     23       0.7932      1.00000
     24       0.8223      1.00000
     25       1.0324      1.00000
     26       1.6777      1.00000
     27       2.2006      1.00000
     28       6.3995      0.00000
     29       6.4341      0.00000
     30       6.6006      0.00000
     31       7.3529      0.00000
     32       7.8733      0.00000
     33       9.6322      0.00000
     34      11.1585      0.00000
     35      11.6800      0.00000
     36      12.9909      0.00000

 k-point     9 :       0.3750    0.3750    0.4167
  band No.  band energies     occupation 
      1     -49.2259      1.00000
      2     -49.1852      1.00000
      3     -49.1649      1.00000
      4     -42.7180      1.00000
      5     -42.6738      1.00000
      6     -42.6433      1.00000
      7     -22.6091      1.00000
      8     -22.5683      1.00000
      9     -22.5102      1.00000
     10     -22.4350      1.00000
     11      -4.7364      1.00000
     12      -4.5262      1.00000
     13      -4.1576      1.00000
     14      -4.0967      1.00000
     15      -3.5865      1.00000
     16      -3.3091      1.00000
     17      -3.1388      1.00000
     18      -2.9070      1.00000
     19      -2.3182      1.00000
     20      -2.2229      1.00000
     21      -2.1107      1.00000
     22      -2.0340      1.00000
     23       0.7909      1.00000
     24       0.8148      1.00000
     25       1.0181      1.00000
     26       1.7121      1.00000
     27       2.1763      1.00000
     28       6.4060      0.00000
     29       6.4314      0.00000
     30       6.6185      0.00000
     31       7.3288      0.00000
     32       7.7770      0.00000
     33      10.1273      0.00000
     34      11.7113      0.00000
     35      11.7450      0.00000
     36      11.9779      0.00000


--------------------------------------------------------------------------------------------------------


 soft charge-density along one line, spin component           1
         0         1         2         3         4         5         6         7         8         9
 total charge-density along one line
 
 soft charge-density along one line, spin component           2
         0         1         2         3         4         5         6         7         8         9
 total charge-density along one line
 
 pseudopotential strength for first ion, spin component:           1
-45.213  -0.000  -0.038   7.792   0.000   0.016  -0.000  -0.000
 -0.000 -45.180  -0.000   0.000   7.778   0.000  -0.000   0.000
 -0.038  -0.000 -45.213   0.016   0.000   7.792   0.000  -0.000
  7.792   0.000   0.016   5.591  -0.000   0.004  -0.000   0.000
  0.000   7.778   0.000  -0.000   5.586  -0.000   0.000   0.000
  0.016   0.000   7.792   0.004  -0.000   5.591  -0.000   0.000
 -0.000  -0.000   0.000  -0.000   0.000  -0.000  -2.973  -0.000
 -0.000   0.000  -0.000   0.000   0.000   0.000  -0.000  -2.955
 -0.000  -0.000   0.000   0.000   0.000   0.000   0.020  -0.000
 -0.000   0.000  -0.000   0.000   0.000   0.000  -0.000  -0.018
  0.000  -0.000  -0.000  -0.000   0.000  -0.000  -0.000   0.000
 -0.000  -0.000   0.000  -0.000   0.000  -0.000  -3.488  -0.000
 -0.000   0.000  -0.000   0.000   0.000   0.000  -0.000  -3.471
 -0.000  -0.000   0.000   0.000   0.000   0.000   0.018  -0.000
 -0.000   0.000  -0.000   0.000   0.000   0.000  -0.000  -0.018
  0.000  -0.000  -0.000  -0.000   0.000  -0.000  -0.000   0.000
  0.000   0.000   0.000   0.000   0.000  -0.000   0.011   0.000
  0.000   0.000   0.000   0.000   0.000  -0.000   0.022   0.000
 pseudopotential strength for first ion, spin component:           2
-50.966  -0.000  -0.005   9.791   0.000   0.016   0.000  -0.000
 -0.000 -50.966  -0.000   0.000   9.777   0.000  -0.000   0.000
 -0.005  -0.000 -50.966   0.016   0.000   9.791  -0.000  -0.000
  9.791   0.000   0.016   4.708  -0.000   0.001  -0.000   0.000
  0.000   9.777   0.000  -0.000   4.708  -0.000   0.000  -0.000
  0.016   0.000   9.791   0.001  -0.000   4.708  -0.000   0.000
  0.000  -0.000  -0.000  -0.000   0.000  -0.000  -7.325  -0.000
 -0.000   0.000  -0.000   0.000  -0.000   0.000  -0.000  -7.316
  0.000  -0.000  -0.000  -0.000   0.000   0.000  -0.009  -0.000
 -0.000  -0.000  -0.000   0.000   0.000   0.000  -0.000  -0.028
 -0.000  -0.000   0.000  -0.000   0.000  -0.000   0.000   0.000
  0.000  -0.000  -0.000  -0.000   0.000  -0.000  -7.796  -0.000
 -0.000   0.000  -0.000   0.000  -0.000   0.000  -0.000  -7.787
  0.000  -0.000  -0.000  -0.000   0.000   0.000  -0.009  -0.000
 -0.000  -0.000  -0.000   0.000   0.000   0.000  -0.000  -0.027
 -0.000  -0.000   0.000  -0.000   0.000  -0.000   0.000   0.000
  0.000   0.000  -0.000  -0.000   0.000   0.000   0.011   0.000
  0.000   0.000  -0.000  -0.000   0.000   0.000   0.023   0.000
 total augmentation occupancy for first ion, spin component:           1
  2.001   0.000   0.000  -0.013   0.000   0.001   0.000   0.000   0.000   0.000   0.000   0.000   0.000   0.000   0.000   0.000
  0.000   2.001   0.000   0.000  -0.013   0.000   0.000   0.000   0.000   0.000   0.000   0.000   0.000   0.000   0.000   0.000
  0.000   0.000   2.001   0.001   0.000  -0.013   0.000   0.000   0.000   0.000   0.000   0.000   0.000   0.000   0.000   0.000
 -0.013   0.000   0.001   0.081   0.000  -0.009   0.000   0.000   0.000   0.000   0.000   0.000   0.000   0.000   0.000   0.000
  0.000  -0.013   0.000   0.000   0.090   0.000   0.000   0.000   0.000   0.000   0.000   0.000   0.000   0.000   0.000   0.000
  0.001   0.000  -0.013  -0.009   0.000   0.081   0.000   0.000   0.000   0.000   0.000   0.000   0.000   0.000   0.000   0.000
  0.000   0.000   0.000   0.000   0.000   0.000   7.780   0.000   3.012   0.000   0.000  -5.807   0.000  -2.833   0.000   0.000
  0.000   0.000   0.000   0.000   0.000   0.000   0.000   6.576   0.000   2.544   0.000   0.000  -4.649   0.000  -2.390   0.000
  0.000   0.000   0.000   0.000   0.000   0.000   3.012   0.000   5.965   0.000   0.000  -2.834   0.000  -4.107   0.000  -0.000
  0.000   0.000   0.000   0.000   0.000   0.000   0.000   2.544   0.000   6.576   0.000   0.000  -2.390   0.000  -4.649   0.000
  0.000   0.000   0.000   0.000   0.000   0.000   0.000   0.000   0.000   0.000   3.895  -0.000   0.000  -0.000   0.000  -2.116
  0.000   0.000   0.000   0.000   0.000   0.000  -5.807   0.000  -2.834   0.000   0.000   5.009   0.000   2.699   0.000  -0.000
  0.000   0.000   0.000   0.000   0.000   0.000   0.000  -4.649   0.000  -2.390   0.000   0.000   3.885   0.000   2.272   0.000
  0.000   0.000   0.000   0.000   0.000   0.000  -2.833   0.000  -4.107   0.000   0.000   2.699   0.000   3.398   0.000  -0.000
  0.000   0.000   0.000   0.000   0.000   0.000   0.000  -2.390   0.000  -4.649   0.000   0.000   2.272   0.000   3.885   0.000
  0.000   0.000   0.000   0.000   0.000   0.000  -0.000   0.000  -0.000   0.000  -2.116   0.000   0.000   0.000   0.000   1.460
  0.000   0.000   0.000   0.000   0.000   0.000   0.444   0.000  -0.295   0.000   0.000  -0.421   0.000   0.275   0.000   0.000
  0.000   0.000   0.000   0.000   0.000   0.000  -0.092   0.000   0.068   0.000   0.000   0.098   0.000  -0.067   0.000   0.000
 total augmentation occupancy for first ion, spin component:           2
  0.004   0.000  -0.000   0.017   0.000  -0.001   0.000   0.000   0.000   0.000   0.000   0.000   0.000   0.000   0.000   0.000
  0.000   0.004   0.000   0.000   0.018   0.000   0.000   0.000   0.000   0.000   0.000   0.000   0.000   0.000   0.000   0.000
 -0.000   0.000   0.004  -0.001   0.000   0.017   0.000   0.000   0.000   0.000   0.000   0.000   0.000   0.000   0.000   0.000
  0.017   0.000  -0.001  -0.011   0.000  -0.000   0.000   0.000   0.000   0.000   0.000   0.000   0.000   0.000   0.000   0.000
  0.000   0.018   0.000   0.000  -0.010   0.000   0.000   0.000   0.000   0.000   0.000   0.000   0.000   0.000   0.000   0.000
 -0.001   0.000   0.017  -0.000   0.000  -0.011   0.000   0.000   0.000   0.000   0.000   0.000   0.000   0.000   0.000   0.000
  0.000   0.000   0.000   0.000   0.000   0.000  -5.106   0.000  -1.499   0.000   0.000   2.731   0.000   1.101   0.000   0.000
  0.000   0.000   0.000   0.000   0.000   0.000   0.000  -4.548   0.000  -1.277   0.000   0.000   2.299   0.000   0.939   0.000
  0.000   0.000   0.000   0.000   0.000   0.000  -1.499   0.000  -4.148   0.000   0.000   1.101   0.000   2.012   0.000  -0.000
  0.000   0.000   0.000   0.000   0.000   0.000   0.000  -1.277   0.000  -4.548   0.000   0.000   0.939   0.000   2.299   0.000
  0.000   0.000   0.000   0.000   0.000   0.000   0.000   0.000   0.000   0.000  -3.253  -0.000   0.000  -0.000   0.000   1.353
  0.000   0.000   0.000   0.000   0.000   0.000   2.731   0.000   1.101   0.000   0.000  -1.458   0.000  -0.709   0.000   0.000
  0.000   0.000   0.000   0.000   0.000   0.000   0.000   2.299   0.000   0.939   0.000   0.000  -1.155   0.000  -0.607   0.000
  0.000   0.000   0.000   0.000   0.000   0.000   1.101   0.000   2.012   0.000  -0.000  -0.709   0.000  -0.974   0.000   0.000
  0.000   0.000   0.000   0.000   0.000   0.000   0.000   0.939   0.000   2.299   0.000   0.000  -0.607   0.000  -1.155   0.000
  0.000   0.000   0.000   0.000   0.000   0.000   0.000   0.000  -0.000   0.000   1.353   0.000   0.000   0.000   0.000  -0.555
  0.000   0.000   0.000   0.000   0.000   0.000  -0.099   0.000   0.054   0.000  -0.000   0.023   0.000   0.002   0.000   0.000
  0.000   0.000   0.000   0.000   0.000   0.000  -0.000   0.000  -0.006   0.000   0.000   0.009   0.000  -0.004   0.000   0.000


------------------------ aborting loop because EDIFF is reached ----------------------------------------


 


 total charge     
 
# of ion       s       p       d       tot
------------------------------------------
    1        0.168   6.150   4.966  11.283
    2        0.173   6.145   4.972  11.290
    3        1.731   4.403   0.000   6.134
    4        1.731   4.403   0.000   6.134
    5        1.731   4.399   0.000   6.131
    6        1.731   4.399   0.000   6.131
--------------------------------------------------
tot          7.266  29.900   9.938  47.103
 


 magnetization (x)
 
# of ion       s       p       d       tot
------------------------------------------
    1       -0.022  -0.018  -4.581  -4.621
    2        0.023   0.016   4.578   4.617
    3        0.003   0.025   0.000   0.027
    4        0.003   0.025   0.000   0.027
    5       -0.003  -0.021   0.000  -0.024
    6       -0.003  -0.021   0.000  -0.024
--------------------------------------------------
tot         -0.001   0.006  -0.003   0.003
 
    CHARGE:  cpu time    0.0361: real time    0.0361
    FORLOC:  cpu time    0.0008: real time    0.0008
    FORNL :  cpu time    0.1863: real time    0.1863
    STRESS:  cpu time    2.2714: real time    2.2714
    FORCOR:  cpu time    0.0295: real time    0.0295
    FORHAR:  cpu time    0.0021: real time    0.0021
    MIXING:  cpu time    0.0007: real time    0.0007
    OFIELD:  cpu time    0.0000: real time    0.0000

  FORCE on cell =-STRESS in cart. coord.  units (eV):
  Direction    XX          YY          ZZ          XY          YZ          ZX
  --------------------------------------------------------------------------------------
  Alpha Z   199.74860   199.74860   199.74860
  Ewald   -1586.76635 -1586.76635 -1032.13439    -0.00000     0.00000     0.00000
  Hartree   593.72459   593.72459   968.58851    -0.00000    -0.00000    -0.00000
  E(xc)    -150.57263  -150.54931  -150.68480    -0.01644    -0.02608    -0.02783
  Local     164.21233   164.21233  -758.39746    -0.00000     0.00000    -0.00000
  n-local  -310.08466  -310.36298  -309.32409     0.01890     0.11104     0.11097
  augment   158.52232   158.52232   158.02855    -0.00000     0.00000    -0.00000
  Kinetic   931.05595   931.62435   924.17195    -0.43956    -0.81313    -0.84881
  Fock        0.00000     0.00000     0.00000     0.00000     0.00000     0.00000
  -------------------------------------------------------------------------------------
  Total      -0.00315    -0.00315    -0.00313    -0.00000     0.00000     0.00000
  in kB      -0.06528    -0.06528    -0.06494    -0.00000     0.00000     0.00000
  external pressure =       -0.07 kB  Pullay stress =        0.00 kB


 VOLUME and BASIS-vectors are now :
 -----------------------------------------------------------------------------
  energy-cutoff  :      650.00
  volume of cell :       77.28
      direct lattice vectors                 reciprocal lattice vectors
     4.849617726  0.000000000  0.000000000     0.206201820 -0.000000000  0.000000000
     0.000000000  4.849617726  0.000000000    -0.000000000  0.206201820  0.000000000
     0.000000000  0.000000000  3.286077818     0.000000000  0.000000000  0.304314157

  length of vectors
     4.849617726  4.849617726  3.286077818     0.206201820  0.206201820  0.304314157


 FORCES acting on ions
    electron-ion (+dipol)            ewald-force                    non-local-force                 convergence-correction
 -----------------------------------------------------------------------------------------------
   -.177E-11 0.653E-11 -.243E-14   -.284E-13 0.568E-13 -.333E-15   -.490E-25 0.000E+00 0.000E+00   -.843E-13 -.323E-13 0.275E-12
   -.217E-13 -.304E-13 0.308E-13   -.284E-13 -.853E-13 -.902E-15   0.476E-25 0.000E+00 0.000E+00   0.851E-13 0.473E-13 -.297E-12
   -.324E+02 0.324E+02 0.322E-11   0.336E+02 -.336E+02 0.506E-14   -.119E+01 0.119E+01 0.434E-18   0.345E-03 -.345E-03 0.312E-13
   0.324E+02 -.324E+02 -.130E-10   -.336E+02 0.336E+02 0.527E-14   0.119E+01 -.119E+01 -.434E-18   -.345E-03 0.345E-03 0.298E-12
   0.324E+02 0.324E+02 0.349E-08   -.336E+02 -.336E+02 -.882E-15   0.119E+01 0.119E+01 0.434E-18   -.345E-03 -.345E-03 -.124E-10
   -.324E+02 -.324E+02 -.347E-08   0.336E+02 0.336E+02 -.736E-15   -.119E+01 -.119E+01 -.434E-18   0.345E-03 0.345E-03 0.120E-10
 -----------------------------------------------------------------------------------------------
   -.689E-12 0.251E-10 0.550E-11   0.711E-14 0.000E+00 0.747E-14   0.000E+00 -.222E-15 0.000E+00   -.102E-13 -.150E-12 -.163E-12
 
 
 POSITION                                       TOTAL-FORCE (eV/Angst)
 -----------------------------------------------------------------------------------
      2.42481      2.42481      1.64304        -0.000000      0.000000      0.000000
      0.00000      0.00000      0.00000         0.000000      0.000000      0.000000
      0.95123      3.89839      1.64304         0.001620     -0.001620      0.000000
      3.89839      0.95123      1.64304        -0.001620      0.001620      0.000000
      1.47358      1.47358     -0.00000        -0.001620     -0.001620      0.000000
      3.37603      3.37603      0.00000         0.001620      0.001620      0.000000
 -----------------------------------------------------------------------------------
    total drift:                               -0.000000      0.000000      0.000000


--------------------------------------------------------------------------------------------------------



  FREE ENERGIE OF THE ION-ELECTRON SYSTEM (eV)
  ---------------------------------------------------
  free  energy   TOTEN  =       -68.02691331 eV

  energy  without entropy=      -68.02691331  energy(sigma->0) =      -68.02691331
 
 d Force = 0.3534059E-05[ 0.222E-05, 0.485E-05]  d Energy = 0.2475057E-04-0.212E-04
 d Force = 0.4610077E-01[ 0.460E-01, 0.462E-01]  d Ewald  =-0.3975980E+00 0.444E+00


--------------------------------------------------------------------------------------------------------


    POTLOK:  cpu time    0.8250: real time    0.8250


--------------------------------------------------------------------------------------------------------


 Steepest descent step on ions:
 trial-energy change:   -0.000025  1 .order   -0.000006   -0.000010   -0.000001
  (g-gl).g = 0.104E-04      g.g   = 0.104E-04  gl.gl    = 0.000E+00
 g(Force)  = 0.485E-05   g(Stress)= 0.559E-05 ortho     = 0.000E+00
 gamma     =   0.00000
 trial     =   1.00000
 opt step  =   1.00922  (harmonic =   1.12301) maximal distance =0.00017261
 next E    =   -68.026913   (d E  =  -0.00002)


--------------------------------------------------------------------------------------------------------


  
 reached required accuracy - stopping structural energy minimisation
     LOOP+:  cpu time   19.6575: real time   19.6580
    4ORBIT:  cpu time    0.0000: real time    0.0000
 


 total charge     
 
# of ion       s       p       d       tot
------------------------------------------
    1        0.168   6.150   4.966  11.283
    2        0.173   6.145   4.972  11.290
    3        1.731   4.403   0.000   6.134
    4        1.731   4.403   0.000   6.134
    5        1.731   4.399   0.000   6.131
    6        1.731   4.399   0.000   6.131
--------------------------------------------------
tot          7.266  29.900   9.938  47.103
 


 magnetization (x)
 
# of ion       s       p       d       tot
------------------------------------------
    1       -0.022  -0.018  -4.581  -4.621
    2        0.023   0.016   4.578   4.617
    3        0.003   0.025   0.000   0.027
    4        0.003   0.025   0.000   0.027
    5       -0.003  -0.021   0.000  -0.024
    6       -0.003  -0.021   0.000  -0.024
--------------------------------------------------
tot         -0.001   0.006  -0.003   0.003
 
 BZINTS: Fermi energy:  2.317256; 54.000000 electrons
         Band energy:-795.723505;  BLOECHL correction:  0.000000

 total amount of memory used by VASP MPI-rank0    46343. kBytes
=======================================================================

   base      :      30000. kBytes
   nonl-proj :       7870. kBytes
   fftplans  :       1875. kBytes
   grid      :       3820. kBytes
   one-center:        186. kBytes
   wavefun   :       2592. kBytes
 
  
  
 General timing and accounting informations for this job:
 ========================================================
  
                  Total CPU time used (sec):       78.144
                            User time (sec):       55.338
                          System time (sec):       22.806
                         Elapsed time (sec):       78.226
  
                   Maximum memory used (kb):       64720.
                   Average memory used (kb):           0.
  
                          Minor page faults:        11974
                          Major page faults:            6
                 Voluntary context switches:          285
