       N       E                     dE             d eps       ncg     rms          rms(c)
DAV:   1     0.663756844135E+03    0.66376E+03   -0.34077E+04   288   0.186E+03
DAV:   2     0.544045348283E+01   -0.65832E+03   -0.64094E+03   336   0.505E+02
DAV:   3    -0.395291639087E+02   -0.44970E+02   -0.44784E+02   312   0.147E+02
DAV:   4    -0.401010669321E+02   -0.57190E+00   -0.57178E+00   324   0.183E+01
DAV:   5    -0.401107198657E+02   -0.96529E-02   -0.96529E-02   336   0.227E+00    0.225E+01
DAV:   6    -0.382159587132E+02    0.18948E+01   -0.15644E+01   324   0.316E+01    0.142E+01
DAV:   7    -0.389381491303E+02   -0.72219E+00   -0.18482E+00   348   0.107E+01    0.113E+01
DAV:   8    -0.390060550626E+02   -0.67906E-01   -0.41117E-01   336   0.540E+00    0.527E+00
DAV:   9    -0.391584491101E+02   -0.15239E+00   -0.46504E-02   288   0.210E+00    0.125E+00
DAV:  10    -0.391603308102E+02   -0.18817E-02   -0.20661E-02   372   0.125E+00    0.279E-01
DAV:  11    -0.391605753787E+02   -0.24457E-03   -0.27024E-03   312   0.348E-01    0.139E-01
DAV:  12    -0.391607296614E+02   -0.15428E-03   -0.10598E-04   348   0.124E-01    0.549E-02
DAV:  13    -0.391607847344E+02   -0.55073E-04   -0.85568E-05   300   0.536E-02    0.209E-02
DAV:  14    -0.391607924377E+02   -0.77033E-05   -0.76793E-06   348   0.215E-02    0.911E-03
DAV:  15    -0.391607922307E+02    0.20697E-06   -0.15428E-06   336   0.750E-03    0.254E-03
DAV:  16    -0.391607925189E+02   -0.28825E-06   -0.22016E-07   312   0.272E-03    0.197E-03
DAV:  17    -0.391607924906E+02    0.28388E-07   -0.18000E-08   216   0.939E-04
   1 F= -.39160792E+02 E0= -.39160792E+02  d E =-.391608E+02  mag=    -0.0000
