       N       E                     dE             d eps       ncg     rms          rms(c)
DAV:   1     0.788146083475E+03    0.78815E+03   -0.42613E+04  1296   0.254E+03
DAV:   2     0.186708040102E+02   -0.76948E+03   -0.74275E+03  1476   0.595E+02
DAV:   3    -0.405090257572E+02   -0.59180E+02   -0.58893E+02  1452   0.174E+02
DAV:   4    -0.414185211117E+02   -0.90950E+00   -0.90906E+00  1548   0.229E+01
DAV:   5    -0.414322458876E+02   -0.13725E-01   -0.13725E-01  1440   0.280E+00    0.247E+01
DAV:   6    -0.393614336089E+02    0.20708E+01   -0.15603E+01  1620   0.319E+01    0.159E+01
DAV:   7    -0.399969391941E+02   -0.63551E+00   -0.15705E+00  1500   0.108E+01    0.118E+01
DAV:   8    -0.399110286279E+02    0.85911E-01   -0.52194E-01  1524   0.601E+00    0.473E+00
DAV:   9    -0.401869346230E+02   -0.27591E+00   -0.74235E-02  1428   0.261E+00    0.137E+00
DAV:  10    -0.401874070849E+02   -0.47246E-03   -0.15989E-02  1548   0.102E+00    0.251E-01
DAV:  11    -0.401873615539E+02    0.45531E-04   -0.15615E-03  1368   0.273E-01    0.142E-01
DAV:  12    -0.401874052337E+02   -0.43680E-04   -0.40414E-05  1812   0.848E-02    0.641E-02
DAV:  13    -0.401874110795E+02   -0.58458E-05   -0.40083E-05  1392   0.346E-02    0.210E-02
DAV:  14    -0.401874124890E+02   -0.14095E-05   -0.19596E-06  1464   0.144E-02    0.393E-03
DAV:  15    -0.401874126750E+02   -0.18604E-06   -0.14334E-07  1032   0.317E-03    0.136E-03
DAV:  16    -0.401874126916E+02   -0.16635E-07   -0.19002E-08   720   0.139E-03
   1 F= -.40187413E+02 E0= -.40187413E+02  d E =-.401874E+02  mag=    -0.0000
       N       E                     dE             d eps       ncg     rms          rms(c)
DAV:   1    -0.402035209981E+02   -0.16108E-01   -0.32428E-01  1296   0.520E+00    0.109E+00
DAV:   2    -0.401884836934E+02    0.15037E-01   -0.47753E-02  1296   0.157E+00    0.643E-01
DAV:   3    -0.401881034803E+02    0.38021E-03   -0.33274E-03  1320   0.629E-01    0.250E-01
DAV:   4    -0.401878822585E+02    0.22122E-03   -0.30720E-04  1608   0.147E-01    0.164E-01
DAV:   5    -0.401877930042E+02    0.89254E-04   -0.69598E-05  1524   0.678E-02    0.558E-02
DAV:   6    -0.401877956827E+02   -0.26785E-05   -0.60788E-06  1788   0.268E-02    0.563E-03
DAV:   7    -0.401877958780E+02   -0.19530E-06   -0.78667E-07  1464   0.620E-03    0.255E-03
DAV:   8    -0.401877959302E+02   -0.52245E-07   -0.12631E-07  1212   0.434E-03
   2 F= -.40187796E+02 E0= -.40187796E+02  d E =-.383239E-03  mag=    -0.0000
       N       E                     dE             d eps       ncg     rms          rms(c)
DAV:   1    -0.401883856553E+02   -0.58978E-03   -0.11666E-02  1296   0.983E-01    0.207E-01
DAV:   2    -0.401878415660E+02    0.54409E-03   -0.17347E-03  1296   0.299E-01    0.121E-01
DAV:   3    -0.401878281769E+02    0.13389E-04   -0.12135E-04  1308   0.119E-01    0.471E-02
DAV:   4    -0.401878202605E+02    0.79165E-05   -0.10784E-05  1608   0.272E-02    0.308E-02
DAV:   5    -0.401878170278E+02    0.32327E-05   -0.24717E-06  1536   0.127E-02    0.105E-02
DAV:   6    -0.401878171308E+02   -0.10304E-06   -0.17638E-07  1140   0.498E-03    0.115E-03
DAV:   7    -0.401878171409E+02   -0.10074E-07   -0.72816E-08   648   0.203E-03
   3 F= -.40187817E+02 E0= -.40187817E+02  d E =-.404449E-03  mag=    -0.0000
       N       E                     dE             d eps       ncg     rms          rms(c)
DAV:   1    -0.401878188720E+02   -0.17412E-05   -0.37847E-05  1296   0.557E-02    0.117E-02
DAV:   2    -0.401878171052E+02    0.17669E-05   -0.57199E-06  1296   0.169E-02    0.668E-03
DAV:   3    -0.401878170626E+02    0.42597E-07   -0.39500E-07  1368   0.688E-03
   4 F= -.40187817E+02 E0= -.40187817E+02  d E =-.404371E-03  mag=     0.0000
       N       E                     dE             d eps       ncg     rms          rms(c)
DAV:   1    -0.401878173731E+02   -0.26791E-06   -0.69130E-06  1296   0.241E-02    0.511E-03
DAV:   2    -0.401878170973E+02    0.27578E-06   -0.97488E-07  1296   0.718E-03    0.287E-03
DAV:   3    -0.401878170959E+02    0.13461E-08   -0.60633E-08   648   0.271E-03
   5 F= -.40187817E+02 E0= -.40187817E+02  d E =-.404404E-03  mag=    -0.0000
       N       E                     dE             d eps       ncg     rms          rms(c)
DAV:   1    -0.401878172936E+02   -0.19633E-06   -0.31379E-06  1296   0.161E-02    0.348E-03
DAV:   2    -0.401878171346E+02    0.15906E-06   -0.48663E-07  1296   0.497E-03    0.206E-03
DAV:   3    -0.401878171289E+02    0.56789E-08   -0.33580E-08   648   0.204E-03
   6 F= -.40187817E+02 E0= -.40187817E+02  d E =-.404437E-03  mag=    -0.0000
       N       E                     dE             d eps       ncg     rms          rms(c)
DAV:   1    -0.401878468584E+02   -0.29724E-04   -0.53467E-03  1296   0.492E-01    0.457E-02
DAV:   2    -0.401878392050E+02    0.76534E-05   -0.14648E-04  1548   0.861E-02    0.279E-02
DAV:   3    -0.401878331925E+02    0.60126E-05   -0.45967E-06  1536   0.182E-02    0.150E-02
DAV:   4    -0.401878309382E+02    0.22542E-05   -0.28737E-06  1644   0.123E-02    0.477E-03
DAV:   5    -0.401878308716E+02    0.66645E-07   -0.48971E-07  1356   0.490E-03
   7 F= -.40187831E+02 E0= -.40187831E+02  d E =-.137427E-04  mag=     0.0000
