 vasp.5.4.4.18Apr17-6-g9f103f2a35 (build Apr 24 2018 11:19:41) complex          
  
 executed on         CrayXC-Intel date 2022.02.18  19:30:56
 running on  192 total cores
 distrk:  each k-point on  192 cores,    1 groups
 distr:  one band on NCORES_PER_BAND=  48 cores,    4 groups


--------------------------------------------------------------------------------------------------------


 INCAR:
 POTCAR:    PAW_PBE Mn_pv 02Aug2007               
 POTCAR:    PAW_PBE F 08Apr2002                   
 POTCAR:    PAW_PBE H 15Jun2001                   

 ----------------------------------------------------------------------------- 
|                                                                             |
|           W    W    AA    RRRRR   N    N  II  N    N   GGGG   !!!           |
|           W    W   A  A   R    R  NN   N  II  NN   N  G    G  !!!           |
|           W    W  A    A  R    R  N N  N  II  N N  N  G       !!!           |
|           W WW W  AAAAAA  RRRRR   N  N N  II  N  N N  G  GGG   !            |
|           WW  WW  A    A  R   R   N   NN  II  N   NN  G    G                |
|           W    W  A    A  R    R  N    N  II  N    N   GGGG   !!!           |
|                                                                             |
|      For optimal performance we recommend to set                            |
|        NCORE= 4 - approx SQRT( number of cores)                             |
|      NCORE specifies how many cores store one orbital (NPAR=cpu/NCORE).     |
|      This setting can  greatly improve the performance of VASP for DFT.     |
|      The default,   NCORE=1            might be grossly inefficient         |
|      on modern multi-core architectures or massively parallel machines.     |
|      Do your own testing !!!!                                               |
|      Unfortunately you need to use the default for GW and RPA calculations. |
|      (for HF NCORE is supported but not extensively tested yet)             |
|                                                                             |
 ----------------------------------------------------------------------------- 

 POTCAR:    PAW_PBE Mn_pv 02Aug2007               
   VRHFIN =Mn: 3p4s3d                                                           
   LEXCH  = PE                                                                  
   EATOM  =  2025.2664 eV,  148.8529 Ry                                         
                                                                                
   TITEL  = PAW_PBE Mn_pv 02Aug2007                                             
   LULTRA =        F    use ultrasoft PP ?                                      
   IUNSCR =        1    unscreen: 0-lin 1-nonlin 2-no                           
   RPACOR =    2.080    partial core radius                                     
   POMASS =   54.938; ZVAL   =   13.000    mass and valenz                      
   RCORE  =    2.300    outmost cutoff radius                                   
   RWIGS  =    2.500; RWIGS  =    1.323    wigner-seitz radius (au A)           
   ENMAX  =  269.864; ENMIN  =  202.398 eV                                      
   ICORE  =        3    local potential                                         
   LCOR   =        T    correct aug charges                                     
   LPAW   =        T    paw PP                                                  
   EAUG   =  569.085                                                            
   DEXC   =    0.000                                                            
   RMAX   =    2.343    core radius for proj-oper                               
   RAUG   =    1.300    factor for augmentation sphere                          
   RDEP   =    2.338    radius for radial grids                                 
   RDEPT  =    1.798    core radius for aug-charge                              
                                                                                
   Atomic configuration                                                         
    8 entries                                                                   
     n  l   j            E        occ.                                          
     1  0  0.50     -6424.8287   2.0000                                         
     2  0  0.50      -739.1154   2.0000                                         
     2  1  1.50      -625.3949   6.0000                                         
     3  0  0.50       -81.6100   2.0000                                         
     3  1  1.50       -50.4667   6.0000                                         
     3  2  2.50        -3.3745   6.0000                                         
     4  0  0.50        -4.1331   1.0000                                         
     4  3  2.50        -1.3606   0.0000                                         
   Description                                                                  
     l       E           TYP  RCUT    TYP  RCUT                                 
     1    -50.4666628     23  2.000                                             
     1     -1.3605826     23  2.000                                             
     2     -3.3744729     23  2.300                                             
     2     -4.7350555     23  2.300                                             
     0     -4.1331431     23  2.300                                             
     0      7.6656591     23  2.300                                             
     3      9.5240782     23  2.300                                             
  local pseudopotential read in
  partial core-charges read in
  partial kinetic energy density read in
  atomic valenz-charges read in
  non local Contribution for L=           1  read in
    real space projection operators read in
  non local Contribution for L=           1  read in
    real space projection operators read in
  non local Contribution for L=           2  read in
    real space projection operators read in
  non local Contribution for L=           2  read in
    real space projection operators read in
  non local Contribution for L=           0  read in
    real space projection operators read in
  non local Contribution for L=           0  read in
    real space projection operators read in
    PAW grid and wavefunctions read in
 
   number of l-projection  operators is LMAX  =           6
   number of lm-projection operators is LMMAX =          18
 
 POTCAR:    PAW_PBE F 08Apr2002                   
   VRHFIN =F: s2p5                                                              
   LEXCH  = PE                                                                  
   EATOM  =   659.6475 eV,   48.4827 Ry                                         
                                                                                
   TITEL  = PAW_PBE F 08Apr2002                                                 
   LULTRA =        F    use ultrasoft PP ?                                      
   IUNSCR =        1    unscreen: 0-lin 1-nonlin 2-no                           
   RPACOR =    1.200    partial core radius                                     
   POMASS =   18.998; ZVAL   =    7.000    mass and valenz                      
   RCORE  =    1.520    outmost cutoff radius                                   
   RWIGS  =    1.500; RWIGS  =    0.794    wigner-seitz radius (au A)           
   ENMAX  =  400.000; ENMIN  =  300.000 eV                                      
   ICORE  =        2    local potential                                         
   LCOR   =        T    correct aug charges                                     
   LPAW   =        T    paw PP                                                  
   EAUG   =  613.614                                                            
   RMAX   =    1.555    core radius for proj-oper                               
   RAUG   =    1.300    factor for augmentation sphere                          
   RDEP   =    1.539    radius for radial grids                                 
   RDEPT  =    1.299    core radius for aug-charge                              
                                                                                
   Atomic configuration                                                         
    4 entries                                                                   
     n  l   j            E        occ.                                          
     1  0  0.50      -663.3661   2.0000                                         
     2  0  0.50       -29.8995   2.0000                                         
     2  1  0.50       -11.1114   5.0000                                         
     3  2  1.50       -10.8847   0.0000                                         
   Description                                                                  
     l       E           TYP  RCUT    TYP  RCUT                                 
     0    -29.8995018     23  1.200                                             
     0     -9.5240782     23  1.200                                             
     1    -11.1113914     23  1.520                                             
     1      1.3605826     23  1.520                                             
     2    -10.8846608      7  1.500                                             
  local pseudopotential read in
  partial core-charges read in
  partial kinetic energy density read in
  atomic valenz-charges read in
  non local Contribution for L=           0  read in
    real space projection operators read in
  non local Contribution for L=           0  read in
    real space projection operators read in
  non local Contribution for L=           1  read in
    real space projection operators read in
  non local Contribution for L=           1  read in
    real space projection operators read in
    PAW grid and wavefunctions read in
 
   number of l-projection  operators is LMAX  =           4
   number of lm-projection operators is LMMAX =           8
 
 POTCAR:    PAW_PBE H 15Jun2001                   
   VRHFIN =H: ultrasoft test                                                    
   LEXCH  = PE                                                                  
   EATOM  =    12.4884 eV,    0.9179 Ry                                         
                                                                                
   TITEL  = PAW_PBE H 15Jun2001                                                 
   LULTRA =        F    use ultrasoft PP ?                                      
   IUNSCR =        0    unscreen: 0-lin 1-nonlin 2-no                           
   RPACOR =    0.000    partial core radius                                     
   POMASS =    1.000; ZVAL   =    1.000    mass and valenz                      
   RCORE  =    1.100    outmost cutoff radius                                   
   RWIGS  =    0.700; RWIGS  =    0.370    wigner-seitz radius (au A)           
   ENMAX  =  250.000; ENMIN  =  200.000 eV                                      
   RCLOC  =    0.701    cutoff for local pot                                    
   LCOR   =        T    correct aug charges                                     
   LPAW   =        T    paw PP                                                  
   EAUG   =  400.000                                                            
   RMAX   =    1.123    core radius for proj-oper                               
   RAUG   =    1.200    factor for augmentation sphere                          
   RDEP   =    1.112    radius for radial grids                                 
   RDEPT  =    0.926    core radius for aug-charge                              
                                                                                
   Atomic configuration                                                         
    2 entries                                                                   
     n  l   j            E        occ.                                          
     1  0  0.50        -6.4927   1.0000                                         
     2  1  0.50        -3.4015   0.0000                                         
   Description                                                                  
     l       E           TYP  RCUT    TYP  RCUT                                 
     0     -6.4927494     23  1.100                                             
     0      6.8029130     23  1.100                                             
     1     -4.0817478     23  1.100                                             
  local pseudopotential read in
  atomic valenz-charges read in
  non local Contribution for L=           0  read in
    real space projection operators read in
  non local Contribution for L=           0  read in
    real space projection operators read in
  non local Contribution for L=           1  read in
    real space projection operators read in
    PAW grid and wavefunctions read in
 
   number of l-projection  operators is LMAX  =           3
   number of lm-projection operators is LMMAX =           5
 

 ----------------------------------------------------------------------------- 
|                                                                             |
|  ADVICE TO THIS USER RUNNING 'VASP/VAMP'   (HEAR YOUR MASTER'S VOICE ...):  |
|                                                                             |
|      You have a (more or less) 'large supercell' and for larger cells       |
|      it might be more efficient to use real space projection opertators     |
|      So try LREAL= Auto  in the INCAR   file.                               |
|      Mind:          For very  accurate calculation you might also keep the  |
|      reciprocal projection scheme          (i.e. LREAL=.FALSE.)             |
|                                                                             |
 ----------------------------------------------------------------------------- 


 ----------------------------------------------------------------------------- 
|                                                                             |
|  ADVICE TO THIS USER RUNNING 'VASP/VAMP'   (HEAR YOUR MASTER'S VOICE ...):  |
|                                                                             |
|      You enforced a specific xc-type in the INCAR file,                     |
|      a different type was found on the POTCAR file                          |
|          I HOPE YOU KNOW, WHAT YOU ARE  DOING                               |
|                                                                             |
 ----------------------------------------------------------------------------- 

  PAW_PBE Mn_pv 02Aug2007               :
 energy of atom  1       EATOM=-2025.2664
 kinetic energy error for atom=    0.0020 (will be added to EATOM!!)
  PAW_PBE F 08Apr2002                   :
 energy of atom  2       EATOM= -659.6475
 kinetic energy error for atom=    0.0140 (will be added to EATOM!!)
  PAW_PBE H 15Jun2001                   :
 energy of atom  3       EATOM=  -12.4884
 kinetic energy error for atom=    0.0002 (will be added to EATOM!!)
 
 
 POSCAR: Mn  F  H                                
  positions in direct lattice
  velocities in cartesian coordinates
 exchange correlation table for  LEXCH =       14
   RHO(1)=    0.500       N(1)  =     2000
   RHO(2)=  100.500       N(2)  =     4000
 


--------------------------------------------------------------------------------------------------------


 ion  position               nearest neighbor table
   1  0.162  0.162  0.129- 217 2.01  74 2.10  73 2.10  75 2.13  79 2.14  76 2.17
   2  0.999  0.999  1.000- 203 2.09  75 2.10 116 2.12 181 2.13 169 2.14 104 2.14
   3  0.162  0.162  0.371- 217 2.01  78 2.10  77 2.10  82 2.13  79 2.14  83 2.17
   4  0.007  0.006  0.250- 217 1.98 108 2.12 104 2.12 169 2.13 173 2.13 207 2.15
   5  0.169  0.163  0.625-  81 2.10  87 2.13  80 2.13  86 2.14  82 2.14  83 2.15
   6  0.999  0.999  0.500- 211 2.09  82 2.10 112 2.11 177 2.13 173 2.14 108 2.14
   7  0.169  0.163  0.875-  85 2.10  87 2.13  84 2.13  86 2.14  75 2.14  76 2.15
   8  1.000  0.997  0.750-  86 2.11 215 2.11 112 2.13 116 2.13 177 2.14 181 2.14
   9  0.166  0.499  0.125-  89 2.10  88 2.10  91 2.12  90 2.13  94 2.13  95 2.14
  10  0.001  0.333  0.998-  90 2.10 171 2.11  84 2.13 197 2.13 185 2.14  73 2.14
  11  0.166  0.499  0.376-  93 2.10  92 2.10  99 2.12  98 2.13  94 2.13  95 2.14
  12  0.999  0.333  0.250- 175 2.10  94 2.10 189 2.13 185 2.13  73 2.14  77 2.14
  13  0.171  0.503  0.627-  96 2.11  97 2.11  99 2.12 103 2.13 102 2.14  98 2.17
  14  0.001  0.333  0.502-  98 2.10 179 2.11  80 2.13 193 2.13 189 2.14  77 2.14
  15  0.171  0.503  0.873- 100 2.11 101 2.11  91 2.12 103 2.13 102 2.14  90 2.17
  16  0.001  0.334  0.750- 183 2.12 102 2.12 193 2.14 197 2.14  84 2.14  80 2.14
  17  0.168  0.833  0.125- 105 2.10 104 2.11 111 2.13 107 2.13 106 2.13 110 2.13
  18  0.999  0.666  1.000- 106 2.11 187 2.11 213 2.13 100 2.13 201 2.13  88 2.14
  19  0.168  0.833  0.375- 109 2.10 108 2.11 115 2.13 111 2.13 114 2.13 110 2.13
  20  0.002  0.666  0.250- 110 2.10 191 2.11 205 2.12 201 2.12  88 2.13  92 2.13
  21  0.167  0.832  0.625- 113 2.10 112 2.11 119 2.11 118 2.13 115 2.14 114 2.14
  22  0.999  0.666  0.500- 114 2.11 195 2.11 209 2.13  96 2.13 205 2.13  92 2.14
  23  0.167  0.832  0.875- 117 2.10 116 2.11 119 2.11 118 2.13 107 2.14 106 2.14
  24  1.000  0.665  0.750- 118 2.10 199 2.10 209 2.13 213 2.13  96 2.13 100 2.13
  25  0.501  0.167  0.125- 122 2.10 121 2.11 120 2.11 127 2.13 123 2.13 126 2.14
  26  0.332  0.003  0.001- 164 2.07 122 2.11 107 2.12  85 2.12  74 2.13 152 2.15
  27  0.501  0.167  0.375- 130 2.10 125 2.11 124 2.11 127 2.13 131 2.13 126 2.14
  28  0.335  0.999  0.250- 126 2.11 111 2.11 156 2.11 152 2.11  78 2.13  74 2.13
  29  0.497  0.163  0.625- 129 2.10 128 2.11 134 2.12 130 2.13 135 2.14 131 2.16
  30  0.332  0.003  0.499- 160 2.07 130 2.11 115 2.12  81 2.12  78 2.13 156 2.15
  31  0.497  0.163  0.875- 133 2.10 132 2.11 134 2.12 122 2.13 135 2.14 123 2.16
  32  0.341  0.983  0.750- 119 2.12 160 2.15 164 2.15 134 2.16  85 2.24  81 2.24 166 2.33
  33  0.500  0.499  0.125- 136 2.10 137 2.11 139 2.13 143 2.14 142 2.14 138 2.14
  34  0.332  0.331  0.000-  76 2.12 138 2.12 132 2.13 120 2.13 101 2.13  89 2.13
  35  0.500  0.499  0.375- 140 2.10 141 2.11 147 2.13 143 2.14 142 2.14 146 2.14
  36  0.332  0.333  0.250- 142 2.11  79 2.11 120 2.12 124 2.12  93 2.13  89 2.13
  37  0.499  0.498  0.625- 144 2.10 145 2.11 151 2.12 150 2.14 146 2.14 147 2.14
  38  0.332  0.331  0.500-  83 2.12 146 2.12 128 2.13 124 2.13  97 2.13  93 2.13
  39  0.499  0.498  0.875- 148 2.10 149 2.11 151 2.12 150 2.14 138 2.14 139 2.14
  40  0.332  0.332  0.750- 150 2.09  87 2.10 132 2.13 128 2.13 101 2.13  97 2.13
  41  0.500  0.833  0.123- 155 2.10 153 2.11 152 2.11 154 2.14 159 2.15 158 2.15
  42  0.334  0.665  1.000-  91 2.09 154 2.10 148 2.12 117 2.12 136 2.14 105 2.14
  43  0.500  0.833  0.377- 163 2.10 157 2.11 156 2.11 162 2.14 159 2.15 158 2.15
  44  0.334  0.666  0.250- 158 2.11  95 2.12 140 2.13 136 2.13 105 2.13 109 2.13
  45  0.496  0.829  0.631- 167 2.13 162 2.13 160 2.14 161 2.14 163 2.24 216 2.28 166 2.29  47 3.15

  46  0.334  0.665  0.500-  99 2.09 162 2.10 144 2.12 113 2.12 140 2.14 109 2.14
  47  0.496  0.829  0.869- 167 2.13 154 2.13 164 2.14 165 2.14 155 2.24 166 2.28 216 2.29  45 3.15

  48  0.348  0.680  0.750- 113 2.16 148 2.16 117 2.16 144 2.16 216 2.25 166 2.25 103 2.28
  49  0.833  0.166  0.125- 168 2.10 169 2.11 170 2.12 174 2.13 171 2.14 175 2.14
  50  0.666  0.998  1.000- 155 2.09 170 2.13 212 2.13 133 2.13 121 2.14 200 2.14
  51  0.833  0.166  0.376- 172 2.10 173 2.11 178 2.12 174 2.13 179 2.14 175 2.14
  52  0.666  0.999  0.250- 159 2.10 174 2.11 200 2.13 204 2.13 125 2.13 121 2.13
  53  0.834  0.166  0.625- 177 2.10 176 2.10 182 2.13 179 2.14 183 2.14 178 2.14
  54  0.666  0.998  0.500- 163 2.09 178 2.13 208 2.13 129 2.13 125 2.14 204 2.14
  55  0.834  0.166  0.875- 181 2.10 180 2.10 182 2.13 171 2.14 183 2.14 170 2.14
  56  0.666  0.999  0.750- 167 2.09 182 2.11 212 2.13 208 2.13 129 2.13 133 2.13
  57  0.834  0.499  0.125- 184 2.10 185 2.10 187 2.13 190 2.13 186 2.13 191 2.14
  58  0.667  0.332  1.000- 123 2.10 186 2.11 149 2.11 180 2.13 168 2.13 137 2.14
  59  0.834  0.499  0.375- 188 2.10 189 2.10 195 2.13 190 2.13 194 2.13 191 2.14
  60  0.668  0.333  0.250- 190 2.10 127 2.10 137 2.13 141 2.13 172 2.13 168 2.13
  61  0.830  0.501  0.626- 192 2.10 198 2.13 199 2.13 193 2.14 194 2.14 195 2.14
  62  0.667  0.332  0.500- 131 2.10 194 2.11 145 2.12 176 2.13 172 2.13 141 2.14
  63  0.830  0.501  0.874- 196 2.10 198 2.13 199 2.13 197 2.14 186 2.14 187 2.14
  64  0.664  0.332  0.750- 135 2.11 198 2.11 149 2.13 145 2.13 180 2.14 176 2.14
  65  0.837  0.835  0.126- 200 2.11 201 2.11 202 2.12 203 2.12 206 2.13 207 2.14
  66  0.670  0.665  0.001- 165 2.07 202 2.12 196 2.12 184 2.13 139 2.13 153 2.15
  67  0.837  0.835  0.374- 204 2.11 205 2.11 210 2.12 211 2.12 206 2.13 207 2.14
  68  0.667  0.668  0.250- 153 2.11 157 2.11 143 2.12 206 2.12 184 2.13 188 2.13
  69  0.830  0.830  0.625- 208 2.10 209 2.11 214 2.12 210 2.13 215 2.15 211 2.16
  70  0.670  0.665  0.499- 161 2.07 210 2.12 192 2.12 188 2.13 147 2.13 157 2.15
  71  0.830  0.830  0.875- 212 2.10 213 2.11 214 2.12 202 2.13 215 2.15 203 2.16
  72  0.650  0.674  0.750- 151 2.12 165 2.15 161 2.15 214 2.16 192 2.24 196 2.24 216 2.32
  73  0.064  0.267  0.125-   1 2.10  12 2.14  10 2.14
  74  0.265  0.064  0.128-   1 2.10  26 2.13  28 2.13
  75  0.102  0.100  0.000-   2 2.10   1 2.13   7 2.14
  76  0.231  0.228  0.004-  34 2.12   7 2.15   1 2.17
  77  0.064  0.267  0.375-   3 2.10  12 2.14  14 2.14
  78  0.265  0.064  0.372-   3 2.10  30 2.13  28 2.13
  79  0.230  0.231  0.250-  36 2.11   3 2.14   1 2.14
  80  0.066  0.267  0.626-  14 2.13   5 2.13  16 2.14
  81  0.269  0.061  0.629-   5 2.10  30 2.12  32 2.24
  82  0.102  0.100  0.500-   6 2.10   3 2.13   5 2.14
  83  0.231  0.228  0.496-  38 2.12   5 2.15   3 2.17
  84  0.066  0.267  0.874-  10 2.13   7 2.13  16 2.14
  85  0.269  0.061  0.872-   7 2.10  26 2.12  32 2.24
  86  0.100  0.100  0.750-   8 2.11   5 2.14   7 2.14
  87  0.231  0.231  0.750-  40 2.10   7 2.13   5 2.13
  88  0.064  0.600  0.124-   9 2.10  20 2.13  18 2.14
  89  0.267  0.397  0.125-   9 2.10  36 2.13  34 2.13
  90  0.103  0.435  0.997-  10 2.10   9 2.13  15 2.17
  91  0.232  0.565  0.002-  42 2.09   9 2.12  15 2.12
  92  0.064  0.600  0.376-  11 2.10  20 2.13  22 2.14
  93  0.267  0.397  0.375-  11 2.10  36 2.13  38 2.13
  94  0.101  0.434  0.250-  12 2.10  11 2.13   9 2.13
  95  0.231  0.564  0.250-  44 2.12   9 2.14  11 2.14
  96  0.066  0.602  0.625-  13 2.11  22 2.13  24 2.13
  97  0.268  0.397  0.624-  13 2.11  38 2.13  40 2.13
  98  0.103  0.435  0.503-  14 2.10  11 2.13  13 2.17
  99  0.232  0.565  0.498-  46 2.09  11 2.12  13 2.12
 100  0.066  0.602  0.876-  15 2.11  18 2.13  24 2.13
 101  0.268  0.397  0.876-  15 2.11  34 2.13  40 2.13
 102  0.104  0.437  0.750-  16 2.12  13 2.14  15 2.14
 103  0.238  0.570  0.750-  13 2.13  15 2.13  48 2.28
 104  0.067  0.936  0.126-  17 2.11   4 2.12   2 2.14
 105  0.269  0.731  0.125-  17 2.10  44 2.13  42 2.14
 106  0.102  0.768  0.001-  18 2.11  17 2.13  23 2.14
 107  0.232  0.898  0.999-  26 2.12  17 2.13  23 2.14
 108  0.067  0.936  0.374-  19 2.11   4 2.12   6 2.14
 109  0.269  0.731  0.375-  19 2.10  44 2.13  46 2.14
 110  0.104  0.767  0.250-  20 2.10  19 2.13  17 2.13
 111  0.232  0.898  0.250-  28 2.11  17 2.13  19 2.13
 112  0.063  0.932  0.624-  21 2.11   6 2.11   8 2.13
 113  0.268  0.730  0.624-  21 2.10  46 2.12  48 2.16
 114  0.102  0.767  0.499-  22 2.11  19 2.13  21 2.14
 115  0.232  0.898  0.501-  30 2.12  19 2.13  21 2.14
 116  0.063  0.932  0.876-  23 2.11   2 2.12   8 2.13
 117  0.268  0.730  0.876-  23 2.10  42 2.12  48 2.16
 118  0.101  0.766  0.750-  24 2.10  21 2.13  23 2.13
 119  0.219  0.906  0.750-  21 2.11  23 2.11  32 2.12
 120  0.399  0.269  0.126-  25 2.11  36 2.12  34 2.13
 121  0.602  0.065  0.125-  25 2.11  52 2.13  50 2.14
 122  0.431  0.107  0.004-  25 2.10  26 2.11  31 2.13
 123  0.565  0.230  0.999-  58 2.10  25 2.13  31 2.16
 124  0.399  0.269  0.374-  27 2.11  36 2.12  38 2.13
 125  0.602  0.065  0.375-  27 2.11  52 2.13  54 2.14
 126  0.435  0.102  0.250-  28 2.11  27 2.14  25 2.14
 127  0.567  0.232  0.250-  60 2.10  25 2.13  27 2.13
 128  0.397  0.266  0.625-  29 2.11  38 2.13  40 2.13
 129  0.603  0.066  0.625-  29 2.10  54 2.13  56 2.13
 130  0.431  0.106  0.496-  27 2.10  30 2.11  29 2.13
 131  0.565  0.230  0.501-  62 2.10  27 2.13  29 2.16
 132  0.397  0.266  0.875-  31 2.11  34 2.13  40 2.13
 133  0.603  0.066  0.875-  31 2.10  50 2.13  56 2.13
 134  0.434  0.097  0.750-  29 2.12  31 2.12  32 2.16
 135  0.563  0.230  0.750-  64 2.11  29 2.14  31 2.14
 136  0.399  0.601  0.125-  33 2.10  44 2.13  42 2.14
 137  0.602  0.397  0.125-  33 2.11  60 2.13  58 2.14
 138  0.434  0.433  0.001-  34 2.12  33 2.14  39 2.14
 139  0.565  0.564  1.000-  66 2.13  33 2.13  39 2.14
 140  0.399  0.600  0.375-  35 2.10  44 2.13  46 2.14
 141  0.602  0.397  0.375-  35 2.11  60 2.13  62 2.14
 142  0.435  0.435  0.250-  36 2.11  33 2.14  35 2.14
 143  0.566  0.564  0.250-  68 2.12  33 2.14  35 2.14
 144  0.398  0.600  0.624-  37 2.10  46 2.12  48 2.16
 145  0.600  0.395  0.624-  37 2.11  62 2.12  64 2.13
 146  0.434  0.433  0.499-  38 2.12  35 2.14  37 2.14
 147  0.565  0.564  0.500-  70 2.13  35 2.13  37 2.14
 148  0.398  0.600  0.876-  39 2.10  42 2.12  48 2.16
 149  0.600  0.395  0.876-  39 2.11  58 2.11  64 2.13
 150  0.434  0.433  0.750-  40 2.09  39 2.14  37 2.14
 151  0.573  0.552  0.750-  39 2.12  37 2.12  72 2.12
 152  0.398  0.935  0.125-  28 2.11  41 2.11  26 2.15
 153  0.602  0.731  0.126-  41 2.11  68 2.11  66 2.15
 154  0.434  0.767  0.998-  42 2.10  47 2.13  41 2.14
 155  0.565  0.898  0.000-  50 2.09  41 2.10  47 2.24
 156  0.398  0.934  0.375-  28 2.11  43 2.11  30 2.15
 157  0.602  0.731  0.374-  43 2.11  68 2.11  70 2.15
 158  0.435  0.768  0.250-  44 2.11  43 2.15  41 2.15
 159  0.565  0.898  0.250-  52 2.10  41 2.15  43 2.15
 160  0.411  0.946  0.613-  30 2.07  45 2.14  32 2.15
 161  0.614  0.744  0.612-  70 2.07  45 2.14  72 2.15
 162  0.435  0.767  0.502-  46 2.10  45 2.13  43 2.14
 163  0.565  0.898  0.500-  54 2.09  43 2.10  45 2.24
 164  0.411  0.946  0.888-  26 2.07  47 2.14  32 2.15
 165  0.613  0.744  0.887-  66 2.07  47 2.14  72 2.15
 166  0.383  0.830  0.750-  48 2.25  47 2.28  45 2.29  32 2.33
 167  0.565  0.898  0.750-  56 2.09  47 2.13  45 2.13
 168  0.732  0.267  0.125-  49 2.10  58 2.13  60 2.13
 169  0.938  0.067  0.126-  49 2.11   4 2.13   2 2.14
 170  0.769  0.100  0.000-  49 2.12  50 2.13  55 2.14
 171  0.899  0.232  1.000-  10 2.11  49 2.14  55 2.14
 172  0.732  0.267  0.375-  51 2.10  62 2.13  60 2.13
 173  0.938  0.067  0.374-  51 2.11   4 2.13   6 2.14
 174  0.769  0.101  0.250-  52 2.11  49 2.13  51 2.13
 175  0.898  0.231  0.250-  12 2.10  49 2.14  51 2.14
 176  0.732  0.267  0.626-  53 2.10  62 2.13  64 2.14
 177  0.935  0.065  0.626-  53 2.10   6 2.13   8 2.14
 178  0.769  0.100  0.500-  51 2.12  54 2.13  53 2.14
 179  0.899  0.232  0.500-  14 2.11  51 2.14  53 2.14
 180  0.732  0.267  0.874-  55 2.10  58 2.13  64 2.14
 181  0.935  0.064  0.874-  55 2.10   2 2.13   8 2.14
 182  0.769  0.101  0.750-  56 2.11  55 2.13  53 2.13
 183  0.899  0.232  0.750-  16 2.12  55 2.14  53 2.14
 184  0.732  0.600  0.127-  57 2.10  66 2.13  68 2.13
 185  0.936  0.398  0.124-  57 2.10  12 2.13  10 2.14
 186  0.768  0.434  0.000-  58 2.11  57 2.13  63 2.14
 187  0.897  0.566  0.999-  18 2.11  57 2.13  63 2.14
 188  0.732  0.600  0.373-  59 2.10  70 2.13  68 2.13
 189  0.936  0.398  0.376-  59 2.10  12 2.13  14 2.14
 190  0.771  0.433  0.250-  60 2.10  59 2.13  57 2.13
 191  0.900  0.564  0.250-  20 2.11  57 2.14  59 2.14
 192  0.728  0.602  0.628-  61 2.10  70 2.12  72 2.24
 193  0.934  0.399  0.625-  14 2.13  61 2.14  16 2.14
 194  0.768  0.434  0.500-  62 2.11  59 2.13  61 2.14
 195  0.897  0.566  0.501-  22 2.11  59 2.13  61 2.14
 196  0.728  0.602  0.872-  63 2.10  66 2.12  72 2.24
 197  0.934  0.399  0.875-  10 2.13  63 2.14  16 2.14
 198  0.767  0.432  0.750-  64 2.11  63 2.13  61 2.13
 199  0.899  0.564  0.750-  24 2.10  61 2.13  63 2.13
 200  0.733  0.935  0.125-  65 2.11  52 2.13  50 2.14
 201  0.938  0.733  0.126-  65 2.11  20 2.12  18 2.13
 202  0.774  0.765  0.005-  66 2.12  65 2.12  71 2.13
 203  0.898  0.899  0.999-   2 2.09  65 2.12  71 2.16
 204  0.733  0.935  0.375-  67 2.11  52 2.13  54 2.14
 205  0.938  0.733  0.374-  67 2.11  20 2.12  22 2.13
 206  0.771  0.769  0.250-  68 2.12  65 2.13  67 2.13
 207  0.903  0.903  0.250-  67 2.14  65 2.14   4 2.15
 208  0.733  0.935  0.625-  69 2.10  54 2.13  56 2.13
 209  0.935  0.731  0.625-  69 2.11  22 2.13  24 2.13
 210  0.775  0.765  0.495-  70 2.12  67 2.12  69 2.13
 211  0.898  0.899  0.501-   6 2.09  67 2.12  69 2.16
 212  0.733  0.935  0.875-  71 2.10  50 2.13  56 2.13
 213  0.935  0.731  0.875-  71 2.11  18 2.13  24 2.13
 214  0.765  0.766  0.750-  71 2.12  69 2.12  72 2.16
 215  0.897  0.896  0.750-   8 2.11  71 2.15  69 2.15
 216  0.497  0.716  0.750-  48 2.25  45 2.28  47 2.29  72 2.32
 217  0.102  0.103  0.250-   4 1.98   1 2.01   3 2.01
 

IMPORTANT INFORMATION: All symmetrisations will be switched off!
NOSYMM: (Re-)initialisation of all symmetry stuff for point group C_1.

 
 
 KPOINTS: KPOINTS created by Atomic Simulation Env

Automatic generation of k-mesh.
Space group operators:
 irot       det(A)        alpha          n_x          n_y          n_z        tau_x        tau_y        tau_z
    1     1.000000     0.000000     1.000000     0.000000     0.000000     0.000000     0.000000     0.000000
 
 Subroutine IBZKPT returns following result:
 ===========================================
 
 Found      4 irreducible k-points:
 
 Following reciprocal coordinates:
            Coordinates               Weight
  0.250000  0.250000  0.250000      2.000000
 -0.250000  0.250000  0.250000      2.000000
  0.250000 -0.250000  0.250000      2.000000
 -0.250000 -0.250000  0.250000      2.000000
 
 Following cartesian coordinates:
            Coordinates               Weight
  0.017066  0.017066  0.018935      2.000000
 -0.017066  0.017066  0.018935      2.000000
  0.017066 -0.017066  0.018935      2.000000
 -0.017066 -0.017066  0.018935      2.000000
 


--------------------------------------------------------------------------------------------------------




 Dimension of arrays:
   k-points           NKPTS =      4   k-points in BZ     NKDIM =      4   number of bands    NBANDS=   1168
   number of dos      NEDOS =    301   number of ions     NIONS =    217
   non local maximal  LDIM  =      6   non local SUM 2l+1 LMDIM =     18
   total plane-waves  NPLWV = 829440
   max r-space proj   IRMAX =      1   max aug-charges    IRDMAX=  71248
   dimension x,y,z NGX =    96 NGY =   96 NGZ =   90
   dimension x,y,z NGXF=   192 NGYF=  192 NGZF=  180
   support grid    NGXF=   384 NGYF=  384 NGZF=  360
   ions per type =              72 144   1
   NGX,Y,Z   is equivalent  to a cutoff of  10.89, 10.89, 11.33 a.u.
   NGXF,Y,Z  is equivalent  to a cutoff of  21.79, 21.79, 22.66 a.u.

 SYSTEM =  unknown system                          
 POSCAR =  Mn  F  H                                

 Startparameter for this run:
   NWRITE =      2    write-flag & timer
   PREC   = normal    normal or accurate (medium, high low for compatibility)
   ISTART =      0    job   : 0-new  1-cont  2-samecut
   ICHARG =      2    charge: 1-file 2-atom 10-const
   ISPIN  =      2    spin polarized calculation?
   LNONCOLLINEAR =      F non collinear calculations
   LSORBIT =      F    spin-orbit coupling
   INIWAV =      1    electr: 0-lowe 1-rand  2-diag
   LASPH  =      T    aspherical Exc in radial PAW
   METAGGA=      F    non-selfconsistent MetaGGA calc.

 Electronic Relaxation 1
   ENCUT  =  700.0 eV  51.45 Ry    7.17 a.u.  31.60 31.60 28.48*2*pi/ulx,y,z
   ENINI  =  700.0     initial cutoff
   ENAUG  =  613.6 eV  augmentation charge cutoff
   NELM   =     60;   NELMIN=  2; NELMDL= -5     # of ELM steps 
   EDIFF  = 0.1E-06   stopping-criterion for ELM
   LREAL  =      F    real-space projection
   NLSPLINE    = F    spline interpolate recip. space projectors
   LCOMPAT=      F    compatible to vasp.4.4
   GGA_COMPAT  = T    GGA compatible to vasp.4.4-vasp.4.6
   LMAXPAW     = -100 max onsite density
   LMAXMIX     =    4 max onsite mixed and CHGCAR
   VOSKOWN=      0    Vosko Wilk Nusair interpolation
   ROPT   =    0.00000   0.00000   0.00000
 Ionic relaxation
   EDIFFG = -.5E-02   stopping-criterion for IOM
   NSW    =     50    number of steps for IOM
   NBLOCK =      1;   KBLOCK =     50    inner block; outer block 
   IBRION =      1    ionic relax: 0-MD 1-quasi-New 2-CG
   NFREE  =      0    steps in history (QN), initial steepest desc. (CG)
   ISIF   =      2    stress and relaxation
   IWAVPR =     11    prediction:  0-non 1-charg 2-wave 3-comb
   ISYM   =      0    0-nonsym 1-usesym 2-fastsym
   LCORR  =      T    Harris-Foulkes like correction to forces

   POTIM  = 0.5500    time-step for ionic-motion
   TEIN   =    0.0    initial temperature
   TEBEG  =    0.0;   TEEND  =   0.0 temperature during run
   SMASS  =  -3.00    Nose mass-parameter (am)
   estimated Nose-frequenzy (Omega)   =  0.10E-29 period in steps =****** mass=  -0.490E-26a.u.
   SCALEE = 1.0000    scale energy and forces
   NPACO  =    256;   APACO  = 16.0  distance and # of slots for P.C.
   PSTRESS=    0.0 pullay stress

  Mass of Ions in am
   POMASS =  54.94 19.00  1.00
  Ionic Valenz
   ZVAL   =  13.00  7.00  1.00
  Atomic Wigner-Seitz radii
   RWIGS  =  -1.00 -1.00 -1.00
  virtual crystal weights 
   VCA    =   1.00  1.00  1.00
   NELECT =    1946.0000    total number of electrons
   NUPDOWN=      -1.0000    fix difference up-down

 DOS related values:
   EMIN   =  10.00;   EMAX   =-10.00  energy-range for DOS
   EFERMI =   0.00
   ISMEAR =     0;   SIGMA  =   0.01  broadening in eV -4-tet -1-fermi 0-gaus

 Electronic relaxation 2 (details)
   IALGO  =     68    algorithm
   LDIAG  =      T    sub-space diagonalisation (order eigenvalues)
   LSUBROT=      F    optimize rotation matrix (better conditioning)
   TURBO    =      0    0=normal 1=particle mesh
   IRESTART =      0    0=no restart 2=restart with 2 vectors
   NREBOOT  =      0    no. of reboots
   NMIN     =      0    reboot dimension
   EREF     =   0.00    reference energy to select bands
   IMIX   =      4    mixing-type and parameters
     AMIX     =   0.40;   BMIX     =  1.00
     AMIX_MAG =   1.60;   BMIX_MAG =  1.00
     AMIN     =   0.10
     WC   =   100.;   INIMIX=   1;  MIXPRE=   1;  MAXMIX= -45

 Intra band minimization:
   WEIMIN = 0.0010     energy-eigenvalue tresh-hold
   EBREAK =  0.21E-10  absolut break condition
   DEPER  =   0.30     relativ break condition  

   TIME   =   0.40     timestep for ELM

  volume/ion in A,a.u.               =      13.06        88.12
  Fermi-wavevector in a.u.,A,eV,Ry     =   1.444383  2.729488 28.385037  2.086241
  Thomas-Fermi vector in A             =   2.562684
 
 Write flags
   LWAVE        =      T    write WAVECAR
   LDOWNSAMPLE  =      F    k-point downsampling of WAVECAR
   LCHARG       =      T    write CHGCAR
   LVTOT        =      F    write LOCPOT, total local potential
   LVHAR        =      F    write LOCPOT, Hartree potential only
   LELF         =      F    write electronic localiz. function (ELF)
   LORBIT       =     11    0 simple, 1 ext, 2 COOP (PROOUT), +10 PAW based schemes


 Dipole corrections
   LMONO  =      F    monopole corrections only (constant potential shift)
   LDIPOL =      F    correct potential (dipole corrections)
   IDIPOL =      0    1-x, 2-y, 3-z, 4-all directions 
   EPSILON=  1.0000000 bulk dielectric constant

 LDA+U is selected, type is set to LDAUTYPE =  2
   angular momentum for each species LDAUL =     2   -1   -1
   U (eV)           for each species LDAUU =   4.0  0.0  0.0
   J (eV)           for each species LDAUJ =   0.0  0.0  0.0
 Exchange correlation treatment:
   GGA     =    PS    GGA type
   LEXCH   =    14    internal setting for exchange type
   VOSKOWN=      0    Vosko Wilk Nusair interpolation
   LHFCALC =     F    Hartree Fock is set to
   LHFONE  =     F    Hartree Fock one center treatment
   AEXX    =    0.0000 exact exchange contribution

 Linear response parameters
   LEPSILON=     F    determine dielectric tensor
   LRPA    =     F    only Hartree local field effects (RPA)
   LNABLA  =     F    use nabla operator in PAW spheres
   LVEL    =     F    velocity operator in full k-point grid
   LINTERFAST=   F  fast interpolation
   KINTER  =     0    interpolate to denser k-point grid
   CSHIFT  =0.1000    complex shift for real part using Kramers Kronig
   OMEGAMAX=  -1.0    maximum frequency
   DEG_THRESHOLD= 0.2000000E-02 threshold for treating states as degnerate
   RTIME   =   -0.100 relaxation time in fs
  (WPLASMAI=    0.000 imaginary part of plasma frequency in eV, 0.658/RTIME)
   DFIELD  = 0.0000000 0.0000000 0.0000000 field for delta impulse in time
 
 Orbital magnetization related:
   ORBITALMAG=     F  switch on orbital magnetization
   LCHIMAG   =     F  perturbation theory with respect to B field
   DQ        =  0.001000  dq finite difference perturbation B field
   LLRAUG    =     F  two centre corrections for induced B field



--------------------------------------------------------------------------------------------------------


 quasi-Newton-method for relaxation of ions
 charge density and potential will be updated during run
 spin polarized calculation
 RMM-DIIS sequential band-by-band and
  variant of blocked Davidson during initial phase
 perform sub-space diagonalisation
    before iterative eigenvector-optimisation
 modified Broyden-mixing scheme, WC =      100.0
 initial mixing is a Kerker type mixing with AMIX =  0.4000 and BMIX =      1.0000
 Hartree-type preconditioning will be used
 using additional bands          195
 reciprocal scheme for non local part
 use partial core corrections
 calculate Harris-corrections to forces 
   (improved forces if not selfconsistent)
 use gradient corrections 
 use of overlap-Matrix (Vanderbilt PP)
 Gauss-broadening in eV      SIGMA  =   0.01


--------------------------------------------------------------------------------------------------------


  energy-cutoff  :      700.00
  volume of cell :     2833.48
      direct lattice vectors                 reciprocal lattice vectors
    14.649432430  0.000000000  0.000000000     0.068262030  0.000000000  0.000000000
     0.000000000 14.649432430  0.000000000     0.000000000  0.068262030  0.000000000
     0.000000000  0.000000000 13.203190708     0.000000000  0.000000000  0.075739268

  length of vectors
    14.649432430 14.649432430 13.203190708     0.068262030  0.068262030  0.075739268


 
 k-points in units of 2pi/SCALE and weight: KPOINTS created by Atomic Simulation Env
   0.01706551  0.01706551  0.01893482       0.250
  -0.01706551  0.01706551  0.01893482       0.250
   0.01706551 -0.01706551  0.01893482       0.250
  -0.01706551 -0.01706551  0.01893482       0.250
 
 k-points in reciprocal lattice and weights: KPOINTS created by Atomic Simulation Env
   0.25000000  0.25000000  0.25000000       0.250
  -0.25000000  0.25000000  0.25000000       0.250
   0.25000000 -0.25000000  0.25000000       0.250
  -0.25000000 -0.25000000  0.25000000       0.250
 
 position of ions in fractional coordinates (direct lattice) 
   0.16160233  0.16229087  0.12929053
   0.99934996  0.99881161  0.99957034
   0.16162613  0.16228471  0.37078509
   0.00742076  0.00612766  0.25001814
   0.16852708  0.16323171  0.62530717
   0.99933767  0.99881596  0.50047036
   0.16851532  0.16325496  0.87476147
   0.99998096  0.99695254  0.75001879
   0.16593105  0.49854936  0.12452409
   0.00109664  0.33330856  0.99807472
   0.16592031  0.49855699  0.37552172
   0.99912879  0.33290394  0.25002427
   0.17100949  0.50340952  0.62709553
   0.00112199  0.33328761  0.50197484
   0.17100295  0.50340557  0.87295079
   0.00139512  0.33421233  0.75002532
   0.16770765  0.83296230  0.12469096
   0.99939023  0.66645546  0.99970428
   0.16768242  0.83294198  0.37533206
   0.00151347  0.66581510  0.25000507
   0.16666874  0.83189311  0.62542397
   0.99937792  0.66646004  0.50031963
   0.16666661  0.83186301  0.87459890
   0.99991649  0.66527686  0.75001133
   0.50106845  0.16747195  0.12542667
   0.33152285  0.00270666  0.00117631
   0.50104381  0.16743710  0.37466990
   0.33487119  0.99886157  0.25005242
   0.49741695  0.16312424  0.62535507
   0.33154230  0.00264692  0.49894251
   0.49737921  0.16307394  0.87472993
   0.34141850  0.98291856  0.75008663
   0.50041775  0.49915009  0.12471644
   0.33210573  0.33054868  0.00044638
   0.50043991  0.49917480  0.37535097
   0.33244468  0.33296234  0.25004289
   0.49942878  0.49832918  0.62505328
   0.33210054  0.33055943  0.49962496
   0.49946226  0.49833519  0.87501423
   0.33249189  0.33217368  0.75003594
   0.50022390  0.83293269  0.12316695
   0.33350234  0.66540799  0.99996023
   0.50023966  0.83291848  0.37687721
   0.33380437  0.66588155  0.25001922
   0.49609762  0.82888184  0.63073998
   0.33351181  0.66539907  0.50007695
   0.49599385  0.82897173  0.86929971
   0.34790632  0.67992582  0.75001780
   0.83340292  0.16555846  0.12453624
   0.66561829  0.99795432  0.99971554
   0.83340034  0.16556073  0.37551498
   0.66641534  0.99911154  0.25002315
   0.83376773  0.16592734  0.62541049
   0.66561086  0.99796269  0.50033275
   0.83376716  0.16592305  0.87464036
   0.66635929  0.99906239  0.75002428
   0.83425162  0.49923571  0.12460631
   0.66677392  0.33158600  0.99969692
   0.83425652  0.49921070  0.37541402
   0.66784095  0.33325207  0.25003194
   0.83003657  0.50092114  0.62625571
   0.66676964  0.33159581  0.50036344
   0.83001346  0.50093829  0.87377212
   0.66439189  0.33180143  0.75003173
   0.83660867  0.83530612  0.12645708
   0.66992541  0.66505073  0.00117961
   0.83664537  0.83533415  0.37354322
   0.66698126  0.66752662  0.24999074
   0.83032398  0.83003710  0.62527822
   0.66998683  0.66503222  0.49878677
   0.83037784  0.83007858  0.87473293
   0.64987051  0.67396768  0.74995129
   0.06372642  0.26684330  0.12496010
   0.26510457  0.06358207  0.12774566
   0.10152341  0.09952863  0.00014277
   0.23055829  0.22790336  0.00365888
   0.06374034  0.26683587  0.37508397
   0.26515216  0.06359857  0.37237466
   0.23008235  0.23137042  0.25003259
   0.06633738  0.26692491  0.62559163
   0.26914930  0.06122830  0.62856977
   0.10153098  0.09951826  0.49991644
   0.23055420  0.22791119  0.49642525
   0.06633374  0.26694249  0.87447117
   0.26910941  0.06122962  0.87152059
   0.10008456  0.10039898  0.75003465
   0.23056547  0.23144725  0.75003096
   0.06420491  0.59974961  0.12427603
   0.26719196  0.39709677  0.12489910
   0.10268881  0.43487753  0.99748241
   0.23210951  0.56459683  0.00186001
   0.06418431  0.59974350  0.37574540
   0.26719533  0.39711271  0.37517541
   0.10105553  0.43368458  0.25002369
   0.23103742  0.56424597  0.25002367
   0.06593663  0.60158254  0.62451840
   0.26821086  0.39743030  0.62426830
   0.10270762  0.43486315  0.50256919
   0.23204710  0.56465997  0.49818007
   0.06594669  0.60159152  0.87550781
   0.26819451  0.39741403  0.87579941
   0.10352924  0.43654048  0.75001961
   0.23777550  0.56950109  0.75002635
   0.06703341  0.93609598  0.12569049
   0.26873282  0.73108263  0.12528338
   0.10158686  0.76753038  0.00077140
   0.23220913  0.89770614  0.99934054
   0.06699637  0.93606839  0.37434581
   0.26875427  0.73110131  0.37476320
   0.10350020  0.76694257  0.24999995
   0.23203200  0.89788617  0.25002528
   0.06276606  0.93184988  0.62370182
   0.26808553  0.73024515  0.62409273
   0.10161539  0.76749547  0.49928217
   0.23214620  0.89773763  0.50066030
   0.06276500  0.93183297  0.87633249
   0.26791681  0.73006884  0.87595934
   0.10123562  0.76629514  0.74999547
   0.21941189  0.90560933  0.75001983
   0.39930005  0.26914862  0.12628610
   0.60195284  0.06498463  0.12511845
   0.43109853  0.10657582  0.00373905
   0.56541506  0.23017241  0.99887766
   0.39926121  0.26909488  0.37380686
   0.60196809  0.06499552  0.37492472
   0.43518147  0.10195087  0.25003915
   0.56668624  0.23177976  0.25005958
   0.39664681  0.26606890  0.62496955
   0.60256538  0.06557014  0.62482266
   0.43118591  0.10644521  0.49640749
   0.56539983  0.23019121  0.50117469
   0.39663956  0.26605632  0.87509270
   0.60255560  0.06555595  0.87523983
   0.43419475  0.09720052  0.75000354
   0.56269978  0.23013564  0.75005759
   0.39876123  0.60050706  0.12542425
   0.60212031  0.39744224  0.12512492
   0.43419680  0.43310719  0.00061020
   0.56542664  0.56435820  0.99974087
   0.39874989  0.60049050  0.37460589
   0.60215035  0.39748052  0.37493783
   0.43461154  0.43462318  0.25004464
   0.56590418  0.56396085  0.25001866
   0.39790966  0.59981056  0.62409684
   0.59988784  0.39503719  0.62364705
   0.43423327  0.43307652  0.49942565
   0.56539216  0.56442506  0.50035275
   0.39810302  0.59999400  0.87592816
   0.59990562  0.39504106  0.87641704
   0.43405612  0.43272212  0.75005211
   0.57253371  0.55177958  0.75002240
   0.39796251  0.93453667  0.12518429
   0.60196025  0.73084932  0.12564238
   0.43445398  0.76678719  0.99826018
   0.56474948  0.89752476  0.00012706
   0.39794844  0.93449358  0.37490022
   0.60200627  0.73086818  0.37435711
   0.43529775  0.76794279  0.25002336
   0.56473744  0.89795489  0.25002136
   0.41087682  0.94601363  0.61251756
   0.61385045  0.74429014  0.61248763
   0.43458320  0.76665929  0.50178315
   0.56466490  0.89760958  0.49992104
   0.41109925  0.94637920  0.88764996
   0.61346169  0.74404516  0.88742536
   0.38333817  0.82957371  0.75037956
   0.56521168  0.89831207  0.75002515
   0.73225933  0.26729007  0.12494121
   0.93758905  0.06654222  0.12566487
   0.76885842  0.09995985  0.00014766
   0.89873179  0.23161874  0.99982947
   0.73226640  0.26730117  0.37512314
   0.93757519  0.06653192  0.37437076
   0.76872060  0.10071111  0.25002529
   0.89795276  0.23138729  0.25002515
   0.73189603  0.26700245  0.62559290
   0.93520351  0.06450407  0.62556600
   0.76885504  0.09996384  0.49990494
   0.89873983  0.23161302  0.50021981
   0.73190634  0.26700433  0.87446342
   0.93519246  0.06448434  0.87448071
   0.76862738  0.10070493  0.75002389
   0.89933814  0.23191040  0.75002777
   0.73232372  0.59959460  0.12710592
   0.93611838  0.39835111  0.12389537
   0.76764351  0.43445333  0.00004079
   0.89668901  0.56576665  0.99908653
   0.73229901  0.59953682  0.37286141
   0.93612896  0.39833949  0.37615991
   0.77079614  0.43277083  0.25000391
   0.89966110  0.56412163  0.25001580
   0.72816552  0.60186967  0.62846431
   0.93421981  0.39897040  0.62545800
   0.76765550  0.43444132  0.49999637
   0.89667504  0.56577312  0.50092534
   0.72816740  0.60191310  0.87153412
   0.93420538  0.39898081  0.87457832
   0.76740254  0.43220887  0.75001507
   0.89883613  0.56357753  0.75001432
   0.73272389  0.93469021  0.12547363
   0.93768465  0.73280775  0.12616562
   0.77438818  0.76469783  0.00456063
   0.89791933  0.89852304  0.99885617
   0.73271166  0.93467614  0.37457889
   0.93774457  0.73285270  0.37383714
   0.77065862  0.76873475  0.25001075
   0.90301360  0.90265188  0.24998891
   0.73254033  0.93479894  0.62493312
   0.93462924  0.73081266  0.62546435
   0.77452720  0.76460386  0.49538363
   0.89789254  0.89854421  0.50119171
   0.73255586  0.93480987  0.87510112
   0.93464239  0.73081913  0.87456778
   0.76478134  0.76644265  0.75004592
   0.89707518  0.89607974  0.74998983
   0.49706337  0.71600084  0.74964841
   0.10166561  0.10341360  0.25004081
 
 position of ions in cartesian coordinates  (Angst):
   2.36738245  2.37746919  1.70704748
  14.63990964 14.63202318 13.19751780
   2.36773103  2.37737883  4.89554626
   0.10870994  0.08976669  3.30103713
   2.46882602  2.39125189  8.25604986
  14.63972965 14.63208698  6.60780556
   2.46865377  2.39159251 11.54964252
  14.64915349 14.60478894  9.90264115
   2.43079564  7.30346516  1.64411535
   0.01606511  4.88278128 13.17777091
   2.43063834  7.30357696  4.95808490
  14.63666967  4.87685378  3.30111813
   2.50519201  7.37466374  8.27966192
   0.01643646  4.88247435  6.62766957
   2.50509614  7.37460589 11.52573572
   0.02043776  4.89602094  9.90272740
   2.45682195 12.20242487  1.64631857
  14.64049968  9.76319422 13.19928625
   2.45645230 12.20212721  4.95558076
   0.02217145  9.75381328  3.30086465
   2.44160247 12.18676185  8.25759201
  14.64031937  9.76326129  6.60581543
   2.44157126 12.18632101 11.54749612
  14.64820899  9.74592846  9.90254259
   7.34036843  2.45336903  1.65603224
   4.85662162  0.03965103  0.01553105
   7.34000739  2.45285848  4.94683813
   4.90567294 14.63275511  3.30148981
   7.28687596  2.38967748  8.25668227
   4.85690651  0.03877587  6.58763317
   7.28632311  2.38894060 11.54922603
   5.00158725 14.39919903  9.90353685
   7.33083598  7.31226550  1.64665492
   4.86516043  4.84235049  0.00589358
   7.33116062  7.31262748  4.95583038
   4.87012586  4.87770933  3.30136390
   7.31634813  7.30023959  8.25269768
   4.86508442  4.84250807  6.59664367
   7.31683866  7.30032768 11.55297976
   4.87081752  4.86615586  9.90286758
   7.32799627 12.20199111  1.62619675
   4.88562002  9.74784943 13.20266561
   7.32822714 12.20178306  4.97598167
   4.89004455  9.75478671  3.30105141
   7.26754857 12.14264853  8.32778027
   4.88575879  9.74771875  6.60261141
   7.26602836 12.14396530 11.47752980
   5.09663009  9.96052734  9.90262802
  12.20887978  2.42533746  1.64427570
   9.75093014 14.61946433 13.19943498
  12.20884203  2.42537068  4.95799591
   9.76260653 14.63641696  3.30110327
  12.21422396  2.43074132  8.25741397
   9.75082139 14.61958695  6.60598876
  12.21421561  2.43067853 11.54804352
   9.76178546 14.63569703  9.90271355
  12.22131267  7.31351979  1.64520086
   9.76785946  4.85754675 13.19918910
  12.22138452  7.31315349  4.95666286
   9.78349083  4.88195372  3.30121942
  12.15956471  7.33821045  8.26857359
   9.76779682  4.85769047  6.60639392
  12.15922614  7.33846164 11.53657989
   9.73296407  4.86070258  9.90281190
  12.25584219 12.23676059  1.66963693
   9.81402705  9.74261576  0.01557455
  12.25637975 12.23717124  4.93196243
   9.77089683  9.77888618  3.30067535
  12.16377511 12.15957240  8.25566764
   9.81492677  9.74234452  6.58557680
  12.16456402 12.16018000 11.54926566
   9.52023408  9.87324396  9.90174988
   0.93355585  3.90910291  1.64987206
   3.88363147  0.93144120  1.68665034
   1.48726033  1.45803796  0.00188507
   3.37754810  3.33865481  0.04830895
   0.93375981  3.90899398  4.95230518
   3.88432868  0.93168294  4.91653363
   3.37057585  3.38944532  3.30122792
   0.97180500  3.91029849  8.25980558
   3.94288450  0.89695981  8.29912657
   1.48737121  1.45788608  6.60049206
   3.37748815  3.33876958  6.55439721
   0.97175168  3.91055598 11.54580957
   3.94230015  0.89697922 11.50685252
   1.46618203  1.47078810  9.90285056
   3.37765331  3.39057087  9.90280186
   0.94056542  8.78599135  1.64084009
   3.91421058  5.81724224  1.64906665
   1.50433275  6.37070906 13.16995052
   3.40027252  8.27102304  0.02455811
   0.94026368  8.78590194  4.96103822
   3.91425999  5.81747581  4.95351253
   1.48040618  6.35323299  3.30111044
   3.38456712  8.26588314  3.30111015
   0.96593422  8.81284272  8.24563550
   3.92913691  5.82212835  8.24233342
   1.50460837  6.37049833  6.63551691
   3.39935831  8.27194813  6.57756641
   0.96608151  8.81297433 11.55949657
   3.92889738  5.82189002 11.56334659
   1.51664453  6.39507030  9.90265200
   3.48327616  8.34286777  9.90274090
   0.98200146 13.71327479  1.65951553
   3.93678332 10.70994562  1.65414032
   1.48818988 11.24388443  0.01018497
   3.40173198 13.15088539 13.19448375
   0.98145878 13.71287067  4.94255908
   3.93709751 10.71021929  4.94806997
   1.51621915 11.23527341  3.30079697
   3.39913716 13.15352277  3.30113152
   0.91948713 13.65107190  8.23485414
   3.92730083 10.69767703  8.24001533
   1.48860785 11.24337300  6.59211769
   3.40081004 13.15134681  6.61031348
   0.91947160 13.65082417 11.57038494
   3.92482922 10.69509408 11.56545823
   1.48304439 11.22578890  9.90233323
   3.21425973 13.26666266  9.90265479
   5.84951909  3.94287450  1.66737949
   8.81826741  0.95198798  1.65196279
   6.31534877  1.56127534  0.04936743
   8.28300967  3.37189517 13.18837219
   5.84895017  3.94208730  4.93544329
   8.81849081  0.95214749  4.95020254
   6.37516155  1.49352240  3.30131453
   8.30163172  3.39544196  3.30158437
   5.81065059  3.89775842  8.25159213
   8.82724080  0.96056531  8.24965271
   6.31662880  1.55936192  6.55416270
   8.28278662  3.37217065  6.61710501
   5.81054443  3.89757411 11.55401584
   8.82709761  0.96035751 11.55595834
   6.36070663  1.42393238  9.90243973
   8.24323243  3.37135649  9.90315344
   5.84162576  8.79708760  1.65600029
   8.82072082  5.82230320  1.65204821
   6.36073669  6.34477448  0.00805664
   8.28317941  8.26752731 13.19976932
   5.84145960  8.79684500  4.94599297
   8.82116087  5.82286400  4.95037566
   6.36681245  6.36698288  3.30138709
   8.29017503  8.26170639  3.30104409
   5.82915065  8.78688428  8.24006954
   8.78801641  5.78707062  8.23413099
   6.36127094  6.34432523  6.59401204
   8.28267424  8.26850671  6.60625284
   5.83198336  8.78957159 11.56504650
   8.78827680  5.78712738 11.57150138
   6.35867574  6.33913340  9.90308111
   8.38729389  8.08325763  9.90268874
   5.82992496 13.69043173  1.65283212
   8.81837595 10.70652774  1.65888035
   6.36450415 11.23299713 13.18021957
   8.27325935 13.14822832  0.00167760
   5.82971877 13.68980053  4.94987906
   8.81905023 10.70680397  4.94270825
   6.37686494 11.24992608  3.30110610
   8.27308297 13.15452952  3.30107965
   6.01911219 13.85856272  8.08718615
   8.99256065 10.90342818  8.08679100
   6.36639728 11.23112344  6.62513857
   8.27202026 13.14947087  6.60055278
   6.02237068 13.86391812 11.71981168
   8.98686554 10.89983934 11.71684624
   5.61568660 12.15278405  9.90740438
   8.28003029 13.15976195  9.90272508
  10.72718353  3.91564777  1.64962259
  13.73514743  0.97480569  1.65917729
  11.26333945  1.46435507  0.00194958
  13.16591067  3.39308315 13.20093916
  10.72728718  3.91581037  4.95282234
  13.73494436  0.97465487  4.94288852
  11.26132056  1.47536057  3.30113163
  13.15449830  3.38969244  3.30112970
  10.72186137  3.91143438  8.25982234
  13.70020062  0.94494800  8.25946716
  11.26329002  1.46441347  6.60034025
  13.16602848  3.39299932  6.60449754
  10.72201252  3.91146188 11.54570735
  13.70003876  0.94465898 11.54593558
  11.25995489  1.47527010  9.90270852
  13.17479333  3.39735572  9.90275974
  10.72812692  8.78372060  1.67820365
  13.71360301  5.83561760  1.63581424
  11.24554173  6.36449465  0.00053850
  13.13598507  8.28816031 13.19113000
  10.72776482  8.78287415  4.92296031
  13.71375799  5.83544748  4.96651104
  11.29172593  6.33984709  3.30084930
  13.17952451  8.26406169  3.30100631
  10.66721163  8.81704902  8.29773412
  13.68579000  5.84468988  8.25804120
  11.24571738  6.36431883  6.60154743
  13.13578038  8.28825514  6.61381277
  10.66723911  8.81768524 11.50703123
  13.68557865  5.84484235 11.54722441
  11.24201172  6.33161457  9.90259203
  13.16743913  8.25609092  9.90258212
  10.73398912 13.69268104  1.65665233
  13.73654785 10.73521761  1.66578873
  11.34434733 11.20238917  0.06021481
  13.15400849 13.16285250 13.18808849
  10.73381000 13.69247490  4.94563647
  13.73742565 10.73587616  4.93584307
  11.28971139 11.26152772  3.30093961
  13.22863670 13.22333776  3.30065131
  10.73130011 13.69427386  8.25111118
  13.69178793 10.70599075  8.25812508
  11.34638391 11.20101259  6.54064453
  13.15361608 13.16316263  6.61732967
  10.73152764 13.69443401 11.55412700
  13.69198056 10.70608540 11.54708520
  11.20361256 11.22794986  9.90299936
  13.14164230 13.12705961  9.90225880
   7.28169626 10.48900599  9.89775092
   1.48934346  1.51495049  3.30133649
 


--------------------------------------------------------------------------------------------------------


 k-point  1 :   0.2500 0.2500 0.2500  plane waves:  119170
 k-point  2 :  -0.2500 0.2500 0.2500  plane waves:  119170
 k-point  3 :   0.2500-0.2500 0.2500  plane waves:  119170
 k-point  4 :  -0.2500-0.2500 0.2500  plane waves:  119170

 maximum and minimum number of plane-waves per node :      2512     2454

 maximum number of plane-waves:    119170
 maximum index in each direction: 
   IXMAX=   31   IYMAX=   31   IZMAX=   28
   IXMIN=  -31   IYMIN=  -31   IZMIN=  -28


 parallel 3D FFT for wavefunctions:
    minimum data exchange during FFTs selected (reduces bandwidth)
 parallel 3D FFT for charge:
    minimum data exchange during FFTs selected (reduces bandwidth)


 total amount of memory used by VASP MPI-rank0   148478. kBytes
=======================================================================

   base      :      30000. kBytes
   nonl-proj :      12937. kBytes
   fftplans  :       5695. kBytes
   grid      :       4457. kBytes
   one-center:        155. kBytes
   wavefun   :      95234. kBytes
 
     INWAV:  cpu time    0.0000: real time    0.0000
 Broyden mixing: mesh for mixing (old mesh)
   NGX = 63   NGY = 63   NGZ = 57
  (NGX  =192   NGY  =192   NGZ  =180)
  gives a total of 226233 points

 initial charge density was supplied:
 charge density of overlapping atoms calculated
 number of electron    1945.0000000 magnetization       0.0000000
 keeping initial charge density in first step


--------------------------------------------------------------------------------------------------------


 Maximum index for augmentation-charges         2066 (set IRDMAX)


--------------------------------------------------------------------------------------------------------


 First call to EWALD:  gamma=   0.125
 Maximum number of real-space cells 3x 3x 3
 Maximum number of reciprocal cells 3x 3x 3

    FEWALD:  cpu time    0.0151: real time    0.0151


--------------------------------------- Iteration      1(   1)  ---------------------------------------


    POTLOK:  cpu time    0.1075: real time    0.1781
    SETDIJ:  cpu time    3.9320: real time    3.9321
atom =   1  type =  1  l = 2
 
 onsite density matrix
 
spin component  1
 
  0.7289  0.0000  0.0000  0.0000  0.0000
  0.0000  0.7289  0.0000  0.0000  0.0000
  0.0000  0.0000  0.7289  0.0000  0.0000
  0.0000  0.0000  0.0000  0.7289  0.0000
  0.0000  0.0000  0.0000  0.0000  0.7289
 
spin component  2
 
  0.3239  0.0000  0.0000  0.0000  0.0000
  0.0000  0.3239  0.0000  0.0000  0.0000
  0.0000  0.0000  0.3239  0.0000  0.0000
  0.0000  0.0000  0.0000  0.3239  0.0000
  0.0000  0.0000  0.0000  0.0000  0.3239
 
 occupancies and eigenvectors
 
  o =  0.3239  v =  0.0000  0.0000  0.0000  0.0000  0.0000  1.0000  0.0000  0.0000  0.0000  0.0000      0.0000  0.0000  0.0000  0.0000  0.0000  0.0000  0.0000  0.0000  0.0000  0.0000
  o =  0.3239  v =  0.0000  0.0000  0.0000  0.0000  0.0000  0.0000  1.0000  0.0000  0.0000  0.0000      0.0000  0.0000  0.0000  0.0000  0.0000  0.0000  0.0000  0.0000  0.0000  0.0000
  o =  0.3239  v =  0.0000  0.0000  0.0000  0.0000  0.0000  0.0000  0.0000  1.0000  0.0000  0.0000      0.0000  0.0000  0.0000  0.0000  0.0000  0.0000  0.0000  0.0000  0.0000  0.0000
  o =  0.3239  v =  0.0000  0.0000  0.0000  0.0000  0.0000  0.0000  0.0000  0.0000  0.0000 -1.0000      0.0000  0.0000  0.0000  0.0000  0.0000  0.0000  0.0000  0.0000  0.0000  0.0000
  o =  0.3239  v =  0.0000  0.0000  0.0000  0.0000  0.0000  0.0000  0.0000  0.0000 -1.0000  0.0000      0.0000  0.0000  0.0000  0.0000  0.0000  0.0000  0.0000  0.0000  0.0000  0.0000
  o =  0.7289  v =  1.0000  0.0000  0.0000  0.0000  0.0000  0.0000  0.0000  0.0000  0.0000  0.0000      0.0000  0.0000  0.0000  0.0000  0.0000  0.0000  0.0000  0.0000  0.0000  0.0000
  o =  0.7289  v =  0.0000  1.0000  0.0000  0.0000  0.0000  0.0000  0.0000  0.0000  0.0000  0.0000      0.0000  0.0000  0.0000  0.0000  0.0000  0.0000  0.0000  0.0000  0.0000  0.0000
  o =  0.7289  v =  0.0000  0.0000  1.0000  0.0000  0.0000  0.0000  0.0000  0.0000  0.0000  0.0000      0.0000  0.0000  0.0000  0.0000  0.0000  0.0000  0.0000  0.0000  0.0000  0.0000
  o =  0.7289  v =  0.0000  0.0000  0.0000  0.0000 -1.0000  0.0000  0.0000  0.0000  0.0000  0.0000      0.0000  0.0000  0.0000  0.0000  0.0000  0.0000  0.0000  0.0000  0.0000  0.0000
  o =  0.7289  v =  0.0000  0.0000  0.0000 -1.0000  0.0000  0.0000  0.0000  0.0000  0.0000  0.0000      0.0000  0.0000  0.0000  0.0000  0.0000  0.0000  0.0000  0.0000  0.0000  0.0000
atom =   2  type =  1  l = 2
 
 onsite density matrix
 
spin component  1
 
  0.3239  0.0000  0.0000  0.0000  0.0000
  0.0000  0.3239  0.0000  0.0000  0.0000
  0.0000  0.0000  0.3239  0.0000  0.0000
  0.0000  0.0000  0.0000  0.3239  0.0000
  0.0000  0.0000  0.0000  0.0000  0.3239
 
spin component  2
 
  0.7289  0.0000  0.0000  0.0000  0.0000
  0.0000  0.7289  0.0000  0.0000  0.0000
  0.0000  0.0000  0.7289  0.0000  0.0000
  0.0000  0.0000  0.0000  0.7289  0.0000
  0.0000  0.0000  0.0000  0.0000  0.7289
 
 occupancies and eigenvectors
 
  o =  0.3239  v =  1.0000  0.0000  0.0000  0.0000  0.0000  0.0000  0.0000  0.0000  0.0000  0.0000      0.0000  0.0000  0.0000  0.0000  0.0000  0.0000  0.0000  0.0000  0.0000  0.0000
  o =  0.3239  v =  0.0000  1.0000  0.0000  0.0000  0.0000  0.0000  0.0000  0.0000  0.0000  0.0000      0.0000  0.0000  0.0000  0.0000  0.0000  0.0000  0.0000  0.0000  0.0000  0.0000
  o =  0.3239  v =  0.0000  0.0000  1.0000  0.0000  0.0000  0.0000  0.0000  0.0000  0.0000  0.0000      0.0000  0.0000  0.0000  0.0000  0.0000  0.0000  0.0000  0.0000  0.0000  0.0000
  o =  0.3239  v =  0.0000  0.0000  0.0000  0.0000 -1.0000  0.0000  0.0000  0.0000  0.0000  0.0000      0.0000  0.0000  0.0000  0.0000  0.0000  0.0000  0.0000  0.0000  0.0000  0.0000
  o =  0.3239  v =  0.0000  0.0000  0.0000 -1.0000  0.0000  0.0000  0.0000  0.0000  0.0000  0.0000      0.0000  0.0000  0.0000  0.0000  0.0000  0.0000  0.0000  0.0000  0.0000  0.0000
  o =  0.7289  v =  0.0000  0.0000  0.0000  0.0000  0.0000  1.0000  0.0000  0.0000  0.0000  0.0000      0.0000  0.0000  0.0000  0.0000  0.0000  0.0000  0.0000  0.0000  0.0000  0.0000
  o =  0.7289  v =  0.0000  0.0000  0.0000  0.0000  0.0000  0.0000  1.0000  0.0000  0.0000  0.0000      0.0000  0.0000  0.0000  0.0000  0.0000  0.0000  0.0000  0.0000  0.0000  0.0000
  o =  0.7289  v =  0.0000  0.0000  0.0000  0.0000  0.0000  0.0000  0.0000  1.0000  0.0000  0.0000      0.0000  0.0000  0.0000  0.0000  0.0000  0.0000  0.0000  0.0000  0.0000  0.0000
  o =  0.7289  v =  0.0000  0.0000  0.0000  0.0000  0.0000  0.0000  0.0000  0.0000  0.0000 -1.0000      0.0000  0.0000  0.0000  0.0000  0.0000  0.0000  0.0000  0.0000  0.0000  0.0000
  o =  0.7289  v =  0.0000  0.0000  0.0000  0.0000  0.0000  0.0000  0.0000  0.0000 -1.0000  0.0000      0.0000  0.0000  0.0000  0.0000  0.0000  0.0000  0.0000  0.0000  0.0000  0.0000
atom =   3  type =  1  l = 2
 
 onsite density matrix
 
spin component  1
 
  0.7289  0.0000  0.0000  0.0000  0.0000
  0.0000  0.7289  0.0000  0.0000  0.0000
  0.0000  0.0000  0.7289  0.0000  0.0000
  0.0000  0.0000  0.0000  0.7289  0.0000
  0.0000  0.0000  0.0000  0.0000  0.7289
 
spin component  2
 
  0.3239  0.0000  0.0000  0.0000  0.0000
  0.0000  0.3239  0.0000  0.0000  0.0000
  0.0000  0.0000  0.3239  0.0000  0.0000
  0.0000  0.0000  0.0000  0.3239  0.0000
  0.0000  0.0000  0.0000  0.0000  0.3239
 
 occupancies and eigenvectors
 
  o =  0.3239  v =  0.0000  0.0000  0.0000  0.0000  0.0000  1.0000  0.0000  0.0000  0.0000  0.0000      0.0000  0.0000  0.0000  0.0000  0.0000  0.0000  0.0000  0.0000  0.0000  0.0000
  o =  0.3239  v =  0.0000  0.0000  0.0000  0.0000  0.0000  0.0000  1.0000  0.0000  0.0000  0.0000      0.0000  0.0000  0.0000  0.0000  0.0000  0.0000  0.0000  0.0000  0.0000  0.0000
  o =  0.3239  v =  0.0000  0.0000  0.0000  0.0000  0.0000  0.0000  0.0000  1.0000  0.0000  0.0000      0.0000  0.0000  0.0000  0.0000  0.0000  0.0000  0.0000  0.0000  0.0000  0.0000
  o =  0.3239  v =  0.0000  0.0000  0.0000  0.0000  0.0000  0.0000  0.0000  0.0000  0.0000 -1.0000      0.0000  0.0000  0.0000  0.0000  0.0000  0.0000  0.0000  0.0000  0.0000  0.0000
  o =  0.3239  v =  0.0000  0.0000  0.0000  0.0000  0.0000  0.0000  0.0000  0.0000 -1.0000  0.0000      0.0000  0.0000  0.0000  0.0000  0.0000  0.0000  0.0000  0.0000  0.0000  0.0000
  o =  0.7289  v =  1.0000  0.0000  0.0000  0.0000  0.0000  0.0000  0.0000  0.0000  0.0000  0.0000      0.0000  0.0000  0.0000  0.0000  0.0000  0.0000  0.0000  0.0000  0.0000  0.0000
  o =  0.7289  v =  0.0000  1.0000  0.0000  0.0000  0.0000  0.0000  0.0000  0.0000  0.0000  0.0000      0.0000  0.0000  0.0000  0.0000  0.0000  0.0000  0.0000  0.0000  0.0000  0.0000
  o =  0.7289  v =  0.0000  0.0000  1.0000  0.0000  0.0000  0.0000  0.0000  0.0000  0.0000  0.0000      0.0000  0.0000  0.0000  0.0000  0.0000  0.0000  0.0000  0.0000  0.0000  0.0000
  o =  0.7289  v =  0.0000  0.0000  0.0000  0.0000 -1.0000  0.0000  0.0000  0.0000  0.0000  0.0000      0.0000  0.0000  0.0000  0.0000  0.0000  0.0000  0.0000  0.0000  0.0000  0.0000
  o =  0.7289  v =  0.0000  0.0000  0.0000 -1.0000  0.0000  0.0000  0.0000  0.0000  0.0000  0.0000      0.0000  0.0000  0.0000  0.0000  0.0000  0.0000  0.0000  0.0000  0.0000  0.0000
atom =   4  type =  1  l = 2
 
 onsite density matrix
 
spin component  1
 
  0.3239  0.0000  0.0000  0.0000  0.0000
  0.0000  0.3239  0.0000  0.0000  0.0000
  0.0000  0.0000  0.3239  0.0000  0.0000
  0.0000  0.0000  0.0000  0.3239  0.0000
  0.0000  0.0000  0.0000  0.0000  0.3239
 
spin component  2
 
  0.7289  0.0000  0.0000  0.0000  0.0000
  0.0000  0.7289  0.0000  0.0000  0.0000
  0.0000  0.0000  0.7289  0.0000  0.0000
  0.0000  0.0000  0.0000  0.7289  0.0000
  0.0000  0.0000  0.0000  0.0000  0.7289
 
 occupancies and eigenvectors
 
  o =  0.3239  v =  1.0000  0.0000  0.0000  0.0000  0.0000  0.0000  0.0000  0.0000  0.0000  0.0000      0.0000  0.0000  0.0000  0.0000  0.0000  0.0000  0.0000  0.0000  0.0000  0.0000
  o =  0.3239  v =  0.0000  1.0000  0.0000  0.0000  0.0000  0.0000  0.0000  0.0000  0.0000  0.0000      0.0000  0.0000  0.0000  0.0000  0.0000  0.0000  0.0000  0.0000  0.0000  0.0000
  o =  0.3239  v =  0.0000  0.0000  1.0000  0.0000  0.0000  0.0000  0.0000  0.0000  0.0000  0.0000      0.0000  0.0000  0.0000  0.0000  0.0000  0.0000  0.0000  0.0000  0.0000  0.0000
  o =  0.3239  v =  0.0000  0.0000  0.0000  0.0000 -1.0000  0.0000  0.0000  0.0000  0.0000  0.0000      0.0000  0.0000  0.0000  0.0000  0.0000  0.0000  0.0000  0.0000  0.0000  0.0000
  o =  0.3239  v =  0.0000  0.0000  0.0000 -1.0000  0.0000  0.0000  0.0000  0.0000  0.0000  0.0000      0.0000  0.0000  0.0000  0.0000  0.0000  0.0000  0.0000  0.0000  0.0000  0.0000
  o =  0.7289  v =  0.0000  0.0000  0.0000  0.0000  0.0000  1.0000  0.0000  0.0000  0.0000  0.0000      0.0000  0.0000  0.0000  0.0000  0.0000  0.0000  0.0000  0.0000  0.0000  0.0000
  o =  0.7289  v =  0.0000  0.0000  0.0000  0.0000  0.0000  0.0000  1.0000  0.0000  0.0000  0.0000      0.0000  0.0000  0.0000  0.0000  0.0000  0.0000  0.0000  0.0000  0.0000  0.0000
  o =  0.7289  v =  0.0000  0.0000  0.0000  0.0000  0.0000  0.0000  0.0000  1.0000  0.0000  0.0000      0.0000  0.0000  0.0000  0.0000  0.0000  0.0000  0.0000  0.0000  0.0000  0.0000
  o =  0.7289  v =  0.0000  0.0000  0.0000  0.0000  0.0000  0.0000  0.0000  0.0000  0.0000 -1.0000      0.0000  0.0000  0.0000  0.0000  0.0000  0.0000  0.0000  0.0000  0.0000  0.0000
  o =  0.7289  v =  0.0000  0.0000  0.0000  0.0000  0.0000  0.0000  0.0000  0.0000 -1.0000  0.0000      0.0000  0.0000  0.0000  0.0000  0.0000  0.0000  0.0000  0.0000  0.0000  0.0000
atom =   5  type =  1  l = 2
 
 onsite density matrix
 
spin component  1
 
  0.7289  0.0000  0.0000  0.0000  0.0000
  0.0000  0.7289  0.0000  0.0000  0.0000
  0.0000  0.0000  0.7289  0.0000  0.0000
  0.0000  0.0000  0.0000  0.7289  0.0000
  0.0000  0.0000  0.0000  0.0000  0.7289
 
spin component  2
 
  0.3239  0.0000  0.0000  0.0000  0.0000
  0.0000  0.3239  0.0000  0.0000  0.0000
  0.0000  0.0000  0.3239  0.0000  0.0000
  0.0000  0.0000  0.0000  0.3239  0.0000
  0.0000  0.0000  0.0000  0.0000  0.3239
 
 occupancies and eigenvectors
 
  o =  0.3239  v =  0.0000  0.0000  0.0000  0.0000  0.0000  1.0000  0.0000  0.0000  0.0000  0.0000      0.0000  0.0000  0.0000  0.0000  0.0000  0.0000  0.0000  0.0000  0.0000  0.0000
  o =  0.3239  v =  0.0000  0.0000  0.0000  0.0000  0.0000  0.0000  1.0000  0.0000  0.0000  0.0000      0.0000  0.0000  0.0000  0.0000  0.0000  0.0000  0.0000  0.0000  0.0000  0.0000
  o =  0.3239  v =  0.0000  0.0000  0.0000  0.0000  0.0000  0.0000  0.0000  1.0000  0.0000  0.0000      0.0000  0.0000  0.0000  0.0000  0.0000  0.0000  0.0000  0.0000  0.0000  0.0000
  o =  0.3239  v =  0.0000  0.0000  0.0000  0.0000  0.0000  0.0000  0.0000  0.0000  0.0000 -1.0000      0.0000  0.0000  0.0000  0.0000  0.0000  0.0000  0.0000  0.0000  0.0000  0.0000
  o =  0.3239  v =  0.0000  0.0000  0.0000  0.0000  0.0000  0.0000  0.0000  0.0000 -1.0000  0.0000      0.0000  0.0000  0.0000  0.0000  0.0000  0.0000  0.0000  0.0000  0.0000  0.0000
  o =  0.7289  v =  1.0000  0.0000  0.0000  0.0000  0.0000  0.0000  0.0000  0.0000  0.0000  0.0000      0.0000  0.0000  0.0000  0.0000  0.0000  0.0000  0.0000  0.0000  0.0000  0.0000
  o =  0.7289  v =  0.0000  1.0000  0.0000  0.0000  0.0000  0.0000  0.0000  0.0000  0.0000  0.0000      0.0000  0.0000  0.0000  0.0000  0.0000  0.0000  0.0000  0.0000  0.0000  0.0000
  o =  0.7289  v =  0.0000  0.0000  1.0000  0.0000  0.0000  0.0000  0.0000  0.0000  0.0000  0.0000      0.0000  0.0000  0.0000  0.0000  0.0000  0.0000  0.0000  0.0000  0.0000  0.0000
  o =  0.7289  v =  0.0000  0.0000  0.0000  0.0000 -1.0000  0.0000  0.0000  0.0000  0.0000  0.0000      0.0000  0.0000  0.0000  0.0000  0.0000  0.0000  0.0000  0.0000  0.0000  0.0000
  o =  0.7289  v =  0.0000  0.0000  0.0000 -1.0000  0.0000  0.0000  0.0000  0.0000  0.0000  0.0000      0.0000  0.0000  0.0000  0.0000  0.0000  0.0000  0.0000  0.0000  0.0000  0.0000
atom =   6  type =  1  l = 2
 
 onsite density matrix
 
spin component  1
 
  0.3239  0.0000  0.0000  0.0000  0.0000
  0.0000  0.3239  0.0000  0.0000  0.0000
  0.0000  0.0000  0.3239  0.0000  0.0000
  0.0000  0.0000  0.0000  0.3239  0.0000
  0.0000  0.0000  0.0000  0.0000  0.3239
 
spin component  2
 
  0.7289  0.0000  0.0000  0.0000  0.0000
  0.0000  0.7289  0.0000  0.0000  0.0000
  0.0000  0.0000  0.7289  0.0000  0.0000
  0.0000  0.0000  0.0000  0.7289  0.0000
  0.0000  0.0000  0.0000  0.0000  0.7289
 
 occupancies and eigenvectors
 
  o =  0.3239  v =  1.0000  0.0000  0.0000  0.0000  0.0000  0.0000  0.0000  0.0000  0.0000  0.0000      0.0000  0.0000  0.0000  0.0000  0.0000  0.0000  0.0000  0.0000  0.0000  0.0000
  o =  0.3239  v =  0.0000  1.0000  0.0000  0.0000  0.0000  0.0000  0.0000  0.0000  0.0000  0.0000      0.0000  0.0000  0.0000  0.0000  0.0000  0.0000  0.0000  0.0000  0.0000  0.0000
  o =  0.3239  v =  0.0000  0.0000  1.0000  0.0000  0.0000  0.0000  0.0000  0.0000  0.0000  0.0000      0.0000  0.0000  0.0000  0.0000  0.0000  0.0000  0.0000  0.0000  0.0000  0.0000
  o =  0.3239  v =  0.0000  0.0000  0.0000  0.0000 -1.0000  0.0000  0.0000  0.0000  0.0000  0.0000      0.0000  0.0000  0.0000  0.0000  0.0000  0.0000  0.0000  0.0000  0.0000  0.0000
  o =  0.3239  v =  0.0000  0.0000  0.0000 -1.0000  0.0000  0.0000  0.0000  0.0000  0.0000  0.0000      0.0000  0.0000  0.0000  0.0000  0.0000  0.0000  0.0000  0.0000  0.0000  0.0000
  o =  0.7289  v =  0.0000  0.0000  0.0000  0.0000  0.0000  1.0000  0.0000  0.0000  0.0000  0.0000      0.0000  0.0000  0.0000  0.0000  0.0000  0.0000  0.0000  0.0000  0.0000  0.0000
  o =  0.7289  v =  0.0000  0.0000  0.0000  0.0000  0.0000  0.0000  1.0000  0.0000  0.0000  0.0000      0.0000  0.0000  0.0000  0.0000  0.0000  0.0000  0.0000  0.0000  0.0000  0.0000
  o =  0.7289  v =  0.0000  0.0000  0.0000  0.0000  0.0000  0.0000  0.0000  1.0000  0.0000  0.0000      0.0000  0.0000  0.0000  0.0000  0.0000  0.0000  0.0000  0.0000  0.0000  0.0000
  o =  0.7289  v =  0.0000  0.0000  0.0000  0.0000  0.0000  0.0000  0.0000  0.0000  0.0000 -1.0000      0.0000  0.0000  0.0000  0.0000  0.0000  0.0000  0.0000  0.0000  0.0000  0.0000
  o =  0.7289  v =  0.0000  0.0000  0.0000  0.0000  0.0000  0.0000  0.0000  0.0000 -1.0000  0.0000      0.0000  0.0000  0.0000  0.0000  0.0000  0.0000  0.0000  0.0000  0.0000  0.0000
atom =   7  type =  1  l = 2
 
 onsite density matrix
 
spin component  1
 
  0.7289  0.0000  0.0000  0.0000  0.0000
  0.0000  0.7289  0.0000  0.0000  0.0000
  0.0000  0.0000  0.7289  0.0000  0.0000
  0.0000  0.0000  0.0000  0.7289  0.0000
  0.0000  0.0000  0.0000  0.0000  0.7289
 
spin component  2
 
  0.3239  0.0000  0.0000  0.0000  0.0000
  0.0000  0.3239  0.0000  0.0000  0.0000
  0.0000  0.0000  0.3239  0.0000  0.0000
  0.0000  0.0000  0.0000  0.3239  0.0000
  0.0000  0.0000  0.0000  0.0000  0.3239
 
 occupancies and eigenvectors
 
  o =  0.3239  v =  0.0000  0.0000  0.0000  0.0000  0.0000  1.0000  0.0000  0.0000  0.0000  0.0000      0.0000  0.0000  0.0000  0.0000  0.0000  0.0000  0.0000  0.0000  0.0000  0.0000
  o =  0.3239  v =  0.0000  0.0000  0.0000  0.0000  0.0000  0.0000  1.0000  0.0000  0.0000  0.0000      0.0000  0.0000  0.0000  0.0000  0.0000  0.0000  0.0000  0.0000  0.0000  0.0000
  o =  0.3239  v =  0.0000  0.0000  0.0000  0.0000  0.0000  0.0000  0.0000  1.0000  0.0000  0.0000      0.0000  0.0000  0.0000  0.0000  0.0000  0.0000  0.0000  0.0000  0.0000  0.0000
  o =  0.3239  v =  0.0000  0.0000  0.0000  0.0000  0.0000  0.0000  0.0000  0.0000  0.0000 -1.0000      0.0000  0.0000  0.0000  0.0000  0.0000  0.0000  0.0000  0.0000  0.0000  0.0000
  o =  0.3239  v =  0.0000  0.0000  0.0000  0.0000  0.0000  0.0000  0.0000  0.0000 -1.0000  0.0000      0.0000  0.0000  0.0000  0.0000  0.0000  0.0000  0.0000  0.0000  0.0000  0.0000
  o =  0.7289  v =  1.0000  0.0000  0.0000  0.0000  0.0000  0.0000  0.0000  0.0000  0.0000  0.0000      0.0000  0.0000  0.0000  0.0000  0.0000  0.0000  0.0000  0.0000  0.0000  0.0000
  o =  0.7289  v =  0.0000  1.0000  0.0000  0.0000  0.0000  0.0000  0.0000  0.0000  0.0000  0.0000      0.0000  0.0000  0.0000  0.0000  0.0000  0.0000  0.0000  0.0000  0.0000  0.0000
  o =  0.7289  v =  0.0000  0.0000  1.0000  0.0000  0.0000  0.0000  0.0000  0.0000  0.0000  0.0000      0.0000  0.0000  0.0000  0.0000  0.0000  0.0000  0.0000  0.0000  0.0000  0.0000
  o =  0.7289  v =  0.0000  0.0000  0.0000  0.0000 -1.0000  0.0000  0.0000  0.0000  0.0000  0.0000      0.0000  0.0000  0.0000  0.0000  0.0000  0.0000  0.0000  0.0000  0.0000  0.0000
  o =  0.7289  v =  0.0000  0.0000  0.0000 -1.0000  0.0000  0.0000  0.0000  0.0000  0.0000  0.0000      0.0000  0.0000  0.0000  0.0000  0.0000  0.0000  0.0000  0.0000  0.0000  0.0000
atom =   8  type =  1  l = 2
 
 onsite density matrix
 
spin component  1
 
  0.3239  0.0000  0.0000  0.0000  0.0000
  0.0000  0.3239  0.0000  0.0000  0.0000
  0.0000  0.0000  0.3239  0.0000  0.0000
  0.0000  0.0000  0.0000  0.3239  0.0000
  0.0000  0.0000  0.0000  0.0000  0.3239
 
spin component  2
 
  0.7289  0.0000  0.0000  0.0000  0.0000
  0.0000  0.7289  0.0000  0.0000  0.0000
  0.0000  0.0000  0.7289  0.0000  0.0000
  0.0000  0.0000  0.0000  0.7289  0.0000
  0.0000  0.0000  0.0000  0.0000  0.7289
 
 occupancies and eigenvectors
 
  o =  0.3239  v =  1.0000  0.0000  0.0000  0.0000  0.0000  0.0000  0.0000  0.0000  0.0000  0.0000      0.0000  0.0000  0.0000  0.0000  0.0000  0.0000  0.0000  0.0000  0.0000  0.0000
  o =  0.3239  v =  0.0000  1.0000  0.0000  0.0000  0.0000  0.0000  0.0000  0.0000  0.0000  0.0000      0.0000  0.0000  0.0000  0.0000  0.0000  0.0000  0.0000  0.0000  0.0000  0.0000
  o =  0.3239  v =  0.0000  0.0000  1.0000  0.0000  0.0000  0.0000  0.0000  0.0000  0.0000  0.0000      0.0000  0.0000  0.0000  0.0000  0.0000  0.0000  0.0000  0.0000  0.0000  0.0000
  o =  0.3239  v =  0.0000  0.0000  0.0000  0.0000 -1.0000  0.0000  0.0000  0.0000  0.0000  0.0000      0.0000  0.0000  0.0000  0.0000  0.0000  0.0000  0.0000  0.0000  0.0000  0.0000
  o =  0.3239  v =  0.0000  0.0000  0.0000 -1.0000  0.0000  0.0000  0.0000  0.0000  0.0000  0.0000      0.0000  0.0000  0.0000  0.0000  0.0000  0.0000  0.0000  0.0000  0.0000  0.0000
  o =  0.7289  v =  0.0000  0.0000  0.0000  0.0000  0.0000  1.0000  0.0000  0.0000  0.0000  0.0000      0.0000  0.0000  0.0000  0.0000  0.0000  0.0000  0.0000  0.0000  0.0000  0.0000
  o =  0.7289  v =  0.0000  0.0000  0.0000  0.0000  0.0000  0.0000  1.0000  0.0000  0.0000  0.0000      0.0000  0.0000  0.0000  0.0000  0.0000  0.0000  0.0000  0.0000  0.0000  0.0000
  o =  0.7289  v =  0.0000  0.0000  0.0000  0.0000  0.0000  0.0000  0.0000  1.0000  0.0000  0.0000      0.0000  0.0000  0.0000  0.0000  0.0000  0.0000  0.0000  0.0000  0.0000  0.0000
  o =  0.7289  v =  0.0000  0.0000  0.0000  0.0000  0.0000  0.0000  0.0000  0.0000  0.0000 -1.0000      0.0000  0.0000  0.0000  0.0000  0.0000  0.0000  0.0000  0.0000  0.0000  0.0000
  o =  0.7289  v =  0.0000  0.0000  0.0000  0.0000  0.0000  0.0000  0.0000  0.0000 -1.0000  0.0000      0.0000  0.0000  0.0000  0.0000  0.0000  0.0000  0.0000  0.0000  0.0000  0.0000
atom =   9  type =  1  l = 2
 
 onsite density matrix
 
spin component  1
 
  0.7289  0.0000  0.0000  0.0000  0.0000
  0.0000  0.7289  0.0000  0.0000  0.0000
  0.0000  0.0000  0.7289  0.0000  0.0000
  0.0000  0.0000  0.0000  0.7289  0.0000
  0.0000  0.0000  0.0000  0.0000  0.7289
 
spin component  2
 
  0.3239  0.0000  0.0000  0.0000  0.0000
  0.0000  0.3239  0.0000  0.0000  0.0000
  0.0000  0.0000  0.3239  0.0000  0.0000
  0.0000  0.0000  0.0000  0.3239  0.0000
  0.0000  0.0000  0.0000  0.0000  0.3239
 
 occupancies and eigenvectors
 
  o =  0.3239  v =  0.0000  0.0000  0.0000  0.0000  0.0000  1.0000  0.0000  0.0000  0.0000  0.0000      0.0000  0.0000  0.0000  0.0000  0.0000  0.0000  0.0000  0.0000  0.0000  0.0000
  o =  0.3239  v =  0.0000  0.0000  0.0000  0.0000  0.0000  0.0000  1.0000  0.0000  0.0000  0.0000      0.0000  0.0000  0.0000  0.0000  0.0000  0.0000  0.0000  0.0000  0.0000  0.0000
  o =  0.3239  v =  0.0000  0.0000  0.0000  0.0000  0.0000  0.0000  0.0000  1.0000  0.0000  0.0000      0.0000  0.0000  0.0000  0.0000  0.0000  0.0000  0.0000  0.0000  0.0000  0.0000
  o =  0.3239  v =  0.0000  0.0000  0.0000  0.0000  0.0000  0.0000  0.0000  0.0000  0.0000 -1.0000      0.0000  0.0000  0.0000  0.0000  0.0000  0.0000  0.0000  0.0000  0.0000  0.0000
  o =  0.3239  v =  0.0000  0.0000  0.0000  0.0000  0.0000  0.0000  0.0000  0.0000 -1.0000  0.0000      0.0000  0.0000  0.0000  0.0000  0.0000  0.0000  0.0000  0.0000  0.0000  0.0000
  o =  0.7289  v =  1.0000  0.0000  0.0000  0.0000  0.0000  0.0000  0.0000  0.0000  0.0000  0.0000      0.0000  0.0000  0.0000  0.0000  0.0000  0.0000  0.0000  0.0000  0.0000  0.0000
  o =  0.7289  v =  0.0000  1.0000  0.0000  0.0000  0.0000  0.0000  0.0000  0.0000  0.0000  0.0000      0.0000  0.0000  0.0000  0.0000  0.0000  0.0000  0.0000  0.0000  0.0000  0.0000
  o =  0.7289  v =  0.0000  0.0000  1.0000  0.0000  0.0000  0.0000  0.0000  0.0000  0.0000  0.0000      0.0000  0.0000  0.0000  0.0000  0.0000  0.0000  0.0000  0.0000  0.0000  0.0000
  o =  0.7289  v =  0.0000  0.0000  0.0000  0.0000 -1.0000  0.0000  0.0000  0.0000  0.0000  0.0000      0.0000  0.0000  0.0000  0.0000  0.0000  0.0000  0.0000  0.0000  0.0000  0.0000
  o =  0.7289  v =  0.0000  0.0000  0.0000 -1.0000  0.0000  0.0000  0.0000  0.0000  0.0000  0.0000      0.0000  0.0000  0.0000  0.0000  0.0000  0.0000  0.0000  0.0000  0.0000  0.0000
atom =  10  type =  1  l = 2
 
 onsite density matrix
 
spin component  1
 
  0.3239  0.0000  0.0000  0.0000  0.0000
  0.0000  0.3239  0.0000  0.0000  0.0000
  0.0000  0.0000  0.3239  0.0000  0.0000
[...]
    1        0.180   6.154   4.933  11.267
    2        0.168   6.153   4.956  11.277
    3        0.180   6.154   4.933  11.267
    4        0.181   6.153   4.931  11.265
    5        0.164   6.147   4.948  11.259
    6        0.168   6.153   4.956  11.277
    7        0.164   6.147   4.948  11.259
    8        0.165   6.149   4.951  11.265
    9        0.167   6.152   4.955  11.273
   10        0.166   6.149   4.952  11.267
   11        0.167   6.152   4.955  11.274
   12        0.167   6.151   4.954  11.272
   13        0.166   6.149   4.951  11.265
   14        0.166   6.149   4.952  11.267
   15        0.166   6.149   4.951  11.265
   16        0.164   6.147   4.949  11.260
   17        0.167   6.151   4.954  11.272
   18        0.166   6.151   4.954  11.271
   19        0.167   6.151   4.954  11.272
   20        0.168   6.152   4.956  11.276
   21        0.167   6.151   4.953  11.271
   22        0.166   6.151   4.954  11.271
   23        0.167   6.151   4.953  11.271
   24        0.167   6.152   4.955  11.274
   25        0.168   6.153   4.957  11.279
   26        0.169   6.155   4.959  11.283
   27        0.168   6.153   4.957  11.279
   28        0.168   6.153   4.957  11.279
   29        0.166   6.149   4.951  11.266
   30        0.169   6.155   4.959  11.283
   31        0.165   6.149   4.951  11.266
   32        0.155   6.135   4.934  11.224
   33        0.166   6.150   4.953  11.269
   34        0.165   6.149   4.951  11.266
   35        0.166   6.150   4.953  11.269
   36        0.167   6.152   4.955  11.274
   37        0.166   6.150   4.952  11.269
   38        0.165   6.149   4.951  11.266
   39        0.166   6.150   4.953  11.269
   40        0.167   6.152   4.955  11.274
   41        0.165   6.148   4.950  11.264
   42        0.169   6.154   4.958  11.280
   43        0.165   6.148   4.950  11.264
   44        0.166   6.151   4.954  11.271
   45        0.159   6.140   4.940  11.238
   46        0.169   6.154   4.958  11.280
   47        0.159   6.140   4.940  11.238
   48        0.153   6.132   4.927  11.212
   49        0.167   6.151   4.954  11.272
   50        0.166   6.150   4.953  11.270
   51        0.167   6.151   4.954  11.272
   52        0.167   6.151   4.954  11.272
   53        0.166   6.150   4.953  11.270
   54        0.166   6.150   4.953  11.270
   55        0.166   6.150   4.953  11.270
   56        0.166   6.150   4.953  11.269
   57        0.167   6.152   4.955  11.273
   58        0.167   6.152   4.955  11.274
   59        0.167   6.152   4.955  11.273
   60        0.167   6.152   4.956  11.275
   61        0.165   6.148   4.950  11.264
   62        0.167   6.152   4.955  11.274
   63        0.165   6.148   4.950  11.264
   64        0.166   6.149   4.952  11.267
   65        0.167   6.152   4.955  11.275
   66        0.169   6.154   4.958  11.280
   67        0.167   6.152   4.955  11.275
   68        0.167   6.151   4.955  11.273
   69        0.165   6.149   4.951  11.265
   70        0.169   6.154   4.958  11.280
   71        0.165   6.149   4.951  11.265
   72        0.155   6.135   4.933  11.223
   73        1.726   4.365   0.000   6.091
   74        1.726   4.367   0.000   6.093
   75        1.726   4.366   0.000   6.092
   76        1.725   4.362   0.000   6.087
   77        1.726   4.365   0.000   6.091
   78        1.726   4.366   0.000   6.093
   79        1.727   4.361   0.000   6.088
   80        1.726   4.364   0.000   6.089
   81        1.726   4.360   0.000   6.086
   82        1.726   4.366   0.000   6.092
   83        1.725   4.362   0.000   6.087
   84        1.726   4.364   0.000   6.089
   85        1.726   4.360   0.000   6.086
   86        1.726   4.365   0.000   6.091
   87        1.726   4.368   0.000   6.093
   88        1.726   4.367   0.000   6.093
   89        1.726   4.368   0.000   6.093
   90        1.726   4.364   0.000   6.090
   91        1.726   4.370   0.000   6.096
   92        1.726   4.367   0.000   6.093
   93        1.726   4.368   0.000   6.093
   94        1.726   4.367   0.000   6.093
   95        1.726   4.364   0.000   6.090
   96        1.726   4.366   0.000   6.092
   97        1.726   4.366   0.000   6.092
   98        1.726   4.364   0.000   6.090
   99        1.726   4.370   0.000   6.096
  100        1.726   4.366   0.000   6.092
  101        1.726   4.366   0.000   6.092
  102        1.726   4.364   0.000   6.089
  103        1.726   4.353   0.000   6.078
  104        1.726   4.364   0.000   6.091
  105        1.726   4.367   0.000   6.093
  106        1.726   4.367   0.000   6.092
  107        1.726   4.365   0.000   6.091
  108        1.726   4.364   0.000   6.091
  109        1.726   4.367   0.000   6.093
  110        1.726   4.367   0.000   6.092
  111        1.726   4.367   0.000   6.093
  112        1.726   4.368   0.000   6.094
  113        1.726   4.365   0.000   6.091
  114        1.726   4.367   0.000   6.092
  115        1.726   4.365   0.000   6.091
  116        1.726   4.368   0.000   6.094
  117        1.726   4.365   0.000   6.091
  118        1.726   4.368   0.000   6.094
  119        1.727   4.369   0.000   6.095
  120        1.726   4.368   0.000   6.094
  121        1.726   4.366   0.000   6.092
  122        1.726   4.370   0.000   6.096
  123        1.726   4.366   0.000   6.092
  124        1.726   4.368   0.000   6.094
  125        1.726   4.366   0.000   6.092
  126        1.726   4.366   0.000   6.092
  127        1.726   4.368   0.000   6.094
  128        1.726   4.367   0.000   6.092
  129        1.726   4.367   0.000   6.093
  130        1.726   4.370   0.000   6.096
  131        1.726   4.366   0.000   6.092
  132        1.726   4.367   0.000   6.092
  133        1.726   4.367   0.000   6.093
  134        1.726   4.364   0.000   6.090
  135        1.726   4.365   0.000   6.091
  136        1.726   4.367   0.000   6.093
  137        1.726   4.366   0.000   6.092
  138        1.726   4.364   0.000   6.090
  139        1.726   4.364   0.000   6.089
  140        1.726   4.367   0.000   6.093
  141        1.726   4.366   0.000   6.092
  142        1.726   4.366   0.000   6.091
  143        1.726   4.365   0.000   6.091
  144        1.726   4.365   0.000   6.091
  145        1.726   4.368   0.000   6.094
  146        1.726   4.364   0.000   6.090
  147        1.726   4.364   0.000   6.089
  148        1.726   4.365   0.000   6.091
  149        1.726   4.368   0.000   6.094
  150        1.726   4.367   0.000   6.093
  151        1.727   4.368   0.000   6.095
  152        1.726   4.366   0.000   6.092
  153        1.726   4.366   0.000   6.092
  154        1.726   4.366   0.000   6.092
  155        1.726   4.364   0.000   6.090
  156        1.726   4.366   0.000   6.092
  157        1.726   4.366   0.000   6.092
  158        1.726   4.364   0.000   6.089
  159        1.726   4.365   0.000   6.091
  160        1.727   4.370   0.000   6.097
  161        1.727   4.370   0.000   6.097
  162        1.726   4.366   0.000   6.092
  163        1.726   4.364   0.000   6.090
  164        1.727   4.370   0.000   6.097
  165        1.727   4.370   0.000   6.097
  166        1.730   4.352   0.000   6.082
  167        1.726   4.368   0.000   6.094
  168        1.726   4.367   0.000   6.093
  169        1.726   4.365   0.000   6.091
  170        1.726   4.365   0.000   6.090
  171        1.726   4.365   0.000   6.091
  172        1.726   4.367   0.000   6.093
  173        1.726   4.365   0.000   6.091
  174        1.726   4.366   0.000   6.092
  175        1.726   4.366   0.000   6.092
  176        1.726   4.367   0.000   6.092
  177        1.726   4.367   0.000   6.092
  178        1.726   4.365   0.000   6.090
  179        1.726   4.365   0.000   6.091
  180        1.726   4.367   0.000   6.092
  181        1.726   4.367   0.000   6.092
  182        1.726   4.367   0.000   6.092
  183        1.726   4.365   0.000   6.090
  184        1.726   4.368   0.000   6.094
  185        1.726   4.367   0.000   6.093
  186        1.726   4.366   0.000   6.091
  187        1.726   4.366   0.000   6.091
  188        1.726   4.368   0.000   6.094
  189        1.726   4.367   0.000   6.093
  190        1.726   4.367   0.000   6.093
  191        1.726   4.366   0.000   6.092
  192        1.726   4.360   0.000   6.085
  193        1.726   4.363   0.000   6.089
  194        1.726   4.366   0.000   6.091
  195        1.726   4.366   0.000   6.091
  196        1.726   4.360   0.000   6.085
  197        1.726   4.363   0.000   6.089
  198        1.726   4.367   0.000   6.093
  199        1.726   4.368   0.000   6.093
  200        1.726   4.366   0.000   6.092
  201        1.726   4.367   0.000   6.093
  202        1.726   4.368   0.000   6.094
  203        1.726   4.367   0.000   6.093
  204        1.726   4.366   0.000   6.092
  205        1.726   4.367   0.000   6.093
  206        1.726   4.365   0.000   6.090
  207        1.726   4.361   0.000   6.086
  208        1.726   4.367   0.000   6.093
  209        1.726   4.367   0.000   6.093
  210        1.726   4.368   0.000   6.094
  211        1.726   4.367   0.000   6.093
  212        1.726   4.367   0.000   6.093
  213        1.726   4.367   0.000   6.093
  214        1.726   4.363   0.000   6.089
  215        1.726   4.364   0.000   6.090
  216        1.730   4.352   0.000   6.082
  217        0.536   0.005   0.000   0.541
--------------------------------------------------
tot        261.0441071.467 356.5071689.019
 


 magnetization (x)
 
# of ion       s       p       d       tot
------------------------------------------
    1        0.021   0.020   4.601   4.642
    2       -0.019  -0.019  -4.627  -4.664
    3        0.021   0.020   4.601   4.642
    4       -0.019  -0.019  -4.599  -4.636
    5        0.019   0.018   4.630   4.667
    6       -0.019  -0.019  -4.627  -4.664
    7        0.019   0.018   4.630   4.667
    8       -0.019  -0.018  -4.629  -4.666
    9        0.018   0.019   4.628   4.665
   10       -0.018  -0.018  -4.629  -4.666
   11        0.018   0.019   4.628   4.665
   12       -0.018  -0.019  -4.628  -4.665
   13        0.019   0.019   4.629   4.666
   14       -0.018  -0.018  -4.629  -4.666
   15        0.019   0.019   4.629   4.666
   16       -0.018  -0.018  -4.630  -4.667
   17        0.018   0.019   4.628   4.665
   18       -0.018  -0.019  -4.628  -4.665
   19        0.018   0.019   4.628   4.665
   20       -0.018  -0.019  -4.627  -4.664
   21        0.019   0.019   4.628   4.665
   22       -0.018  -0.019  -4.628  -4.665
   23        0.019   0.019   4.628   4.665
   24       -0.018  -0.019  -4.627  -4.664
   25        0.018   0.019   4.626   4.664
   26       -0.018  -0.019  -4.624  -4.662
   27        0.018   0.019   4.626   4.664
   28       -0.018  -0.019  -4.627  -4.663
   29        0.019   0.019   4.629   4.666
   30       -0.018  -0.019  -4.624  -4.662
   31        0.019   0.019   4.629   4.666
   32       -0.019  -0.019  -4.638  -4.675
   33        0.018   0.018   4.628   4.665
   34       -0.019  -0.018  -4.629  -4.666
   35        0.018   0.018   4.628   4.665
   36       -0.018  -0.018  -4.627  -4.663
   37        0.019   0.019   4.628   4.665
   38       -0.019  -0.018  -4.629  -4.666
   39        0.019   0.019   4.628   4.665
   40       -0.019  -0.019  -4.627  -4.665
   41        0.018   0.018   4.629   4.666
   42       -0.018  -0.019  -4.626  -4.663
   43        0.018   0.018   4.629   4.666
   44       -0.018  -0.019  -4.628  -4.665
   45        0.019   0.018   4.632   4.669
   46       -0.018  -0.019  -4.626  -4.663
   47        0.019   0.018   4.632   4.669
   48       -0.019  -0.019  -4.639  -4.677
   49        0.018   0.019   4.628   4.665
   50       -0.018  -0.019  -4.628  -4.665
   51        0.018   0.019   4.628   4.665
   52       -0.018  -0.019  -4.628  -4.665
   53        0.018   0.018   4.628   4.665
   54       -0.018  -0.019  -4.628  -4.665
   55        0.018   0.018   4.628   4.665
   56       -0.018  -0.018  -4.628  -4.665
   57        0.018   0.019   4.627   4.665
   58       -0.018  -0.019  -4.627  -4.665
   59        0.018   0.019   4.627   4.665
   60       -0.018  -0.019  -4.627  -4.664
   61        0.018   0.018   4.629   4.666
   62       -0.018  -0.019  -4.627  -4.665
   63        0.018   0.018   4.629   4.666
   64       -0.018  -0.018  -4.629  -4.666
   65        0.018   0.019   4.627   4.664
   66       -0.018  -0.019  -4.625  -4.662
   67        0.018   0.019   4.627   4.664
   68       -0.018  -0.018  -4.628  -4.664
   69        0.019   0.019   4.629   4.667
   70       -0.018  -0.019  -4.625  -4.662
   71        0.019   0.019   4.629   4.667
   72       -0.019  -0.019  -4.638  -4.676
   73       -0.002  -0.012   0.000  -0.014
   74       -0.002  -0.012   0.000  -0.013
   75        0.002   0.014   0.000   0.016
   76        0.002   0.013   0.000   0.015
   77       -0.002  -0.012   0.000  -0.014
   78       -0.002  -0.012   0.000  -0.013
   79        0.002   0.021   0.000   0.024
   80       -0.002  -0.017   0.000  -0.019
   81       -0.002  -0.011   0.000  -0.013
   82        0.002   0.014   0.000   0.016
   83        0.002   0.013   0.000   0.015
   84       -0.002  -0.017   0.000  -0.019
   85       -0.002  -0.011   0.000  -0.013
   86        0.002   0.015   0.000   0.017
   87        0.002   0.015   0.000   0.016
   88       -0.002  -0.015   0.000  -0.016
   89       -0.002  -0.014   0.000  -0.016
   90        0.002   0.013   0.000   0.015
   91        0.002   0.015   0.000   0.017
   92       -0.002  -0.015   0.000  -0.016
   93       -0.002  -0.014   0.000  -0.016
   94        0.002   0.014   0.000   0.016
   95        0.002   0.015   0.000   0.017
   96       -0.002  -0.015   0.000  -0.017
   97       -0.002  -0.015   0.000  -0.017
   98        0.002   0.013   0.000   0.015
   99        0.002   0.015   0.000   0.017
  100       -0.002  -0.015   0.000  -0.017
  101       -0.002  -0.015   0.000  -0.017
  102        0.002   0.016   0.000   0.018
  103        0.002   0.025   0.000   0.027
  104       -0.002  -0.016   0.000  -0.018
  105       -0.002  -0.015   0.000  -0.016
  106        0.002   0.015   0.000   0.016
  107        0.002   0.016   0.000   0.018
  108       -0.002  -0.016   0.000  -0.018
  109       -0.002  -0.015   0.000  -0.016
  110        0.002   0.015   0.000   0.016
  111        0.002   0.015   0.000   0.017
  112       -0.002  -0.017   0.000  -0.018
  113       -0.002  -0.014   0.000  -0.015
  114        0.002   0.015   0.000   0.016
  115        0.002   0.016   0.000   0.018
  116       -0.002  -0.017   0.000  -0.018
  117       -0.002  -0.014   0.000  -0.015
  118        0.002   0.015   0.000   0.017
  119        0.002   0.018   0.000   0.020
  120       -0.002  -0.015   0.000  -0.017
  121       -0.002  -0.015   0.000  -0.016
  122        0.002   0.016   0.000   0.018
  123        0.002   0.014   0.000   0.016
  124       -0.002  -0.015   0.000  -0.017
  125       -0.002  -0.015   0.000  -0.016
  126        0.002   0.015   0.000   0.017
  127        0.002   0.014   0.000   0.016
  128       -0.002  -0.016   0.000  -0.018
  129       -0.002  -0.015   0.000  -0.017
  130        0.002   0.016   0.000   0.018
  131        0.002   0.014   0.000   0.016
  132       -0.002  -0.016   0.000  -0.018
  133       -0.002  -0.015   0.000  -0.017
  134        0.002   0.020   0.000   0.022
  135        0.002   0.015   0.000   0.016
  136       -0.002  -0.015   0.000  -0.017
  137       -0.002  -0.015   0.000  -0.017
  138        0.002   0.015   0.000   0.017
  139        0.002   0.016   0.000   0.018
  140       -0.002  -0.015   0.000  -0.017
  141       -0.002  -0.015   0.000  -0.017
  142        0.002   0.015   0.000   0.017
  143        0.002   0.015   0.000   0.017
  144       -0.002  -0.014   0.000  -0.016
  145       -0.002  -0.016   0.000  -0.018
  146        0.002   0.015   0.000   0.017
  147        0.002   0.016   0.000   0.018
  148       -0.002  -0.014   0.000  -0.016
  149       -0.002  -0.016   0.000  -0.018
  150        0.002   0.014   0.000   0.016
  151        0.002   0.018   0.000   0.020
  152       -0.002  -0.016   0.000  -0.018
  153       -0.002  -0.016   0.000  -0.018
  154        0.002   0.013   0.000   0.014
  155        0.002   0.011   0.000   0.013
  156       -0.002  -0.016   0.000  -0.018
  157       -0.002  -0.016   0.000  -0.018
  158        0.002   0.012   0.000   0.014
  159        0.002   0.013   0.000   0.015
  160       -0.002  -0.020   0.000  -0.022
  161       -0.002  -0.020   0.000  -0.021
  162        0.002   0.013   0.000   0.014
  163        0.002   0.011   0.000   0.013
  164       -0.002  -0.020   0.000  -0.022
  165       -0.002  -0.020   0.000  -0.021
  166       -0.000   0.004   0.000   0.004
  167        0.002   0.015   0.000   0.017
  168       -0.002  -0.015   0.000  -0.016
  169       -0.002  -0.015   0.000  -0.017
  170        0.002   0.017   0.000   0.019
  171        0.002   0.015   0.000   0.017
  172       -0.002  -0.015   0.000  -0.016
  173       -0.002  -0.015   0.000  -0.017
  174        0.002   0.016   0.000   0.018
  175        0.002   0.014   0.000   0.016
  176       -0.002  -0.015   0.000  -0.017
  177       -0.002  -0.015   0.000  -0.017
  178        0.002   0.017   0.000   0.019
  179        0.002   0.015   0.000   0.017
  180       -0.002  -0.015   0.000  -0.017
  181       -0.002  -0.015   0.000  -0.017
  182        0.002   0.016   0.000   0.018
  183        0.002   0.016   0.000   0.018
  184       -0.002  -0.013   0.000  -0.015
  185       -0.002  -0.014   0.000  -0.016
  186        0.002   0.015   0.000   0.017
  187        0.002   0.015   0.000   0.017
  188       -0.002  -0.013   0.000  -0.015
  189       -0.002  -0.014   0.000  -0.016
  190        0.002   0.014   0.000   0.016
  191        0.002   0.015   0.000   0.017
  192       -0.002  -0.011   0.000  -0.012
  193       -0.002  -0.017   0.000  -0.019
  194        0.002   0.015   0.000   0.017
  195        0.002   0.015   0.000   0.017
  196       -0.002  -0.011   0.000  -0.012
  197       -0.002  -0.017   0.000  -0.019
  198        0.002   0.016   0.000   0.018
  199        0.002   0.015   0.000   0.017
  200       -0.002  -0.015   0.000  -0.017
  201       -0.002  -0.016   0.000  -0.017
  202        0.002   0.016   0.000   0.018
  203        0.002   0.013   0.000   0.015
  204       -0.002  -0.015   0.000  -0.017
  205       -0.002  -0.016   0.000  -0.017
  206        0.002   0.016   0.000   0.018
  207        0.002   0.016   0.000   0.018
  208       -0.002  -0.015   0.000  -0.017
  209       -0.002  -0.016   0.000  -0.018
  210        0.002   0.016   0.000   0.018
  211        0.002   0.013   0.000   0.015
  212       -0.002  -0.015   0.000  -0.017
  213       -0.002  -0.016   0.000  -0.018
  214        0.002   0.020   0.000   0.022
  215        0.002   0.015   0.000   0.016
  216       -0.000   0.003   0.000   0.003
  217       -0.005   0.001   0.000  -0.004
--------------------------------------------------
tot         -0.000  -0.014  -0.022  -0.036
 

 total amount of memory used by VASP MPI-rank0   148478. kBytes
=======================================================================

   base      :      30000. kBytes
   nonl-proj :      12937. kBytes
   fftplans  :       5695. kBytes
   grid      :       4457. kBytes
   one-center:        155. kBytes
   wavefun   :      95234. kBytes
 
  
  
 General timing and accounting informations for this job:
 ========================================================
  
                  Total CPU time used (sec):     2757.854
                            User time (sec):     2734.151
                          System time (sec):       23.704
                         Elapsed time (sec):     2765.228
  
                   Maximum memory used (kb):      341404.
                   Average memory used (kb):           0.
  
                          Minor page faults:       304342
                          Major page faults:           24
                 Voluntary context switches:          806
