       N       E                     dE             d eps       ncg     rms          rms(c)
DAV:   1     0.674367613135E+03    0.67437E+03   -0.34208E+04   864   0.187E+03
DAV:   2     0.953529605221E+01   -0.66483E+03   -0.64460E+03   972   0.507E+02
DAV:   3    -0.394165514049E+02   -0.48952E+02   -0.48742E+02   996   0.151E+02
DAV:   4    -0.400983670250E+02   -0.68182E+00   -0.68161E+00   996   0.194E+01
DAV:   5    -0.401092021276E+02   -0.10835E-01   -0.10835E-01  1008   0.237E+00    0.225E+01
DAV:   6    -0.382203927223E+02    0.18888E+01   -0.15699E+01  1080   0.317E+01    0.143E+01
DAV:   7    -0.389391464080E+02   -0.71875E+00   -0.18196E+00  1044   0.108E+01    0.113E+01
DAV:   8    -0.389973736289E+02   -0.58227E-01   -0.41871E-01  1020   0.549E+00    0.519E+00
DAV:   9    -0.391609435799E+02   -0.16357E+00   -0.48433E-02   900   0.216E+00    0.127E+00
DAV:  10    -0.391618982553E+02   -0.95468E-03   -0.19584E-02  1044   0.123E+00    0.278E-01
DAV:  11    -0.391621484414E+02   -0.25019E-03   -0.26828E-03   936   0.346E-01    0.134E-01
DAV:  12    -0.391623001698E+02   -0.15173E-03   -0.97678E-05  1008   0.119E-01    0.531E-02
DAV:  13    -0.391623557332E+02   -0.55563E-04   -0.87850E-05   876   0.542E-02    0.209E-02
DAV:  14    -0.391623635923E+02   -0.78591E-05   -0.80972E-06  1068   0.210E-02    0.905E-03
DAV:  15    -0.391623634045E+02    0.18779E-06   -0.14720E-06   900   0.730E-03    0.260E-03
DAV:  16    -0.391623636732E+02   -0.26872E-06   -0.22541E-07   936   0.277E-03    0.182E-03
DAV:  17    -0.391623636354E+02    0.37798E-07   -0.16682E-08   624   0.106E-03
   1 F= -.39162364E+02 E0= -.39162364E+02  d E =-.391624E+02  mag=     0.0000
