 vasp.5.4.4.18Apr17-6-g9f103f2a35 (build Apr 27 2017 11:13:10) complex          
  
 executed on           IFC91_ompi date 2020.05.13  10:06:41
 running on   12 total cores
 distrk:  each k-point on   12 cores,    1 groups
 distr:  one band on NCORES_PER_BAND=   1 cores,   12 groups


--------------------------------------------------------------------------------------------------------


 INCAR:
 POTCAR:    PAW Mn_pv 02Aug2007                   
 POTCAR:    PAW F 31May2000                       

 ----------------------------------------------------------------------------- 
|                                                                             |
|           W    W    AA    RRRRR   N    N  II  N    N   GGGG   !!!           |
|           W    W   A  A   R    R  NN   N  II  NN   N  G    G  !!!           |
|           W    W  A    A  R    R  N N  N  II  N N  N  G       !!!           |
|           W WW W  AAAAAA  RRRRR   N  N N  II  N  N N  G  GGG   !            |
|           WW  WW  A    A  R   R   N   NN  II  N   NN  G    G                |
|           W    W  A    A  R    R  N    N  II  N    N   GGGG   !!!           |
|                                                                             |
|      For optimal performance we recommend to set                            |
|        NCORE= 4 - approx SQRT( number of cores)                             |
|      NCORE specifies how many cores store one orbital (NPAR=cpu/NCORE).     |
|      This setting can  greatly improve the performance of VASP for DFT.     |
|      The default,   NCORE=1            might be grossly inefficient         |
|      on modern multi-core architectures or massively parallel machines.     |
|      Do your own testing !!!!                                               |
|      Unfortunately you need to use the default for GW and RPA calculations. |
|      (for HF NCORE is supported but not extensively tested yet)             |
|                                                                             |
 ----------------------------------------------------------------------------- 

 POTCAR:    PAW Mn_pv 02Aug2007                   
   VRHFIN =Mn: 3p4s3d                                                           
   LEXCH  = CA                                                                  
   EATOM  =  2028.0466 eV,  149.0572 Ry                                         
                                                                                
   TITEL  = PAW Mn_pv 02Aug2007                                                 
   LULTRA =        F    use ultrasoft PP ?                                      
   IUNSCR =        1    unscreen: 0-lin 1-nonlin 2-no                           
   RPACOR =    2.080    partial core radius                                     
   POMASS =   54.938; ZVAL   =   13.000    mass and valenz                      
   RCORE  =    2.300    outmost cutoff radius                                   
   RWIGS  =    2.500; RWIGS  =    1.323    wigner-seitz radius (au A)           
   ENMAX  =  269.944; ENMIN  =  202.458 eV                                      
   ICORE  =        3    local potential                                         
   LCOR   =        T    correct aug charges                                     
   LPAW   =        T    paw PP                                                  
   EAUG   =  569.085                                                            
   DEXC   =    0.000                                                            
   RMAX   =    2.343    core radius for proj-oper                               
   RAUG   =    1.300    factor for augmentation sphere                          
   RDEP   =    2.338    radius for radial grids                                 
   RDEPT  =    1.798    core radius for aug-charge                              
                                                                                
   Atomic configuration                                                         
    8 entries                                                                   
     n  l   j            E        occ.                                          
     1  0  0.50     -6393.6057   2.0000                                         
     2  0  0.50      -735.9993   2.0000                                         
     2  1  1.50      -624.3417   6.0000                                         
     3  0  0.50       -80.9782   2.0000                                         
     3  1  1.50       -50.3144   6.0000                                         
     3  2  2.50        -3.6171   6.0000                                         
     4  0  0.50        -4.3304   1.0000                                         
     4  3  2.50        -1.3606   0.0000                                         
   Description                                                                  
     l       E           TYP  RCUT    TYP  RCUT                                 
     1    -50.3143634     23  2.000                                             
     1     -1.3605826     23  2.000                                             
     2     -3.6171470     23  2.300                                             
     2     -4.9777296     23  2.300                                             
     0     -4.3303688     23  2.300                                             
     0      7.3408788     23  2.300                                             
     3      9.5240782     23  2.300                                             
  local pseudopotential read in
  partial core-charges read in
  partial kinetic energy density read in
  atomic valenz-charges read in
  non local Contribution for L=           1  read in
    real space projection operators read in
  non local Contribution for L=           1  read in
    real space projection operators read in
  non local Contribution for L=           2  read in
    real space projection operators read in
  non local Contribution for L=           2  read in
    real space projection operators read in
  non local Contribution for L=           0  read in
    real space projection operators read in
  non local Contribution for L=           0  read in
    real space projection operators read in
    PAW grid and wavefunctions read in
 
   number of l-projection  operators is LMAX  =           6
   number of lm-projection operators is LMMAX =          18
 
 POTCAR:    PAW F 31May2000                       
   VRHFIN =F: s2p5                                                              
   LEXCH  = CA                                                                  
   EATOM  =   658.3685 eV,   48.3887 Ry                                         
                                                                                
   TITEL  = PAW F 31May2000                                                     
   LULTRA =        F    use ultrasoft PP ?                                      
   IUNSCR =        1    unscreen: 0-lin 1-nonlin 2-no                           
   RPACOR =    1.200    partial core radius                                     
   POMASS =   18.998; ZVAL   =    7.000    mass and valenz                      
   RCORE  =    1.520    outmost cutoff radius                                   
   RWIGS  =    1.500; RWIGS  =    0.794    wigner-seitz radius (au A)           
   ENMAX  =  400.000; ENMIN  =  300.000 eV                                      
   ICORE  =        2    local potential                                         
   LCOR   =        T    correct aug charges                                     
   LPAW   =        T    paw PP                                                  
   EAUG   =  613.614                                                            
   DEXC   =    0.000                                                            
   RMAX   =    1.555    core radius for proj-oper                               
   RAUG   =    1.300    factor for augmentation sphere                          
   RDEP   =    1.539    radius for radial grids                                 
   RDEPT  =    1.299    core radius for aug-charge                              
                                                                                
   Atomic configuration                                                         
    4 entries                                                                   
     n  l   j            E        occ.                                          
     1  0  0.50      -658.3386   2.0000                                         
     2  0  0.50       -29.6221   2.0000                                         
     2  1  0.50       -11.2952   5.0000                                         
     3  2  1.50       -12.2452   0.0000                                         
   Description                                                                  
     l       E           TYP  RCUT    TYP  RCUT                                 
     0    -29.6221019     23  1.200                                             
     0     -9.5240782     23  1.200                                             
     1    -11.2951545     23  1.520                                             
     1      1.3605826     23  1.520                                             
     2    -12.2452434      7  1.500                                             
  local pseudopotential read in
  partial core-charges read in
  partial kinetic energy density read in
  kinetic energy density of atom read in
  atomic valenz-charges read in
  non local Contribution for L=           0  read in
    real space projection operators read in
  non local Contribution for L=           0  read in
    real space projection operators read in
  non local Contribution for L=           1  read in
    real space projection operators read in
  non local Contribution for L=           1  read in
    real space projection operators read in
    PAW grid and wavefunctions read in
 
   number of l-projection  operators is LMAX  =           4
   number of lm-projection operators is LMMAX =           8
 
  PAW Mn_pv 02Aug2007                   :
 energy of atom  1       EATOM=-2028.0466
 kinetic energy error for atom=    0.0047 (will be added to EATOM!!)
  PAW F 31May2000                       :
 energy of atom  2       EATOM= -658.3685
 kinetic energy error for atom=    0.0252 (will be added to EATOM!!)
 
 
 POSCAR: Mn  F                                   
  positions in cartesian coordinates
  No initial velocities read in
 exchange correlation table for  LEXCH =        2
   RHO(1)=    0.500       N(1)  =     2000
   RHO(2)=  100.500       N(2)  =     4000
 


--------------------------------------------------------------------------------------------------------


 ion  position               nearest neighbor table
   1  0.500  0.500  0.500-   3 2.07   4 2.07   5 2.10   6 2.10   5 2.10   6 2.10
   2  0.000  0.000  0.000-   5 2.07   6 2.07   3 2.10   4 2.10   3 2.10   4 2.10
   3  0.196  0.804  0.500-   1 2.07   2 2.10   2 2.10
   4  0.804  0.196  0.500-   1 2.07   2 2.10   2 2.10
   5  0.304  0.304  0.000-   2 2.07   1 2.10   1 2.10
   6  0.696  0.696  0.000-   2 2.07   1 2.10   1 2.10
 
  LATTYP: Found a simple tetragonal cell.
 ALAT       =     4.8053345103
 C/A-ratio  =     0.6776976826
  
  Lattice vectors:
  
 A1 = (   4.8053345103,   0.0000000000,   0.0000000000)
 A2 = (   0.0000000000,   4.8053345103,   0.0000000000)
 A3 = (   0.0000000000,   0.0000000000,   3.2565640618)


Analysis of symmetry for initial positions (statically):
=====================================================================
 Subroutine PRICEL returns:
 Original cell was already a primitive cell.
 

 Routine SETGRP: Setting up the symmetry group for a 
 simple tetragonal supercell.


 Subroutine GETGRP returns: Found 16 space group operations
 (whereof  8 operations were pure point group operations)
 out of a pool of 16 trial point group operations.


The static configuration has the point symmetry D_2h.
 The point group associated with its full space group is D_4h.


Analysis of symmetry for dynamics (positions and initial velocities):
=====================================================================
 Subroutine PRICEL returns:
 Original cell was already a primitive cell.
 

 Routine SETGRP: Setting up the symmetry group for a 
 simple tetragonal supercell.


 Subroutine GETGRP returns: Found 16 space group operations
 (whereof  8 operations were pure point group operations)
 out of a pool of 16 trial point group operations.


The dynamic configuration has the point symmetry D_2h.
 The point group associated with its full space group is D_4h.


Analysis of structural, dynamic, and magnetic symmetry:
=====================================================================
 Subroutine PRICEL returns:
 Original cell was already a primitive cell.
 

 Routine SETGRP: Setting up the symmetry group for a 
 simple tetragonal supercell.


 Subroutine GETGRP returns: Found 16 space group operations
 (whereof  8 operations were pure point group operations)
 out of a pool of 16 trial point group operations.


The magnetic configuration has the point symmetry D_2h.
 The point group associated with its full space group is D_4h.


 Subroutine INISYM returns: Found 16 space group operations
 (whereof  8 operations are pure point group operations),
 and found     1 'primitive' translations

 
 
 KPOINTS: KPOINTS created by Atomic Simulation Env

Automatic generation of k-mesh.
Space group operators:
 irot       det(A)        alpha          n_x          n_y          n_z        tau_x        tau_y        tau_z
    1     1.000000     0.000001     1.000000     0.000000     0.000000     0.000000     0.000000     0.000000
    2    -1.000000     0.000001     1.000000     0.000000     0.000000     0.000000     0.000000     0.000000
    3     1.000000   180.000000     0.000000     0.000000     1.000000     0.000000     0.000000     0.000000
    4    -1.000000   180.000000     0.000000     0.000000     1.000000     0.000000     0.000000     0.000000
    5     1.000000   180.000000     0.707107     0.707107     0.000000     0.000000     0.000000     0.000000
    6    -1.000000   180.000000     0.707107     0.707107     0.000000     0.000000     0.000000     0.000000
    7     1.000000   180.000000     0.707107    -0.707107     0.000000     0.000000     0.000000     0.000000
    8    -1.000000   180.000000     0.707107    -0.707107     0.000000     0.000000     0.000000     0.000000
    9     1.000000    90.000000     0.000000     0.000000    -1.000000     0.500000     0.500000     0.500000
   10    -1.000000    90.000000     0.000000     0.000000    -1.000000     0.500000     0.500000     0.500000
   11     1.000000    90.000000     0.000000     0.000000     1.000000     0.500000     0.500000     0.500000
   12    -1.000000    90.000000     0.000000     0.000000     1.000000     0.500000     0.500000     0.500000
   13     1.000000   180.000000     0.000000     1.000000     0.000000     0.500000     0.500000     0.500000
   14    -1.000000   180.000000     0.000000     1.000000     0.000000     0.500000     0.500000     0.500000
   15     1.000000   180.000000     1.000000     0.000000     0.000000     0.500000     0.500000     0.500000
   16    -1.000000   180.000000     1.000000     0.000000     0.000000     0.500000     0.500000     0.500000
 
 Subroutine IBZKPT returns following result:
 ===========================================
 
 Found      9 irreducible k-points:
 
 Following reciprocal coordinates:
            Coordinates               Weight
  0.125000  0.125000  0.083333      8.000000
  0.375000  0.125000  0.083333     16.000000
  0.375000  0.375000  0.083333      8.000000
  0.125000  0.125000  0.250000      8.000000
  0.375000  0.125000  0.250000     16.000000
  0.375000  0.375000  0.250000      8.000000
  0.125000  0.125000  0.416667      8.000000
  0.375000  0.125000  0.416667     16.000000
  0.375000  0.375000  0.416667      8.000000
 
 Following cartesian coordinates:
            Coordinates               Weight
  0.026013  0.026013  0.025589      8.000000
  0.078038  0.026013  0.025589     16.000000
  0.078038  0.078038  0.025589      8.000000
  0.026013  0.026013  0.076768      8.000000
  0.078038  0.026013  0.076768     16.000000
  0.078038  0.078038  0.076768      8.000000
  0.026013  0.026013  0.127947      8.000000
  0.078038  0.026013  0.127947     16.000000
  0.078038  0.078038  0.127947      8.000000
 
 TETIRR: Found    106 inequivalent tetrahedra from      576


--------------------------------------------------------------------------------------------------------




 Dimension of arrays:
   k-points           NKPTS =      9   k-points in BZ     NKDIM =      9   number of bands    NBANDS=     36
   number of dos      NEDOS =    301   number of ions     NIONS =      6
   non local maximal  LDIM  =      6   non local SUM 2l+1 LMDIM =     18
   total plane-waves  NPLWV =  18000
   max r-space proj   IRMAX =      1   max aug-charges    IRDMAX=  58297
   dimension x,y,z NGX =    30 NGY =   30 NGZ =   20
   dimension x,y,z NGXF=    60 NGYF=   60 NGZF=   40
   support grid    NGXF=   120 NGYF=  120 NGZF=   80
   ions per type =               2   4
   NGX,Y,Z   is equivalent  to a cutoff of  10.38, 10.38, 10.21 a.u.
   NGXF,Y,Z  is equivalent  to a cutoff of  20.76, 20.76, 20.42 a.u.

 SYSTEM =  unknown system                          
 POSCAR =  Mn  F                                   

 Startparameter for this run:
   NWRITE =      2    write-flag & timer
   PREC   = normal    normal or accurate (medium, high low for compatibility)
   ISTART =      0    job   : 0-new  1-cont  2-samecut
   ICHARG =      2    charge: 1-file 2-atom 10-const
   ISPIN  =      2    spin polarized calculation?
   LNONCOLLINEAR =      F non collinear calculations
   LSORBIT =      F    spin-orbit coupling
   INIWAV =      1    electr: 0-lowe 1-rand  2-diag
   LASPH  =      T    aspherical Exc in radial PAW
   METAGGA=      F    non-selfconsistent MetaGGA calc.

 Electronic Relaxation 1
   ENCUT  =  600.0 eV  44.10 Ry    6.64 a.u.   9.60  9.60  6.50*2*pi/ulx,y,z
   ENINI  =  600.0     initial cutoff
   ENAUG  =  613.6 eV  augmentation charge cutoff
   NELM   =     60;   NELMIN=  2; NELMDL= -5     # of ELM steps 
   EDIFF  = 0.1E-05   stopping-criterion for ELM
   LREAL  =      F    real-space projection
   NLSPLINE    = F    spline interpolate recip. space projectors
   LCOMPAT=      F    compatible to vasp.4.4
   GGA_COMPAT  = T    GGA compatible to vasp.4.4-vasp.4.6
   LMAXPAW     = -100 max onsite density
   LMAXMIX     =    4 max onsite mixed and CHGCAR
   VOSKOWN=      0    Vosko Wilk Nusair interpolation
   ROPT   =    0.00000   0.00000
 Ionic relaxation
   EDIFFG = 0.1E-04   stopping-criterion for IOM
   NSW    =      0    number of steps for IOM
   NBLOCK =      1;   KBLOCK =      1    inner block; outer block 
   IBRION =     -1    ionic relax: 0-MD 1-quasi-New 2-CG
   NFREE  =      0    steps in history (QN), initial steepest desc. (CG)
   ISIF   =      2    stress and relaxation
   IWAVPR =     10    prediction:  0-non 1-charg 2-wave 3-comb
   ISYM   =      2    0-nonsym 1-usesym 2-fastsym
   LCORR  =      T    Harris-Foulkes like correction to forces

   POTIM  = 0.5000    time-step for ionic-motion
   TEIN   =    0.0    initial temperature
   TEBEG  =    0.0;   TEEND  =   0.0 temperature during run
   SMASS  =  -3.00    Nose mass-parameter (am)
   estimated Nose-frequenzy (Omega)   =  0.10E-29 period in steps =****** mass=  -0.528E-27a.u.
   SCALEE = 1.0000    scale energy and forces
   NPACO  =    256;   APACO  = 16.0  distance and # of slots for P.C.
   PSTRESS=    0.0 pullay stress

  Mass of Ions in am
   POMASS =  54.94 19.00
  Ionic Valenz
   ZVAL   =  13.00  7.00
  Atomic Wigner-Seitz radii
   RWIGS  =  -1.00 -1.00
  virtual crystal weights 
   VCA    =   1.00  1.00
   NELECT =      54.0000    total number of electrons
   NUPDOWN=      -1.0000    fix difference up-down

 DOS related values:
   EMIN   =  10.00;   EMAX   =-10.00  energy-range for DOS
   EFERMI =   0.00
   ISMEAR =    -5;   SIGMA  =   0.20  broadening in eV -4-tet -1-fermi 0-gaus

 Electronic relaxation 2 (details)
   IALGO  =     38    algorithm
   LDIAG  =      T    sub-space diagonalisation (order eigenvalues)
   LSUBROT=      F    optimize rotation matrix (better conditioning)
   TURBO    =      0    0=normal 1=particle mesh
   IRESTART =      0    0=no restart 2=restart with 2 vectors
   NREBOOT  =      0    no. of reboots
   NMIN     =      0    reboot dimension
   EREF     =   0.00    reference energy to select bands
   IMIX   =      4    mixing-type and parameters
     AMIX     =   0.40;   BMIX     =  1.00
     AMIX_MAG =   1.60;   BMIX_MAG =  1.00
     AMIN     =   0.10
     WC   =   100.;   INIMIX=   1;  MIXPRE=   1;  MAXMIX= -45

 Intra band minimization:
   WEIMIN = 0.0000     energy-eigenvalue tresh-hold
   EBREAK =  0.69E-08  absolut break condition
   DEPER  =   0.30     relativ break condition  

   TIME   =   0.40     timestep for ELM

  volume/ion in A,a.u.               =      12.53        84.58
  Fermi-wavevector in a.u.,A,eV,Ry     =   1.466011  2.770358 29.241467  2.149187
  Thomas-Fermi vector in A             =   2.581799
 
 Write flags
   LWAVE        =      T    write WAVECAR
   LDOWNSAMPLE  =      F    k-point downsampling of WAVECAR
   LCHARG       =      T    write CHGCAR
   LVTOT        =      F    write LOCPOT, total local potential
   LVHAR        =      F    write LOCPOT, Hartree potential only
   LELF         =      F    write electronic localiz. function (ELF)
   LORBIT       =     11    0 simple, 1 ext, 2 COOP (PROOUT), +10 PAW based schemes


 Dipole corrections
   LMONO  =      F    monopole corrections only (constant potential shift)
   LDIPOL =      F    correct potential (dipole corrections)
   IDIPOL =      0    1-x, 2-y, 3-z, 4-all directions 
   EPSILON=  1.0000000 bulk dielectric constant

 LDA+U is selected, type is set to LDAUTYPE =  2
   angular momentum for each species LDAUL =     2   -1
   U (eV)           for each species LDAUU =   6.0  0.0
   J (eV)           for each species LDAUJ =   0.0  0.0
 Exchange correlation treatment:
   GGA     =    --    GGA type
   LEXCH   =     2    internal setting for exchange type
   VOSKOWN=      0    Vosko Wilk Nusair interpolation
   LHFCALC =     F    Hartree Fock is set to
   LHFONE  =     F    Hartree Fock one center treatment
   AEXX    =    0.0000 exact exchange contribution

 Linear response parameters
   LEPSILON=     F    determine dielectric tensor
   LRPA    =     F    only Hartree local field effects (RPA)
   LNABLA  =     F    use nabla operator in PAW spheres
   LVEL    =     F    velocity operator in full k-point grid
   LINTERFAST=   F  fast interpolation
   KINTER  =     0    interpolate to denser k-point grid
   CSHIFT  =0.1000    complex shift for real part using Kramers Kronig
   OMEGAMAX=  -1.0    maximum frequency
   DEG_THRESHOLD= 0.2000000E-02 threshold for treating states as degnerate
   RTIME   =   -0.100 relaxation time in fs
  (WPLASMAI=    0.000 imaginary part of plasma frequency in eV, 0.658/RTIME)
   DFIELD  = 0.0000000 0.0000000 0.0000000 field for delta impulse in time
 
 Orbital magnetization related:
   ORBITALMAG=     F  switch on orbital magnetization
   LCHIMAG   =     F  perturbation theory with respect to B field
   DQ        =  0.001000  dq finite difference perturbation B field
   LLRAUG    =     F  two centre corrections for induced B field



--------------------------------------------------------------------------------------------------------


 Static calculation
 charge density and potential will be updated during run
 spin polarized calculation
 Variant of blocked Davidson
 Davidson routine will perform the subspace rotation
 perform sub-space diagonalisation
    after iterative eigenvector-optimisation
 modified Broyden-mixing scheme, WC =      100.0
 initial mixing is a Kerker type mixing with AMIX =  0.4000 and BMIX =      1.0000
 Hartree-type preconditioning will be used
 using additional bands            9
 reciprocal scheme for non local part
 use partial core corrections
 calculate Harris-corrections to forces 
   (improved forces if not selfconsistent)
 use of overlap-Matrix (Vanderbilt PP)
 Fermi weights with tetrahedron method with Bloechl corrections


--------------------------------------------------------------------------------------------------------


  energy-cutoff  :      600.00
  volume of cell :       75.20
      direct lattice vectors                 reciprocal lattice vectors
     4.805334510  0.000000000  0.000000000     0.208102058  0.000000000  0.000000000
     0.000000000  4.805334510  0.000000000     0.000000000  0.208102058  0.000000000
     0.000000000  0.000000000  3.256564062     0.000000000  0.000000000  0.307072111

  length of vectors
     4.805334510  4.805334510  3.256564062     0.208102058  0.208102058  0.307072111


 
 k-points in units of 2pi/SCALE and weight: KPOINTS created by Atomic Simulation Env
   0.02601276  0.02601276  0.02558934       0.083
   0.07803827  0.02601276  0.02558934       0.167
   0.07803827  0.07803827  0.02558934       0.083
   0.02601276  0.02601276  0.07676803       0.083
   0.07803827  0.02601276  0.07676803       0.167
   0.07803827  0.07803827  0.07676803       0.083
   0.02601276  0.02601276  0.12794671       0.083
   0.07803827  0.02601276  0.12794671       0.167
   0.07803827  0.07803827  0.12794671       0.083
 
 k-points in reciprocal lattice and weights: KPOINTS created by Atomic Simulation Env
   0.12500000  0.12500000  0.08333333       0.083
   0.37500000  0.12500000  0.08333333       0.167
   0.37500000  0.37500000  0.08333333       0.083
   0.12500000  0.12500000  0.25000000       0.083
   0.37500000  0.12500000  0.25000000       0.167
   0.37500000  0.37500000  0.25000000       0.083
   0.12500000  0.12500000  0.41666667       0.083
   0.37500000  0.12500000  0.41666667       0.167
   0.37500000  0.37500000  0.41666667       0.083
 
 position of ions in fractional coordinates (direct lattice) 
   0.50000000  0.50000000  0.50000000
   0.00000000  0.00000000  0.00000000
   0.19558347  0.80441653  0.50000000
   0.80441653  0.19558347  0.50000000
   0.30441653  0.30441653  0.00000000
   0.69558347  0.69558347  0.00000000
 
 position of ions in cartesian coordinates  (Angst):
   2.40266726  2.40266726  1.62828203
   0.00000000  0.00000000  0.00000000
   0.93984399  3.86549052  1.62828203
   3.86549052  0.93984399  1.62828203
   1.46282327  1.46282327  0.00000000
   3.34251124  3.34251124  0.00000000
 


--------------------------------------------------------------------------------------------------------


 k-point  1 :   0.1250 0.1250 0.0833  plane waves:    2529
 k-point  2 :   0.3750 0.1250 0.0833  plane waves:    2520
 k-point  3 :   0.3750 0.3750 0.0833  plane waves:    2511
 k-point  4 :   0.1250 0.1250 0.2500  plane waves:    2528
 k-point  5 :   0.3750 0.1250 0.2500  plane waves:    2509
 k-point  6 :   0.3750 0.3750 0.2500  plane waves:    2504
 k-point  7 :   0.1250 0.1250 0.4167  plane waves:    2497
 k-point  8 :   0.3750 0.1250 0.4167  plane waves:    2498
 k-point  9 :   0.3750 0.3750 0.4167  plane waves:    2505

 maximum and minimum number of plane-waves per node :      2529     2497

 maximum number of plane-waves:      2529
 maximum index in each direction: 
   IXMAX=    9   IYMAX=    9   IZMAX=    6
   IXMIN=   -9   IYMIN=   -9   IZMIN=   -6


 serial   3D FFT for wavefunctions
 parallel 3D FFT for charge:
    minimum data exchange during FFTs selected (reduces bandwidth)


 total amount of memory used by VASP MPI-rank0    43583. kBytes
=======================================================================

   base      :      30000. kBytes
   nonl-proj :       6806. kBytes
   fftplans  :       1875. kBytes
   grid      :       2467. kBytes
   one-center:        186. kBytes
   wavefun   :       2249. kBytes
 
     INWAV:  cpu time    0.0000: real time    0.0000
 Broyden mixing: mesh for mixing (old mesh)
   NGX = 19   NGY = 19   NGZ = 13
  (NGX  = 60   NGY  = 60   NGZ  = 40)
  gives a total of   4693 points

 initial charge density was supplied:
 charge density of overlapping atoms calculated
 number of electron      54.0000000 magnetization       0.0000000
 keeping initial charge density in first step


--------------------------------------------------------------------------------------------------------


 Maximum index for augmentation-charges         4419 (set IRDMAX)


--------------------------------------------------------------------------------------------------------


 First call to EWALD:  gamma=   0.420
 Maximum number of real-space cells 2x 2x 3
 Maximum number of reciprocal cells 3x 3x 2

    FEWALD:  cpu time    0.0010: real time    0.0010


--------------------------------------- Iteration      1(   1)  ---------------------------------------


    POTLOK:  cpu time    0.0060: real time    0.0060
    SETDIJ:  cpu time    0.2309: real time    0.2309
atom =   1  type =  1  l = 2
 
 onsite density matrix
 
spin component  1
 
  0.2837  0.0000  0.0000  0.0000  0.0000
  0.0000  0.2837  0.0000  0.0000  0.0000
  0.0000  0.0000  0.2837  0.0000  0.0000
  0.0000  0.0000  0.0000  0.2837  0.0000
  0.0000  0.0000  0.0000  0.0000  0.2837
 
spin component  2
 
  0.7701  0.0000  0.0000  0.0000  0.0000
  0.0000  0.7701  0.0000  0.0000  0.0000
  0.0000  0.0000  0.7701  0.0000  0.0000
  0.0000  0.0000  0.0000  0.7701  0.0000
  0.0000  0.0000  0.0000  0.0000  0.7701
 
 occupancies and eigenvectors
 
  o =  0.2837  v =  1.0000  0.0000  0.0000  0.0000  0.0000  0.0000  0.0000  0.0000  0.0000  0.0000      0.0000  0.0000  0.0000  0.0000  0.0000  0.0000  0.0000  0.0000  0.0000  0.0000
  o =  0.2837  v =  0.0000  1.0000  0.0000  0.0000  0.0000  0.0000  0.0000  0.0000  0.0000  0.0000      0.0000  0.0000  0.0000  0.0000  0.0000  0.0000  0.0000  0.0000  0.0000  0.0000
  o =  0.2837  v =  0.0000  0.0000  1.0000  0.0000  0.0000  0.0000  0.0000  0.0000  0.0000  0.0000      0.0000  0.0000  0.0000  0.0000  0.0000  0.0000  0.0000  0.0000  0.0000  0.0000
  o =  0.2837  v =  0.0000  0.0000  0.0000  1.0000  0.0000  0.0000  0.0000  0.0000  0.0000  0.0000      0.0000  0.0000  0.0000  0.0000  0.0000  0.0000  0.0000  0.0000  0.0000  0.0000
  o =  0.2837  v =  0.0000  0.0000  0.0000  0.0000  1.0000  0.0000  0.0000  0.0000  0.0000  0.0000      0.0000  0.0000  0.0000  0.0000  0.0000  0.0000  0.0000  0.0000  0.0000  0.0000
  o =  0.7701  v =  0.0000  0.0000  0.0000  0.0000  0.0000  1.0000  0.0000  0.0000  0.0000  0.0000      0.0000  0.0000  0.0000  0.0000  0.0000  0.0000  0.0000  0.0000  0.0000  0.0000
  o =  0.7701  v =  0.0000  0.0000  0.0000  0.0000  0.0000  0.0000  1.0000  0.0000  0.0000  0.0000      0.0000  0.0000  0.0000  0.0000  0.0000  0.0000  0.0000  0.0000  0.0000  0.0000
  o =  0.7701  v =  0.0000  0.0000  0.0000  0.0000  0.0000  0.0000  0.0000  1.0000  0.0000  0.0000      0.0000  0.0000  0.0000  0.0000  0.0000  0.0000  0.0000  0.0000  0.0000  0.0000
  o =  0.7701  v =  0.0000  0.0000  0.0000  0.0000  0.0000  0.0000  0.0000  0.0000  1.0000  0.0000      0.0000  0.0000  0.0000  0.0000  0.0000  0.0000  0.0000  0.0000  0.0000  0.0000
  o =  0.7701  v =  0.0000  0.0000  0.0000  0.0000  0.0000  0.0000  0.0000  0.0000  0.0000  1.0000      0.0000  0.0000  0.0000  0.0000  0.0000  0.0000  0.0000  0.0000  0.0000  0.0000
atom =   2  type =  1  l = 2
 
 onsite density matrix
 
spin component  1
 
  0.7701  0.0000  0.0000  0.0000  0.0000
  0.0000  0.7701  0.0000  0.0000  0.0000
  0.0000  0.0000  0.7701  0.0000  0.0000
  0.0000  0.0000  0.0000  0.7701  0.0000
  0.0000  0.0000  0.0000  0.0000  0.7701
 
spin component  2
 
  0.2837  0.0000  0.0000  0.0000  0.0000
  0.0000  0.2837  0.0000  0.0000  0.0000
  0.0000  0.0000  0.2837  0.0000  0.0000
  0.0000  0.0000  0.0000  0.2837  0.0000
  0.0000  0.0000  0.0000  0.0000  0.2837
 
 occupancies and eigenvectors
 
  o =  0.2837  v =  0.0000  0.0000  0.0000  0.0000  0.0000  1.0000  0.0000  0.0000  0.0000  0.0000      0.0000  0.0000  0.0000  0.0000  0.0000  0.0000  0.0000  0.0000  0.0000  0.0000
  o =  0.2837  v =  0.0000  0.0000  0.0000  0.0000  0.0000  0.0000  1.0000  0.0000  0.0000  0.0000      0.0000  0.0000  0.0000  0.0000  0.0000  0.0000  0.0000  0.0000  0.0000  0.0000
  o =  0.2837  v =  0.0000  0.0000  0.0000  0.0000  0.0000  0.0000  0.0000  1.0000  0.0000  0.0000      0.0000  0.0000  0.0000  0.0000  0.0000  0.0000  0.0000  0.0000  0.0000  0.0000
  o =  0.2837  v =  0.0000  0.0000  0.0000  0.0000  0.0000  0.0000  0.0000  0.0000  1.0000  0.0000      0.0000  0.0000  0.0000  0.0000  0.0000  0.0000  0.0000  0.0000  0.0000  0.0000
  o =  0.2837  v =  0.0000  0.0000  0.0000  0.0000  0.0000  0.0000  0.0000  0.0000  0.0000  1.0000      0.0000  0.0000  0.0000  0.0000  0.0000  0.0000  0.0000  0.0000  0.0000  0.0000
  o =  0.7701  v =  1.0000  0.0000  0.0000  0.0000  0.0000  0.0000  0.0000  0.0000  0.0000  0.0000      0.0000  0.0000  0.0000  0.0000  0.0000  0.0000  0.0000  0.0000  0.0000  0.0000
  o =  0.7701  v =  0.0000  1.0000  0.0000  0.0000  0.0000  0.0000  0.0000  0.0000  0.0000  0.0000      0.0000  0.0000  0.0000  0.0000  0.0000  0.0000  0.0000  0.0000  0.0000  0.0000
  o =  0.7701  v =  0.0000  0.0000  1.0000  0.0000  0.0000  0.0000  0.0000  0.0000  0.0000  0.0000      0.0000  0.0000  0.0000  0.0000  0.0000  0.0000  0.0000  0.0000  0.0000  0.0000
  o =  0.7701  v =  0.0000  0.0000  0.0000  1.0000  0.0000  0.0000  0.0000  0.0000  0.0000  0.0000      0.0000  0.0000  0.0000  0.0000  0.0000  0.0000  0.0000  0.0000  0.0000  0.0000
  o =  0.7701  v =  0.0000  0.0000  0.0000  0.0000  1.0000  0.0000  0.0000  0.0000  0.0000  0.0000      0.0000  0.0000  0.0000  0.0000  0.0000  0.0000  0.0000  0.0000  0.0000  0.0000
     EDDAV:  cpu time    0.3157: real time    0.3344
 BZINTS: Fermi energy: 18.905906; 54.000000 electrons
         Band energy: -57.026418;  BLOECHL correction: -0.150966
       DOS:  cpu time    0.0070: real time    0.0070
    --------------------------------------------
      LOOP:  cpu time    0.5597: real time    0.5784

 eigenvalue-minimisations  :  1296
 total energy-change (2. order) : 0.6777189E+03  (-0.3428099E+04)
 number of electron      54.0000000 magnetization       0.0000000
 augmentation part       54.0000000 magnetization       0.0000000

 Free energy of the ion-electron system (eV)
  ---------------------------------------------------
  alpha Z        PSCENC =       202.60927324
  Ewald energy   TEWEN  =     -4243.51006688
  -Hartree energ DENC   =     -2097.61845107
  -exchange      EXHF   =         0.00000000
  -V(xc)+E(xc)   XCENC  =       295.14889367
  PAW double counting   =      5431.03059579    -5542.37170563
  entropy T*S    EENTRO =         0.00000000
  eigenvalues    EBANDS =       -57.02641785
  atomic energy  EATOM  =      6689.45677594
  Solvation  Ediel_sol  =         0.00000000
  ---------------------------------------------------
  free energy    TOTEN  =       677.71889722 eV

  energy without entropy =      677.71889722  energy(sigma->0) =      677.71889722


--------------------------------------------------------------------------------------------------------




--------------------------------------- Iteration      1(   2)  ---------------------------------------


     EDDAV:  cpu time    0.3413: real time    0.3413
 BZINTS: Fermi energy:  3.979299; 54.000000 electrons
         Band energy:-726.614910;  BLOECHL correction:  0.000000
       DOS:  cpu time    0.0012: real time    0.0012
    --------------------------------------------
      LOOP:  cpu time    0.3426: real time    0.3426

 eigenvalue-minimisations  :  1464
 total energy-change (2. order) :-0.6695885E+03  (-0.6484581E+03)
 number of electron      54.0000000 magnetization       0.0000000
 augmentation part       54.0000000 magnetization       0.0000000

 Free energy of the ion-electron system (eV)
  ---------------------------------------------------
  alpha Z        PSCENC =       202.60927324
  Ewald energy   TEWEN  =     -4243.51006688
  -Hartree energ DENC   =     -2097.61845107
  -exchange      EXHF   =         0.00000000
  -V(xc)+E(xc)   XCENC  =       295.14889367
  PAW double counting   =      5431.03059579    -5542.37170563
  entropy T*S    EENTRO =         0.00000000
  eigenvalues    EBANDS =      -726.61491006
  atomic energy  EATOM  =      6689.45677594
  Solvation  Ediel_sol  =         0.00000000
  ---------------------------------------------------
  free energy    TOTEN  =         8.13040501 eV

  energy without entropy =        8.13040501  energy(sigma->0) =        8.13040501


--------------------------------------------------------------------------------------------------------




--------------------------------------- Iteration      1(   3)  ---------------------------------------


     EDDAV:  cpu time    0.3442: real time    0.3442
 BZINTS: Fermi energy:  3.003758; 54.000000 electrons
         Band energy:-773.770228;  BLOECHL correction:  0.000000
       DOS:  cpu time    0.0014: real time    0.0014
    --------------------------------------------
      LOOP:  cpu time    0.3455: real time    0.3455

 eigenvalue-minimisations  :  1488
 total energy-change (2. order) :-0.4715532E+02  (-0.4696677E+02)
 number of electron      54.0000000 magnetization       0.0000000
 augmentation part       54.0000000 magnetization       0.0000000

 Free energy of the ion-electron system (eV)
  ---------------------------------------------------
  alpha Z        PSCENC =       202.60927324
  Ewald energy   TEWEN  =     -4243.51006688
  -Hartree energ DENC   =     -2097.61845107
  -exchange      EXHF   =         0.00000000
  -V(xc)+E(xc)   XCENC  =       295.14889367
  PAW double counting   =      5431.03059579    -5542.37170563
  entropy T*S    EENTRO =         0.00000000
  eigenvalues    EBANDS =      -773.77022843
  atomic energy  EATOM  =      6689.45677594
  Solvation  Ediel_sol  =         0.00000000
  ---------------------------------------------------
  free energy    TOTEN  =       -39.02491336 eV

  energy without entropy =      -39.02491336  energy(sigma->0) =      -39.02491336


--------------------------------------------------------------------------------------------------------




--------------------------------------- Iteration      1(   4)  ---------------------------------------


     EDDAV:  cpu time    0.3468: real time    0.3468
 BZINTS: Fermi energy:  2.951481; 54.000000 electrons
         Band energy:-774.426466;  BLOECHL correction:  0.000000
       DOS:  cpu time    0.0014: real time    0.0014
    --------------------------------------------
      LOOP:  cpu time    0.3481: real time    0.3481

 eigenvalue-minimisations  :  1500
 total energy-change (2. order) :-0.6562372E+00  (-0.6560060E+00)
 number of electron      54.0000000 magnetization       0.0000000
 augmentation part       54.0000000 magnetization       0.0000000

 Free energy of the ion-electron system (eV)
  ---------------------------------------------------
  alpha Z        PSCENC =       202.60927324
  Ewald energy   TEWEN  =     -4243.51006688
  -Hartree energ DENC   =     -2097.61845107
  -exchange      EXHF   =         0.00000000
  -V(xc)+E(xc)   XCENC  =       295.14889367
  PAW double counting   =      5431.03059579    -5542.37170563
  entropy T*S    EENTRO =         0.00000000
  eigenvalues    EBANDS =      -774.42646566
  atomic energy  EATOM  =      6689.45677594
  Solvation  Ediel_sol  =         0.00000000
  ---------------------------------------------------
  free energy    TOTEN  =       -39.68115060 eV

  energy without entropy =      -39.68115060  energy(sigma->0) =      -39.68115060


--------------------------------------------------------------------------------------------------------




--------------------------------------- Iteration      1(   5)  ---------------------------------------


     EDDAV:  cpu time    0.3453: real time    0.3453
 BZINTS: Fermi energy:  2.931191; 54.000000 electrons
         Band energy:-774.436874;  BLOECHL correction:  0.000000
       DOS:  cpu time    0.0014: real time    0.0014
    CHARGE:  cpu time    0.0330: real time    0.0330
    MIXING:  cpu time    0.0008: real time    0.0008
    --------------------------------------------
      LOOP:  cpu time    0.3805: real time    0.3805

 eigenvalue-minimisations  :  1500
 total energy-change (2. order) :-0.1040858E-01  (-0.1040846E-01)
 number of electron      54.0000000 magnetization       0.0000000
 augmentation part       20.1479258 magnetization       0.0000000

 Broyden mixing:
  rms(total) = 0.24735E+01    rms(broyden)= 0.24734E+01
  rms(prec ) = 0.32030E+01
  weight for this iteration     100.00

 Free energy of the ion-electron system (eV)
  ---------------------------------------------------
  alpha Z        PSCENC =       202.60927324
  Ewald energy   TEWEN  =     -4243.51006688
  -Hartree energ DENC   =     -2097.61845107
  -exchange      EXHF   =         0.00000000
  -V(xc)+E(xc)   XCENC  =       295.14889367
  PAW double counting   =      5431.03059579    -5542.37170563
  entropy T*S    EENTRO =         0.00000000
  eigenvalues    EBANDS =      -774.43687424
  atomic energy  EATOM  =      6689.45677594
  Solvation  Ediel_sol  =         0.00000000
  ---------------------------------------------------
  free energy    TOTEN  =       -39.69155917 eV

  energy without entropy =      -39.69155917  energy(sigma->0) =      -39.69155917


--------------------------------------------------------------------------------------------------------




--------------------------------------- Iteration      1(   6)  ---------------------------------------


    POTLOK:  cpu time    0.0044: real time    0.0044
    SETDIJ:  cpu time    0.2306: real time    0.2306
atom =   1  type =  1  l = 2
 
 onsite density matrix
 
spin component  1
 
 -0.0780  0.0000  0.0041  0.0000  0.0000
  0.0000 -0.0809  0.0000  0.0029  0.0000
  0.0041  0.0000 -0.0791  0.0000 -0.0000
  0.0000  0.0029  0.0000 -0.0809  0.0000
  0.0000  0.0000 -0.0000  0.0000 -0.0863
 
spin component  2
 
  1.1065  0.0000  0.0136  0.0000 -0.0000
  0.0000  1.1038  0.0000  0.0121  0.0000
  0.0136  0.0000  1.0980  0.0000  0.0000
  0.0000  0.0121  0.0000  1.1038  0.0000
 -0.0000  0.0000  0.0000  0.0000  1.0935
 
 occupancies and eigenvectors
 
  o = -0.0863  v =  0.0000  0.0000 -0.0000 -0.0000 -1.0000  0.0000  0.0000  0.0000  0.0000  0.0000      0.0000  0.0000  0.0000  0.0000  0.0000  0.0000  0.0000  0.0000  0.0000  0.0000
  o = -0.0838  v =  0.0000 -0.7071 -0.0000  0.7071 -0.0000  0.0000  0.0000  0.0000  0.0000  0.0000      0.0000  0.0000  0.0000  0.0000  0.0000  0.0000  0.0000  0.0000  0.0000  0.0000
  o = -0.0827  v =  0.6599  0.0000 -0.7513 -0.0000  0.0000  0.0000  0.0000  0.0000  0.0000  0.0000      0.0000  0.0000  0.0000  0.0000  0.0000  0.0000  0.0000  0.0000  0.0000  0.0000
  o = -0.0780  v = -0.0000 -0.7071 -0.0000 -0.7071 -0.0000  0.0000  0.0000  0.0000  0.0000  0.0000      0.0000  0.0000  0.0000  0.0000  0.0000  0.0000  0.0000  0.0000  0.0000  0.0000
  o = -0.0744  v =  0.7513 -0.0000  0.6599 -0.0000 -0.0000  0.0000  0.0000  0.0000  0.0000  0.0000      0.0000  0.0000  0.0000  0.0000  0.0000  0.0000  0.0000  0.0000  0.0000  0.0000
  o =  1.0880  v =  0.0000  0.0000  0.0000  0.0000  0.0000 -0.5913  0.0000  0.8064 -0.0000 -0.0000      0.0000  0.0000  0.0000  0.0000  0.0000  0.0000  0.0000  0.0000  0.0000  0.0000
  o =  1.0917  v =  0.0000  0.0000  0.0000  0.0000  0.0000 -0.0000 -0.7071  0.0000  0.7071  0.0000      0.0000  0.0000  0.0000  0.0000  0.0000  0.0000  0.0000  0.0000  0.0000  0.0000
  o =  1.0935  v =  0.0000  0.0000  0.0000  0.0000  0.0000 -0.0000  0.0000  0.0000 -0.0000  1.0000      0.0000  0.0000  0.0000  0.0000  0.0000  0.0000  0.0000  0.0000  0.0000  0.0000
  o =  1.1159  v =  0.0000  0.0000  0.0000  0.0000  0.0000 -0.0000 -0.7071 -0.0000 -0.7071 -0.0000      0.0000  0.0000  0.0000  0.0000  0.0000  0.0000  0.0000  0.0000  0.0000  0.0000
  o =  1.1165  v =  0.0000  0.0000  0.0000  0.0000  0.0000 -0.8064  0.0000 -0.5913  0.0000 -0.0000      0.0000  0.0000  0.0000  0.0000  0.0000  0.0000  0.0000  0.0000  0.0000  0.0000
atom =   2  type =  1  l = 2
 
 onsite density matrix
 
spin component  1
 
  1.1065  0.0000 -0.0136  0.0000 -0.0000
  0.0000  1.1038  0.0000 -0.0121  0.0000
 -0.0136  0.0000  1.0980  0.0000 -0.0000
  0.0000 -0.0121  0.0000  1.1038  0.0000
 -0.0000  0.0000 -0.0000  0.0000  1.0935
 
spin component  2
 
 -0.0780  0.0000 -0.0041  0.0000 -0.0000
  0.0000 -0.0809  0.0000 -0.0029  0.0000
 -0.0041  0.0000 -0.0791  0.0000  0.0000
  0.0000 -0.0029  0.0000 -0.0809  0.0000
 -0.0000  0.0000  0.0000  0.0000 -0.0863
 
 occupancies and eigenvectors
 
  o = -0.0863  v =  0.0000  0.0000  0.0000  0.0000  0.0000  0.0000 -0.0000  0.0000  0.0000 -1.0000      0.0000  0.0000  0.0000  0.0000  0.0000  0.0000  0.0000  0.0000  0.0000  0.0000
  o = -0.0838  v =  0.0000  0.0000  0.0000  0.0000  0.0000  0.0000 -0.7071  0.0000 -0.7071  0.0000      0.0000  0.0000  0.0000  0.0000  0.0000  0.0000  0.0000  0.0000  0.0000  0.0000
  o = -0.0827  v =  0.0000  0.0000  0.0000  0.0000  0.0000 -0.6599 -0.0000 -0.7513  0.0000 -0.0000      0.0000  0.0000  0.0000  0.0000  0.0000  0.0000  0.0000  0.0000  0.0000  0.0000
  o = -0.0780  v =  0.0000  0.0000  0.0000  0.0000  0.0000  0.0000  0.7071  0.0000 -0.7071 -0.0000      0.0000  0.0000  0.0000  0.0000  0.0000  0.0000  0.0000  0.0000  0.0000  0.0000
  o = -0.0744  v =  0.0000  0.0000  0.0000  0.0000  0.0000  0.7513 -0.0000 -0.6599  0.0000 -0.0000      0.0000  0.0000  0.0000  0.0000  0.0000  0.0000  0.0000  0.0000  0.0000  0.0000
  o =  1.0880  v = -0.5913  0.0000 -0.8064  0.0000 -0.0000  0.0000  0.0000  0.0000  0.0000  0.0000      0.0000  0.0000  0.0000  0.0000  0.0000  0.0000  0.0000  0.0000  0.0000  0.0000
  o =  1.0917  v =  0.0000 -0.7071  0.0000 -0.7071  0.0000  0.0000  0.0000  0.0000  0.0000  0.0000      0.0000  0.0000  0.0000  0.0000  0.0000  0.0000  0.0000  0.0000  0.0000  0.0000
  o =  1.0935  v =  0.0000  0.0000 -0.0000  0.0000  1.0000  0.0000  0.0000  0.0000  0.0000  0.0000      0.0000  0.0000  0.0000  0.0000  0.0000  0.0000  0.0000  0.0000  0.0000  0.0000
  o =  1.1159  v =  0.0000  0.7071  0.0000 -0.7071 -0.0000  0.0000  0.0000  0.0000  0.0000  0.0000      0.0000  0.0000  0.0000  0.0000  0.0000  0.0000  0.0000  0.0000  0.0000  0.0000
  o =  1.1165  v = -0.8064  0.0000  0.5913  0.0000  0.0000  0.0000  0.0000  0.0000  0.0000  0.0000      0.0000  0.0000  0.0000  0.0000  0.0000  0.0000  0.0000  0.0000  0.0000  0.0000
     EDDAV:  cpu time    0.3593: real time    0.3593
 BZINTS: Fermi energy:  1.023652; 54.000000 electrons
         Band energy:-763.543817;  BLOECHL correction:  0.000000
       DOS:  cpu time    0.0014: real time    0.0014
    CHARGE:  cpu time    0.0322: real time    0.0322
    MIXING:  cpu time    0.0008: real time    0.0008
    --------------------------------------------
      LOOP:  cpu time    0.6288: real time    0.6288

 eigenvalue-minimisations  :  1584
 total energy-change (2. order) : 0.1381741E+01  (-0.1630221E+01)
 number of electron      53.9999999 magnetization       0.0000000
 augmentation part       19.9990298 magnetization       0.0000000

 Broyden mixing:
  rms(total) = 0.16221E+01    rms(broyden)= 0.16220E+01
  rms(prec ) = 0.16727E+01
  weight for this iteration     100.00

 eigenvalues of (default mixing * dielectric matrix)
  average eigenvalue GAMMA=   0.8113
  0.8113

 Free energy of the ion-electron system (eV)
  ---------------------------------------------------
  alpha Z        PSCENC =       202.60927324
  Ewald energy   TEWEN  =     -4243.51006688
  -Hartree energ DENC   =     -2121.97989349
  -exchange      EXHF   =         0.00000000
  -V(xc)+E(xc)   XCENC  =       295.90101336
  PAW double counting   =      5724.25055585    -5821.49365903
  entropy T*S    EENTRO =         0.00000000
  eigenvalues    EBANDS =      -763.54381719
  atomic energy  EATOM  =      6689.45677594
  Solvation  Ediel_sol  =         0.00000000
  ---------------------------------------------------
  free energy    TOTEN  =       -38.30981820 eV

  energy without entropy =      -38.30981820  energy(sigma->0) =      -38.30981820


--------------------------------------------------------------------------------------------------------




--------------------------------------- Iteration      1(   7)  ---------------------------------------


    POTLOK:  cpu time    0.0043: real time    0.0043
    SETDIJ:  cpu time    0.2291: real time    0.2291
atom =   1  type =  1  l = 2
 
 onsite density matrix
 
spin component  1
 
  0.1184  0.0000  0.0189  0.0000 -0.0000
  0.0000  0.1123  0.0000  0.0160  0.0000
  0.0189  0.0000  0.1073  0.0000  0.0000
  0.0000  0.0160  0.0000  0.1123  0.0000
 -0.0000  0.0000  0.0000  0.0000  0.0955
 
spin component  2
 
  0.9041  0.0000  0.0082  0.0000 -0.0000
  0.0000  0.9016  0.0000  0.0068  0.0000
  0.0082  0.0000  0.9004  0.0000 -0.0000
  0.0000  0.0068  0.0000  0.9016  0.0000
 -0.0000  0.0000 -0.0000  0.0000  0.8942
 
 occupancies and eigenvectors
 
  o =  0.0932  v = -0.5996 -0.0000  0.8003  0.0000 -0.0000  0.0000  0.0000  0.0000  0.0000  0.0000      0.0000  0.0000  0.0000  0.0000  0.0000  0.0000  0.0000  0.0000  0.0000  0.0000
  o =  0.0955  v = -0.0000  0.0000  0.0000  0.0000  1.0000  0.0000  0.0000  0.0000  0.0000  0.0000      0.0000  0.0000  0.0000  0.0000  0.0000  0.0000  0.0000  0.0000  0.0000  0.0000
  o =  0.0962  v =  0.0000  0.7071  0.0000 -0.7071 -0.0000  0.0000  0.0000  0.0000  0.0000  0.0000      0.0000  0.0000  0.0000  0.0000  0.0000  0.0000  0.0000  0.0000  0.0000  0.0000
  o =  0.1283  v =  0.0000 -0.7071  0.0000 -0.7071  0.0000  0.0000  0.0000  0.0000  0.0000  0.0000      0.0000  0.0000  0.0000  0.0000  0.0000  0.0000  0.0000  0.0000  0.0000  0.0000
  o =  0.1326  v = -0.8003 -0.0000 -0.5996  0.0000 -0.0000  0.0000  0.0000  0.0000  0.0000  0.0000      0.0000  0.0000  0.0000  0.0000  0.0000  0.0000  0.0000  0.0000  0.0000  0.0000
  o =  0.8939  v =  0.0000  0.0000  0.0000  0.0000  0.0000 -0.6246  0.0000  0.7810 -0.0000  0.0000      0.0000  0.0000  0.0000  0.0000  0.0000  0.0000  0.0000  0.0000  0.0000  0.0000
  o =  0.8942  v =  0.0000  0.0000  0.0000  0.0000  0.0000 -0.0000 -0.0000  0.0000  0.0000 -1.0000      0.0000  0.0000  0.0000  0.0000  0.0000  0.0000  0.0000  0.0000  0.0000  0.0000
  o =  0.8948  v =  0.0000  0.0000  0.0000  0.0000  0.0000 -0.0000 -0.7071  0.0000  0.7071  0.0000      0.0000  0.0000  0.0000  0.0000  0.0000  0.0000  0.0000  0.0000  0.0000  0.0000
  o =  0.9085  v =  0.0000  0.0000  0.0000  0.0000  0.0000 -0.0000 -0.7071 -0.0000 -0.7071  0.0000      0.0000  0.0000  0.0000  0.0000  0.0000  0.0000  0.0000  0.0000  0.0000  0.0000
  o =  0.9106  v =  0.0000  0.0000  0.0000  0.0000  0.0000 -0.7810  0.0000 -0.6246  0.0000  0.0000      0.0000  0.0000  0.0000  0.0000  0.0000  0.0000  0.0000  0.0000  0.0000  0.0000
atom =   2  type =  1  l = 2
 
 onsite density matrix
 
spin component  1
 
  0.9041  0.0000 -0.0082  0.0000 -0.0000
  0.0000  0.9016  0.0000 -0.0068  0.0000
 -0.0082  0.0000  0.9004  0.0000  0.0000
  0.0000 -0.0068  0.0000  0.9016  0.0000
 -0.0000  0.0000  0.0000  0.0000  0.8942
 
spin component  2
 
  0.1184  0.0000 -0.0189  0.0000 -0.0000
  0.0000  0.1123  0.0000 -0.0160  0.0000
 -0.0189  0.0000  0.1073  0.0000 -0.0000
  0.0000 -0.0160  0.0000  0.1123  0.0000
 -0.0000  0.0000 -0.0000  0.0000  0.0955
 
 occupancies and eigenvectors
 
  o =  0.0932  v =  0.0000  0.0000  0.0000  0.0000  0.0000 -0.5996 -0.0000 -0.8003 -0.0000 -0.0000      0.0000  0.0000  0.0000  0.0000  0.0000  0.0000  0.0000  0.0000  0.0000  0.0000
  o =  0.0955  v =  0.0000  0.0000  0.0000  0.0000  0.0000 -0.0000  0.0000 -0.0000  0.0000  1.0000      0.0000  0.0000  0.0000  0.0000  0.0000  0.0000  0.0000  0.0000  0.0000  0.0000
  o =  0.0962  v =  0.0000  0.0000  0.0000  0.0000  0.0000  0.0000  0.7071  0.0000  0.7071 -0.0000      0.0000  0.0000  0.0000  0.0000  0.0000  0.0000  0.0000  0.0000  0.0000  0.0000
  o =  0.1283  v =  0.0000  0.0000  0.0000  0.0000  0.0000  0.0000  0.7071 -0.0000 -0.7071 -0.0000      0.0000  0.0000  0.0000  0.0000  0.0000  0.0000  0.0000  0.0000  0.0000  0.0000
  o =  0.1326  v =  0.0000  0.0000  0.0000  0.0000  0.0000 -0.8003  0.0000  0.5996 -0.0000 -0.0000      0.0000  0.0000  0.0000  0.0000  0.0000  0.0000  0.0000  0.0000  0.0000  0.0000
  o =  0.8939  v = -0.6246  0.0000 -0.7810  0.0000  0.0000  0.0000  0.0000  0.0000  0.0000  0.0000      0.0000  0.0000  0.0000  0.0000  0.0000  0.0000  0.0000  0.0000  0.0000  0.0000
  o =  0.8942  v = -0.0000 -0.0000 -0.0000  0.0000 -1.0000  0.0000  0.0000  0.0000  0.0000  0.0000      0.0000  0.0000  0.0000  0.0000  0.0000  0.0000  0.0000  0.0000  0.0000  0.0000
  o =  0.8948  v =  0.0000 -0.7071 -0.0000 -0.7071  0.0000  0.0000  0.0000  0.0000  0.0000  0.0000      0.0000  0.0000  0.0000  0.0000  0.0000  0.0000  0.0000  0.0000  0.0000  0.0000
  o =  0.9085  v =  0.0000 -0.7071 -0.0000  0.7071  0.0000  0.0000  0.0000  0.0000  0.0000  0.0000      0.0000  0.0000  0.0000  0.0000  0.0000  0.0000  0.0000  0.0000  0.0000  0.0000
  o =  0.9106  v = -0.7810 -0.0000  0.6246  0.0000  0.0000  0.0000  0.0000  0.0000  0.0000  0.0000      0.0000  0.0000  0.0000  0.0000  0.0000  0.0000  0.0000  0.0000  0.0000  0.0000
     EDDAV:  cpu time    0.3537: real time    0.3537
 BZINTS: Fermi energy:  1.513141; 54.000000 electrons
         Band energy:-753.907674;  BLOECHL correction:  0.000000
       DOS:  cpu time    0.0014: real time    0.0014
    CHARGE:  cpu time    0.0322: real time    0.0322
    MIXING:  cpu time    0.0008: real time    0.0008
    --------------------------------------------
      LOOP:  cpu time    0.6214: real time    0.6214

 eigenvalue-minimisations  :  1548
 total energy-change (2. order) :-0.8697292E+00  (-0.1925557E+00)
 number of electron      53.9999999 magnetization       0.0000000
 augmentation part       19.9373598 magnetization       0.0000000

 Broyden mixing:
  rms(total) = 0.11543E+01    rms(broyden)= 0.11543E+01
  rms(prec ) = 0.11860E+01
  weight for this iteration     100.00

 eigenvalues of (default mixing * dielectric matrix)
  average eigenvalue GAMMA=   1.3659
  0.7011  2.0307

 Free energy of the ion-electron system (eV)
  ---------------------------------------------------
  alpha Z        PSCENC =       202.60927324
  Ewald energy   TEWEN  =     -4243.51006688
  -Hartree energ DENC   =     -2119.26672639
  -exchange      EXHF   =         0.00000000
  -V(xc)+E(xc)   XCENC  =       296.66737954
  PAW double counting   =      5980.74517625    -6091.97368488
  entropy T*S    EENTRO =         0.00000000
  eigenvalues    EBANDS =      -753.90767423
  atomic energy  EATOM  =      6689.45677594
  Solvation  Ediel_sol  =         0.00000000
  ---------------------------------------------------
  free energy    TOTEN  =       -39.17954741 eV

  energy without entropy =      -39.17954741  energy(sigma->0) =      -39.17954741


--------------------------------------------------------------------------------------------------------




--------------------------------------- Iteration      1(   8)  ---------------------------------------


    POTLOK:  cpu time    0.0043: real time    0.0043
    SETDIJ:  cpu time    0.2305: real time    0.2305
atom =   1  type =  1  l = 2
 
 onsite density matrix
 
spin component  1
 
 -0.0301  0.0000  0.0203  0.0000  0.0000
  0.0000 -0.0368  0.0000  0.0161  0.0000
  0.0203  0.0000 -0.0394  0.0000  0.0000
  0.0000  0.0161  0.0000 -0.0368  0.0000
  0.0000  0.0000  0.0000  0.0000 -0.0563
 
spin component  2
 
  1.0530  0.0000  0.0201  0.0000 -0.0000
  0.0000  1.0467  0.0000  0.0183  0.0000
  0.0201  0.0000  1.0398  0.0000 -0.0000
  0.0000  0.0183  0.0000  1.0467  0.0000
 -0.0000  0.0000 -0.0000  0.0000  1.0298
 
 occupancies and eigenvectors
 
  o = -0.0563  v =  0.0000 -0.0000 -0.0000  0.0000  1.0000  0.0000  0.0000  0.0000  0.0000  0.0000      0.0000  0.0000  0.0000  0.0000  0.0000  0.0000  0.0000  0.0000  0.0000  0.0000
  o = -0.0556  v = -0.6229 -0.0000  0.7823  0.0000  0.0000  0.0000  0.0000  0.0000  0.0000  0.0000      0.0000  0.0000  0.0000  0.0000  0.0000  0.0000  0.0000  0.0000  0.0000  0.0000
  o = -0.0529  v =  0.0000 -0.7071  0.0000  0.7071 -0.0000  0.0000  0.0000  0.0000  0.0000  0.0000      0.0000  0.0000  0.0000  0.0000  0.0000  0.0000  0.0000  0.0000  0.0000  0.0000
  o = -0.0208  v =  0.0000 -0.7071  0.0000 -0.7071 -0.0000  0.0000  0.0000  0.0000  0.0000  0.0000      0.0000  0.0000  0.0000  0.0000  0.0000  0.0000  0.0000  0.0000  0.0000  0.0000
  o = -0.0139  v =  0.7823 -0.0000  0.6229  0.0000  0.0000  0.0000  0.0000  0.0000  0.0000  0.0000      0.0000  0.0000  0.0000  0.0000  0.0000  0.0000  0.0000  0.0000  0.0000  0.0000
  o =  1.0252  v =  0.0000  0.0000  0.0000  0.0000  0.0000 -0.5863  0.0000  0.8101  0.0000 -0.0000      0.0000  0.0000  0.0000  0.0000  0.0000  0.0000  0.0000  0.0000  0.0000  0.0000
  o =  1.0284  v =  0.0000  0.0000  0.0000  0.0000  0.0000  0.0000 -0.7071  0.0000  0.7071 -0.0000      0.0000  0.0000  0.0000  0.0000  0.0000  0.0000  0.0000  0.0000  0.0000  0.0000
  o =  1.0298  v =  0.0000  0.0000  0.0000  0.0000  0.0000  0.0000 -0.0000 -0.0000  0.0000 -1.0000      0.0000  0.0000  0.0000  0.0000  0.0000  0.0000  0.0000  0.0000  0.0000  0.0000
  o =  1.0650  v =  0.0000  0.0000  0.0000  0.0000  0.0000  0.0000  0.7071  0.0000  0.7071  0.0000      0.0000  0.0000  0.0000  0.0000  0.0000  0.0000  0.0000  0.0000  0.0000  0.0000
  o =  1.0675  v =  0.0000  0.0000  0.0000  0.0000  0.0000 -0.8101  0.0000 -0.5863  0.0000  0.0000      0.0000  0.0000  0.0000  0.0000  0.0000  0.0000  0.0000  0.0000  0.0000  0.0000
atom =   2  type =  1  l = 2
 
 onsite density matrix
 
spin component  1
 
  1.0530  0.0000 -0.0201  0.0000 -0.0000
  0.0000  1.0467  0.0000 -0.0183  0.0000
 -0.0201  0.0000  1.0398  0.0000 -0.0000
  0.0000 -0.0183  0.0000  1.0467  0.0000
 -0.0000  0.0000 -0.0000  0.0000  1.0298
 
spin component  2
 
 -0.0301  0.0000 -0.0203  0.0000  0.0000
  0.0000 -0.0368  0.0000 -0.0161  0.0000
 -0.0203  0.0000 -0.0394  0.0000  0.0000
  0.0000 -0.0161  0.0000 -0.0368  0.0000
  0.0000  0.0000  0.0000  0.0000 -0.0563
 
 occupancies and eigenvectors
 
  o = -0.0563  v =  0.0000  0.0000  0.0000  0.0000  0.0000  0.0000  0.0000  0.0000  0.0000 -1.0000      0.0000  0.0000  0.0000  0.0000  0.0000  0.0000  0.0000  0.0000  0.0000  0.0000
  o = -0.0556  v =  0.0000  0.0000  0.0000  0.0000  0.0000 -0.6229  0.0000 -0.7823  0.0000 -0.0000      0.0000  0.0000  0.0000  0.0000  0.0000  0.0000  0.0000  0.0000  0.0000  0.0000
  o = -0.0529  v =  0.0000  0.0000  0.0000  0.0000  0.0000  0.0000  0.7071  0.0000  0.7071  0.0000      0.0000  0.0000  0.0000  0.0000  0.0000  0.0000  0.0000  0.0000  0.0000  0.0000
  o = -0.0208  v =  0.0000  0.0000  0.0000  0.0000  0.0000  0.0000 -0.7071  0.0000  0.7071 -0.0000      0.0000  0.0000  0.0000  0.0000  0.0000  0.0000  0.0000  0.0000  0.0000  0.0000
  o = -0.0139  v =  0.0000  0.0000  0.0000  0.0000  0.0000  0.7823  0.0000 -0.6229  0.0000 -0.0000      0.0000  0.0000  0.0000  0.0000  0.0000  0.0000  0.0000  0.0000  0.0000  0.0000
  o =  1.0252  v = -0.5863 -0.0000 -0.8101  0.0000 -0.0000  0.0000  0.0000  0.0000  0.0000  0.0000      0.0000  0.0000  0.0000  0.0000  0.0000  0.0000  0.0000  0.0000  0.0000  0.0000
  o =  1.0284  v =  0.0000 -0.7071  0.0000 -0.7071  0.0000  0.0000  0.0000  0.0000  0.0000  0.0000      0.0000  0.0000  0.0000  0.0000  0.0000  0.0000  0.0000  0.0000  0.0000  0.0000
  o =  1.0298  v = -0.0000  0.0000 -0.0000  0.0000  1.0000  0.0000  0.0000  0.0000  0.0000  0.0000      0.0000  0.0000  0.0000  0.0000  0.0000  0.0000  0.0000  0.0000  0.0000  0.0000
  o =  1.0650  v =  0.0000  0.7071  0.0000 -0.7071 -0.0000  0.0000  0.0000  0.0000  0.0000  0.0000      0.0000  0.0000  0.0000  0.0000  0.0000  0.0000  0.0000  0.0000  0.0000  0.0000
  o =  1.0675  v = -0.8101 -0.0000  0.5863  0.0000 -0.0000  0.0000  0.0000  0.0000  0.0000  0.0000      0.0000  0.0000  0.0000  0.0000  0.0000  0.0000  0.0000  0.0000  0.0000  0.0000
     EDDAV:  cpu time    0.3452: real time    0.3452
 BZINTS: Fermi energy:  0.930438; 54.000000 electrons
         Band energy:-766.707430;  BLOECHL correction:  0.000000
       DOS:  cpu time    0.0014: real time    0.0014
    CHARGE:  cpu time    0.0320: real time    0.0320
    MIXING:  cpu time    0.0009: real time    0.0009
    --------------------------------------------
      LOOP:  cpu time    0.6142: real time    0.6142

 eigenvalue-minimisations  :  1512
 total energy-change (2. order) : 0.8199769E-01  (-0.6128691E-01)
 number of electron      53.9999999 magnetization       0.0000000
 augmentation part       20.0070475 magnetization       0.0000000

 Broyden mixing:
  rms(total) = 0.49458E+00    rms(broyden)= 0.49458E+00
  rms(prec ) = 0.52377E+00
  weight for this iteration     100.00

 eigenvalues of (default mixing * dielectric matrix)
  average eigenvalue GAMMA=   1.3759
  2.4455  1.0366  0.6456

 Free energy of the ion-electron system (eV)
  ---------------------------------------------------
  alpha Z        PSCENC =       202.60927324
  Ewald energy   TEWEN  =     -4243.51006688
  -Hartree energ DENC   =     -2111.85984742
  -exchange      EXHF   =         0.00000000
  -V(xc)+E(xc)   XCENC  =       295.82475019
  PAW double counting   =      6237.00696574    -6341.91797061
  entropy T*S    EENTRO =         0.00000000
  eigenvalues    EBANDS =      -766.70742993
  atomic energy  EATOM  =      6689.45677594
  Solvation  Ediel_sol  =         0.00000000
  ---------------------------------------------------
  free energy    TOTEN  =       -39.09754973 eV

  energy without entropy =      -39.09754973  energy(sigma->0) =      -39.09754973


--------------------------------------------------------------------------------------------------------




--------------------------------------- Iteration      1(   9)  ---------------------------------------


    POTLOK:  cpu time    0.0043: real time    0.0043
    SETDIJ:  cpu time    0.2290: real time    0.2290
atom =   1  type =  1  l = 2
 
 onsite density matrix
 
spin component  1
 
  0.0455  0.0000  0.0241  0.0000  0.0000
  0.0000  0.0371  0.0000  0.0205  0.0000
  0.0241  0.0000  0.0319  0.0000 -0.0000
  0.0000  0.0205  0.0000  0.0371  0.0000
  0.0000  0.0000 -0.0000  0.0000  0.0149
 
spin component  2
 
  0.9760  0.0000  0.0241  0.0000 -0.0000
  0.0000  0.9686  0.0000  0.0206  0.0000
  0.0241  0.0000  0.9623  0.0000  0.0000
  0.0000  0.0206  0.0000  0.9686  0.0000
 -0.0000  0.0000  0.0000  0.0000  0.9471
 
 occupancies and eigenvectors
 
  o =  0.0136  v = -0.6035 -0.0000  0.7974  0.0000  0.0000  0.0000  0.0000  0.0000  0.0000  0.0000      0.0000  0.0000  0.0000  0.0000  0.0000  0.0000  0.0000  0.0000  0.0000  0.0000
  o =  0.0149  v = -0.0000  0.0000  0.0000  0.0000 -1.0000  0.0000  0.0000  0.0000  0.0000  0.0000      0.0000  0.0000  0.0000  0.0000  0.0000  0.0000  0.0000  0.0000  0.0000  0.0000
  o =  0.0166  v =  0.0000 -0.7071  0.0000  0.7071 -0.0000  0.0000  0.0000  0.0000  0.0000  0.0000      0.0000  0.0000  0.0000  0.0000  0.0000  0.0000  0.0000  0.0000  0.0000  0.0000
  o =  0.0576  v =  0.0000 -0.7071  0.0000 -0.7071 -0.0000  0.0000  0.0000  0.0000  0.0000  0.0000      0.0000  0.0000  0.0000  0.0000  0.0000  0.0000  0.0000  0.0000  0.0000  0.0000
  o =  0.0637  v = -0.7974 -0.0000 -0.6035  0.0000  0.0000  0.0000  0.0000  0.0000  0.0000  0.0000      0.0000  0.0000  0.0000  0.0000  0.0000  0.0000  0.0000  0.0000  0.0000  0.0000
  o =  0.9441  v =  0.0000  0.0000  0.0000  0.0000  0.0000 -0.6033 -0.0000  0.7975  0.0000 -0.0000      0.0000  0.0000  0.0000  0.0000  0.0000  0.0000  0.0000  0.0000  0.0000  0.0000
  o =  0.9471  v =  0.0000  0.0000  0.0000  0.0000  0.0000 -0.0000  0.0000  0.0000  0.0000  1.0000      0.0000  0.0000  0.0000  0.0000  0.0000  0.0000  0.0000  0.0000  0.0000  0.0000
  o =  0.9479  v =  0.0000  0.0000  0.0000  0.0000  0.0000  0.0000  0.7071  0.0000 -0.7071 -0.0000      0.0000  0.0000  0.0000  0.0000  0.0000  0.0000  0.0000  0.0000  0.0000  0.0000
  o =  0.9892  v =  0.0000  0.0000  0.0000  0.0000  0.0000  0.0000 -0.7071  0.0000 -0.7071  0.0000      0.0000  0.0000  0.0000  0.0000  0.0000  0.0000  0.0000  0.0000  0.0000  0.0000
  o =  0.9942  v =  0.0000  0.0000  0.0000  0.0000  0.0000 -0.7975 -0.0000 -0.6033  0.0000 -0.0000      0.0000  0.0000  0.0000  0.0000  0.0000  0.0000  0.0000  0.0000  0.0000  0.0000
atom =   2  type =  1  l = 2
 
 onsite density matrix
 
spin component  1
 
  0.9760  0.0000 -0.0241  0.0000  0.0000
  0.0000  0.9686  0.0000 -0.0206  0.0000
 -0.0241  0.0000  0.9623  0.0000  0.0000
  0.0000 -0.0206  0.0000  0.9686  0.0000
  0.0000  0.0000  0.0000  0.0000  0.9471
 
spin component  2
 
  0.0455  0.0000 -0.0241  0.0000 -0.0000
  0.0000  0.0371  0.0000 -0.0205  0.0000
 -0.0241  0.0000  0.0319  0.0000 -0.0000
  0.0000 -0.0205  0.0000  0.0371  0.0000
 -0.0000  0.0000 -0.0000  0.0000  0.0149
 
 occupancies and eigenvectors
 
  o =  0.0136  v =  0.0000  0.0000  0.0000  0.0000  0.0000 -0.6035 -0.0000 -0.7974  0.0000 -0.0000      0.0000  0.0000  0.0000  0.0000  0.0000  0.0000  0.0000  0.0000  0.0000  0.0000
  o =  0.0149  v =  0.0000  0.0000  0.0000  0.0000  0.0000 -0.0000  0.0000 -0.0000  0.0000  1.0000      0.0000  0.0000  0.0000  0.0000  0.0000  0.0000  0.0000  0.0000  0.0000  0.0000
  o =  0.0166  v =  0.0000  0.0000  0.0000  0.0000  0.0000  0.0000 -0.7071  0.0000 -0.7071  0.0000      0.0000  0.0000  0.0000  0.0000  0.0000  0.0000  0.0000  0.0000  0.0000  0.0000
  o =  0.0576  v =  0.0000  0.0000  0.0000  0.0000  0.0000  0.0000  0.7071  0.0000 -0.7071 -0.0000      0.0000  0.0000  0.0000  0.0000  0.0000  0.0000  0.0000  0.0000  0.0000  0.0000
  o =  0.0637  v =  0.0000  0.0000  0.0000  0.0000  0.0000 -0.7974 -0.0000  0.6035  0.0000 -0.0000      0.0000  0.0000  0.0000  0.0000  0.0000  0.0000  0.0000  0.0000  0.0000  0.0000
  o =  0.9441  v = -0.6033  0.0000 -0.7975  0.0000  0.0000  0.0000  0.0000  0.0000  0.0000  0.0000      0.0000  0.0000  0.0000  0.0000  0.0000  0.0000  0.0000  0.0000  0.0000  0.0000
  o =  0.9471  v = -0.0000  0.0000 -0.0000  0.0000 -1.0000  0.0000  0.0000  0.0000  0.0000  0.0000      0.0000  0.0000  0.0000  0.0000  0.0000  0.0000  0.0000  0.0000  0.0000  0.0000
  o =  0.9479  v = -0.0000 -0.7071 -0.0000 -0.7071 -0.0000  0.0000  0.0000  0.0000  0.0000  0.0000      0.0000  0.0000  0.0000  0.0000  0.0000  0.0000  0.0000  0.0000  0.0000  0.0000
  o =  0.9892  v = -0.0000 -0.7071  0.0000  0.7071 -0.0000  0.0000  0.0000  0.0000  0.0000  0.0000      0.0000  0.0000  0.0000  0.0000  0.0000  0.0000  0.0000  0.0000  0.0000  0.0000
  o =  0.9942  v = -0.7975  0.0000  0.6033 -0.0000  0.0000  0.0000  0.0000  0.0000  0.0000  0.0000      0.0000  0.0000  0.0000  0.0000  0.0000  0.0000  0.0000  0.0000  0.0000  0.0000
     EDDAV:  cpu time    0.3196: real time    0.3196
 BZINTS: Fermi energy:  1.152337; 54.000000 electrons
         Band energy:-761.009529;  BLOECHL correction:  0.000000
       DOS:  cpu time    0.0012: real time    0.0012
    CHARGE:  cpu time    0.0320: real time    0.0320
    MIXING:  cpu time    0.0009: real time    0.0009
    --------------------------------------------
      LOOP:  cpu time    0.5870: real time    0.5870

 eigenvalue-minimisations  :  1368
 total energy-change (2. order) :-0.3835247E+00  (-0.1052056E-01)
 number of electron      53.9999999 magnetization       0.0000000
 augmentation part       19.9817847 magnetization       0.0000000

 Broyden mixing:
  rms(total) = 0.11480E+00    rms(broyden)= 0.11480E+00
  rms(prec ) = 0.12962E+00
  weight for this iteration     100.00

 eigenvalues of (default mixing * dielectric matrix)
  average eigenvalue GAMMA=   1.2528
  2.6012  0.8823  0.8823  0.6454

 Free energy of the ion-electron system (eV)
  ---------------------------------------------------
  alpha Z        PSCENC =       202.60927324
  Ewald energy   TEWEN  =     -4243.51006688
  -Hartree energ DENC   =     -2112.12099702
  -exchange      EXHF   =         0.00000000
  -V(xc)+E(xc)   XCENC  =       296.19406897
  PAW double counting   =      6402.76338086    -6513.86398063
  entropy T*S    EENTRO =         0.00000000
  eigenvalues    EBANDS =      -761.00952889
  atomic energy  EATOM  =      6689.45677594
  Solvation  Ediel_sol  =         0.00000000
  ---------------------------------------------------
  free energy    TOTEN  =       -39.48107442 eV

  energy without entropy =      -39.48107442  energy(sigma->0) =      -39.48107442


--------------------------------------------------------------------------------------------------------




--------------------------------------- Iteration      1(  10)  ---------------------------------------


    POTLOK:  cpu time    0.0043: real time    0.0043
    SETDIJ:  cpu time    0.2290: real time    0.2290
atom =   1  type =  1  l = 2
 
 onsite density matrix
 
spin component  1
 
  0.0453  0.0000  0.0264  0.0000  0.0000
  0.0000  0.0364  0.0000  0.0220  0.0000
  0.0264  0.0000  0.0310  0.0000  0.0000
  0.0000  0.0220  0.0000  0.0364  0.0000
  0.0000  0.0000  0.0000  0.0000  0.0120
 
spin component  2
 
  0.9768  0.0000  0.0209  0.0000 -0.0000
  0.0000  0.9701  0.0000  0.0183  0.0000
  0.0209  0.0000  0.9643  0.0000 -0.0000
  0.0000  0.0183  0.0000  0.9701  0.0000
 -0.0000  0.0000 -0.0000  0.0000  0.9519
 
 occupancies and eigenvectors
 
  o =  0.0108  v = -0.6073  0.0000  0.7944  0.0000 -0.0000  0.0000  0.0000  0.0000  0.0000  0.0000      0.0000  0.0000  0.0000  0.0000  0.0000  0.0000  0.0000  0.0000  0.0000  0.0000
  o =  0.0120  v = -0.0000 -0.0000  0.0000  0.0000  1.0000  0.0000  0.0000  0.0000  0.0000  0.0000      0.0000  0.0000  0.0000  0.0000  0.0000  0.0000  0.0000  0.0000  0.0000  0.0000
  o =  0.0145  v =  0.0000  0.7071  0.0000 -0.7071  0.0000  0.0000  0.0000  0.0000  0.0000  0.0000      0.0000  0.0000  0.0000  0.0000  0.0000  0.0000  0.0000  0.0000  0.0000  0.0000
  o =  0.0584  v =  0.0000 -0.7071  0.0000 -0.7071 -0.0000  0.0000  0.0000  0.0000  0.0000  0.0000      0.0000  0.0000  0.0000  0.0000  0.0000  0.0000  0.0000  0.0000  0.0000  0.0000
  o =  0.0655  v = -0.7944  0.0000 -0.6073  0.0000 -0.0000  0.0000  0.0000  0.0000  0.0000  0.0000      0.0000  0.0000  0.0000  0.0000  0.0000  0.0000  0.0000  0.0000  0.0000  0.0000
  o =  0.9487  v =  0.0000  0.0000  0.0000  0.0000  0.0000 -0.5977  0.0000  0.8017  0.0000  0.0000      0.0000  0.0000  0.0000  0.0000  0.0000  0.0000  0.0000  0.0000  0.0000  0.0000
  o =  0.9518  v =  0.0000  0.0000  0.0000  0.0000  0.0000  0.0000  0.7071  0.0000 -0.7071 -0.0000      0.0000  0.0000  0.0000  0.0000  0.0000  0.0000  0.0000  0.0000  0.0000  0.0000
  o =  0.9519  v =  0.0000  0.0000  0.0000  0.0000  0.0000 -0.0000 -0.0000  0.0000  0.0000 -1.0000      0.0000  0.0000  0.0000  0.0000  0.0000  0.0000  0.0000  0.0000  0.0000  0.0000
  o =  0.9885  v =  0.0000  0.0000  0.0000  0.0000  0.0000  0.0000  0.7071  0.0000  0.7071 -0.0000      0.0000  0.0000  0.0000  0.0000  0.0000  0.0000  0.0000  0.0000  0.0000  0.0000
  o =  0.9923  v =  0.0000  0.0000  0.0000  0.0000  0.0000 -0.8017  0.0000 -0.5977  0.0000  0.0000      0.0000  0.0000  0.0000  0.0000  0.0000  0.0000  0.0000  0.0000  0.0000  0.0000
atom =   2  type =  1  l = 2
 
 onsite density matrix
 
spin component  1
 
  0.9768  0.0000 -0.0209  0.0000 -0.0000
  0.0000  0.9701  0.0000 -0.0183  0.0000
 -0.0209  0.0000  0.9643  0.0000 -0.0000
  0.0000 -0.0183  0.0000  0.9701  0.0000
 -0.0000  0.0000 -0.0000  0.0000  0.9519
 
spin component  2
 
  0.0453  0.0000 -0.0264  0.0000  0.0000
  0.0000  0.0364  0.0000 -0.0220  0.0000
 -0.0264  0.0000  0.0310  0.0000 -0.0000
  0.0000 -0.0220  0.0000  0.0364  0.0000
  0.0000  0.0000 -0.0000  0.0000  0.0120
 
 occupancies and eigenvectors
 
  o =  0.0108  v =  0.0000  0.0000  0.0000  0.0000  0.0000 -0.6073  0.0000 -0.7944  0.0000 -0.0000      0.0000  0.0000  0.0000  0.0000  0.0000  0.0000  0.0000  0.0000  0.0000  0.0000
  o =  0.0120  v =  0.0000  0.0000  0.0000  0.0000  0.0000 -0.0000 -0.0000 -0.0000  0.0000  1.0000      0.0000  0.0000  0.0000  0.0000  0.0000  0.0000  0.0000  0.0000  0.0000  0.0000
  o =  0.0145  v =  0.0000  0.0000  0.0000  0.0000  0.0000  0.0000 -0.7071 -0.0000 -0.7071 -0.0000      0.0000  0.0000  0.0000  0.0000  0.0000  0.0000  0.0000  0.0000  0.0000  0.0000
  o =  0.0584  v =  0.0000  0.0000  0.0000  0.0000  0.0000  0.0000  0.7071  0.0000 -0.7071  0.0000      0.0000  0.0000  0.0000  0.0000  0.0000  0.0000  0.0000  0.0000  0.0000  0.0000
  o =  0.0655  v =  0.0000  0.0000  0.0000  0.0000  0.0000 -0.7944  0.0000  0.6073  0.0000 -0.0000      0.0000  0.0000  0.0000  0.0000  0.0000  0.0000  0.0000  0.0000  0.0000  0.0000
  o =  0.9487  v = -0.5977  0.0000 -0.8017  0.0000 -0.0000  0.0000  0.0000  0.0000  0.0000  0.0000      0.0000  0.0000  0.0000  0.0000  0.0000  0.0000  0.0000  0.0000  0.0000  0.0000
  o =  0.9518  v =  0.0000 -0.7071  0.0000 -0.7071  0.0000  0.0000  0.0000  0.0000  0.0000  0.0000      0.0000  0.0000  0.0000  0.0000  0.0000  0.0000  0.0000  0.0000  0.0000  0.0000
  o =  0.9519  v =  0.0000  0.0000 -0.0000  0.0000  1.0000  0.0000  0.0000  0.0000  0.0000  0.0000      0.0000  0.0000  0.0000  0.0000  0.0000  0.0000  0.0000  0.0000  0.0000  0.0000
  o =  0.9885  v =  0.0000  0.7071  0.0000 -0.7071 -0.0000  0.0000  0.0000  0.0000  0.0000  0.0000      0.0000  0.0000  0.0000  0.0000  0.0000  0.0000  0.0000  0.0000  0.0000  0.0000
  o =  0.9923  v = -0.8017  0.0000  0.5977  0.0000  0.0000  0.0000  0.0000  0.0000  0.0000  0.0000      0.0000  0.0000  0.0000  0.0000  0.0000  0.0000  0.0000  0.0000  0.0000  0.0000
     EDDAV:  cpu time    0.3353: real time    0.3353
 BZINTS: Fermi energy:  1.154359; 54.000000 electrons
         Band energy:-760.233912;  BLOECHL correction:  0.000000
       DOS:  cpu time    0.0012: real time    0.0012
    CHARGE:  cpu time    0.0319: real time    0.0319
    MIXING:  cpu time    0.0010: real time    0.0010
    --------------------------------------------
      LOOP:  cpu time    0.6027: real time    0.6027

 eigenvalue-minimisations  :  1452
 total energy-change (2. order) : 0.1986058E-02  (-0.2463321E-02)
 number of electron      53.9999999 magnetization      -0.0000000
 augmentation part       19.9808196 magnetization      -0.0000000

 Broyden mixing:
  rms(total) = 0.21334E-01    rms(broyden)= 0.21328E-01
  rms(prec ) = 0.24943E-01
  weight for this iteration     100.00

 eigenvalues of (default mixing * dielectric matrix)
  average eigenvalue GAMMA=   1.1564
  2.6430  0.9145  0.9145  0.6953  0.6146

 Free energy of the ion-electron system (eV)
  ---------------------------------------------------
  alpha Z        PSCENC =       202.60927324
  Ewald energy   TEWEN  =     -4243.51006688
  -Hartree energ DENC   =     -2113.28233574
  -exchange      EXHF   =         0.00000000
  -V(xc)+E(xc)   XCENC  =       296.28591317
  PAW double counting   =      6371.87158033    -6482.67631656
  entropy T*S    EENTRO =         0.00000000
  eigenvalues    EBANDS =      -760.23391186
  atomic energy  EATOM  =      6689.45677594
  Solvation  Ediel_sol  =         0.00000000
  ---------------------------------------------------
  free energy    TOTEN  =       -39.47908837 eV

  energy without entropy =      -39.47908837  energy(sigma->0) =      -39.47908837


--------------------------------------------------------------------------------------------------------




--------------------------------------- Iteration      1(  11)  ---------------------------------------


    POTLOK:  cpu time    0.0043: real time    0.0043
    SETDIJ:  cpu time    0.2306: real time    0.2306
atom =   1  type =  1  l = 2
 
 onsite density matrix
 
spin component  1
 
  0.0463  0.0000  0.0258  0.0000 -0.0000
  0.0000  0.0375  0.0000  0.0216  0.0000
  0.0258  0.0000  0.0320  0.0000  0.0000
  0.0000  0.0216  0.0000  0.0375  0.0000
 -0.0000  0.0000  0.0000  0.0000  0.0137
 
spin component  2
 
  0.9763  0.0000  0.0216  0.0000  0.0000
  0.0000  0.9696  0.0000  0.0188  0.0000
  0.0216  0.0000  0.9636  0.0000 -0.0000
  0.0000  0.0188  0.0000  0.9696  0.0000
  0.0000  0.0000 -0.0000  0.0000  0.9506
 
 occupancies and eigenvectors
 
  o =  0.0124  v = -0.6056 -0.0000  0.7958  0.0000 -0.0000  0.0000  0.0000  0.0000  0.0000  0.0000      0.0000  0.0000  0.0000  0.0000  0.0000  0.0000  0.0000  0.0000  0.0000  0.0000
  o =  0.0137  v = -0.0000  0.0000  0.0000  0.0000  1.0000  0.0000  0.0000  0.0000  0.0000  0.0000      0.0000  0.0000  0.0000  0.0000  0.0000  0.0000  0.0000  0.0000  0.0000  0.0000
  o =  0.0159  v =  0.0000  0.7071  0.0000 -0.7071 -0.0000  0.0000  0.0000  0.0000  0.0000  0.0000      0.0000  0.0000  0.0000  0.0000  0.0000  0.0000  0.0000  0.0000  0.0000  0.0000
  o =  0.0591  v =  0.0000 -0.7071  0.0000 -0.7071  0.0000  0.0000  0.0000  0.0000  0.0000  0.0000      0.0000  0.0000  0.0000  0.0000  0.0000  0.0000  0.0000  0.0000  0.0000  0.0000
  o =  0.0659  v = -0.7958 -0.0000 -0.6056  0.0000 -0.0000  0.0000  0.0000  0.0000  0.0000  0.0000      0.0000  0.0000  0.0000  0.0000  0.0000  0.0000  0.0000  0.0000  0.0000  0.0000
  o =  0.9474  v =  0.0000  0.0000  0.0000  0.0000  0.0000 -0.5994  0.0000  0.8005 -0.0000  0.0000      0.0000  0.0000  0.0000  0.0000  0.0000  0.0000  0.0000  0.0000  0.0000  0.0000
  o =  0.9506  v =  0.0000  0.0000  0.0000  0.0000  0.0000 -0.0000 -0.0000  0.0000  0.0000 -1.0000      0.0000  0.0000  0.0000  0.0000  0.0000  0.0000  0.0000  0.0000  0.0000  0.0000
  o =  0.9508  v =  0.0000  0.0000  0.0000  0.0000  0.0000  0.0000  0.7071 -0.0000 -0.7071 -0.0000      0.0000  0.0000  0.0000  0.0000  0.0000  0.0000  0.0000  0.0000  0.0000  0.0000
  o =  0.9884  v =  0.0000  0.0000  0.0000  0.0000  0.0000 -0.0000 -0.7071 -0.0000 -0.7071  0.0000      0.0000  0.0000  0.0000  0.0000  0.0000  0.0000  0.0000  0.0000  0.0000  0.0000
  o =  0.9925  v =  0.0000  0.0000  0.0000  0.0000  0.0000 -0.8005  0.0000 -0.5994  0.0000  0.0000      0.0000  0.0000  0.0000  0.0000  0.0000  0.0000  0.0000  0.0000  0.0000  0.0000
atom =   2  type =  1  l = 2
 
 onsite density matrix
 
spin component  1
 
  0.9763  0.0000 -0.0216  0.0000  0.0000
  0.0000  0.9696  0.0000 -0.0188  0.0000
 -0.0216  0.0000  0.9636  0.0000  0.0000
  0.0000 -0.0188  0.0000  0.9696  0.0000
  0.0000  0.0000  0.0000  0.0000  0.9506
 
spin component  2
 
  0.0463  0.0000 -0.0258  0.0000 -0.0000
  0.0000  0.0375  0.0000 -0.0216  0.0000
 -0.0258  0.0000  0.0320  0.0000  0.0000
  0.0000 -0.0216  0.0000  0.0375  0.0000
 -0.0000  0.0000  0.0000  0.0000  0.0137
 
 occupancies and eigenvectors
 
  o =  0.0124  v =  0.0000  0.0000  0.0000  0.0000  0.0000 -0.6056  0.0000 -0.7958  0.0000  0.0000      0.0000  0.0000  0.0000  0.0000  0.0000  0.0000  0.0000  0.0000  0.0000  0.0000
  o =  0.0137  v =  0.0000  0.0000  0.0000  0.0000  0.0000 -0.0000 -0.0000 -0.0000  0.0000 -1.0000      0.0000  0.0000  0.0000  0.0000  0.0000  0.0000  0.0000  0.0000  0.0000  0.0000
  o =  0.0159  v =  0.0000  0.0000  0.0000  0.0000  0.0000  0.0000  0.7071  0.0000  0.7071 -0.0000      0.0000  0.0000  0.0000  0.0000  0.0000  0.0000  0.0000  0.0000  0.0000  0.0000
  o =  0.0591  v =  0.0000  0.0000  0.0000  0.0000  0.0000  0.0000  0.7071  0.0000 -0.7071 -0.0000      0.0000  0.0000  0.0000  0.0000  0.0000  0.0000  0.0000  0.0000  0.0000  0.0000
  o =  0.0659  v =  0.0000  0.0000  0.0000  0.0000  0.0000 -0.7958  0.0000  0.6056  0.0000  0.0000      0.0000  0.0000  0.0000  0.0000  0.0000  0.0000  0.0000  0.0000  0.0000  0.0000
  o =  0.9474  v = -0.5994  0.0000 -0.8005  0.0000  0.0000  0.0000  0.0000  0.0000  0.0000  0.0000      0.0000  0.0000  0.0000  0.0000  0.0000  0.0000  0.0000  0.0000  0.0000  0.0000
  o =  0.9506  v =  0.0000 -0.0000  0.0000 -0.0000  1.0000  0.0000  0.0000  0.0000  0.0000  0.0000      0.0000  0.0000  0.0000  0.0000  0.0000  0.0000  0.0000  0.0000  0.0000  0.0000
  o =  0.9508  v = -0.0000 -0.7071 -0.0000 -0.7071 -0.0000  0.0000  0.0000  0.0000  0.0000  0.0000      0.0000  0.0000  0.0000  0.0000  0.0000  0.0000  0.0000  0.0000  0.0000  0.0000
[...]
     33       9.2325      0.00000
     34      10.1598      0.00000
     35      10.5058      0.00000
     36      11.4703      0.00000

 k-point     7 :       0.1250    0.1250    0.4167
  band No.  band energies     occupation 
      1     -46.0326      1.00000
      2     -46.0037      1.00000
      3     -45.9783      1.00000
      4     -41.4049      1.00000
      5     -41.3835      1.00000
      6     -41.3506      1.00000
      7     -20.5695      1.00000
      8     -20.4233      1.00000
      9     -20.3785      1.00000
     10     -20.2559      1.00000
     11      -4.5546      1.00000
     12      -4.0682      1.00000
     13      -3.7419      1.00000
     14      -3.6366      1.00000
     15      -3.6302      1.00000
     16      -3.2659      1.00000
     17      -2.7300      1.00000
     18      -2.6915      1.00000
     19      -2.4414      1.00000
     20      -2.0275      1.00000
     21      -1.8123      1.00000
     22      -1.7755      1.00000
     23      -0.9336      1.00000
     24      -0.5385      1.00000
     25      -0.1593      1.00000
     26       0.3331      1.00000
     27       0.6701      1.00000
     28       7.8052      0.00000
     29       7.8371      0.00000
     30       7.8521      0.00000
     31       8.7309      0.00000
     32       8.7812      0.00000
     33       9.1845      0.00000
     34      11.0949      0.00000
     35      12.4098      0.00000
     36      12.6256      0.00000

 k-point     8 :       0.3750    0.1250    0.4167
  band No.  band energies     occupation 
      1     -46.0326      1.00000
      2     -46.0037      1.00000
      3     -45.9783      1.00000
      4     -41.4050      1.00000
      5     -41.3835      1.00000
      6     -41.3507      1.00000
      7     -20.5041      1.00000
      8     -20.4381      1.00000
      9     -20.3917      1.00000
     10     -20.2929      1.00000
     11      -4.3359      1.00000
     12      -4.1986      1.00000
     13      -4.1087      1.00000
     14      -3.7307      1.00000
     15      -3.6300      1.00000
     16      -3.0482      1.00000
     17      -2.8860      1.00000
     18      -2.6682      1.00000
     19      -2.4227      1.00000
     20      -1.9732      1.00000
     21      -1.6955      1.00000
     22      -1.5684      1.00000
     23      -0.9209      1.00000
     24      -0.6098      1.00000
     25      -0.2952      1.00000
     26       0.2828      1.00000
     27       0.9297      1.00000
     28       7.8128      0.00000
     29       7.8468      0.00000
     30       8.0820      0.00000
     31       8.6296      0.00000
     32       9.2196      0.00000
     33       9.4435      0.00000
     34      10.7849      0.00000
     35      11.3997      0.00000
     36      12.4293      0.00000

 k-point     9 :       0.3750    0.3750    0.4167
  band No.  band energies     occupation 
      1     -46.0326      1.00000
      2     -46.0037      1.00000
      3     -45.9783      1.00000
      4     -41.4050      1.00000
      5     -41.3835      1.00000
      6     -41.3507      1.00000
      7     -20.4772      1.00000
      8     -20.4678      1.00000
      9     -20.3970      1.00000
     10     -20.2797      1.00000
     11      -4.5596      1.00000
     12      -4.2727      1.00000
     13      -4.0930      1.00000
     14      -4.0424      1.00000
     15      -3.7064      1.00000
     16      -3.0940      1.00000
     17      -2.6934      1.00000
     18      -2.4153      1.00000
     19      -2.2470      1.00000
     20      -1.7678      1.00000
     21      -1.6190      1.00000
     22      -1.5072      1.00000
     23      -0.9236      1.00000
     24      -0.5806      1.00000
     25      -0.3594      1.00000
     26       0.3421      1.00000
     27       0.8636      1.00000
     28       7.8217      0.00000
     29       7.8919      0.00000
     30       8.1389      0.00000
     31       8.6284      0.00000
     32       9.0578      0.00000
     33       9.9156      0.00000
     34      11.3248      0.00000
     35      11.4057      0.00000
     36      11.5199      0.00000


--------------------------------------------------------------------------------------------------------


 soft charge-density along one line, spin component           1
         0         1         2         3         4         5         6         7         8         9
 total charge-density along one line
 
 soft charge-density along one line, spin component           2
         0         1         2         3         4         5         6         7         8         9
 total charge-density along one line
 
 pseudopotential strength for first ion, spin component:           1
-41.907  -0.000  -0.030   7.907   0.000   0.012   0.000   0.000
 -0.000 -41.881  -0.000   0.000   7.897   0.000   0.000  -0.000
 -0.030  -0.000 -41.907   0.012   0.000   7.907  -0.000   0.000
  7.907   0.000   0.012   5.347  -0.000  -0.004  -0.000  -0.000
  0.000   7.897   0.000  -0.000   5.351  -0.000  -0.000  -0.000
  0.012   0.000   7.907  -0.004  -0.000   5.347  -0.000  -0.000
  0.000   0.000  -0.000  -0.000  -0.000  -0.000  -0.571  -0.000
  0.000  -0.000   0.000  -0.000  -0.000  -0.000  -0.000  -0.515
  0.000   0.000  -0.000   0.000  -0.000  -0.000  -0.107   0.000
  0.000  -0.000   0.000  -0.000  -0.000  -0.000  -0.000  -0.118
  0.000   0.000   0.000   0.000  -0.000   0.000  -0.000   0.000
  0.000   0.000  -0.000  -0.000  -0.000  -0.000  -0.990  -0.000
  0.000  -0.000   0.000  -0.000  -0.000  -0.000  -0.000  -0.932
  0.000   0.000  -0.000   0.000  -0.000  -0.000  -0.112   0.000
  0.000  -0.000   0.000  -0.000  -0.000  -0.000  -0.000  -0.121
  0.000   0.000   0.000   0.000  -0.000   0.000  -0.000   0.000
 -0.000  -0.000   0.000  -0.000  -0.000   0.000   0.006   0.000
 -0.000  -0.000   0.000  -0.000  -0.000   0.000   0.012   0.000
 pseudopotential strength for first ion, spin component:           2
-45.002  -0.000  -0.022   9.405   0.000   0.008   0.000   0.000
 -0.000 -44.983  -0.000   0.000   9.399   0.000   0.000  -0.000
 -0.022  -0.000 -45.002   0.008   0.000   9.405  -0.000   0.000
  9.405   0.000   0.008   4.849  -0.000  -0.002   0.000  -0.000
  0.000   9.399   0.000  -0.000   4.851  -0.000  -0.000  -0.000
  0.008   0.000   9.405  -0.002  -0.000   4.849  -0.000  -0.000
  0.000   0.000  -0.000   0.000  -0.000  -0.000  -8.278  -0.000
  0.000  -0.000   0.000  -0.000  -0.000  -0.000  -0.000  -8.234
  0.000   0.000  -0.000   0.000  -0.000  -0.000  -0.092   0.000
  0.000  -0.000   0.000  -0.000  -0.000  -0.000  -0.000  -0.106
  0.000   0.000   0.000   0.000  -0.000  -0.000  -0.000   0.000
  0.000   0.000  -0.000   0.000  -0.000  -0.000  -8.796  -0.000
  0.000  -0.000   0.000  -0.000  -0.000  -0.000  -0.000  -8.750
  0.000   0.000  -0.000   0.000  -0.000  -0.000  -0.095   0.000
  0.000  -0.000   0.000  -0.000  -0.000  -0.000  -0.000  -0.109
  0.000   0.000   0.000   0.000  -0.000  -0.000  -0.000   0.000
 -0.000  -0.000   0.000  -0.000  -0.000   0.000   0.004   0.000
 -0.000  -0.000   0.000  -0.000  -0.000   0.000   0.007   0.000
 total augmentation occupancy for first ion, spin component:           1
  1.998   0.000  -0.000  -0.013   0.000   0.000   0.000   0.000   0.000   0.000   0.000   0.000   0.000   0.000   0.000   0.000
  0.000   1.998   0.000   0.000  -0.013   0.000   0.000   0.000   0.000   0.000   0.000   0.000   0.000   0.000   0.000   0.000
 -0.000   0.000   1.998   0.000   0.000  -0.013   0.000   0.000   0.000   0.000   0.000   0.000   0.000   0.000   0.000   0.000
 -0.013   0.000   0.000   0.095   0.000  -0.010   0.000   0.000   0.000   0.000   0.000   0.000   0.000   0.000   0.000   0.000
  0.000  -0.013   0.000   0.000   0.108   0.000   0.000   0.000   0.000   0.000   0.000   0.000   0.000   0.000   0.000   0.000
  0.000   0.000  -0.013  -0.010   0.000   0.095   0.000   0.000   0.000   0.000   0.000   0.000   0.000   0.000   0.000   0.000
  0.000   0.000   0.000   0.000   0.000   0.000   8.466   0.000   3.440   0.000   0.000  -6.514   0.000  -3.261   0.000   0.000
  0.000   0.000   0.000   0.000   0.000   0.000   0.000   7.098   0.000   2.972   0.000   0.000  -5.212   0.000  -2.807   0.000
  0.000   0.000   0.000   0.000   0.000   0.000   3.440   0.000   6.412   0.000  -0.000  -3.262   0.000  -4.586   0.000  -0.000
  0.000   0.000   0.000   0.000   0.000   0.000   0.000   2.972   0.000   7.098   0.000   0.000  -2.807   0.000  -5.212   0.000
  0.000   0.000   0.000   0.000   0.000   0.000  -0.000   0.000  -0.000   0.000   3.993  -0.000   0.000  -0.000   0.000  -2.252
  0.000   0.000   0.000   0.000   0.000   0.000  -6.514   0.000  -3.262   0.000   0.000   5.731   0.000   3.122   0.000   0.000
  0.000   0.000   0.000   0.000   0.000   0.000   0.000  -5.212   0.000  -2.807   0.000   0.000   4.483   0.000   2.678   0.000
  0.000   0.000   0.000   0.000   0.000   0.000  -3.261   0.000  -4.586   0.000   0.000   3.122   0.000   3.905   0.000   0.000
  0.000   0.000   0.000   0.000   0.000   0.000   0.000  -2.807   0.000  -5.212   0.000   0.000   2.678   0.000   4.483   0.000
  0.000   0.000   0.000   0.000   0.000   0.000   0.000   0.000   0.000   0.000  -2.252   0.000   0.000   0.000   0.000   1.634
  0.000   0.000   0.000   0.000   0.000   0.000   0.257   0.000  -0.239   0.000  -0.000  -0.284   0.000   0.247   0.000  -0.000
  0.000   0.000   0.000   0.000   0.000   0.000  -0.010   0.000   0.028   0.000   0.000   0.033   0.000  -0.038   0.000   0.000
 total augmentation occupancy for first ion, spin component:           2
  0.004   0.000  -0.000   0.016   0.000  -0.000   0.000   0.000   0.000   0.000   0.000   0.000   0.000   0.000   0.000   0.000
  0.000   0.004   0.000   0.000   0.017   0.000   0.000   0.000   0.000   0.000   0.000   0.000   0.000   0.000   0.000   0.000
 -0.000   0.000   0.004  -0.000   0.000   0.016   0.000   0.000   0.000   0.000   0.000   0.000   0.000   0.000   0.000   0.000
  0.016   0.000  -0.000  -0.010   0.000  -0.000   0.000   0.000   0.000   0.000   0.000   0.000   0.000   0.000   0.000   0.000
  0.000   0.017   0.000   0.000  -0.010   0.000   0.000   0.000   0.000   0.000   0.000   0.000   0.000   0.000   0.000   0.000
 -0.000   0.000   0.016  -0.000   0.000  -0.010   0.000   0.000   0.000   0.000   0.000   0.000   0.000   0.000   0.000   0.000
  0.000   0.000   0.000   0.000   0.000   0.000  -5.890   0.000  -1.988   0.000   0.000   3.574   0.000   1.609   0.000   0.000
  0.000   0.000   0.000   0.000   0.000   0.000   0.000  -5.096   0.000  -1.738   0.000   0.000   2.915   0.000   1.405   0.000
  0.000   0.000   0.000   0.000   0.000   0.000  -1.988   0.000  -4.621   0.000   0.000   1.609   0.000   2.542   0.000   0.000
  0.000   0.000   0.000   0.000   0.000   0.000   0.000  -1.738   0.000  -5.096   0.000   0.000   1.405   0.000   2.915   0.000
  0.000   0.000   0.000   0.000   0.000   0.000   0.000   0.000   0.000   0.000  -3.346   0.000   0.000   0.000   0.000   1.496
  0.000   0.000   0.000   0.000   0.000   0.000   3.574   0.000   1.609   0.000   0.000  -2.369   0.000  -1.238   0.000  -0.000
  0.000   0.000   0.000   0.000   0.000   0.000   0.000   2.915   0.000   1.405   0.000   0.000  -1.845   0.000  -1.080   0.000
  0.000   0.000   0.000   0.000   0.000   0.000   1.609   0.000   2.542   0.000   0.000  -1.238   0.000  -1.569   0.000  -0.000
  0.000   0.000   0.000   0.000   0.000   0.000   0.000   1.405   0.000   2.915   0.000   0.000  -1.080   0.000  -1.845   0.000
  0.000   0.000   0.000   0.000   0.000   0.000  -0.000   0.000   0.000   0.000   1.496   0.000   0.000  -0.000   0.000  -0.750
  0.000   0.000   0.000   0.000   0.000   0.000  -0.002   0.000   0.031   0.000  -0.000  -0.004   0.000  -0.014   0.000  -0.000
  0.000   0.000   0.000   0.000   0.000   0.000  -0.041   0.000   0.012   0.000   0.000   0.024   0.000  -0.005   0.000  -0.000


------------------------ aborting loop because EDIFF is reached ----------------------------------------


 


 total charge     
 
# of ion       s       p       d       tot
------------------------------------------
    1        0.178   6.171   4.978  11.327
    2        0.183   6.166   4.984  11.333
    3        1.721   4.367   0.000   6.088
    4        1.721   4.367   0.000   6.088
    5        1.720   4.364   0.000   6.084
    6        1.720   4.364   0.000   6.084
--------------------------------------------------
tot          7.243  29.799   9.963  47.004
 


 magnetization (x)
 
# of ion       s       p       d       tot
------------------------------------------
    1       -0.015  -0.015  -4.652  -4.682
    2        0.015   0.014   4.650   4.679
    3        0.001   0.017   0.000   0.018
    4        0.001   0.017   0.000   0.018
    5       -0.002  -0.013   0.000  -0.015
    6       -0.002  -0.013   0.000  -0.015
--------------------------------------------------
tot         -0.001   0.006  -0.002   0.003
 
    CHARGE:  cpu time    0.0325: real time    0.0325
    FORLOC:  cpu time    0.0012: real time    0.0012
    FORNL :  cpu time    0.1747: real time    0.1747
    STRESS:  cpu time    0.5180: real time    0.5180
    FORCOR:  cpu time    0.0041: real time    0.0041
    FORHAR:  cpu time    0.0021: real time    0.0021
    MIXING:  cpu time    0.0007: real time    0.0007
    OFIELD:  cpu time    0.0000: real time    0.0000

  FORCE on cell =-STRESS in cart. coord.  units (eV):
  Direction    XX          YY          ZZ          XY          YZ          ZX
  --------------------------------------------------------------------------------------
  Alpha Z   202.60927   202.60927   202.60927
  Ewald   -1604.76619 -1604.76619 -1033.98088     0.00000    -0.00000    -0.00000
  Hartree   577.06909   577.06909   959.54155    -0.00000    -0.00000    -0.00000
  E(xc)    -309.60885  -309.60885  -309.65388    -0.00000     0.00000     0.00000
  Local     184.11365   184.11365  -761.82254    -0.00000     0.00000     0.00000
  n-local  -238.50432  -238.86843  -237.52478     0.03387     0.12507     0.13035
  augment   267.22285   267.22285   266.58180    -0.00000    -0.00000    -0.00000
  Kinetic   921.61467   922.48582   914.25078    -0.48665    -0.93669    -0.99960
  Fock        0.00000     0.00000     0.00000     0.00000     0.00000     0.00000
  -------------------------------------------------------------------------------------
  Total       0.00370     0.00370     0.00132     0.00000     0.00000     0.00000
  in kB       0.07875     0.07875     0.02807     0.00000     0.00000     0.00000
  external pressure =        0.06 kB  Pullay stress =        0.00 kB


 VOLUME and BASIS-vectors are now :
 -----------------------------------------------------------------------------
  energy-cutoff  :      600.00
  volume of cell :       75.20
      direct lattice vectors                 reciprocal lattice vectors
     4.805334510  0.000000000  0.000000000     0.208102058  0.000000000  0.000000000
     0.000000000  4.805334510  0.000000000     0.000000000  0.208102058  0.000000000
     0.000000000  0.000000000  3.256564062     0.000000000  0.000000000  0.307072111

  length of vectors
     4.805334510  4.805334510  3.256564062     0.208102058  0.208102058  0.307072111


 FORCES acting on ions
    electron-ion (+dipol)            ewald-force                    non-local-force                 convergence-correction
 -----------------------------------------------------------------------------------------------
   -.178E-11 0.658E-11 -.587E-13   -.171E-12 -.227E-12 -.377E-14   0.000E+00 0.000E+00 0.000E+00   -.534E-13 -.934E-13 0.591E-13
   -.199E-13 -.101E-13 0.409E-13   0.114E-12 0.114E-12 -.643E-14   0.000E+00 0.000E+00 0.000E+00   0.986E-13 -.507E-14 -.936E-13
   -.343E+02 0.343E+02 0.159E-11   0.357E+02 -.357E+02 0.494E-14   -.132E+01 0.132E+01 0.434E-18   -.420E-03 0.420E-03 0.639E-13
   0.343E+02 -.343E+02 0.560E-11   -.357E+02 0.357E+02 0.532E-14   0.132E+01 -.132E+01 -.434E-18   0.420E-03 -.420E-03 -.306E-13
   0.343E+02 0.343E+02 0.312E-08   -.357E+02 -.357E+02 0.118E-14   0.132E+01 0.132E+01 -.108E-18   0.420E-03 0.420E-03 -.818E-10
   -.343E+02 -.343E+02 -.313E-08   0.357E+02 0.357E+02 0.166E-14   -.132E+01 -.132E+01 0.108E-18   -.420E-03 -.420E-03 0.818E-10
 -----------------------------------------------------------------------------------------------
   0.136E-11 0.880E-11 -.269E-11   0.000E+00 0.000E+00 0.290E-14   -.222E-15 0.222E-15 0.000E+00   0.708E-13 -.131E-12 -.651E-13
 
 
 POSITION                                       TOTAL-FORCE (eV/Angst)
 -----------------------------------------------------------------------------------
      2.40267      2.40267      1.62828         0.000000      0.000000      0.000000
      0.00000      0.00000      0.00000         0.000000      0.000000      0.000000
      0.93984      3.86549      1.62828        -0.003142      0.003142      0.000000
      3.86549      0.93984      1.62828         0.003142     -0.003142      0.000000
      1.46282      1.46282      0.00000         0.003142      0.003142     -0.000000
      3.34251      3.34251      0.00000        -0.003142     -0.003142      0.000000
 -----------------------------------------------------------------------------------
    total drift:                                0.000000      0.000000     -0.000000


--------------------------------------------------------------------------------------------------------



  FREE ENERGIE OF THE ION-ELECTRON SYSTEM (eV)
  ---------------------------------------------------
  free  energy   TOTEN  =       -39.47920168 eV

  energy  without entropy=      -39.47920168  energy(sigma->0) =      -39.47920168
 


--------------------------------------------------------------------------------------------------------


    POTLOK:  cpu time    0.2339: real time    0.2339


--------------------------------------------------------------------------------------------------------


 writing wavefunctions
     LOOP+:  cpu time    8.8382: real time    8.8570
    4ORBIT:  cpu time    0.0000: real time    0.0000
 


 total charge     
 
# of ion       s       p       d       tot
------------------------------------------
    1        0.178   6.171   4.978  11.327
    2        0.183   6.166   4.984  11.333
    3        1.721   4.367   0.000   6.088
    4        1.721   4.367   0.000   6.088
    5        1.720   4.364   0.000   6.084
    6        1.720   4.364   0.000   6.084
--------------------------------------------------
tot          7.243  29.799   9.963  47.004
 


 magnetization (x)
 
# of ion       s       p       d       tot
------------------------------------------
    1       -0.015  -0.015  -4.652  -4.682
    2        0.015   0.014   4.650   4.679
    3        0.001   0.017   0.000   0.018
    4        0.001   0.017   0.000   0.018
    5       -0.002  -0.013   0.000  -0.015
    6       -0.002  -0.013   0.000  -0.015
--------------------------------------------------
tot         -0.001   0.006  -0.002   0.003
 
 BZINTS: Fermi energy:  1.162328; 54.000000 electrons
         Band energy:-759.791970;  BLOECHL correction:  0.000000

 total amount of memory used by VASP MPI-rank0    43583. kBytes
=======================================================================

   base      :      30000. kBytes
   nonl-proj :       6806. kBytes
   fftplans  :       1875. kBytes
   grid      :       2467. kBytes
   one-center:        186. kBytes
   wavefun   :       2249. kBytes
 
  
  
 General timing and accounting informations for this job:
 ========================================================
  
                  Total CPU time used (sec):       10.088
                            User time (sec):        7.295
                          System time (sec):        2.793
                         Elapsed time (sec):       10.411
  
                   Maximum memory used (kb):       59540.
                   Average memory used (kb):           0.
  
                          Minor page faults:         9062
                          Major page faults:            7
                 Voluntary context switches:          149
