       N       E                     dE             d eps       ncg     rms          rms(c)
DAV:   1     0.694264480006E+03    0.69426E+03   -0.34270E+04   288   0.193E+03
DAV:   2     0.110089102692E+02   -0.68326E+03   -0.66144E+03   324   0.521E+02
DAV:   3    -0.406219721142E+02   -0.51631E+02   -0.51403E+02   324   0.156E+02
DAV:   4    -0.414093861607E+02   -0.78741E+00   -0.78697E+00   336   0.208E+01
DAV:   5    -0.414210342989E+02   -0.11648E-01   -0.11648E-01   324   0.251E+00    0.248E+01
DAV:   6    -0.393391658282E+02    0.20819E+01   -0.15694E+01   324   0.318E+01    0.159E+01
DAV:   7    -0.399811643678E+02   -0.64200E+00   -0.15940E+00   348   0.107E+01    0.118E+01
DAV:   8    -0.399054944798E+02    0.75670E-01   -0.51210E-01   360   0.588E+00    0.481E+00
DAV:   9    -0.401689000741E+02   -0.26341E+00   -0.69241E-02   324   0.244E+00    0.132E+00
DAV:  10    -0.401700055454E+02   -0.11055E-02   -0.15527E-02   372   0.999E-01    0.244E-01
DAV:  11    -0.401699613502E+02    0.44195E-04   -0.15108E-03   300   0.263E-01    0.143E-01
DAV:  12    -0.401699999088E+02   -0.38559E-04   -0.44309E-05   384   0.869E-02    0.595E-02
DAV:  13    -0.401700073490E+02   -0.74402E-05   -0.36454E-05   312   0.332E-02    0.212E-02
DAV:  14    -0.401700089274E+02   -0.15784E-05   -0.16345E-06   300   0.125E-02    0.370E-03
DAV:  15    -0.401700090862E+02   -0.15879E-06   -0.13628E-07   276   0.281E-03    0.148E-03
DAV:  16    -0.401700090993E+02   -0.13131E-07   -0.16898E-08   144   0.125E-03
   1 F= -.40170009E+02 E0= -.40170009E+02  d E =-.401700E+02  mag=     0.0000
