 vasp.5.4.4.18Apr17-6-g9f103f2a35 (build Apr 27 2017 11:13:10) complex          
  
 executed on           IFC91_ompi date 2020.05.13  12:13:00
 running on   12 total cores
 distrk:  each k-point on   12 cores,    1 groups
 distr:  one band on NCORES_PER_BAND=   1 cores,   12 groups


--------------------------------------------------------------------------------------------------------


 INCAR:
 POTCAR:    PAW Mn_pv 02Aug2007                   
 POTCAR:    PAW F 31May2000                       

 ----------------------------------------------------------------------------- 
|                                                                             |
|           W    W    AA    RRRRR   N    N  II  N    N   GGGG   !!!           |
|           W    W   A  A   R    R  NN   N  II  NN   N  G    G  !!!           |
|           W    W  A    A  R    R  N N  N  II  N N  N  G       !!!           |
|           W WW W  AAAAAA  RRRRR   N  N N  II  N  N N  G  GGG   !            |
|           WW  WW  A    A  R   R   N   NN  II  N   NN  G    G                |
|           W    W  A    A  R    R  N    N  II  N    N   GGGG   !!!           |
|                                                                             |
|      For optimal performance we recommend to set                            |
|        NCORE= 4 - approx SQRT( number of cores)                             |
|      NCORE specifies how many cores store one orbital (NPAR=cpu/NCORE).     |
|      This setting can  greatly improve the performance of VASP for DFT.     |
|      The default,   NCORE=1            might be grossly inefficient         |
|      on modern multi-core architectures or massively parallel machines.     |
|      Do your own testing !!!!                                               |
|      Unfortunately you need to use the default for GW and RPA calculations. |
|      (for HF NCORE is supported but not extensively tested yet)             |
|                                                                             |
 ----------------------------------------------------------------------------- 

 POTCAR:    PAW Mn_pv 02Aug2007                   
   VRHFIN =Mn: 3p4s3d                                                           
   LEXCH  = CA                                                                  
   EATOM  =  2028.0466 eV,  149.0572 Ry                                         
                                                                                
   TITEL  = PAW Mn_pv 02Aug2007                                                 
   LULTRA =        F    use ultrasoft PP ?                                      
   IUNSCR =        1    unscreen: 0-lin 1-nonlin 2-no                           
   RPACOR =    2.080    partial core radius                                     
   POMASS =   54.938; ZVAL   =   13.000    mass and valenz                      
   RCORE  =    2.300    outmost cutoff radius                                   
   RWIGS  =    2.500; RWIGS  =    1.323    wigner-seitz radius (au A)           
   ENMAX  =  269.944; ENMIN  =  202.458 eV                                      
   ICORE  =        3    local potential                                         
   LCOR   =        T    correct aug charges                                     
   LPAW   =        T    paw PP                                                  
   EAUG   =  569.085                                                            
   DEXC   =    0.000                                                            
   RMAX   =    2.343    core radius for proj-oper                               
   RAUG   =    1.300    factor for augmentation sphere                          
   RDEP   =    2.338    radius for radial grids                                 
   RDEPT  =    1.798    core radius for aug-charge                              
                                                                                
   Atomic configuration                                                         
    8 entries                                                                   
     n  l   j            E        occ.                                          
     1  0  0.50     -6393.6057   2.0000                                         
     2  0  0.50      -735.9993   2.0000                                         
     2  1  1.50      -624.3417   6.0000                                         
     3  0  0.50       -80.9782   2.0000                                         
     3  1  1.50       -50.3144   6.0000                                         
     3  2  2.50        -3.6171   6.0000                                         
     4  0  0.50        -4.3304   1.0000                                         
     4  3  2.50        -1.3606   0.0000                                         
   Description                                                                  
     l       E           TYP  RCUT    TYP  RCUT                                 
     1    -50.3143634     23  2.000                                             
     1     -1.3605826     23  2.000                                             
     2     -3.6171470     23  2.300                                             
     2     -4.9777296     23  2.300                                             
     0     -4.3303688     23  2.300                                             
     0      7.3408788     23  2.300                                             
     3      9.5240782     23  2.300                                             
  local pseudopotential read in
  partial core-charges read in
  partial kinetic energy density read in
  atomic valenz-charges read in
  non local Contribution for L=           1  read in
    real space projection operators read in
  non local Contribution for L=           1  read in
    real space projection operators read in
  non local Contribution for L=           2  read in
    real space projection operators read in
  non local Contribution for L=           2  read in
    real space projection operators read in
  non local Contribution for L=           0  read in
    real space projection operators read in
  non local Contribution for L=           0  read in
    real space projection operators read in
    PAW grid and wavefunctions read in
 
   number of l-projection  operators is LMAX  =           6
   number of lm-projection operators is LMMAX =          18
 
 POTCAR:    PAW F 31May2000                       
   VRHFIN =F: s2p5                                                              
   LEXCH  = CA                                                                  
   EATOM  =   658.3685 eV,   48.3887 Ry                                         
                                                                                
   TITEL  = PAW F 31May2000                                                     
   LULTRA =        F    use ultrasoft PP ?                                      
   IUNSCR =        1    unscreen: 0-lin 1-nonlin 2-no                           
   RPACOR =    1.200    partial core radius                                     
   POMASS =   18.998; ZVAL   =    7.000    mass and valenz                      
   RCORE  =    1.520    outmost cutoff radius                                   
   RWIGS  =    1.500; RWIGS  =    0.794    wigner-seitz radius (au A)           
   ENMAX  =  400.000; ENMIN  =  300.000 eV                                      
   ICORE  =        2    local potential                                         
   LCOR   =        T    correct aug charges                                     
   LPAW   =        T    paw PP                                                  
   EAUG   =  613.614                                                            
   DEXC   =    0.000                                                            
   RMAX   =    1.555    core radius for proj-oper                               
   RAUG   =    1.300    factor for augmentation sphere                          
   RDEP   =    1.539    radius for radial grids                                 
   RDEPT  =    1.299    core radius for aug-charge                              
                                                                                
   Atomic configuration                                                         
    4 entries                                                                   
     n  l   j            E        occ.                                          
     1  0  0.50      -658.3386   2.0000                                         
     2  0  0.50       -29.6221   2.0000                                         
     2  1  0.50       -11.2952   5.0000                                         
     3  2  1.50       -12.2452   0.0000                                         
   Description                                                                  
     l       E           TYP  RCUT    TYP  RCUT                                 
     0    -29.6221019     23  1.200                                             
     0     -9.5240782     23  1.200                                             
     1    -11.2951545     23  1.520                                             
     1      1.3605826     23  1.520                                             
     2    -12.2452434      7  1.500                                             
  local pseudopotential read in
  partial core-charges read in
  partial kinetic energy density read in
  kinetic energy density of atom read in
  atomic valenz-charges read in
  non local Contribution for L=           0  read in
    real space projection operators read in
  non local Contribution for L=           0  read in
    real space projection operators read in
  non local Contribution for L=           1  read in
    real space projection operators read in
  non local Contribution for L=           1  read in
    real space projection operators read in
    PAW grid and wavefunctions read in
 
   number of l-projection  operators is LMAX  =           4
   number of lm-projection operators is LMMAX =           8
 
  PAW Mn_pv 02Aug2007                   :
 energy of atom  1       EATOM=-2028.0466
 kinetic energy error for atom=    0.0047 (will be added to EATOM!!)
  PAW F 31May2000                       :
 energy of atom  2       EATOM= -658.3685
 kinetic energy error for atom=    0.0252 (will be added to EATOM!!)
 
 
 POSCAR: Mn  F                                   
  positions in cartesian coordinates
  No initial velocities read in
 exchange correlation table for  LEXCH =        2
   RHO(1)=    0.500       N(1)  =     2000
   RHO(2)=  100.500       N(2)  =     4000
 


--------------------------------------------------------------------------------------------------------


 ion  position               nearest neighbor table
   1  0.500  0.500  0.500-   3 2.06   4 2.06   5 2.10   6 2.10   5 2.10   6 2.10
   2  0.000  0.000  0.000-   5 2.06   6 2.06   3 2.10   4 2.10   3 2.10   4 2.10
   3  0.196  0.804  0.500-   1 2.06   2 2.10   2 2.10
   4  0.804  0.196  0.500-   1 2.06   2 2.10   2 2.10
   5  0.304  0.304  0.000-   2 2.06   1 2.10   1 2.10
   6  0.696  0.696  0.000-   2 2.06   1 2.10   1 2.10
 
  LATTYP: Found a simple tetragonal cell.
 ALAT       =     4.7954970954
 C/A-ratio  =     0.6775755585
  
  Lattice vectors:
  
 A1 = (   4.7954970954,   0.0000000000,   0.0000000000)
 A2 = (   0.0000000000,   4.7954970954,   0.0000000000)
 A3 = (   0.0000000000,   0.0000000000,   3.2493116228)


Analysis of symmetry for initial positions (statically):
=====================================================================
 Subroutine PRICEL returns:
 Original cell was already a primitive cell.
 

 Routine SETGRP: Setting up the symmetry group for a 
 simple tetragonal supercell.


 Subroutine GETGRP returns: Found 16 space group operations
 (whereof  8 operations were pure point group operations)
 out of a pool of 16 trial point group operations.


The static configuration has the point symmetry D_2h.
 The point group associated with its full space group is D_4h.


Analysis of symmetry for dynamics (positions and initial velocities):
=====================================================================
 Subroutine PRICEL returns:
 Original cell was already a primitive cell.
 

 Routine SETGRP: Setting up the symmetry group for a 
 simple tetragonal supercell.


 Subroutine GETGRP returns: Found 16 space group operations
 (whereof  8 operations were pure point group operations)
 out of a pool of 16 trial point group operations.


The dynamic configuration has the point symmetry D_2h.
 The point group associated with its full space group is D_4h.


Analysis of structural, dynamic, and magnetic symmetry:
=====================================================================
 Subroutine PRICEL returns:
 Original cell was already a primitive cell.
 

 Routine SETGRP: Setting up the symmetry group for a 
 simple tetragonal supercell.


 Subroutine GETGRP returns: Found 16 space group operations
 (whereof  8 operations were pure point group operations)
 out of a pool of 16 trial point group operations.


The magnetic configuration has the point symmetry D_2h.
 The point group associated with its full space group is D_4h.


 Subroutine INISYM returns: Found 16 space group operations
 (whereof  8 operations are pure point group operations),
 and found     1 'primitive' translations

 
 
 KPOINTS: KPOINTS created by Atomic Simulation Env

Automatic generation of k-mesh.
Space group operators:
 irot       det(A)        alpha          n_x          n_y          n_z        tau_x        tau_y        tau_z
    1     1.000000     0.000001     1.000000     0.000000     0.000000     0.000000     0.000000     0.000000
    2    -1.000000     0.000001     1.000000     0.000000     0.000000     0.000000     0.000000     0.000000
    3     1.000000   179.999999     0.000000     0.000000     1.000000     0.000000     0.000000     0.000000
    4    -1.000000   179.999999     0.000000     0.000000     1.000000     0.000000     0.000000     0.000000
    5     1.000000   180.000000     0.707107     0.707107     0.000000     0.000000     0.000000     0.000000
    6    -1.000000   180.000000     0.707107     0.707107     0.000000     0.000000     0.000000     0.000000
    7     1.000000   180.000000     0.707107    -0.707107     0.000000     0.000000     0.000000     0.000000
    8    -1.000000   180.000000     0.707107    -0.707107     0.000000     0.000000     0.000000     0.000000
    9     1.000000    90.000000     0.000000     0.000000    -1.000000     0.500000     0.500000     0.500000
   10    -1.000000    90.000000     0.000000     0.000000    -1.000000     0.500000     0.500000     0.500000
   11     1.000000    90.000000     0.000000     0.000000     1.000000     0.500000     0.500000     0.500000
   12    -1.000000    90.000000     0.000000     0.000000     1.000000     0.500000     0.500000     0.500000
   13     1.000000   180.000000     0.000000     1.000000     0.000000     0.500000     0.500000     0.500000
   14    -1.000000   180.000000     0.000000     1.000000     0.000000     0.500000     0.500000     0.500000
   15     1.000000   180.000000     1.000000     0.000000     0.000000     0.500000     0.500000     0.500000
   16    -1.000000   180.000000     1.000000     0.000000     0.000000     0.500000     0.500000     0.500000
 
 Subroutine IBZKPT returns following result:
 ===========================================
 
 Found      2 irreducible k-points:
 
 Following reciprocal coordinates:
            Coordinates               Weight
  0.250000  0.250000  0.000000      4.000000
  0.250000  0.250000  0.333333      8.000000
 
 Following cartesian coordinates:
            Coordinates               Weight
  0.052132  0.052132  0.000000      4.000000
  0.052132  0.052132  0.102586      8.000000
 


--------------------------------------------------------------------------------------------------------




 Dimension of arrays:
   k-points           NKPTS =      2   k-points in BZ     NKDIM =      2   number of bands    NBANDS=     36
   number of dos      NEDOS =    301   number of ions     NIONS =      6
   non local maximal  LDIM  =      6   non local SUM 2l+1 LMDIM =     18
   total plane-waves  NPLWV =  18000
   max r-space proj   IRMAX =      1   max aug-charges    IRDMAX=  58666
   dimension x,y,z NGX =    30 NGY =   30 NGZ =   20
   dimension x,y,z NGXF=    60 NGYF=   60 NGZF=   40
   support grid    NGXF=   120 NGYF=  120 NGZF=   80
   ions per type =               2   4
   NGX,Y,Z   is equivalent  to a cutoff of  10.40, 10.40, 10.23 a.u.
   NGXF,Y,Z  is equivalent  to a cutoff of  20.80, 20.80, 20.47 a.u.

 SYSTEM =  unknown system                          
 POSCAR =  Mn  F                                   

 Startparameter for this run:
   NWRITE =      2    write-flag & timer
   PREC   = normal    normal or accurate (medium, high low for compatibility)
   ISTART =      0    job   : 0-new  1-cont  2-samecut
   ICHARG =      2    charge: 1-file 2-atom 10-const
   ISPIN  =      2    spin polarized calculation?
   LNONCOLLINEAR =      F non collinear calculations
   LSORBIT =      F    spin-orbit coupling
   INIWAV =      1    electr: 0-lowe 1-rand  2-diag
   LASPH  =      T    aspherical Exc in radial PAW
   METAGGA=      F    non-selfconsistent MetaGGA calc.

 Electronic Relaxation 1
   ENCUT  =  600.0 eV  44.10 Ry    6.64 a.u.   9.58  9.58  6.49*2*pi/ulx,y,z
   ENINI  =  600.0     initial cutoff
   ENAUG  =  613.6 eV  augmentation charge cutoff
   NELM   =     60;   NELMIN=  2; NELMDL= -5     # of ELM steps 
   EDIFF  = 0.1E-06   stopping-criterion for ELM
   LREAL  =      F    real-space projection
   NLSPLINE    = F    spline interpolate recip. space projectors
   LCOMPAT=      F    compatible to vasp.4.4
   GGA_COMPAT  = T    GGA compatible to vasp.4.4-vasp.4.6
   LMAXPAW     = -100 max onsite density
   LMAXMIX     =    4 max onsite mixed and CHGCAR
   VOSKOWN=      0    Vosko Wilk Nusair interpolation
   ROPT   =    0.00000   0.00000
 Ionic relaxation
   EDIFFG = -.5E-02   stopping-criterion for IOM
   NSW    =     50    number of steps for IOM
   NBLOCK =      1;   KBLOCK =     50    inner block; outer block 
   IBRION =      2    ionic relax: 0-MD 1-quasi-New 2-CG
   NFREE  =      1    steps in history (QN), initial steepest desc. (CG)
   ISIF   =      3    stress and relaxation
   IWAVPR =     11    prediction:  0-non 1-charg 2-wave 3-comb
   ISYM   =      2    0-nonsym 1-usesym 2-fastsym
   LCORR  =      T    Harris-Foulkes like correction to forces

   POTIM  = 0.5000    time-step for ionic-motion
   TEIN   =    0.0    initial temperature
   TEBEG  =    0.0;   TEEND  =   0.0 temperature during run
   SMASS  =  -3.00    Nose mass-parameter (am)
   estimated Nose-frequenzy (Omega)   =  0.10E-29 period in steps =****** mass=  -0.526E-27a.u.
   SCALEE = 1.0000    scale energy and forces
   NPACO  =    256;   APACO  = 16.0  distance and # of slots for P.C.
   PSTRESS=    0.0 pullay stress

  Mass of Ions in am
   POMASS =  54.94 19.00
  Ionic Valenz
   ZVAL   =  13.00  7.00
  Atomic Wigner-Seitz radii
   RWIGS  =  -1.00 -1.00
  virtual crystal weights 
   VCA    =   1.00  1.00
   NELECT =      54.0000    total number of electrons
   NUPDOWN=      -1.0000    fix difference up-down

 DOS related values:
   EMIN   =  10.00;   EMAX   =-10.00  energy-range for DOS
   EFERMI =   0.00
   ISMEAR =     0;   SIGMA  =   0.01  broadening in eV -4-tet -1-fermi 0-gaus

 Electronic relaxation 2 (details)
   IALGO  =     38    algorithm
   LDIAG  =      T    sub-space diagonalisation (order eigenvalues)
   LSUBROT=      F    optimize rotation matrix (better conditioning)
   TURBO    =      0    0=normal 1=particle mesh
   IRESTART =      0    0=no restart 2=restart with 2 vectors
   NREBOOT  =      0    no. of reboots
   NMIN     =      0    reboot dimension
   EREF     =   0.00    reference energy to select bands
   IMIX   =      4    mixing-type and parameters
     AMIX     =   0.40;   BMIX     =  1.00
     AMIX_MAG =   1.60;   BMIX_MAG =  1.00
     AMIN     =   0.10
     WC   =   100.;   INIMIX=   1;  MIXPRE=   1;  MAXMIX= -45

 Intra band minimization:
   WEIMIN = 0.0010     energy-eigenvalue tresh-hold
   EBREAK =  0.69E-09  absolut break condition
   DEPER  =   0.30     relativ break condition  

   TIME   =   0.40     timestep for ELM

  volume/ion in A,a.u.               =      12.45        84.04
  Fermi-wavevector in a.u.,A,eV,Ry     =   1.469106  2.776208 29.365089  2.158273
  Thomas-Fermi vector in A             =   2.584524
 
 Write flags
   LWAVE        =      F    write WAVECAR
   LDOWNSAMPLE  =      F    k-point downsampling of WAVECAR
   LCHARG       =      F    write CHGCAR
   LVTOT        =      F    write LOCPOT, total local potential
   LVHAR        =      F    write LOCPOT, Hartree potential only
   LELF         =      F    write electronic localiz. function (ELF)
   LORBIT       =     11    0 simple, 1 ext, 2 COOP (PROOUT), +10 PAW based schemes


 Dipole corrections
   LMONO  =      F    monopole corrections only (constant potential shift)
   LDIPOL =      F    correct potential (dipole corrections)
   IDIPOL =      0    1-x, 2-y, 3-z, 4-all directions 
   EPSILON=  1.0000000 bulk dielectric constant

 LDA+U is selected, type is set to LDAUTYPE =  2
   angular momentum for each species LDAUL =     2   -1
   U (eV)           for each species LDAUU =   4.0  0.0
   J (eV)           for each species LDAUJ =   0.0  0.0
 Exchange correlation treatment:
   GGA     =    --    GGA type
   LEXCH   =     2    internal setting for exchange type
   VOSKOWN=      0    Vosko Wilk Nusair interpolation
   LHFCALC =     F    Hartree Fock is set to
   LHFONE  =     F    Hartree Fock one center treatment
   AEXX    =    0.0000 exact exchange contribution

 Linear response parameters
   LEPSILON=     F    determine dielectric tensor
   LRPA    =     F    only Hartree local field effects (RPA)
   LNABLA  =     F    use nabla operator in PAW spheres
   LVEL    =     F    velocity operator in full k-point grid
   LINTERFAST=   F  fast interpolation
   KINTER  =     0    interpolate to denser k-point grid
   CSHIFT  =0.1000    complex shift for real part using Kramers Kronig
   OMEGAMAX=  -1.0    maximum frequency
   DEG_THRESHOLD= 0.2000000E-02 threshold for treating states as degnerate
   RTIME   =   -0.100 relaxation time in fs
  (WPLASMAI=    0.000 imaginary part of plasma frequency in eV, 0.658/RTIME)
   DFIELD  = 0.0000000 0.0000000 0.0000000 field for delta impulse in time
 
 Orbital magnetization related:
   ORBITALMAG=     F  switch on orbital magnetization
   LCHIMAG   =     F  perturbation theory with respect to B field
   DQ        =  0.001000  dq finite difference perturbation B field
   LLRAUG    =     F  two centre corrections for induced B field



--------------------------------------------------------------------------------------------------------


 conjugate gradient relaxation of ions
 charge density and potential will be updated during run
 spin polarized calculation
 Variant of blocked Davidson
 Davidson routine will perform the subspace rotation
 perform sub-space diagonalisation
    after iterative eigenvector-optimisation
 modified Broyden-mixing scheme, WC =      100.0
 initial mixing is a Kerker type mixing with AMIX =  0.4000 and BMIX =      1.0000
 Hartree-type preconditioning will be used
 using additional bands            9
 reciprocal scheme for non local part
 use partial core corrections
 calculate Harris-corrections to forces 
   (improved forces if not selfconsistent)
 use of overlap-Matrix (Vanderbilt PP)
 Gauss-broadening in eV      SIGMA  =   0.01


--------------------------------------------------------------------------------------------------------


  energy-cutoff  :      600.00
  volume of cell :       74.72
      direct lattice vectors                 reciprocal lattice vectors
     4.795497095  0.000000000  0.000000000     0.208528955  0.000000000  0.000000000
     0.000000000  4.795497095  0.000000000     0.000000000  0.208528955  0.000000000
     0.000000000  0.000000000  3.249311623     0.000000000  0.000000000  0.307757493

  length of vectors
     4.795497095  4.795497095  3.249311623     0.208528955  0.208528955  0.307757493


 
 k-points in units of 2pi/SCALE and weight: KPOINTS created by Atomic Simulation Env
   0.05213224  0.05213224  0.00000000       0.333
   0.05213224  0.05213224  0.10258583       0.667
 
 k-points in reciprocal lattice and weights: KPOINTS created by Atomic Simulation Env
   0.25000000  0.25000000  0.00000000       0.333
   0.25000000  0.25000000  0.33333333       0.667
 
 position of ions in fractional coordinates (direct lattice) 
   0.50000000  0.50000000  0.50000000
   0.00000000  0.00000000  0.00000000
   0.19595607  0.80404393  0.50000000
   0.80404393  0.19595607  0.50000000
   0.30404393  0.30404393  0.00000000
   0.69595607  0.69595607  0.00000000
 
 position of ions in cartesian coordinates  (Angst):
   2.39774855  2.39774855  1.62465581
   0.00000000  0.00000000  0.00000000
   0.93970676  3.85579034  1.62465581
   3.85579034  0.93970676  1.62465581
   1.45804179  1.45804179  0.00000000
   3.33745530  3.33745530  0.00000000
 


--------------------------------------------------------------------------------------------------------


 k-point  1 :   0.2500 0.2500 0.0000  plane waves:    2504
 k-point  2 :   0.2500 0.2500 0.3333  plane waves:    2496

 maximum and minimum number of plane-waves per node :      2504     2496

 maximum number of plane-waves:      2504
 maximum index in each direction: 
   IXMAX=    9   IYMAX=    9   IZMAX=    6
   IXMIN=   -9   IYMIN=   -9   IZMIN=   -6


 serial   3D FFT for wavefunctions
 parallel 3D FFT for charge:
    minimum data exchange during FFTs selected (reduces bandwidth)


 total amount of memory used by VASP MPI-rank0    36708. kBytes
=======================================================================

   base      :      30000. kBytes
   nonl-proj :       1685. kBytes
   fftplans  :       1875. kBytes
   grid      :       2467. kBytes
   one-center:        186. kBytes
   wavefun   :        495. kBytes
 
     INWAV:  cpu time    0.0000: real time    0.0000
 Broyden mixing: mesh for mixing (old mesh)
   NGX = 19   NGY = 19   NGZ = 13
  (NGX  = 60   NGY  = 60   NGZ  = 40)
  gives a total of   4693 points

 initial charge density was supplied:
 charge density of overlapping atoms calculated
 number of electron      54.0000000 magnetization       0.0000000
 keeping initial charge density in first step


--------------------------------------------------------------------------------------------------------


 Maximum index for augmentation-charges         4435 (set IRDMAX)


--------------------------------------------------------------------------------------------------------


 First call to EWALD:  gamma=   0.421
 Maximum number of real-space cells 2x 2x 3
 Maximum number of reciprocal cells 3x 3x 2

    FEWALD:  cpu time    0.0010: real time    0.0010


--------------------------------------- Iteration      1(   1)  ---------------------------------------


    POTLOK:  cpu time    0.0070: real time    0.0070
    SETDIJ:  cpu time    0.3987: real time    0.3987
atom =   1  type =  1  l = 2
 
 onsite density matrix
 
spin component  1
 
  0.2837  0.0000  0.0000  0.0000  0.0000
  0.0000  0.2837  0.0000  0.0000  0.0000
  0.0000  0.0000  0.2837  0.0000  0.0000
  0.0000  0.0000  0.0000  0.2837  0.0000
  0.0000  0.0000  0.0000  0.0000  0.2837
 
spin component  2
 
  0.7701  0.0000  0.0000  0.0000  0.0000
  0.0000  0.7701  0.0000  0.0000  0.0000
  0.0000  0.0000  0.7701  0.0000  0.0000
  0.0000  0.0000  0.0000  0.7701  0.0000
  0.0000  0.0000  0.0000  0.0000  0.7701
 
 occupancies and eigenvectors
 
  o =  0.2837  v =  1.0000  0.0000  0.0000  0.0000  0.0000  0.0000  0.0000  0.0000  0.0000  0.0000      0.0000  0.0000  0.0000  0.0000  0.0000  0.0000  0.0000  0.0000  0.0000  0.0000
  o =  0.2837  v =  0.0000  1.0000  0.0000  0.0000  0.0000  0.0000  0.0000  0.0000  0.0000  0.0000      0.0000  0.0000  0.0000  0.0000  0.0000  0.0000  0.0000  0.0000  0.0000  0.0000
  o =  0.2837  v =  0.0000  0.0000  1.0000  0.0000  0.0000  0.0000  0.0000  0.0000  0.0000  0.0000      0.0000  0.0000  0.0000  0.0000  0.0000  0.0000  0.0000  0.0000  0.0000  0.0000
  o =  0.2837  v =  0.0000  0.0000  0.0000  1.0000  0.0000  0.0000  0.0000  0.0000  0.0000  0.0000      0.0000  0.0000  0.0000  0.0000  0.0000  0.0000  0.0000  0.0000  0.0000  0.0000
  o =  0.2837  v =  0.0000  0.0000  0.0000  0.0000  1.0000  0.0000  0.0000  0.0000  0.0000  0.0000      0.0000  0.0000  0.0000  0.0000  0.0000  0.0000  0.0000  0.0000  0.0000  0.0000
  o =  0.7701  v =  0.0000  0.0000  0.0000  0.0000  0.0000  1.0000  0.0000  0.0000  0.0000  0.0000      0.0000  0.0000  0.0000  0.0000  0.0000  0.0000  0.0000  0.0000  0.0000  0.0000
  o =  0.7701  v =  0.0000  0.0000  0.0000  0.0000  0.0000  0.0000  1.0000  0.0000  0.0000  0.0000      0.0000  0.0000  0.0000  0.0000  0.0000  0.0000  0.0000  0.0000  0.0000  0.0000
  o =  0.7701  v =  0.0000  0.0000  0.0000  0.0000  0.0000  0.0000  0.0000  1.0000  0.0000  0.0000      0.0000  0.0000  0.0000  0.0000  0.0000  0.0000  0.0000  0.0000  0.0000  0.0000
  o =  0.7701  v =  0.0000  0.0000  0.0000  0.0000  0.0000  0.0000  0.0000  0.0000  1.0000  0.0000      0.0000  0.0000  0.0000  0.0000  0.0000  0.0000  0.0000  0.0000  0.0000  0.0000
  o =  0.7701  v =  0.0000  0.0000  0.0000  0.0000  0.0000  0.0000  0.0000  0.0000  0.0000  1.0000      0.0000  0.0000  0.0000  0.0000  0.0000  0.0000  0.0000  0.0000  0.0000  0.0000
atom =   2  type =  1  l = 2
 
 onsite density matrix
 
spin component  1
 
  0.7701  0.0000  0.0000  0.0000  0.0000
  0.0000  0.7701  0.0000  0.0000  0.0000
  0.0000  0.0000  0.7701  0.0000  0.0000
  0.0000  0.0000  0.0000  0.7701  0.0000
  0.0000  0.0000  0.0000  0.0000  0.7701
 
spin component  2
 
  0.2837  0.0000  0.0000  0.0000  0.0000
  0.0000  0.2837  0.0000  0.0000  0.0000
  0.0000  0.0000  0.2837  0.0000  0.0000
  0.0000  0.0000  0.0000  0.2837  0.0000
  0.0000  0.0000  0.0000  0.0000  0.2837
 
 occupancies and eigenvectors
 
  o =  0.2837  v =  0.0000  0.0000  0.0000  0.0000  0.0000  1.0000  0.0000  0.0000  0.0000  0.0000      0.0000  0.0000  0.0000  0.0000  0.0000  0.0000  0.0000  0.0000  0.0000  0.0000
  o =  0.2837  v =  0.0000  0.0000  0.0000  0.0000  0.0000  0.0000  1.0000  0.0000  0.0000  0.0000      0.0000  0.0000  0.0000  0.0000  0.0000  0.0000  0.0000  0.0000  0.0000  0.0000
  o =  0.2837  v =  0.0000  0.0000  0.0000  0.0000  0.0000  0.0000  0.0000  1.0000  0.0000  0.0000      0.0000  0.0000  0.0000  0.0000  0.0000  0.0000  0.0000  0.0000  0.0000  0.0000
  o =  0.2837  v =  0.0000  0.0000  0.0000  0.0000  0.0000  0.0000  0.0000  0.0000  1.0000  0.0000      0.0000  0.0000  0.0000  0.0000  0.0000  0.0000  0.0000  0.0000  0.0000  0.0000
  o =  0.2837  v =  0.0000  0.0000  0.0000  0.0000  0.0000  0.0000  0.0000  0.0000  0.0000  1.0000      0.0000  0.0000  0.0000  0.0000  0.0000  0.0000  0.0000  0.0000  0.0000  0.0000
  o =  0.7701  v =  1.0000  0.0000  0.0000  0.0000  0.0000  0.0000  0.0000  0.0000  0.0000  0.0000      0.0000  0.0000  0.0000  0.0000  0.0000  0.0000  0.0000  0.0000  0.0000  0.0000
  o =  0.7701  v =  0.0000  1.0000  0.0000  0.0000  0.0000  0.0000  0.0000  0.0000  0.0000  0.0000      0.0000  0.0000  0.0000  0.0000  0.0000  0.0000  0.0000  0.0000  0.0000  0.0000
  o =  0.7701  v =  0.0000  0.0000  1.0000  0.0000  0.0000  0.0000  0.0000  0.0000  0.0000  0.0000      0.0000  0.0000  0.0000  0.0000  0.0000  0.0000  0.0000  0.0000  0.0000  0.0000
  o =  0.7701  v =  0.0000  0.0000  0.0000  1.0000  0.0000  0.0000  0.0000  0.0000  0.0000  0.0000      0.0000  0.0000  0.0000  0.0000  0.0000  0.0000  0.0000  0.0000  0.0000  0.0000
  o =  0.7701  v =  0.0000  0.0000  0.0000  0.0000  1.0000  0.0000  0.0000  0.0000  0.0000  0.0000      0.0000  0.0000  0.0000  0.0000  0.0000  0.0000  0.0000  0.0000  0.0000  0.0000
     EDDAV:  cpu time    0.0775: real time    0.0979
       DOS:  cpu time    0.0002: real time    0.0002
    --------------------------------------------
      LOOP:  cpu time    0.4834: real time    0.5037

 eigenvalue-minimisations  :   288
 total energy-change (2. order) : 0.6942645E+03  (-0.3427010E+04)
 number of electron      54.0000000 magnetization       0.0000000
 augmentation part       54.0000000 magnetization       0.0000000

 Free energy of the ion-electron system (eV)
  ---------------------------------------------------
  alpha Z        PSCENC =       203.89546508
  Ewald energy   TEWEN  =     -4252.90765001
  -Hartree energ DENC   =     -2091.76793651
  -exchange      EXHF   =         0.00000000
  -V(xc)+E(xc)   XCENC  =       295.20776372
  PAW double counting   =      5431.03059579    -5549.10764102
  entropy T*S    EENTRO =        -0.00000000
  eigenvalues    EBANDS =       -31.54289300
  atomic energy  EATOM  =      6689.45677594
  Solvation  Ediel_sol  =         0.00000000
  ---------------------------------------------------
  free energy    TOTEN  =       694.26448001 eV

  energy without entropy =      694.26448001  energy(sigma->0) =      694.26448001


--------------------------------------------------------------------------------------------------------




--------------------------------------- Iteration      1(   2)  ---------------------------------------


     EDDAV:  cpu time    0.0815: real time    0.0815
       DOS:  cpu time    0.0001: real time    0.0001
    --------------------------------------------
      LOOP:  cpu time    0.0817: real time    0.0817

 eigenvalue-minimisations  :   324
 total energy-change (2. order) :-0.6832556E+03  (-0.6614424E+03)
 number of electron      54.0000000 magnetization       0.0000000
 augmentation part       54.0000000 magnetization       0.0000000

 Free energy of the ion-electron system (eV)
  ---------------------------------------------------
  alpha Z        PSCENC =       203.89546508
  Ewald energy   TEWEN  =     -4252.90765001
  -Hartree energ DENC   =     -2091.76793651
  -exchange      EXHF   =         0.00000000
  -V(xc)+E(xc)   XCENC  =       295.20776372
  PAW double counting   =      5431.03059579    -5549.10764102
  entropy T*S    EENTRO =        -0.00000000
  eigenvalues    EBANDS =      -714.79846274
  atomic energy  EATOM  =      6689.45677594
  Solvation  Ediel_sol  =         0.00000000
  ---------------------------------------------------
  free energy    TOTEN  =        11.00891027 eV

  energy without entropy =       11.00891027  energy(sigma->0) =       11.00891027


--------------------------------------------------------------------------------------------------------




--------------------------------------- Iteration      1(   3)  ---------------------------------------


     EDDAV:  cpu time    0.0817: real time    0.0817
       DOS:  cpu time    0.0001: real time    0.0001
    --------------------------------------------
      LOOP:  cpu time    0.0818: real time    0.0818

 eigenvalue-minimisations  :   324
 total energy-change (2. order) :-0.5163088E+02  (-0.5140339E+02)
 number of electron      54.0000000 magnetization       0.0000000
 augmentation part       54.0000000 magnetization       0.0000000

 Free energy of the ion-electron system (eV)
  ---------------------------------------------------
  alpha Z        PSCENC =       203.89546508
  Ewald energy   TEWEN  =     -4252.90765001
  -Hartree energ DENC   =     -2091.76793651
  -exchange      EXHF   =         0.00000000
  -V(xc)+E(xc)   XCENC  =       295.20776372
  PAW double counting   =      5431.03059579    -5549.10764102
  entropy T*S    EENTRO =        -0.00000000
  eigenvalues    EBANDS =      -766.42934512
  atomic energy  EATOM  =      6689.45677594
  Solvation  Ediel_sol  =         0.00000000
  ---------------------------------------------------
  free energy    TOTEN  =       -40.62197211 eV

  energy without entropy =      -40.62197211  energy(sigma->0) =      -40.62197211


--------------------------------------------------------------------------------------------------------




--------------------------------------- Iteration      1(   4)  ---------------------------------------


     EDDAV:  cpu time    0.0843: real time    0.0843
       DOS:  cpu time    0.0001: real time    0.0001
    --------------------------------------------
      LOOP:  cpu time    0.0845: real time    0.0845

 eigenvalue-minimisations  :   336
 total energy-change (2. order) :-0.7874140E+00  (-0.7869750E+00)
 number of electron      54.0000000 magnetization       0.0000000
 augmentation part       54.0000000 magnetization       0.0000000

 Free energy of the ion-electron system (eV)
  ---------------------------------------------------
  alpha Z        PSCENC =       203.89546508
  Ewald energy   TEWEN  =     -4252.90765001
  -Hartree energ DENC   =     -2091.76793651
  -exchange      EXHF   =         0.00000000
  -V(xc)+E(xc)   XCENC  =       295.20776372
  PAW double counting   =      5431.03059579    -5549.10764102
  entropy T*S    EENTRO =        -0.00000000
  eigenvalues    EBANDS =      -767.21675917
  atomic energy  EATOM  =      6689.45677594
  Solvation  Ediel_sol  =         0.00000000
  ---------------------------------------------------
  free energy    TOTEN  =       -41.40938616 eV

  energy without entropy =      -41.40938616  energy(sigma->0) =      -41.40938616


--------------------------------------------------------------------------------------------------------




--------------------------------------- Iteration      1(   5)  ---------------------------------------


     EDDAV:  cpu time    0.0812: real time    0.0812
       DOS:  cpu time    0.0001: real time    0.0001
    CHARGE:  cpu time    0.0257: real time    0.0257
    MIXING:  cpu time    0.0005: real time    0.0005
    --------------------------------------------
      LOOP:  cpu time    0.1076: real time    0.1076

 eigenvalue-minimisations  :   324
 total energy-change (2. order) :-0.1164814E-01  (-0.1164812E-01)
 number of electron      53.9999998 magnetization      -0.0000000
 augmentation part       20.1217124 magnetization      -0.0000000

 Broyden mixing:
  rms(total) = 0.24755E+01    rms(broyden)= 0.24754E+01
  rms(prec ) = 0.32115E+01
  weight for this iteration     100.00

 Free energy of the ion-electron system (eV)
  ---------------------------------------------------
  alpha Z        PSCENC =       203.89546508
  Ewald energy   TEWEN  =     -4252.90765001
  -Hartree energ DENC   =     -2091.76793651
  -exchange      EXHF   =         0.00000000
  -V(xc)+E(xc)   XCENC  =       295.20776372
  PAW double counting   =      5431.03059579    -5549.10764102
  entropy T*S    EENTRO =        -0.00000000
  eigenvalues    EBANDS =      -767.22840731
  atomic energy  EATOM  =      6689.45677594
  Solvation  Ediel_sol  =         0.00000000
  ---------------------------------------------------
  free energy    TOTEN  =       -41.42103430 eV

  energy without entropy =      -41.42103430  energy(sigma->0) =      -41.42103430


--------------------------------------------------------------------------------------------------------




--------------------------------------- Iteration      1(   6)  ---------------------------------------


    POTLOK:  cpu time    0.0048: real time    0.0048
    SETDIJ:  cpu time    0.3951: real time    0.3951
atom =   1  type =  1  l = 2
 
 onsite density matrix
 
spin component  1
 
 -0.0721  0.0000  0.0054  0.0000  0.0000
  0.0000 -0.0766  0.0000  0.0031  0.0000
  0.0054  0.0000 -0.0739  0.0000 -0.0000
  0.0000  0.0031  0.0000 -0.0766  0.0000
  0.0000  0.0000 -0.0000  0.0000 -0.0828
 
spin component  2
 
  1.0996  0.0000  0.0131  0.0000  0.0000
  0.0000  1.0989  0.0000  0.0126  0.0000
  0.0131  0.0000  1.0916  0.0000  0.0000
  0.0000  0.0126  0.0000  1.0989  0.0000
  0.0000  0.0000  0.0000  0.0000  1.0886
 
 occupancies and eigenvectors
 
  o = -0.0828  v =  0.0000  0.0000 -0.0000  0.0000 -1.0000  0.0000  0.0000  0.0000  0.0000  0.0000      0.0000  0.0000  0.0000  0.0000  0.0000  0.0000  0.0000  0.0000  0.0000  0.0000
  o = -0.0798  v =  0.0000  0.7071  0.0000 -0.7071  0.0000  0.0000  0.0000  0.0000  0.0000  0.0000      0.0000  0.0000  0.0000  0.0000  0.0000  0.0000  0.0000  0.0000  0.0000  0.0000
  o = -0.0784  v = -0.6489  0.0000  0.7609  0.0000 -0.0000  0.0000  0.0000  0.0000  0.0000  0.0000      0.0000  0.0000  0.0000  0.0000  0.0000  0.0000  0.0000  0.0000  0.0000  0.0000
  o = -0.0735  v =  0.0000 -0.7071  0.0000 -0.7071 -0.0000  0.0000  0.0000  0.0000  0.0000  0.0000      0.0000  0.0000  0.0000  0.0000  0.0000  0.0000  0.0000  0.0000  0.0000  0.0000
  o = -0.0676  v =  0.7609  0.0000  0.6489  0.0000 -0.0000  0.0000  0.0000  0.0000  0.0000  0.0000      0.0000  0.0000  0.0000  0.0000  0.0000  0.0000  0.0000  0.0000  0.0000  0.0000
  o =  1.0819  v =  0.0000  0.0000  0.0000  0.0000  0.0000 -0.5950  0.0000  0.8038 -0.0000 -0.0000      0.0000  0.0000  0.0000  0.0000  0.0000  0.0000  0.0000  0.0000  0.0000  0.0000
  o =  1.0863  v =  0.0000  0.0000  0.0000  0.0000  0.0000 -0.0000 -0.7071  0.0000  0.7071  0.0000      0.0000  0.0000  0.0000  0.0000  0.0000  0.0000  0.0000  0.0000  0.0000  0.0000
  o =  1.0886  v =  0.0000  0.0000  0.0000  0.0000  0.0000 -0.0000  0.0000  0.0000 -0.0000  1.0000      0.0000  0.0000  0.0000  0.0000  0.0000  0.0000  0.0000  0.0000  0.0000  0.0000
  o =  1.1094  v =  0.0000  0.0000  0.0000  0.0000  0.0000 -0.8038 -0.0000 -0.5950 -0.0000 -0.0000      0.0000  0.0000  0.0000  0.0000  0.0000  0.0000  0.0000  0.0000  0.0000  0.0000
  o =  1.1116  v =  0.0000  0.0000  0.0000  0.0000  0.0000  0.0000 -0.7071  0.0000 -0.7071  0.0000      0.0000  0.0000  0.0000  0.0000  0.0000  0.0000  0.0000  0.0000  0.0000  0.0000
atom =   2  type =  1  l = 2
 
 onsite density matrix
 
spin component  1
 
  1.0996  0.0000 -0.0131  0.0000  0.0000
  0.0000  1.0989  0.0000 -0.0126  0.0000
 -0.0131  0.0000  1.0916  0.0000  0.0000
  0.0000 -0.0126  0.0000  1.0989  0.0000
  0.0000  0.0000  0.0000  0.0000  1.0886
 
spin component  2
 
 -0.0721  0.0000 -0.0054  0.0000 -0.0000
  0.0000 -0.0766  0.0000 -0.0031  0.0000
 -0.0054  0.0000 -0.0739  0.0000 -0.0000
  0.0000 -0.0031  0.0000 -0.0766  0.0000
 -0.0000  0.0000 -0.0000  0.0000 -0.0828
 
 occupancies and eigenvectors
 
  o = -0.0828  v =  0.0000  0.0000  0.0000  0.0000  0.0000 -0.0000  0.0000 -0.0000 -0.0000 -1.0000      0.0000  0.0000  0.0000  0.0000  0.0000  0.0000  0.0000  0.0000  0.0000  0.0000
  o = -0.0798  v =  0.0000  0.0000  0.0000  0.0000  0.0000 -0.0000  0.7071 -0.0000  0.7071  0.0000      0.0000  0.0000  0.0000  0.0000  0.0000  0.0000  0.0000  0.0000  0.0000  0.0000
  o = -0.0784  v =  0.0000  0.0000  0.0000  0.0000  0.0000  0.6489  0.0000  0.7609  0.0000 -0.0000      0.0000  0.0000  0.0000  0.0000  0.0000  0.0000  0.0000  0.0000  0.0000  0.0000
  o = -0.0735  v =  0.0000  0.0000  0.0000  0.0000  0.0000 -0.0000 -0.7071 -0.0000  0.7071 -0.0000      0.0000  0.0000  0.0000  0.0000  0.0000  0.0000  0.0000  0.0000  0.0000  0.0000
  o = -0.0676  v =  0.0000  0.0000  0.0000  0.0000  0.0000  0.7609 -0.0000 -0.6489  0.0000  0.0000      0.0000  0.0000  0.0000  0.0000  0.0000  0.0000  0.0000  0.0000  0.0000  0.0000
  o =  1.0819  v = -0.5950  0.0000 -0.8038  0.0000  0.0000  0.0000  0.0000  0.0000  0.0000  0.0000      0.0000  0.0000  0.0000  0.0000  0.0000  0.0000  0.0000  0.0000  0.0000  0.0000
  o =  1.0863  v =  0.0000 -0.7071  0.0000 -0.7071  0.0000  0.0000  0.0000  0.0000  0.0000  0.0000      0.0000  0.0000  0.0000  0.0000  0.0000  0.0000  0.0000  0.0000  0.0000  0.0000
  o =  1.0886  v =  0.0000 -0.0000 -0.0000 -0.0000 -1.0000  0.0000  0.0000  0.0000  0.0000  0.0000      0.0000  0.0000  0.0000  0.0000  0.0000  0.0000  0.0000  0.0000  0.0000  0.0000
  o =  1.1094  v = -0.8038  0.0000  0.5950  0.0000 -0.0000  0.0000  0.0000  0.0000  0.0000  0.0000      0.0000  0.0000  0.0000  0.0000  0.0000  0.0000  0.0000  0.0000  0.0000  0.0000
  o =  1.1116  v =  0.0000  0.7071  0.0000 -0.7071  0.0000  0.0000  0.0000  0.0000  0.0000  0.0000      0.0000  0.0000  0.0000  0.0000  0.0000  0.0000  0.0000  0.0000  0.0000  0.0000
     EDDAV:  cpu time    0.0818: real time    0.0818
       DOS:  cpu time    0.0002: real time    0.0002
    CHARGE:  cpu time    0.0258: real time    0.0258
    MIXING:  cpu time    0.0005: real time    0.0005
    --------------------------------------------
      LOOP:  cpu time    0.5081: real time    0.5081

 eigenvalue-minimisations  :   324
 total energy-change (2. order) : 0.2081868E+01  (-0.1569397E+01)
 number of electron      53.9999998 magnetization       0.0000000
 augmentation part       19.9680245 magnetization       0.0000000

 Broyden mixing:
  rms(total) = 0.15880E+01    rms(broyden)= 0.15880E+01
  rms(prec ) = 0.16378E+01
  weight for this iteration     100.00

 eigenvalues of (default mixing * dielectric matrix)
  average eigenvalue GAMMA=   0.8115
  0.8115

 Free energy of the ion-electron system (eV)
  ---------------------------------------------------
  alpha Z        PSCENC =       203.89546508
  Ewald energy   TEWEN  =     -4252.90765001
  -Hartree energ DENC   =     -2114.59158725
  -exchange      EXHF   =         0.00000000
  -V(xc)+E(xc)   XCENC  =       295.82246231
  PAW double counting   =      5723.25303251    -5832.89978405
  entropy T*S    EENTRO =        -0.00000000
  eigenvalues    EBANDS =      -751.36788038
  atomic energy  EATOM  =      6689.45677594
  Solvation  Ediel_sol  =         0.00000000
  ---------------------------------------------------
  free energy    TOTEN  =       -39.33916583 eV

  energy without entropy =      -39.33916583  energy(sigma->0) =      -39.33916583


--------------------------------------------------------------------------------------------------------




--------------------------------------- Iteration      1(   7)  ---------------------------------------


    POTLOK:  cpu time    0.0047: real time    0.0047
    SETDIJ:  cpu time    0.3950: real time    0.3950
atom =   1  type =  1  l = 2
 
 onsite density matrix
 
spin component  1
 
  0.1239  0.0000  0.0221  0.0000  0.0000
  0.0000  0.1172  0.0000  0.0184  0.0000
  0.0221  0.0000  0.1117  0.0000  0.0000
  0.0000  0.0184  0.0000  0.1172  0.0000
  0.0000  0.0000  0.0000  0.0000  0.0975
 
spin component  2
 
  0.8990  0.0000  0.0073  0.0000 -0.0000
  0.0000  0.8972  0.0000  0.0064  0.0000
  0.0073  0.0000  0.8953  0.0000 -0.0000
  0.0000  0.0064  0.0000  0.8972  0.0000
 -0.0000  0.0000 -0.0000  0.0000  0.8904
 
 occupancies and eigenvectors
 
  o =  0.0948  v = -0.6060 -0.0000  0.7955  0.0000 -0.0000  0.0000  0.0000  0.0000  0.0000  0.0000      0.0000  0.0000  0.0000  0.0000  0.0000  0.0000  0.0000  0.0000  0.0000  0.0000
  o =  0.0975  v = -0.0000  0.0000  0.0000 -0.0000  1.0000  0.0000  0.0000  0.0000  0.0000  0.0000      0.0000  0.0000  0.0000  0.0000  0.0000  0.0000  0.0000  0.0000  0.0000  0.0000
  o =  0.0988  v =  0.0000  0.7071 -0.0000 -0.7071 -0.0000  0.0000  0.0000  0.0000  0.0000  0.0000      0.0000  0.0000  0.0000  0.0000  0.0000  0.0000  0.0000  0.0000  0.0000  0.0000
  o =  0.1357  v =  0.0000  0.7071  0.0000  0.7071 -0.0000  0.0000  0.0000  0.0000  0.0000  0.0000      0.0000  0.0000  0.0000  0.0000  0.0000  0.0000  0.0000  0.0000  0.0000  0.0000
  o =  0.1408  v = -0.7955  0.0000 -0.6060  0.0000 -0.0000  0.0000  0.0000  0.0000  0.0000  0.0000      0.0000  0.0000  0.0000  0.0000  0.0000  0.0000  0.0000  0.0000  0.0000  0.0000
  o =  0.8897  v =  0.0000  0.0000  0.0000  0.0000  0.0000 -0.6134  0.0000  0.7898 -0.0000  0.0000      0.0000  0.0000  0.0000  0.0000  0.0000  0.0000  0.0000  0.0000  0.0000  0.0000
  o =  0.8904  v =  0.0000  0.0000  0.0000  0.0000  0.0000  0.0000 -0.0000 -0.0000  0.0000  1.0000      0.0000  0.0000  0.0000  0.0000  0.0000  0.0000  0.0000  0.0000  0.0000  0.0000
  o =  0.8907  v =  0.0000  0.0000  0.0000  0.0000  0.0000 -0.0000 -0.7071  0.0000  0.7071 -0.0000      0.0000  0.0000  0.0000  0.0000  0.0000  0.0000  0.0000  0.0000  0.0000  0.0000
  o =  0.9036  v =  0.0000  0.0000  0.0000  0.0000  0.0000 -0.0000 -0.7071 -0.0000 -0.7071  0.0000      0.0000  0.0000  0.0000  0.0000  0.0000  0.0000  0.0000  0.0000  0.0000  0.0000
  o =  0.9047  v =  0.0000  0.0000  0.0000  0.0000  0.0000 -0.7898  0.0000 -0.6134  0.0000  0.0000      0.0000  0.0000  0.0000  0.0000  0.0000  0.0000  0.0000  0.0000  0.0000  0.0000
atom =   2  type =  1  l = 2
 
 onsite density matrix
 
spin component  1
 
  0.8990  0.0000 -0.0073  0.0000  0.0000
  0.0000  0.8972  0.0000 -0.0064  0.0000
 -0.0073  0.0000  0.8953  0.0000  0.0000
  0.0000 -0.0064  0.0000  0.8972  0.0000
  0.0000  0.0000  0.0000  0.0000  0.8904
 
spin component  2
 
  0.1239  0.0000 -0.0221  0.0000  0.0000
  0.0000  0.1172  0.0000 -0.0184  0.0000
 -0.0221  0.0000  0.1117  0.0000 -0.0000
  0.0000 -0.0184  0.0000  0.1172  0.0000
  0.0000  0.0000 -0.0000  0.0000  0.0975
 
 occupancies and eigenvectors
 
  o =  0.0948  v =  0.0000  0.0000  0.0000  0.0000  0.0000 -0.6060  0.0000 -0.7955  0.0000  0.0000      0.0000  0.0000  0.0000  0.0000  0.0000  0.0000  0.0000  0.0000  0.0000  0.0000
  o =  0.0975  v =  0.0000  0.0000  0.0000  0.0000  0.0000  0.0000 -0.0000  0.0000  0.0000  1.0000      0.0000  0.0000  0.0000  0.0000  0.0000  0.0000  0.0000  0.0000  0.0000  0.0000
  o =  0.0988  v =  0.0000  0.0000  0.0000  0.0000  0.0000  0.0000 -0.7071  0.0000 -0.7071 -0.0000      0.0000  0.0000  0.0000  0.0000  0.0000  0.0000  0.0000  0.0000  0.0000  0.0000
  o =  0.1357  v =  0.0000  0.0000  0.0000  0.0000  0.0000  0.0000  0.7071  0.0000 -0.7071  0.0000      0.0000  0.0000  0.0000  0.0000  0.0000  0.0000  0.0000  0.0000  0.0000  0.0000
  o =  0.1408  v =  0.0000  0.0000  0.0000  0.0000  0.0000 -0.7955  0.0000  0.6060  0.0000 -0.0000      0.0000  0.0000  0.0000  0.0000  0.0000  0.0000  0.0000  0.0000  0.0000  0.0000
  o =  0.8897  v = -0.6134  0.0000 -0.7898  0.0000  0.0000  0.0000  0.0000  0.0000  0.0000  0.0000      0.0000  0.0000  0.0000  0.0000  0.0000  0.0000  0.0000  0.0000  0.0000  0.0000
  o =  0.8904  v =  0.0000  0.0000  0.0000  0.0000  1.0000  0.0000  0.0000  0.0000  0.0000  0.0000      0.0000  0.0000  0.0000  0.0000  0.0000  0.0000  0.0000  0.0000  0.0000  0.0000
  o =  0.8907  v = -0.0000 -0.7071 -0.0000 -0.7071  0.0000  0.0000  0.0000  0.0000  0.0000  0.0000      0.0000  0.0000  0.0000  0.0000  0.0000  0.0000  0.0000  0.0000  0.0000  0.0000
  o =  0.9036  v = -0.0000 -0.7071  0.0000  0.7071 -0.0000  0.0000  0.0000  0.0000  0.0000  0.0000      0.0000  0.0000  0.0000  0.0000  0.0000  0.0000  0.0000  0.0000  0.0000  0.0000
  o =  0.9047  v = -0.7898  0.0000  0.6134 -0.0000  0.0000  0.0000  0.0000  0.0000  0.0000  0.0000      0.0000  0.0000  0.0000  0.0000  0.0000  0.0000  0.0000  0.0000  0.0000  0.0000
     EDDAV:  cpu time    0.0871: real time    0.0871
       DOS:  cpu time    0.0001: real time    0.0001
    CHARGE:  cpu time    0.0259: real time    0.0259
    MIXING:  cpu time    0.0006: real time    0.0006
    --------------------------------------------
      LOOP:  cpu time    0.5134: real time    0.5134

 eigenvalue-minimisations  :   348
 total energy-change (2. order) :-0.6419985E+00  (-0.1594002E+00)
 number of electron      53.9999998 magnetization      -0.0000000
 augmentation part       19.9485962 magnetization      -0.0000000

 Broyden mixing:
  rms(total) = 0.11827E+01    rms(broyden)= 0.11827E+01
  rms(prec ) = 0.12106E+01
  weight for this iteration     100.00

 eigenvalues of (default mixing * dielectric matrix)
  average eigenvalue GAMMA=   1.4517
  0.6992  2.2043

 Free energy of the ion-electron system (eV)
  ---------------------------------------------------
  alpha Z        PSCENC =       203.89546508
  Ewald energy   TEWEN  =     -4252.90765001
  -Hartree energ DENC   =     -2110.88167567
  -exchange      EXHF   =         0.00000000
  -V(xc)+E(xc)   XCENC  =       296.45716507
  PAW double counting   =      5975.18188787    -6094.61396487
  entropy T*S    EENTRO =        -0.00000000
  eigenvalues    EBANDS =      -746.56916778
  atomic energy  EATOM  =      6689.45677594
  Solvation  Ediel_sol  =         0.00000000
  ---------------------------------------------------
  free energy    TOTEN  =       -39.98116437 eV

  energy without entropy =      -39.98116437  energy(sigma->0) =      -39.98116437


--------------------------------------------------------------------------------------------------------




--------------------------------------- Iteration      1(   8)  ---------------------------------------


    POTLOK:  cpu time    0.0047: real time    0.0047
    SETDIJ:  cpu time    0.3948: real time    0.3948
atom =   1  type =  1  l = 2
 
 onsite density matrix
 
spin component  1
 
 -0.0238  0.0000  0.0238  0.0000 -0.0000
  0.0000 -0.0319  0.0000  0.0182  0.0000
  0.0238  0.0000 -0.0345  0.0000 -0.0000
  0.0000  0.0182  0.0000 -0.0319  0.0000
 -0.0000  0.0000 -0.0000  0.0000 -0.0544
 
spin component  2
 
  1.0479  0.0000  0.0204  0.0000  0.0000
  0.0000  1.0427  0.0000  0.0194  0.0000
  0.0204  0.0000  1.0341  0.0000  0.0000
  0.0000  0.0194  0.0000  1.0427  0.0000
  0.0000  0.0000  0.0000  0.0000  1.0253
 
 occupancies and eigenvectors
 
  o = -0.0544  v =  0.0000  0.0000 -0.0000 -0.0000 -1.0000  0.0000  0.0000  0.0000  0.0000  0.0000      0.0000  0.0000  0.0000  0.0000  0.0000  0.0000  0.0000  0.0000  0.0000  0.0000
  o = -0.0536  v =  0.6245  0.0000 -0.7810 -0.0000  0.0000  0.0000  0.0000  0.0000  0.0000  0.0000      0.0000  0.0000  0.0000  0.0000  0.0000  0.0000  0.0000  0.0000  0.0000  0.0000
  o = -0.0501  v = -0.0000  0.7071  0.0000 -0.7071  0.0000  0.0000  0.0000  0.0000  0.0000  0.0000      0.0000  0.0000  0.0000  0.0000  0.0000  0.0000  0.0000  0.0000  0.0000  0.0000
  o = -0.0137  v = -0.0000  0.7071 -0.0000  0.7071  0.0000  0.0000  0.0000  0.0000  0.0000  0.0000      0.0000  0.0000  0.0000  0.0000  0.0000  0.0000  0.0000  0.0000  0.0000  0.0000
  o = -0.0047  v =  0.7810  0.0000  0.6245  0.0000 -0.0000  0.0000  0.0000  0.0000  0.0000  0.0000      0.0000  0.0000  0.0000  0.0000  0.0000  0.0000  0.0000  0.0000  0.0000  0.0000
  o =  1.0194  v =  0.0000  0.0000  0.0000  0.0000  0.0000 -0.5828  0.0000  0.8126  0.0000  0.0000      0.0000  0.0000  0.0000  0.0000  0.0000  0.0000  0.0000  0.0000  0.0000  0.0000
  o =  1.0234  v =  0.0000  0.0000  0.0000  0.0000  0.0000  0.0000  0.7071  0.0000 -0.7071 -0.0000      0.0000  0.0000  0.0000  0.0000  0.0000  0.0000  0.0000  0.0000  0.0000  0.0000
  o =  1.0253  v =  0.0000  0.0000  0.0000  0.0000  0.0000  0.0000  0.0000 -0.0000 -0.0000  1.0000      0.0000  0.0000  0.0000  0.0000  0.0000  0.0000  0.0000  0.0000  0.0000  0.0000
  o =  1.0621  v =  0.0000  0.0000  0.0000  0.0000  0.0000  0.0000  0.7071 -0.0000  0.7071  0.0000      0.0000  0.0000  0.0000  0.0000  0.0000  0.0000  0.0000  0.0000  0.0000  0.0000
  o =  1.0625  v =  0.0000  0.0000  0.0000  0.0000  0.0000 -0.8126  0.0000 -0.5828  0.0000 -0.0000      0.0000  0.0000  0.0000  0.0000  0.0000  0.0000  0.0000  0.0000  0.0000  0.0000
atom =   2  type =  1  l = 2
 
 onsite density matrix
 
spin component  1
 
  1.0479  0.0000 -0.0204  0.0000 -0.0000
  0.0000  1.0427  0.0000 -0.0194  0.0000
 -0.0204  0.0000  1.0341  0.0000  0.0000
  0.0000 -0.0194  0.0000  1.0427  0.0000
 -0.0000  0.0000  0.0000  0.0000  1.0253
 
spin component  2
 
 -0.0238  0.0000 -0.0238  0.0000  0.0000
  0.0000 -0.0319  0.0000 -0.0182  0.0000
 -0.0238  0.0000 -0.0345  0.0000 -0.0000
  0.0000 -0.0182  0.0000 -0.0319  0.0000
  0.0000  0.0000 -0.0000  0.0000 -0.0544
 
 occupancies and eigenvectors
 
  o = -0.0544  v =  0.0000  0.0000  0.0000  0.0000  0.0000  0.0000 -0.0000  0.0000  0.0000  1.0000      0.0000  0.0000  0.0000  0.0000  0.0000  0.0000  0.0000  0.0000  0.0000  0.0000
  o = -0.0536  v =  0.0000  0.0000  0.0000  0.0000  0.0000 -0.6245 -0.0000 -0.7810  0.0000  0.0000      0.0000  0.0000  0.0000  0.0000  0.0000  0.0000  0.0000  0.0000  0.0000  0.0000
  o = -0.0501  v =  0.0000  0.0000  0.0000  0.0000  0.0000  0.0000  0.7071  0.0000  0.7071  0.0000      0.0000  0.0000  0.0000  0.0000  0.0000  0.0000  0.0000  0.0000  0.0000  0.0000
  o = -0.0137  v =  0.0000  0.0000  0.0000  0.0000  0.0000  0.0000  0.7071  0.0000 -0.7071  0.0000      0.0000  0.0000  0.0000  0.0000  0.0000  0.0000  0.0000  0.0000  0.0000  0.0000
  o = -0.0047  v =  0.0000  0.0000  0.0000  0.0000  0.0000  0.7810 -0.0000 -0.6245  0.0000  0.0000      0.0000  0.0000  0.0000  0.0000  0.0000  0.0000  0.0000  0.0000  0.0000  0.0000
  o =  1.0194  v = -0.5828  0.0000 -0.8126  0.0000 -0.0000  0.0000  0.0000  0.0000  0.0000  0.0000      0.0000  0.0000  0.0000  0.0000  0.0000  0.0000  0.0000  0.0000  0.0000  0.0000
  o =  1.0234  v =  0.0000  0.7071 -0.0000  0.7071  0.0000  0.0000  0.0000  0.0000  0.0000  0.0000      0.0000  0.0000  0.0000  0.0000  0.0000  0.0000  0.0000  0.0000  0.0000  0.0000
  o =  1.0253  v =  0.0000  0.0000  0.0000  0.0000 -1.0000  0.0000  0.0000  0.0000  0.0000  0.0000      0.0000  0.0000  0.0000  0.0000  0.0000  0.0000  0.0000  0.0000  0.0000  0.0000
  o =  1.0621  v =  0.0000 -0.7071 -0.0000  0.7071  0.0000  0.0000  0.0000  0.0000  0.0000  0.0000      0.0000  0.0000  0.0000  0.0000  0.0000  0.0000  0.0000  0.0000  0.0000  0.0000
  o =  1.0625  v = -0.8126  0.0000  0.5828  0.0000  0.0000  0.0000  0.0000  0.0000  0.0000  0.0000      0.0000  0.0000  0.0000  0.0000  0.0000  0.0000  0.0000  0.0000  0.0000  0.0000
     EDDAV:  cpu time    0.0901: real time    0.0901
       DOS:  cpu time    0.0002: real time    0.0002
    CHARGE:  cpu time    0.0257: real time    0.0257
    MIXING:  cpu time    0.0006: real time    0.0006
    --------------------------------------------
      LOOP:  cpu time    0.5161: real time    0.5161

 eigenvalue-minimisations  :   360
 total energy-change (2. order) : 0.7566989E-01  (-0.5120958E-01)
 number of electron      53.9999998 magnetization      -0.0000000
 augmentation part       19.9819314 magnetization      -0.0000000

 Broyden mixing:
  rms(total) = 0.48090E+00    rms(broyden)= 0.48090E+00
  rms(prec ) = 0.51078E+00
  weight for this iteration     100.00

 eigenvalues of (default mixing * dielectric matrix)
  average eigenvalue GAMMA=   1.2474
  2.1223  0.9938  0.6262

 Free energy of the ion-electron system (eV)
  ---------------------------------------------------
  alpha Z        PSCENC =       203.89546508
  Ewald energy   TEWEN  =     -4252.90765001
  -Hartree energ DENC   =     -2105.50474067
  -exchange      EXHF   =         0.00000000
  -V(xc)+E(xc)   XCENC  =       295.79287055
  PAW double counting   =      6244.63540076    -6360.80728296
  entropy T*S    EENTRO =        -0.00000000
  eigenvalues    EBANDS =      -754.46633318
  atomic energy  EATOM  =      6689.45677594
  Solvation  Ediel_sol  =         0.00000000
  ---------------------------------------------------
  free energy    TOTEN  =       -39.90549448 eV

  energy without entropy =      -39.90549448  energy(sigma->0) =      -39.90549448


--------------------------------------------------------------------------------------------------------




--------------------------------------- Iteration      1(   9)  ---------------------------------------


    POTLOK:  cpu time    0.0047: real time    0.0047
    SETDIJ:  cpu time    0.3948: real time    0.3948
atom =   1  type =  1  l = 2
 
 onsite density matrix
 
spin component  1
 
  0.0480  0.0000  0.0275  0.0000 -0.0000
  0.0000  0.0386  0.0000  0.0230  0.0000
  0.0275  0.0000  0.0328  0.0000  0.0000
  0.0000  0.0230  0.0000  0.0386  0.0000
 -0.0000  0.0000  0.0000  0.0000  0.0132
 
spin component  2
 
  0.9754  0.0000  0.0241  0.0000  0.0000
  0.0000  0.9689  0.0000  0.0209  0.0000
  0.0241  0.0000  0.9616  0.0000 -0.0000
  0.0000  0.0209  0.0000  0.9689  0.0000
  0.0000  0.0000 -0.0000  0.0000  0.9478
 
 occupancies and eigenvectors
 
  o =  0.0119  v = -0.6058 -0.0000  0.7957  0.0000 -0.0000  0.0000  0.0000  0.0000  0.0000  0.0000      0.0000  0.0000  0.0000  0.0000  0.0000  0.0000  0.0000  0.0000  0.0000  0.0000
  o =  0.0132  v = -0.0000  0.0000  0.0000  0.0000  1.0000  0.0000  0.0000  0.0000  0.0000  0.0000      0.0000  0.0000  0.0000  0.0000  0.0000  0.0000  0.0000  0.0000  0.0000  0.0000
  o =  0.0156  v =  0.0000  0.7071  0.0000 -0.7071 -0.0000  0.0000  0.0000  0.0000  0.0000  0.0000      0.0000  0.0000  0.0000  0.0000  0.0000  0.0000  0.0000  0.0000  0.0000  0.0000
  o =  0.0616  v =  0.0000 -0.7071  0.0000 -0.7071  0.0000  0.0000  0.0000  0.0000  0.0000  0.0000      0.0000  0.0000  0.0000  0.0000  0.0000  0.0000  0.0000  0.0000  0.0000  0.0000
  o =  0.0689  v = -0.7957 -0.0000 -0.6058  0.0000 -0.0000  0.0000  0.0000  0.0000  0.0000  0.0000      0.0000  0.0000  0.0000  0.0000  0.0000  0.0000  0.0000  0.0000  0.0000  0.0000
  o =  0.9435  v =  0.0000  0.0000  0.0000  0.0000  0.0000 -0.6020  0.0000  0.7985  0.0000  0.0000      0.0000  0.0000  0.0000  0.0000  0.0000  0.0000  0.0000  0.0000  0.0000  0.0000
  o =  0.9478  v =  0.0000  0.0000  0.0000  0.0000  0.0000  0.0000  0.0000  0.0000 -0.0000 -1.0000      0.0000  0.0000  0.0000  0.0000  0.0000  0.0000  0.0000  0.0000  0.0000  0.0000
  o =  0.9480  v =  0.0000  0.0000  0.0000  0.0000  0.0000  0.0000 -0.7071  0.0000  0.7071 -0.0000      0.0000  0.0000  0.0000  0.0000  0.0000  0.0000  0.0000  0.0000  0.0000  0.0000
  o =  0.9897  v =  0.0000  0.0000  0.0000  0.0000  0.0000  0.0000  0.7071 -0.0000  0.7071  0.0000      0.0000  0.0000  0.0000  0.0000  0.0000  0.0000  0.0000  0.0000  0.0000  0.0000
  o =  0.9936  v =  0.0000  0.0000  0.0000  0.0000  0.0000 -0.7985  0.0000 -0.6020  0.0000 -0.0000      0.0000  0.0000  0.0000  0.0000  0.0000  0.0000  0.0000  0.0000  0.0000  0.0000
atom =   2  type =  1  l = 2
 
 onsite density matrix
 
spin component  1
 
  0.9754  0.0000 -0.0241  0.0000  0.0000
  0.0000  0.9689  0.0000 -0.0209  0.0000
 -0.0241  0.0000  0.9616  0.0000  0.0000
  0.0000 -0.0209  0.0000  0.9689  0.0000
  0.0000  0.0000  0.0000  0.0000  0.9478
 
spin component  2
 
  0.0480  0.0000 -0.0275  0.0000 -0.0000
  0.0000  0.0386  0.0000 -0.0230  0.0000
 -0.0275  0.0000  0.0328  0.0000 -0.0000
  0.0000 -0.0230  0.0000  0.0386  0.0000
 -0.0000  0.0000 -0.0000  0.0000  0.0132
 
 occupancies and eigenvectors
 
  o =  0.0119  v =  0.0000  0.0000  0.0000  0.0000  0.0000 -0.6058 -0.0000 -0.7957  0.0000 -0.0000      0.0000  0.0000  0.0000  0.0000  0.0000  0.0000  0.0000  0.0000  0.0000  0.0000
  o =  0.0132  v =  0.0000  0.0000  0.0000  0.0000  0.0000 -0.0000  0.0000 -0.0000  0.0000  1.0000      0.0000  0.0000  0.0000  0.0000  0.0000  0.0000  0.0000  0.0000  0.0000  0.0000
  o =  0.0156  v =  0.0000  0.0000  0.0000  0.0000  0.0000  0.0000 -0.7071  0.0000 -0.7071 -0.0000      0.0000  0.0000  0.0000  0.0000  0.0000  0.0000  0.0000  0.0000  0.0000  0.0000
  o =  0.0616  v =  0.0000  0.0000  0.0000  0.0000  0.0000  0.0000  0.7071  0.0000 -0.7071  0.0000      0.0000  0.0000  0.0000  0.0000  0.0000  0.0000  0.0000  0.0000  0.0000  0.0000
  o =  0.0689  v =  0.0000  0.0000  0.0000  0.0000  0.0000 -0.7957 -0.0000  0.6058  0.0000 -0.0000      0.0000  0.0000  0.0000  0.0000  0.0000  0.0000  0.0000  0.0000  0.0000  0.0000
  o =  0.9435  v = -0.6020  0.0000 -0.7985  0.0000  0.0000  0.0000  0.0000  0.0000  0.0000  0.0000      0.0000  0.0000  0.0000  0.0000  0.0000  0.0000  0.0000  0.0000  0.0000  0.0000
  o =  0.9478  v =  0.0000  0.0000 -0.0000  0.0000 -1.0000  0.0000  0.0000  0.0000  0.0000  0.0000      0.0000  0.0000  0.0000  0.0000  0.0000  0.0000  0.0000  0.0000  0.0000  0.0000
  o =  0.9480  v =  0.0000  0.7071  0.0000  0.7071  0.0000  0.0000  0.0000  0.0000  0.0000  0.0000      0.0000  0.0000  0.0000  0.0000  0.0000  0.0000  0.0000  0.0000  0.0000  0.0000
  o =  0.9897  v =  0.0000  0.7071  0.0000 -0.7071  0.0000  0.0000  0.0000  0.0000  0.0000  0.0000      0.0000  0.0000  0.0000  0.0000  0.0000  0.0000  0.0000  0.0000  0.0000  0.0000
  o =  0.9936  v = -0.7985  0.0000  0.6020  0.0000 -0.0000  0.0000  0.0000  0.0000  0.0000  0.0000      0.0000  0.0000  0.0000  0.0000  0.0000  0.0000  0.0000  0.0000  0.0000  0.0000
     EDDAV:  cpu time    0.0813: real time    0.0813
       DOS:  cpu time    0.0002: real time    0.0002
    CHARGE:  cpu time    0.0258: real time    0.0258
    MIXING:  cpu time    0.0006: real time    0.0006
    --------------------------------------------
      LOOP:  cpu time    0.5073: real time    0.5073

 eigenvalue-minimisations  :   324
 total energy-change (2. order) :-0.2634056E+00  (-0.6924143E-02)
 number of electron      53.9999998 magnetization      -0.0000000
 augmentation part       19.9704827 magnetization      -0.0000000

 Broyden mixing:
  rms(total) = 0.13167E+00    rms(broyden)= 0.13167E+00
  rms(prec ) = 0.14161E+00
  weight for this iteration     100.00

 eigenvalues of (default mixing * dielectric matrix)
  average eigenvalue GAMMA=   1.2189
  2.6253  0.8113  0.8113  0.6276

 Free energy of the ion-electron system (eV)
  ---------------------------------------------------
  alpha Z        PSCENC =       203.89546508
  Ewald energy   TEWEN  =     -4252.90765001
  -Hartree energ DENC   =     -2105.64607553
  -exchange      EXHF   =         0.00000000
  -V(xc)+E(xc)   XCENC  =       296.07081636
  PAW double counting   =      6378.73387671    -6499.00008860
  entropy T*S    EENTRO =        -0.00000000
  eigenvalues    EBANDS =      -750.77202004
  atomic energy  EATOM  =      6689.45677594
  Solvation  Ediel_sol  =         0.00000000
  ---------------------------------------------------
  free energy    TOTEN  =       -40.16890007 eV

  energy without entropy =      -40.16890007  energy(sigma->0) =      -40.16890007


--------------------------------------------------------------------------------------------------------




--------------------------------------- Iteration      1(  10)  ---------------------------------------


    POTLOK:  cpu time    0.0048: real time    0.0048
    SETDIJ:  cpu time    0.3951: real time    0.3951
atom =   1  type =  1  l = 2
 
 onsite density matrix
 
spin component  1
 
  0.0544  0.0000  0.0299  0.0000  0.0000
  0.0000  0.0445  0.0000  0.0245  0.0000
  0.0299  0.0000  0.0384  0.0000  0.0000
  0.0000  0.0245  0.0000  0.0445  0.0000
  0.0000  0.0000  0.0000  0.0000  0.0172
 
spin component  2
 
  0.9693  0.0000  0.0214  0.0000 -0.0000
  0.0000  0.9633  0.0000  0.0191  0.0000
  0.0214  0.0000  0.9564  0.0000 -0.0000
  0.0000  0.0191  0.0000  0.9633  0.0000
 -0.0000  0.0000 -0.0000  0.0000  0.9444
 
 occupancies and eigenvectors
 
  o =  0.0154  v = -0.6090  0.0000  0.7931  0.0000 -0.0000  0.0000  0.0000  0.0000  0.0000  0.0000      0.0000  0.0000  0.0000  0.0000  0.0000  0.0000  0.0000  0.0000  0.0000  0.0000
  o =  0.0172  v = -0.0000 -0.0000  0.0000  0.0000  1.0000  0.0000  0.0000  0.0000  0.0000  0.0000      0.0000  0.0000  0.0000  0.0000  0.0000  0.0000  0.0000  0.0000  0.0000  0.0000
  o =  0.0200  v =  0.0000  0.7071  0.0000 -0.7071  0.0000  0.0000  0.0000  0.0000  0.0000  0.0000      0.0000  0.0000  0.0000  0.0000  0.0000  0.0000  0.0000  0.0000  0.0000  0.0000
  o =  0.0691  v =  0.0000 -0.7071  0.0000 -0.7071 -0.0000  0.0000  0.0000  0.0000  0.0000  0.0000      0.0000  0.0000  0.0000  0.0000  0.0000  0.0000  0.0000  0.0000  0.0000  0.0000
  o =  0.0774  v = -0.7931  0.0000 -0.6090  0.0000 -0.0000  0.0000  0.0000  0.0000  0.0000  0.0000      0.0000  0.0000  0.0000  0.0000  0.0000  0.0000  0.0000  0.0000  0.0000  0.0000
  o =  0.9405  v =  0.0000  0.0000  0.0000  0.0000  0.0000 -0.5963  0.0000  0.8028  0.0000 -0.0000      0.0000  0.0000  0.0000  0.0000  0.0000  0.0000  0.0000  0.0000  0.0000  0.0000
  o =  0.9442  v =  0.0000  0.0000  0.0000  0.0000  0.0000  0.0000  0.7071  0.0000 -0.7071 -0.0000      0.0000  0.0000  0.0000  0.0000  0.0000  0.0000  0.0000  0.0000  0.0000  0.0000
  o =  0.9444  v =  0.0000  0.0000  0.0000  0.0000  0.0000  0.0000 -0.0000 -0.0000  0.0000 -1.0000      0.0000  0.0000  0.0000  0.0000  0.0000  0.0000  0.0000  0.0000  0.0000  0.0000
  o =  0.9824  v =  0.0000  0.0000  0.0000  0.0000  0.0000  0.0000  0.7071  0.0000  0.7071 -0.0000      0.0000  0.0000  0.0000  0.0000  0.0000  0.0000  0.0000  0.0000  0.0000  0.0000
  o =  0.9852  v =  0.0000  0.0000  0.0000  0.0000  0.0000 -0.8028  0.0000 -0.5963  0.0000  0.0000      0.0000  0.0000  0.0000  0.0000  0.0000  0.0000  0.0000  0.0000  0.0000  0.0000
atom =   2  type =  1  l = 2
 
 onsite density matrix
 
spin component  1
 
  0.9693  0.0000 -0.0214  0.0000 -0.0000
  0.0000  0.9633  0.0000 -0.0191  0.0000
 -0.0214  0.0000  0.9564  0.0000  0.0000
  0.0000 -0.0191  0.0000  0.9633  0.0000
 -0.0000  0.0000  0.0000  0.0000  0.9444
 
spin component  2
 
  0.0544  0.0000 -0.0299  0.0000  0.0000
  0.0000  0.0445  0.0000 -0.0245  0.0000
 -0.0299  0.0000  0.0384  0.0000 -0.0000
  0.0000 -0.0245  0.0000  0.0445  0.0000
  0.0000  0.0000 -0.0000  0.0000  0.0172
 
 occupancies and eigenvectors
 
  o =  0.0154  v =  0.0000  0.0000  0.0000  0.0000  0.0000 -0.6090  0.0000 -0.7931  0.0000 -0.0000      0.0000  0.0000  0.0000  0.0000  0.0000  0.0000  0.0000  0.0000  0.0000  0.0000
  o =  0.0172  v =  0.0000  0.0000  0.0000  0.0000  0.0000 -0.0000 -0.0000 -0.0000  0.0000  1.0000      0.0000  0.0000  0.0000  0.0000  0.0000  0.0000  0.0000  0.0000  0.0000  0.0000
  o =  0.0200  v =  0.0000  0.0000  0.0000  0.0000  0.0000  0.0000 -0.7071  0.0000 -0.7071 -0.0000      0.0000  0.0000  0.0000  0.0000  0.0000  0.0000  0.0000  0.0000  0.0000  0.0000
  o =  0.0691  v =  0.0000  0.0000  0.0000  0.0000  0.0000  0.0000  0.7071  0.0000 -0.7071  0.0000      0.0000  0.0000  0.0000  0.0000  0.0000  0.0000  0.0000  0.0000  0.0000  0.0000
  o =  0.0774  v =  0.0000  0.0000  0.0000  0.0000  0.0000 -0.7931  0.0000  0.6090  0.0000 -0.0000      0.0000  0.0000  0.0000  0.0000  0.0000  0.0000  0.0000  0.0000  0.0000  0.0000
  o =  0.9405  v = -0.5963  0.0000 -0.8028  0.0000 -0.0000  0.0000  0.0000  0.0000  0.0000  0.0000      0.0000  0.0000  0.0000  0.0000  0.0000  0.0000  0.0000  0.0000  0.0000  0.0000
  o =  0.9442  v =  0.0000 -0.7071  0.0000 -0.7071  0.0000  0.0000  0.0000  0.0000  0.0000  0.0000      0.0000  0.0000  0.0000  0.0000  0.0000  0.0000  0.0000  0.0000  0.0000  0.0000
  o =  0.9444  v =  0.0000 -0.0000  0.0000  0.0000 -1.0000  0.0000  0.0000  0.0000  0.0000  0.0000      0.0000  0.0000  0.0000  0.0000  0.0000  0.0000  0.0000  0.0000  0.0000  0.0000
  o =  0.9824  v =  0.0000 -0.7071  0.0000  0.7071  0.0000  0.0000  0.0000  0.0000  0.0000  0.0000      0.0000  0.0000  0.0000  0.0000  0.0000  0.0000  0.0000  0.0000  0.0000  0.0000
  o =  0.9852  v = -0.8028  0.0000  0.5963  0.0000  0.0000  0.0000  0.0000  0.0000  0.0000  0.0000      0.0000  0.0000  0.0000  0.0000  0.0000  0.0000  0.0000  0.0000  0.0000  0.0000
     EDDAV:  cpu time    0.0931: real time    0.0931
       DOS:  cpu time    0.0002: real time    0.0002
    CHARGE:  cpu time    0.0258: real time    0.0258
    MIXING:  cpu time    0.0007: real time    0.0007
    --------------------------------------------
      LOOP:  cpu time    0.5195: real time    0.5195

 eigenvalue-minimisations  :   372
 total energy-change (2. order) :-0.1105471E-02  (-0.1552733E-02)
 number of electron      53.9999998 magnetization       0.0000000
 augmentation part       19.9679052 magnetization       0.0000000

 Broyden mixing:
  rms(total) = 0.24410E-01    rms(broyden)= 0.24405E-01
  rms(prec ) = 0.27034E-01
  weight for this iteration     100.00

 eigenvalues of (default mixing * dielectric matrix)
  average eigenvalue GAMMA=   1.1691
  2.5392  0.9798  0.9798  0.7376  0.6092

 Free energy of the ion-electron system (eV)
  ---------------------------------------------------
  alpha Z        PSCENC =       203.89546508
  Ewald energy   TEWEN  =     -4252.90765001
  -Hartree energ DENC   =     -2106.30230956
  -exchange      EXHF   =         0.00000000
  -V(xc)+E(xc)   XCENC  =       296.16690594
  PAW double counting   =      6366.13065436    -6486.52459937
  entropy T*S    EENTRO =        -0.00000000
  eigenvalues    EBANDS =      -750.08524793
  atomic energy  EATOM  =      6689.45677594
  Solvation  Ediel_sol  =         0.00000000
  ---------------------------------------------------
  free energy    TOTEN  =       -40.17000555 eV

  energy without entropy =      -40.17000555  energy(sigma->0) =      -40.17000555


--------------------------------------------------------------------------------------------------------




--------------------------------------- Iteration      1(  11)  ---------------------------------------


    POTLOK:  cpu time    0.0053: real time    0.0053
    SETDIJ:  cpu time    0.3949: real time    0.3949
atom =   1  type =  1  l = 2
 
 onsite density matrix
 
spin component  1
 
  0.0532  0.0000  0.0297  0.0000 -0.0000
  0.0000  0.0432  0.0000  0.0243  0.0000
  0.0297  0.0000  0.0371  0.0000  0.0000
  0.0000  0.0243  0.0000  0.0432  0.0000
 -0.0000  0.0000  0.0000  0.0000  0.0162
 
spin component  2
 
  0.9715  0.0000  0.0215  0.0000  0.0000
  0.0000  0.9655  0.0000  0.0191  0.0000
  0.0215  0.0000  0.9586  0.0000 -0.0000
  0.0000  0.0191  0.0000  0.9655  0.0000
  0.0000  0.0000 -0.0000  0.0000  0.9466
 
 occupancies and eigenvectors
 
  o =  0.0144  v = -0.6077 -0.0000  0.7942  0.0000 -0.0000  0.0000  0.0000  0.0000  0.0000  0.0000      0.0000  0.0000  0.0000  0.0000  0.0000  0.0000  0.0000  0.0000  0.0000  0.0000
  o =  0.0162  v = -0.0000  0.0000  0.0000  0.0000  1.0000  0.0000  0.0000  0.0000  0.0000  0.0000      0.0000  0.0000  0.0000  0.0000  0.0000  0.0000  0.0000  0.0000  0.0000  0.0000
  o =  0.0189  v =  0.0000  0.7071  0.0000 -0.7071 -0.0000  0.0000  0.0000  0.0000  0.0000  0.0000      0.0000  0.0000  0.0000  0.0000  0.0000  0.0000  0.0000  0.0000  0.0000  0.0000
  o =  0.0676  v =  0.0000 -0.7071  0.0000 -0.7071  0.0000  0.0000  0.0000  0.0000  0.0000  0.0000      0.0000  0.0000  0.0000  0.0000  0.0000  0.0000  0.0000  0.0000  0.0000  0.0000
  o =  0.0759  v = -0.7942 -0.0000 -0.6077  0.0000 -0.0000  0.0000  0.0000  0.0000  0.0000  0.0000      0.0000  0.0000  0.0000  0.0000  0.0000  0.0000  0.0000  0.0000  0.0000  0.0000
  o =  0.9426  v =  0.0000  0.0000  0.0000  0.0000  0.0000 -0.5973 -0.0000  0.8020  0.0000  0.0000      0.0000  0.0000  0.0000  0.0000  0.0000  0.0000  0.0000  0.0000  0.0000  0.0000
  o =  0.9464  v =  0.0000  0.0000  0.0000  0.0000  0.0000  0.0000 -0.7071  0.0000  0.7071 -0.0000      0.0000  0.0000  0.0000  0.0000  0.0000  0.0000  0.0000  0.0000  0.0000  0.0000
  o =  0.9466  v =  0.0000  0.0000  0.0000  0.0000  0.0000 -0.0000  0.0000  0.0000  0.0000 -1.0000      0.0000  0.0000  0.0000  0.0000  0.0000  0.0000  0.0000  0.0000  0.0000  0.0000
  o =  0.9846  v =  0.0000  0.0000  0.0000  0.0000  0.0000  0.0000 -0.7071  0.0000 -0.7071 -0.0000      0.0000  0.0000  0.0000  0.0000  0.0000  0.0000  0.0000  0.0000  0.0000  0.0000
  o =  0.9875  v =  0.0000  0.0000  0.0000  0.0000  0.0000 -0.8020 -0.0000 -0.5973  0.0000  0.0000      0.0000  0.0000  0.0000  0.0000  0.0000  0.0000  0.0000  0.0000  0.0000  0.0000
atom =   2  type =  1  l = 2
 
 onsite density matrix
 
spin component  1
 
  0.9715  0.0000 -0.0215  0.0000 -0.0000
  0.0000  0.9655  0.0000 -0.0191  0.0000
 -0.0215  0.0000  0.9586  0.0000  0.0000
  0.0000 -0.0191  0.0000  0.9655  0.0000
 -0.0000  0.0000  0.0000  0.0000  0.9466
 
spin component  2
 
  0.0532  0.0000 -0.0297  0.0000  0.0000
  0.0000  0.0432  0.0000 -0.0243  0.0000
 -0.0297  0.0000  0.0371  0.0000 -0.0000
  0.0000 -0.0243  0.0000  0.0432  0.0000
  0.0000  0.0000 -0.0000  0.0000  0.0162
 
 occupancies and eigenvectors
 
  o =  0.0144  v =  0.0000  0.0000  0.0000  0.0000  0.0000 -0.6077  0.0000 -0.7942  0.0000 -0.0000      0.0000  0.0000  0.0000  0.0000  0.0000  0.0000  0.0000  0.0000  0.0000  0.0000
  o =  0.0162  v =  0.0000  0.0000  0.0000  0.0000  0.0000 -0.0000 -0.0000 -0.0000  0.0000  1.0000      0.0000  0.0000  0.0000  0.0000  0.0000  0.0000  0.0000  0.0000  0.0000  0.0000
  o =  0.0189  v =  0.0000  0.0000  0.0000  0.0000  0.0000  0.0000 -0.7071  0.0000 -0.7071 -0.0000      0.0000  0.0000  0.0000  0.0000  0.0000  0.0000  0.0000  0.0000  0.0000  0.0000
  o =  0.0676  v =  0.0000  0.0000  0.0000  0.0000  0.0000  0.0000  0.7071  0.0000 -0.7071  0.0000      0.0000  0.0000  0.0000  0.0000  0.0000  0.0000  0.0000  0.0000  0.0000  0.0000
  o =  0.0759  v =  0.0000  0.0000  0.0000  0.0000  0.0000 -0.7942  0.0000  0.6077  0.0000 -0.0000      0.0000  0.0000  0.0000  0.0000  0.0000  0.0000  0.0000  0.0000  0.0000  0.0000
  o =  0.9426  v = -0.5973  0.0000 -0.8020  0.0000  0.0000  0.0000  0.0000  0.0000  0.0000  0.0000      0.0000  0.0000  0.0000  0.0000  0.0000  0.0000  0.0000  0.0000  0.0000  0.0000
  o =  0.9464  v = -0.0000 -0.7071 -0.0000 -0.7071 -0.0000  0.0000  0.0000  0.0000  0.0000  0.0000      0.0000  0.0000  0.0000  0.0000  0.0000  0.0000  0.0000  0.0000  0.0000  0.0000
  o =  0.9466  v =  0.0000 -0.0000  0.0000 -0.0000  1.0000  0.0000  0.0000  0.0000  0.0000  0.0000      0.0000  0.0000  0.0000  0.0000  0.0000  0.0000  0.0000  0.0000  0.0000  0.0000
  o =  0.9846  v = -0.0000 -0.7071  0.0000  0.7071  0.0000  0.0000  0.0000  0.0000  0.0000  0.0000      0.0000  0.0000  0.0000  0.0000  0.0000  0.0000  0.0000  0.0000  0.0000  0.0000
  o =  0.9875  v = -0.8020  0.0000  0.5973 -0.0000  0.0000  0.0000  0.0000  0.0000  0.0000  0.0000      0.0000  0.0000  0.0000  0.0000  0.0000  0.0000  0.0000  0.0000  0.0000  0.0000
     EDDAV:  cpu time    0.0761: real time    0.0761
       DOS:  cpu time    0.0001: real time    0.0001
    CHARGE:  cpu time    0.0256: real time    0.0256
    MIXING:  cpu time    0.0007: real time    0.0007
    --------------------------------------------
      LOOP:  cpu time    0.5028: real time    0.5028

 eigenvalue-minimisations  :   300
 total energy-change (2. order) : 0.4419515E-04  (-0.1510839E-03)
 number of electron      53.9999998 magnetization       0.0000000
 augmentation part       19.9636617 magnetization       0.0000000

 Broyden mixing:
  rms(total) = 0.14289E-01    rms(broyden)= 0.14287E-01
  rms(prec ) = 0.15557E-01
  weight for this iteration     100.00

 eigenvalues of (default mixing * dielectric matrix)
  average eigenvalue GAMMA=   1.1270
  2.5420  1.3107  0.8188  0.8188  0.6618  0.6098

 Free energy of the ion-electron system (eV)
  ---------------------------------------------------
  alpha Z        PSCENC =       203.89546508
  Ewald energy   TEWEN  =     -4252.90765001
  -Hartree energ DENC   =     -2106.76363908
  -exchange      EXHF   =         0.00000000
  -V(xc)+E(xc)   XCENC  =       296.18337385
  PAW double counting   =      6350.40638139    -6470.66442756
  entropy T*S    EENTRO =        -0.00000000
  eigenvalues    EBANDS =      -749.77624097
  atomic energy  EATOM  =      6689.45677594
  Solvation  Ediel_sol  =         0.00000000
  ---------------------------------------------------
  free energy    TOTEN  =       -40.16996135 eV

  energy without entropy =      -40.16996135  energy(sigma->0) =      -40.16996135


--------------------------------------------------------------------------------------------------------




--------------------------------------- Iteration      1(  12)  ---------------------------------------


    POTLOK:  cpu time    0.0047: real time    0.0047
    SETDIJ:  cpu time    0.3949: real time    0.3949
atom =   1  type =  1  l = 2
 
 onsite density matrix
 
spin component  1
 
  0.0546  0.0000  0.0298  0.0000  0.0000
  0.0000  0.0447  0.0000  0.0244  0.0000
  0.0298  0.0000  0.0385  0.0000 -0.0000
  0.0000  0.0244  0.0000  0.0447  0.0000
  0.0000  0.0000 -0.0000  0.0000  0.0175
 
spin component  2
 
  0.9705  0.0000  0.0216  0.0000 -0.0000
  0.0000  0.9645  0.0000  0.0192  0.0000
  0.0216  0.0000  0.9575  0.0000 -0.0000
  0.0000  0.0192  0.0000  0.9645  0.0000
 -0.0000  0.0000 -0.0000  0.0000  0.9455
 
 occupancies and eigenvectors
 
  o =  0.0157  v = -0.6078 -0.0000  0.7941  0.0000  0.0000  0.0000  0.0000  0.0000  0.0000  0.0000      0.0000  0.0000  0.0000  0.0000  0.0000  0.0000  0.0000  0.0000  0.0000  0.0000
[...]
     35      10.0916      0.00000
     36      11.9758      0.00000

 k-point     2 :       0.2500    0.2500    0.3333
  band No.  band energies     occupation 
      1     -45.9701      1.00000
      2     -45.9331      1.00000
      3     -45.9129      1.00000
      4     -41.3834      1.00000
      5     -41.3535      1.00000
      6     -41.3281      1.00000
      7     -20.6157      1.00000
      8     -20.3978      1.00000
      9     -20.3694      1.00000
     10     -20.3255      1.00000
     11      -4.2969      1.00000
     12      -3.9210      1.00000
     13      -3.8257      1.00000
     14      -3.6319      1.00000
     15      -3.5222      1.00000
     16      -3.2139      1.00000
     17      -2.7166      1.00000
     18      -2.6153      1.00000
     19      -2.4170      1.00000
     20      -1.8154      1.00000
     21      -1.7736      1.00000
     22      -1.4552      1.00000
     23       0.0295      1.00000
     24       0.1214      1.00000
     25       0.3387      1.00000
     26       1.2402      1.00000
     27       1.7397      1.00000
     28       7.1229      0.00000
     29       7.1501      0.00000
     30       7.2205      0.00000
     31       7.5215      0.00000
     32       8.2418      0.00000
     33       8.8711      0.00000
     34      11.2791      0.00000
     35      11.3342      0.00000
     36      12.1757      0.00000

 spin component 2

 k-point     1 :       0.2500    0.2500    0.0000
  band No.  band energies     occupation 
      1     -45.9737      1.00000
      2     -45.9143      1.00000
      3     -45.9113      1.00000
      4     -41.3892      1.00000
      5     -41.3300      1.00000
      6     -41.3229      1.00000
      7     -20.8201      1.00000
      8     -20.5372      1.00000
      9     -20.2904      1.00000
     10     -20.2816      1.00000
     11      -4.6866      1.00000
     12      -4.4397      1.00000
     13      -3.8154      1.00000
     14      -3.2924      1.00000
     15      -2.7290      1.00000
     16      -2.6763      1.00000
     17      -2.6759      1.00000
     18      -2.5585      1.00000
     19      -2.0577      1.00000
     20      -2.0104      1.00000
     21      -1.6043      1.00000
     22      -1.2852      1.00000
     23      -0.1175      1.00000
     24       0.0543      1.00000
     25       0.4443      1.00000
     26       1.3243      1.00000
     27       1.8075      1.00000
     28       6.1245      0.00000
     29       6.8463      0.00000
     30       7.3486      0.00000
     31       7.3543      0.00000
     32       8.3264      0.00000
     33       8.3692      0.00000
     34       9.4580      0.00000
     35       9.7546      0.00000
     36      12.1820      0.00000

 k-point     2 :       0.2500    0.2500    0.3333
  band No.  band energies     occupation 
      1     -45.9701      1.00000
      2     -45.9331      1.00000
      3     -45.9129      1.00000
      4     -41.3834      1.00000
      5     -41.3535      1.00000
      6     -41.3280      1.00000
      7     -20.6074      1.00000
      8     -20.4550      1.00000
      9     -20.3638      1.00000
     10     -20.2808      1.00000
     11      -4.4551      1.00000
     12      -3.9304      1.00000
     13      -3.8722      1.00000
     14      -3.6521      1.00000
     15      -3.6083      1.00000
     16      -3.0933      1.00000
     17      -2.5567      1.00000
     18      -2.4509      1.00000
     19      -2.4093      1.00000
     20      -1.8445      1.00000
     21      -1.7036      1.00000
     22      -1.4573      1.00000
     23       0.0576      1.00000
     24       0.1699      1.00000
     25       0.3957      1.00000
     26       1.0841      1.00000
     27       1.4830      1.00000
     28       7.0977      0.00000
     29       7.1320      0.00000
     30       7.1793      0.00000
     31       7.9668      0.00000
     32       8.3037      0.00000
     33       8.4950      0.00000
     34      11.1821      0.00000
     35      11.4228      0.00000
     36      12.3044      0.00000


--------------------------------------------------------------------------------------------------------


 soft charge-density along one line, spin component           1
         0         1         2         3         4         5         6         7         8         9
 total charge-density along one line
 
 soft charge-density along one line, spin component           2
         0         1         2         3         4         5         6         7         8         9
 total charge-density along one line
 
 pseudopotential strength for first ion, spin component:           1
-41.893  -0.000  -0.031   7.901   0.000   0.012   0.000   0.000
 -0.000 -41.866  -0.000   0.000   7.890   0.000   0.000  -0.000
 -0.031  -0.000 -41.893   0.012   0.000   7.901  -0.000   0.000
  7.901   0.000   0.012   5.347  -0.000  -0.005  -0.000  -0.000
  0.000   7.890   0.000  -0.000   5.352  -0.000  -0.000  -0.000
  0.012   0.000   7.901  -0.005  -0.000   5.347  -0.000  -0.000
  0.000   0.000  -0.000  -0.000  -0.000  -0.000  -1.382  -0.000
  0.000  -0.000   0.000  -0.000  -0.000  -0.000  -0.000  -1.336
  0.000   0.000  -0.000   0.000  -0.000  -0.000  -0.075   0.000
  0.000  -0.000   0.000  -0.000  -0.000  -0.000  -0.000  -0.090
  0.000   0.000  -0.000   0.000  -0.000   0.000   0.000   0.000
  0.000   0.000  -0.000  -0.000  -0.000  -0.000  -1.824  -0.000
  0.000  -0.000   0.000  -0.000  -0.000  -0.000  -0.000  -1.778
  0.000   0.000  -0.000   0.000  -0.000  -0.000  -0.079   0.000
  0.000  -0.000   0.000  -0.000  -0.000  -0.000  -0.000  -0.093
  0.000   0.000  -0.000   0.000  -0.000   0.000   0.000   0.000
 -0.000  -0.000   0.000  -0.000  -0.000   0.000   0.006   0.000
 -0.000  -0.000   0.000  -0.000  -0.000   0.000   0.012   0.000
 pseudopotential strength for first ion, spin component:           2
-44.962  -0.000  -0.024   9.386   0.000   0.008   0.000   0.000
 -0.000 -44.943  -0.000   0.000   9.380   0.000   0.000  -0.000
 -0.024  -0.000 -44.962   0.008   0.000   9.386  -0.000   0.000
  9.386   0.000   0.008   4.853  -0.000  -0.003   0.000  -0.000
  0.000   9.380   0.000  -0.000   4.855  -0.000  -0.000  -0.000
  0.008   0.000   9.386  -0.003  -0.000   4.853  -0.000  -0.000
  0.000   0.000  -0.000   0.000  -0.000  -0.000  -7.383  -0.000
  0.000  -0.000   0.000  -0.000  -0.000  -0.000  -0.000  -7.353
  0.000   0.000  -0.000   0.000  -0.000  -0.000  -0.052   0.000
  0.000  -0.000   0.000  -0.000  -0.000  -0.000  -0.000  -0.074
  0.000   0.000  -0.000   0.000  -0.000  -0.000   0.000   0.000
  0.000   0.000  -0.000   0.000  -0.000  -0.000  -7.876  -0.000
  0.000  -0.000   0.000  -0.000  -0.000  -0.000  -0.000  -7.846
  0.000   0.000  -0.000   0.000  -0.000  -0.000  -0.054   0.000
  0.000  -0.000   0.000  -0.000  -0.000  -0.000  -0.000  -0.076
  0.000   0.000  -0.000   0.000  -0.000  -0.000   0.000   0.000
 -0.000  -0.000   0.000  -0.000  -0.000   0.000   0.004   0.000
 -0.000  -0.000   0.000  -0.000  -0.000   0.000   0.007   0.000
 total augmentation occupancy for first ion, spin component:           1
  1.998   0.000  -0.000  -0.013   0.000   0.000   0.000   0.000   0.000   0.000   0.000   0.000   0.000   0.000   0.000   0.000
  0.000   1.998   0.000   0.000  -0.013   0.000   0.000   0.000   0.000   0.000   0.000   0.000   0.000   0.000   0.000   0.000
 -0.000   0.000   1.998   0.000   0.000  -0.013   0.000   0.000   0.000   0.000   0.000   0.000   0.000   0.000   0.000   0.000
 -0.013   0.000   0.000   0.096   0.000  -0.010   0.000   0.000   0.000   0.000   0.000   0.000   0.000   0.000   0.000   0.000
  0.000  -0.013   0.000   0.000   0.108   0.000   0.000   0.000   0.000   0.000   0.000   0.000   0.000   0.000   0.000   0.000
  0.000   0.000  -0.013  -0.010   0.000   0.096   0.000   0.000   0.000   0.000   0.000   0.000   0.000   0.000   0.000   0.000
  0.000   0.000   0.000   0.000   0.000   0.000   8.362   0.000   3.381   0.000  -0.000  -6.435   0.000  -3.209   0.000  -0.000
  0.000   0.000   0.000   0.000   0.000   0.000   0.000   6.995   0.000   2.918   0.000   0.000  -5.128   0.000  -2.755   0.000
  0.000   0.000   0.000   0.000   0.000   0.000   3.381   0.000   6.301   0.000   0.000  -3.210   0.000  -4.500   0.000   0.000
  0.000   0.000   0.000   0.000   0.000   0.000   0.000   2.918   0.000   6.995   0.000   0.000  -2.755   0.000  -5.128   0.000
  0.000   0.000   0.000   0.000   0.000   0.000  -0.000   0.000  -0.000   0.000   3.959   0.000   0.000   0.000   0.000  -2.233
  0.000   0.000   0.000   0.000   0.000   0.000  -6.435   0.000  -3.210   0.000   0.000   5.678   0.000   3.082   0.000  -0.000
  0.000   0.000   0.000   0.000   0.000   0.000   0.000  -5.128   0.000  -2.755   0.000   0.000   4.420   0.000   2.630   0.000
  0.000   0.000   0.000   0.000   0.000   0.000  -3.209   0.000  -4.500   0.000   0.000   3.082   0.000   3.844   0.000  -0.000
  0.000   0.000   0.000   0.000   0.000   0.000   0.000  -2.755   0.000  -5.128   0.000   0.000   2.630   0.000   4.420   0.000
  0.000   0.000   0.000   0.000   0.000   0.000  -0.000   0.000   0.000   0.000  -2.233  -0.000   0.000  -0.000   0.000   1.627
  0.000   0.000   0.000   0.000   0.000   0.000   0.272   0.000  -0.226   0.000   0.000  -0.302   0.000   0.235   0.000  -0.000
  0.000   0.000   0.000   0.000   0.000   0.000  -0.008   0.000   0.026   0.000   0.000   0.034   0.000  -0.037   0.000   0.000
 total augmentation occupancy for first ion, spin component:           2
  0.004   0.000  -0.000   0.016   0.000  -0.000   0.000   0.000   0.000   0.000   0.000   0.000   0.000   0.000   0.000   0.000
  0.000   0.004   0.000   0.000   0.017   0.000   0.000   0.000   0.000   0.000   0.000   0.000   0.000   0.000   0.000   0.000
 -0.000   0.000   0.004  -0.000   0.000   0.016   0.000   0.000   0.000   0.000   0.000   0.000   0.000   0.000   0.000   0.000
  0.016   0.000  -0.000  -0.009   0.000  -0.000   0.000   0.000   0.000   0.000   0.000   0.000   0.000   0.000   0.000   0.000
  0.000   0.017   0.000   0.000  -0.009   0.000   0.000   0.000   0.000   0.000   0.000   0.000   0.000   0.000   0.000   0.000
 -0.000   0.000   0.016  -0.000   0.000  -0.009   0.000   0.000   0.000   0.000   0.000   0.000   0.000   0.000   0.000   0.000
  0.000   0.000   0.000   0.000   0.000   0.000  -5.663   0.000  -1.864   0.000   0.000   3.330   0.000   1.472   0.000   0.000
  0.000   0.000   0.000   0.000   0.000   0.000   0.000  -4.915   0.000  -1.645   0.000   0.000   2.720   0.000   1.298   0.000
  0.000   0.000   0.000   0.000   0.000   0.000  -1.864   0.000  -4.435   0.000  -0.000   1.472   0.000   2.351   0.000  -0.000
  0.000   0.000   0.000   0.000   0.000   0.000   0.000  -1.645   0.000  -4.915   0.000   0.000   1.298   0.000   2.720   0.000
  0.000   0.000   0.000   0.000   0.000   0.000   0.000   0.000  -0.000   0.000  -3.278   0.000   0.000   0.000   0.000   1.426
  0.000   0.000   0.000   0.000   0.000   0.000   3.330   0.000   1.472   0.000   0.000  -2.098   0.000  -1.084   0.000  -0.000
  0.000   0.000   0.000   0.000   0.000   0.000   0.000   2.720   0.000   1.298   0.000   0.000  -1.626   0.000  -0.958   0.000
  0.000   0.000   0.000   0.000   0.000   0.000   1.472   0.000   2.351   0.000   0.000  -1.084   0.000  -1.362   0.000  -0.000
  0.000   0.000   0.000   0.000   0.000   0.000   0.000   1.298   0.000   2.720   0.000   0.000  -0.958   0.000  -1.626   0.000
  0.000   0.000   0.000   0.000   0.000   0.000   0.000   0.000  -0.000   0.000   1.426  -0.000   0.000  -0.000   0.000  -0.671
  0.000   0.000   0.000   0.000   0.000   0.000   0.004   0.000   0.021   0.000   0.000  -0.014   0.000  -0.003   0.000  -0.000
  0.000   0.000   0.000   0.000   0.000   0.000  -0.047   0.000   0.012   0.000  -0.000   0.028   0.000  -0.006   0.000  -0.000


------------------------ aborting loop because EDIFF is reached ----------------------------------------


 


 total charge     
 
# of ion       s       p       d       tot
------------------------------------------
    1        0.176   6.175   4.977  11.328
    2        0.186   6.164   4.990  11.341
    3        1.722   4.366   0.000   6.087
    4        1.722   4.366   0.000   6.087
    5        1.721   4.358   0.000   6.078
    6        1.721   4.358   0.000   6.078
--------------------------------------------------
tot          7.247  29.786   9.967  47.000
 


 magnetization (x)
 
# of ion       s       p       d       tot
------------------------------------------
    1       -0.014  -0.015  -4.599  -4.628
    2        0.015   0.012   4.593   4.620
    3        0.001   0.024   0.000   0.025
    4        0.001   0.024   0.000   0.025
    5       -0.003  -0.016   0.000  -0.019
    6       -0.003  -0.016   0.000  -0.019
--------------------------------------------------
tot         -0.002   0.013  -0.006   0.005
 
    CHARGE:  cpu time    0.0256: real time    0.0256
    FORLOC:  cpu time    0.0008: real time    0.0008
    FORNL :  cpu time    0.1106: real time    0.1106
    STRESS:  cpu time    0.3376: real time    0.3376
    FORCOR:  cpu time    0.0042: real time    0.0042
    FORHAR:  cpu time    0.0021: real time    0.0021
    MIXING:  cpu time    0.0008: real time    0.0008
    OFIELD:  cpu time    0.0000: real time    0.0000

  FORCE on cell =-STRESS in cart. coord.  units (eV):
  Direction    XX          YY          ZZ          XY          YZ          ZX
  --------------------------------------------------------------------------------------
  Alpha Z   203.89547   203.89547   203.89547
  Ewald   -1605.88180 -1605.88180 -1041.14724     0.00000     0.00000     0.00000
  Hartree   575.98073   575.98073   954.67708    -0.00000    -0.00000    -0.00000
  E(xc)    -309.49341  -309.49341  -309.53780    -0.00000     0.00000     0.00000
  Local     184.88929   184.88929  -751.46455    -0.00000    -0.00000     0.00000
  n-local  -238.34878  -238.34878  -237.34594     0.05223     0.13497     0.13232
  augment   267.14043   267.14043   266.57697    -0.00000    -0.00000    -0.00000
  Kinetic   921.79903   921.79903   914.36280    -1.03104    -1.10062    -1.10062
  Fock        0.00000     0.00000     0.00000     0.00000     0.00000     0.00000
  -------------------------------------------------------------------------------------
  Total      -0.01903    -0.01903     0.01678     0.00000     0.00000     0.00000
  in kB      -0.40809    -0.40809     0.35985     0.00000     0.00000     0.00000
  external pressure =       -0.15 kB  Pullay stress =        0.00 kB


 VOLUME and BASIS-vectors are now :
 -----------------------------------------------------------------------------
  energy-cutoff  :      600.00
  volume of cell :       74.72
      direct lattice vectors                 reciprocal lattice vectors
     4.795497095  0.000000000  0.000000000     0.208528955  0.000000000  0.000000000
     0.000000000  4.795497095  0.000000000     0.000000000  0.208528955  0.000000000
     0.000000000  0.000000000  3.249311623     0.000000000  0.000000000  0.307757493

  length of vectors
     4.795497095  4.795497095  3.249311623     0.208528955  0.208528955  0.307757493


 FORCES acting on ions
    electron-ion (+dipol)            ewald-force                    non-local-force                 convergence-correction
 -----------------------------------------------------------------------------------------------
   -.182E-11 0.653E-11 -.482E-12   -.142E-12 -.853E-13 0.207E-13   0.000E+00 0.000E+00 0.000E+00   0.176E-13 -.243E-13 0.582E-13
   -.138E-13 -.143E-13 0.475E-12   0.000E+00 -.284E-13 0.181E-13   0.000E+00 0.000E+00 0.000E+00   -.486E-14 -.483E-13 -.637E-13
   -.336E+02 0.336E+02 0.359E-11   0.349E+02 -.349E+02 -.112E-13   -.126E+01 0.126E+01 0.000E+00   -.135E-04 0.135E-04 0.828E-13
   0.336E+02 -.336E+02 0.117E-10   -.349E+02 0.349E+02 -.110E-13   0.126E+01 -.126E+01 0.000E+00   0.135E-04 -.135E-04 -.428E-13
   0.336E+02 0.336E+02 0.139E-08   -.349E+02 -.349E+02 -.104E-13   0.126E+01 0.126E+01 0.414E-24   0.135E-04 0.135E-04 -.225E-10
   -.336E+02 -.336E+02 -.140E-08   0.349E+02 0.349E+02 -.996E-14   -.126E+01 -.126E+01 -.827E-24   -.135E-04 -.135E-04 0.225E-10
 -----------------------------------------------------------------------------------------------
   -.660E-13 0.850E-11 0.701E-11   0.711E-14 -.711E-14 -.382E-14   0.222E-15 0.222E-15 -.414E-24   -.257E-14 -.848E-13 -.332E-13
 
 
 POSITION                                       TOTAL-FORCE (eV/Angst)
 -----------------------------------------------------------------------------------
      2.39775      2.39775      1.62466         0.000000      0.000000      0.000000
      0.00000      0.00000      0.00000         0.000000      0.000000      0.000000
      0.93971      3.85579      1.62466        -0.000197      0.000197      0.000000
      3.85579      0.93971      1.62466         0.000197     -0.000197      0.000000
      1.45804      1.45804      0.00000         0.000197      0.000197      0.000000
      3.33746      3.33746      0.00000        -0.000197     -0.000197      0.000000
 -----------------------------------------------------------------------------------
    total drift:                               -0.000000      0.000000      0.000000


--------------------------------------------------------------------------------------------------------



  FREE ENERGIE OF THE ION-ELECTRON SYSTEM (eV)
  ---------------------------------------------------
  free  energy   TOTEN  =       -40.17000910 eV

  energy  without entropy=      -40.17000910  energy(sigma->0) =      -40.17000910
 


--------------------------------------------------------------------------------------------------------


    POTLOK:  cpu time    0.3991: real time    0.3991


--------------------------------------------------------------------------------------------------------




--------------------------------------------------------------------------------------------------------


  
 reached required accuracy - stopping structural energy minimisation
     LOOP+:  cpu time    7.6652: real time    7.6858
    4ORBIT:  cpu time    0.0000: real time    0.0000
 


 total charge     
 
# of ion       s       p       d       tot
------------------------------------------
    1        0.176   6.175   4.977  11.328
    2        0.186   6.164   4.990  11.341
    3        1.722   4.366   0.000   6.087
    4        1.722   4.366   0.000   6.087
    5        1.721   4.358   0.000   6.078
    6        1.721   4.358   0.000   6.078
--------------------------------------------------
tot          7.247  29.786   9.967  47.000
 


 magnetization (x)
 
# of ion       s       p       d       tot
------------------------------------------
    1       -0.014  -0.015  -4.599  -4.628
    2        0.015   0.012   4.593   4.620
    3        0.001   0.024   0.000   0.025
    4        0.001   0.024   0.000   0.025
    5       -0.003  -0.016   0.000  -0.019
    6       -0.003  -0.016   0.000  -0.019
--------------------------------------------------
tot         -0.002   0.013  -0.006   0.005
 

 total amount of memory used by VASP MPI-rank0    36708. kBytes
=======================================================================

   base      :      30000. kBytes
   nonl-proj :       1685. kBytes
   fftplans  :       1875. kBytes
   grid      :       2467. kBytes
   one-center:        186. kBytes
   wavefun   :        495. kBytes
 
  
  
 General timing and accounting informations for this job:
 ========================================================
  
                  Total CPU time used (sec):        8.601
                            User time (sec):        5.639
                          System time (sec):        2.962
                         Elapsed time (sec):        8.673
  
                   Maximum memory used (kb):       53168.
                   Average memory used (kb):           0.
  
                          Minor page faults:         7043
                          Major page faults:            9
                 Voluntary context switches:          333
