 vasp.5.4.4.18Apr17-6-g9f103f2a35 (build Apr 27 2017 11:13:10) complex          
  
 executed on           IFC91_ompi date 2020.05.13  11:25:44
 running on   12 total cores
 distrk:  each k-point on   12 cores,    1 groups
 distr:  one band on NCORES_PER_BAND=   1 cores,   12 groups


--------------------------------------------------------------------------------------------------------


 INCAR:
 POTCAR:    PAW_PBE Mn_pv 02Aug2007               
 POTCAR:    PAW_PBE F 08Apr2002                   

 ----------------------------------------------------------------------------- 
|                                                                             |
|           W    W    AA    RRRRR   N    N  II  N    N   GGGG   !!!           |
|           W    W   A  A   R    R  NN   N  II  NN   N  G    G  !!!           |
|           W    W  A    A  R    R  N N  N  II  N N  N  G       !!!           |
|           W WW W  AAAAAA  RRRRR   N  N N  II  N  N N  G  GGG   !            |
|           WW  WW  A    A  R   R   N   NN  II  N   NN  G    G                |
|           W    W  A    A  R    R  N    N  II  N    N   GGGG   !!!           |
|                                                                             |
|      For optimal performance we recommend to set                            |
|        NCORE= 4 - approx SQRT( number of cores)                             |
|      NCORE specifies how many cores store one orbital (NPAR=cpu/NCORE).     |
|      This setting can  greatly improve the performance of VASP for DFT.     |
|      The default,   NCORE=1            might be grossly inefficient         |
|      on modern multi-core architectures or massively parallel machines.     |
|      Do your own testing !!!!                                               |
|      Unfortunately you need to use the default for GW and RPA calculations. |
|      (for HF NCORE is supported but not extensively tested yet)             |
|                                                                             |
 ----------------------------------------------------------------------------- 

 POTCAR:    PAW_PBE Mn_pv 02Aug2007               
   VRHFIN =Mn: 3p4s3d                                                           
   LEXCH  = PE                                                                  
   EATOM  =  2025.2664 eV,  148.8529 Ry                                         
                                                                                
   TITEL  = PAW_PBE Mn_pv 02Aug2007                                             
   LULTRA =        F    use ultrasoft PP ?                                      
   IUNSCR =        1    unscreen: 0-lin 1-nonlin 2-no                           
   RPACOR =    2.080    partial core radius                                     
   POMASS =   54.938; ZVAL   =   13.000    mass and valenz                      
   RCORE  =    2.300    outmost cutoff radius                                   
   RWIGS  =    2.500; RWIGS  =    1.323    wigner-seitz radius (au A)           
   ENMAX  =  269.864; ENMIN  =  202.398 eV                                      
   ICORE  =        3    local potential                                         
   LCOR   =        T    correct aug charges                                     
   LPAW   =        T    paw PP                                                  
   EAUG   =  569.085                                                            
   DEXC   =    0.000                                                            
   RMAX   =    2.343    core radius for proj-oper                               
   RAUG   =    1.300    factor for augmentation sphere                          
   RDEP   =    2.338    radius for radial grids                                 
   RDEPT  =    1.798    core radius for aug-charge                              
                                                                                
   Atomic configuration                                                         
    8 entries                                                                   
     n  l   j            E        occ.                                          
     1  0  0.50     -6424.8287   2.0000                                         
     2  0  0.50      -739.1154   2.0000                                         
     2  1  1.50      -625.3949   6.0000                                         
     3  0  0.50       -81.6100   2.0000                                         
     3  1  1.50       -50.4667   6.0000                                         
     3  2  2.50        -3.3745   6.0000                                         
     4  0  0.50        -4.1331   1.0000                                         
     4  3  2.50        -1.3606   0.0000                                         
   Description                                                                  
     l       E           TYP  RCUT    TYP  RCUT                                 
     1    -50.4666628     23  2.000                                             
     1     -1.3605826     23  2.000                                             
     2     -3.3744729     23  2.300                                             
     2     -4.7350555     23  2.300                                             
     0     -4.1331431     23  2.300                                             
     0      7.6656591     23  2.300                                             
     3      9.5240782     23  2.300                                             
  local pseudopotential read in
  partial core-charges read in
  partial kinetic energy density read in
  atomic valenz-charges read in
  non local Contribution for L=           1  read in
    real space projection operators read in
  non local Contribution for L=           1  read in
    real space projection operators read in
  non local Contribution for L=           2  read in
    real space projection operators read in
  non local Contribution for L=           2  read in
    real space projection operators read in
  non local Contribution for L=           0  read in
    real space projection operators read in
  non local Contribution for L=           0  read in
    real space projection operators read in
    PAW grid and wavefunctions read in
 
   number of l-projection  operators is LMAX  =           6
   number of lm-projection operators is LMMAX =          18
 
 POTCAR:    PAW_PBE F 08Apr2002                   
   VRHFIN =F: s2p5                                                              
   LEXCH  = PE                                                                  
   EATOM  =   659.6475 eV,   48.4827 Ry                                         
                                                                                
   TITEL  = PAW_PBE F 08Apr2002                                                 
   LULTRA =        F    use ultrasoft PP ?                                      
   IUNSCR =        1    unscreen: 0-lin 1-nonlin 2-no                           
   RPACOR =    1.200    partial core radius                                     
   POMASS =   18.998; ZVAL   =    7.000    mass and valenz                      
   RCORE  =    1.520    outmost cutoff radius                                   
   RWIGS  =    1.500; RWIGS  =    0.794    wigner-seitz radius (au A)           
   ENMAX  =  400.000; ENMIN  =  300.000 eV                                      
   ICORE  =        2    local potential                                         
   LCOR   =        T    correct aug charges                                     
   LPAW   =        T    paw PP                                                  
   EAUG   =  613.614                                                            
   RMAX   =    1.555    core radius for proj-oper                               
   RAUG   =    1.300    factor for augmentation sphere                          
   RDEP   =    1.539    radius for radial grids                                 
   RDEPT  =    1.299    core radius for aug-charge                              
                                                                                
   Atomic configuration                                                         
    4 entries                                                                   
     n  l   j            E        occ.                                          
     1  0  0.50      -663.3661   2.0000                                         
     2  0  0.50       -29.8995   2.0000                                         
     2  1  0.50       -11.1114   5.0000                                         
     3  2  1.50       -10.8847   0.0000                                         
   Description                                                                  
     l       E           TYP  RCUT    TYP  RCUT                                 
     0    -29.8995018     23  1.200                                             
     0     -9.5240782     23  1.200                                             
     1    -11.1113914     23  1.520                                             
     1      1.3605826     23  1.520                                             
     2    -10.8846608      7  1.500                                             
  local pseudopotential read in
  partial core-charges read in
  partial kinetic energy density read in
  atomic valenz-charges read in
  non local Contribution for L=           0  read in
    real space projection operators read in
  non local Contribution for L=           0  read in
    real space projection operators read in
  non local Contribution for L=           1  read in
    real space projection operators read in
  non local Contribution for L=           1  read in
    real space projection operators read in
    PAW grid and wavefunctions read in
 
   number of l-projection  operators is LMAX  =           4
   number of lm-projection operators is LMMAX =           8
 

 ----------------------------------------------------------------------------- 
|                                                                             |
|  ADVICE TO THIS USER RUNNING 'VASP/VAMP'   (HEAR YOUR MASTER'S VOICE ...):  |
|                                                                             |
|      You enforced a specific xc-type in the INCAR file,                     |
|      a different type was found on the POTCAR file                          |
|          I HOPE YOU KNOW, WHAT YOU ARE  DOING                               |
|                                                                             |
 ----------------------------------------------------------------------------- 

  PAW_PBE Mn_pv 02Aug2007               :
 energy of atom  1       EATOM=-2025.2664
 kinetic energy error for atom=    0.0013 (will be added to EATOM!!)
  PAW_PBE F 08Apr2002                   :
 energy of atom  2       EATOM= -659.6475
 kinetic energy error for atom=    0.0092 (will be added to EATOM!!)
 
 
 POSCAR: Mn  F                                   
  positions in cartesian coordinates
  No initial velocities read in
 exchange correlation table for  LEXCH =       14
   RHO(1)=    0.500       N(1)  =     2000
   RHO(2)=  100.500       N(2)  =     4000
 


--------------------------------------------------------------------------------------------------------


 ion  position               nearest neighbor table
   1  0.500  0.500  0.500-   3 2.10   4 2.10   5 2.13   6 2.13   5 2.13   6 2.13
   2  0.000  0.000  0.000-   5 2.10   6 2.10   3 2.13   4 2.13   3 2.13   4 2.13
   3  0.195  0.805  0.500-   1 2.10   2 2.13   2 2.13
   4  0.805  0.195  0.500-   1 2.10   2 2.13   2 2.13
   5  0.305  0.305  0.000-   2 2.10   1 2.13   1 2.13
   6  0.695  0.695  0.000-   2 2.10   1 2.13   1 2.13
 
  LATTYP: Found a simple tetragonal cell.
 ALAT       =     4.8853443008
 C/A-ratio  =     0.6759320366
  
  Lattice vectors:
  
 A1 = (   4.8853443008,   0.0000000000,   0.0000000000)
 A2 = (   0.0000000000,   4.8853443008,   0.0000000000)
 A3 = (   0.0000000000,   0.0000000000,   3.3021607226)


Analysis of symmetry for initial positions (statically):
=====================================================================
 Subroutine PRICEL returns:
 Original cell was already a primitive cell.
 

 Routine SETGRP: Setting up the symmetry group for a 
 simple tetragonal supercell.


 Subroutine GETGRP returns: Found 16 space group operations
 (whereof  8 operations were pure point group operations)
 out of a pool of 16 trial point group operations.


The static configuration has the point symmetry D_2h.
 The point group associated with its full space group is D_4h.


Analysis of symmetry for dynamics (positions and initial velocities):
=====================================================================
 Subroutine PRICEL returns:
 Original cell was already a primitive cell.
 

 Routine SETGRP: Setting up the symmetry group for a 
 simple tetragonal supercell.


 Subroutine GETGRP returns: Found 16 space group operations
 (whereof  8 operations were pure point group operations)
 out of a pool of 16 trial point group operations.


The dynamic configuration has the point symmetry D_2h.
 The point group associated with its full space group is D_4h.


Analysis of structural, dynamic, and magnetic symmetry:
=====================================================================
 Subroutine PRICEL returns:
 Original cell was already a primitive cell.
 

 Routine SETGRP: Setting up the symmetry group for a 
 simple tetragonal supercell.


 Subroutine GETGRP returns: Found 16 space group operations
 (whereof  8 operations were pure point group operations)
 out of a pool of 16 trial point group operations.


The magnetic configuration has the point symmetry D_2h.
 The point group associated with its full space group is D_4h.


 Subroutine INISYM returns: Found 16 space group operations
 (whereof  8 operations are pure point group operations),
 and found     1 'primitive' translations

 
 
 KPOINTS: KPOINTS created by Atomic Simulation Env

Automatic generation of k-mesh.
Space group operators:
 irot       det(A)        alpha          n_x          n_y          n_z        tau_x        tau_y        tau_z
    1     1.000000     0.000000     1.000000     0.000000     0.000000     0.000000     0.000000     0.000000
    2    -1.000000     0.000000     1.000000     0.000000     0.000000     0.000000     0.000000     0.000000
    3     1.000000   180.000000     0.000000     0.000000     1.000000     0.000000     0.000000     0.000000
    4    -1.000000   180.000000     0.000000     0.000000     1.000000     0.000000     0.000000     0.000000
    5     1.000000   180.000000     0.707107     0.707107     0.000000     0.000000     0.000000     0.000000
    6    -1.000000   180.000000     0.707107     0.707107     0.000000     0.000000     0.000000     0.000000
    7     1.000000   180.000000     0.707107    -0.707107     0.000000     0.000000     0.000000     0.000000
    8    -1.000000   180.000000     0.707107    -0.707107     0.000000     0.000000     0.000000     0.000000
    9     1.000000    90.000000     0.000000     0.000000    -1.000000     0.500000     0.500000     0.500000
   10    -1.000000    90.000000     0.000000     0.000000    -1.000000     0.500000     0.500000     0.500000
   11     1.000000    90.000000     0.000000     0.000000     1.000000     0.500000     0.500000     0.500000
   12    -1.000000    90.000000     0.000000     0.000000     1.000000     0.500000     0.500000     0.500000
   13     1.000000   179.999999     0.000000     1.000000     0.000000     0.500000     0.500000     0.500000
   14    -1.000000   179.999999     0.000000     1.000000     0.000000     0.500000     0.500000     0.500000
   15     1.000000   180.000000     1.000000     0.000000     0.000000     0.500000     0.500000     0.500000
   16    -1.000000   180.000000     1.000000     0.000000     0.000000     0.500000     0.500000     0.500000
 
 Subroutine IBZKPT returns following result:
 ===========================================
 
 Found      9 irreducible k-points:
 
 Following reciprocal coordinates:
            Coordinates               Weight
  0.125000  0.125000  0.083333      8.000000
  0.375000  0.125000  0.083333     16.000000
  0.375000  0.375000  0.083333      8.000000
  0.125000  0.125000  0.250000      8.000000
  0.375000  0.125000  0.250000     16.000000
  0.375000  0.375000  0.250000      8.000000
  0.125000  0.125000  0.416667      8.000000
  0.375000  0.125000  0.416667     16.000000
  0.375000  0.375000  0.416667      8.000000
 
 Following cartesian coordinates:
            Coordinates               Weight
  0.025587  0.025587  0.025236      8.000000
  0.076760  0.025587  0.025236     16.000000
  0.076760  0.076760  0.025236      8.000000
  0.025587  0.025587  0.075708      8.000000
  0.076760  0.025587  0.075708     16.000000
  0.076760  0.076760  0.075708      8.000000
  0.025587  0.025587  0.126180      8.000000
  0.076760  0.025587  0.126180     16.000000
  0.076760  0.076760  0.126180      8.000000
 
 TETIRR: Found    106 inequivalent tetrahedra from      576


--------------------------------------------------------------------------------------------------------




 Dimension of arrays:
   k-points           NKPTS =      9   k-points in BZ     NKDIM =      9   number of bands    NBANDS=     36
   number of dos      NEDOS =    301   number of ions     NIONS =      6
   non local maximal  LDIM  =      6   non local SUM 2l+1 LMDIM =     18
   total plane-waves  NPLWV =  31104
   max r-space proj   IRMAX =      1   max aug-charges    IRDMAX=  95990
   dimension x,y,z NGX =    36 NGY =   36 NGZ =   24
   dimension x,y,z NGXF=    72 NGYF=   72 NGZF=   48
   support grid    NGXF=   144 NGYF=  144 NGZF=   96
   ions per type =               2   4
   NGX,Y,Z   is equivalent  to a cutoff of  12.25, 12.25, 12.08 a.u.
   NGXF,Y,Z  is equivalent  to a cutoff of  24.50, 24.50, 24.17 a.u.

 SYSTEM =  unknown system                          
 POSCAR =  Mn  F                                   

 Startparameter for this run:
   NWRITE =      2    write-flag & timer
   PREC   = normal    normal or accurate (medium, high low for compatibility)
   ISTART =      0    job   : 0-new  1-cont  2-samecut
   ICHARG =      2    charge: 1-file 2-atom 10-const
   ISPIN  =      2    spin polarized calculation?
   LNONCOLLINEAR =      F non collinear calculations
   LSORBIT =      F    spin-orbit coupling
   INIWAV =      1    electr: 0-lowe 1-rand  2-diag
   LASPH  =      T    aspherical Exc in radial PAW
   METAGGA=      F    non-selfconsistent MetaGGA calc.

 Electronic Relaxation 1
   ENCUT  =  750.0 eV  55.12 Ry    7.42 a.u.  10.91 10.91  7.37*2*pi/ulx,y,z
   ENINI  =  750.0     initial cutoff
   ENAUG  =  613.6 eV  augmentation charge cutoff
   NELM   =     60;   NELMIN=  2; NELMDL= -5     # of ELM steps 
   EDIFF  = 0.1E-05   stopping-criterion for ELM
   LREAL  =      F    real-space projection
   NLSPLINE    = F    spline interpolate recip. space projectors
   LCOMPAT=      F    compatible to vasp.4.4
   GGA_COMPAT  = T    GGA compatible to vasp.4.4-vasp.4.6
   LMAXPAW     = -100 max onsite density
   LMAXMIX     =    4 max onsite mixed and CHGCAR
   VOSKOWN=      0    Vosko Wilk Nusair interpolation
   ROPT   =    0.00000   0.00000
 Ionic relaxation
   EDIFFG = 0.1E-04   stopping-criterion for IOM
   NSW    =      0    number of steps for IOM
   NBLOCK =      1;   KBLOCK =      1    inner block; outer block 
   IBRION =     -1    ionic relax: 0-MD 1-quasi-New 2-CG
   NFREE  =      0    steps in history (QN), initial steepest desc. (CG)
   ISIF   =      2    stress and relaxation
   IWAVPR =     10    prediction:  0-non 1-charg 2-wave 3-comb
   ISYM   =      2    0-nonsym 1-usesym 2-fastsym
   LCORR  =      T    Harris-Foulkes like correction to forces

   POTIM  = 0.5000    time-step for ionic-motion
   TEIN   =    0.0    initial temperature
   TEBEG  =    0.0;   TEEND  =   0.0 temperature during run
   SMASS  =  -3.00    Nose mass-parameter (am)
   estimated Nose-frequenzy (Omega)   =  0.10E-29 period in steps =****** mass=  -0.545E-27a.u.
   SCALEE = 1.0000    scale energy and forces
   NPACO  =    256;   APACO  = 16.0  distance and # of slots for P.C.
   PSTRESS=    0.0 pullay stress

  Mass of Ions in am
   POMASS =  54.94 19.00
  Ionic Valenz
   ZVAL   =  13.00  7.00
  Atomic Wigner-Seitz radii
   RWIGS  =  -1.00 -1.00
  virtual crystal weights 
   VCA    =   1.00  1.00
   NELECT =      54.0000    total number of electrons
   NUPDOWN=      -1.0000    fix difference up-down

 DOS related values:
   EMIN   =  10.00;   EMAX   =-10.00  energy-range for DOS
   EFERMI =   0.00
   ISMEAR =    -5;   SIGMA  =   0.20  broadening in eV -4-tet -1-fermi 0-gaus

 Electronic relaxation 2 (details)
   IALGO  =     38    algorithm
   LDIAG  =      T    sub-space diagonalisation (order eigenvalues)
   LSUBROT=      F    optimize rotation matrix (better conditioning)
   TURBO    =      0    0=normal 1=particle mesh
   IRESTART =      0    0=no restart 2=restart with 2 vectors
   NREBOOT  =      0    no. of reboots
   NMIN     =      0    reboot dimension
   EREF     =   0.00    reference energy to select bands
   IMIX   =      4    mixing-type and parameters
     AMIX     =   0.40;   BMIX     =  1.00
     AMIX_MAG =   1.60;   BMIX_MAG =  1.00
     AMIN     =   0.10
     WC   =   100.;   INIMIX=   1;  MIXPRE=   1;  MAXMIX= -45

 Intra band minimization:
   WEIMIN = 0.0000     energy-eigenvalue tresh-hold
   EBREAK =  0.69E-08  absolut break condition
   DEPER  =   0.30     relativ break condition  

   TIME   =   0.40     timestep for ELM

  volume/ion in A,a.u.               =      13.14        88.64
  Fermi-wavevector in a.u.,A,eV,Ry     =   1.443256  2.727357 28.340752  2.082987
  Thomas-Fermi vector in A             =   2.561684
 
 Write flags
   LWAVE        =      T    write WAVECAR
   LDOWNSAMPLE  =      F    k-point downsampling of WAVECAR
   LCHARG       =      T    write CHGCAR
   LVTOT        =      F    write LOCPOT, total local potential
   LVHAR        =      F    write LOCPOT, Hartree potential only
   LELF         =      F    write electronic localiz. function (ELF)
   LORBIT       =     11    0 simple, 1 ext, 2 COOP (PROOUT), +10 PAW based schemes


 Dipole corrections
   LMONO  =      F    monopole corrections only (constant potential shift)
   LDIPOL =      F    correct potential (dipole corrections)
   IDIPOL =      0    1-x, 2-y, 3-z, 4-all directions 
   EPSILON=  1.0000000 bulk dielectric constant

 LDA+U is selected, type is set to LDAUTYPE =  2
   angular momentum for each species LDAUL =     2   -1
   U (eV)           for each species LDAUU =   4.0  0.0
   J (eV)           for each species LDAUJ =   0.0  0.0
 Exchange correlation treatment:
   GGA     =    PS    GGA type
   LEXCH   =    14    internal setting for exchange type
   VOSKOWN=      0    Vosko Wilk Nusair interpolation
   LHFCALC =     F    Hartree Fock is set to
   LHFONE  =     F    Hartree Fock one center treatment
   AEXX    =    0.0000 exact exchange contribution

 Linear response parameters
   LEPSILON=     F    determine dielectric tensor
   LRPA    =     F    only Hartree local field effects (RPA)
   LNABLA  =     F    use nabla operator in PAW spheres
   LVEL    =     F    velocity operator in full k-point grid
   LINTERFAST=   F  fast interpolation
   KINTER  =     0    interpolate to denser k-point grid
   CSHIFT  =0.1000    complex shift for real part using Kramers Kronig
   OMEGAMAX=  -1.0    maximum frequency
   DEG_THRESHOLD= 0.2000000E-02 threshold for treating states as degnerate
   RTIME   =   -0.100 relaxation time in fs
  (WPLASMAI=    0.000 imaginary part of plasma frequency in eV, 0.658/RTIME)
   DFIELD  = 0.0000000 0.0000000 0.0000000 field for delta impulse in time
 
 Orbital magnetization related:
   ORBITALMAG=     F  switch on orbital magnetization
   LCHIMAG   =     F  perturbation theory with respect to B field
   DQ        =  0.001000  dq finite difference perturbation B field
   LLRAUG    =     F  two centre corrections for induced B field



--------------------------------------------------------------------------------------------------------


 Static calculation
 charge density and potential will be updated during run
 spin polarized calculation
 Variant of blocked Davidson
 Davidson routine will perform the subspace rotation
 perform sub-space diagonalisation
    after iterative eigenvector-optimisation
 modified Broyden-mixing scheme, WC =      100.0
 initial mixing is a Kerker type mixing with AMIX =  0.4000 and BMIX =      1.0000
 Hartree-type preconditioning will be used
 using additional bands            9
 reciprocal scheme for non local part
 use partial core corrections
 calculate Harris-corrections to forces 
   (improved forces if not selfconsistent)
 use gradient corrections 
 use of overlap-Matrix (Vanderbilt PP)
 Fermi weights with tetrahedron method with Bloechl corrections


--------------------------------------------------------------------------------------------------------


  energy-cutoff  :      750.00
  volume of cell :       78.81
      direct lattice vectors                 reciprocal lattice vectors
     4.885344301  0.000000000  0.000000000     0.204693864  0.000000000  0.000000000
     0.000000000  4.885344301  0.000000000     0.000000000  0.204693864  0.000000000
     0.000000000  0.000000000  3.302160723     0.000000000  0.000000000  0.302832019

  length of vectors
     4.885344301  4.885344301  3.302160723     0.204693864  0.204693864  0.302832019


 
 k-points in units of 2pi/SCALE and weight: KPOINTS created by Atomic Simulation Env
   0.02558673  0.02558673  0.02523600       0.083
   0.07676020  0.02558673  0.02523600       0.167
   0.07676020  0.07676020  0.02523600       0.083
   0.02558673  0.02558673  0.07570800       0.083
   0.07676020  0.02558673  0.07570800       0.167
   0.07676020  0.07676020  0.07570800       0.083
   0.02558673  0.02558673  0.12618001       0.083
   0.07676020  0.02558673  0.12618001       0.167
   0.07676020  0.07676020  0.12618001       0.083
 
 k-points in reciprocal lattice and weights: KPOINTS created by Atomic Simulation Env
   0.12500000  0.12500000  0.08333333       0.083
   0.37500000  0.12500000  0.08333333       0.167
   0.37500000  0.37500000  0.08333333       0.083
   0.12500000  0.12500000  0.25000000       0.083
   0.37500000  0.12500000  0.25000000       0.167
   0.37500000  0.37500000  0.25000000       0.083
   0.12500000  0.12500000  0.41666667       0.083
   0.37500000  0.12500000  0.41666667       0.167
   0.37500000  0.37500000  0.41666667       0.083
 
 position of ions in fractional coordinates (direct lattice) 
   0.50000000  0.50000000  0.50000000
   0.00000000  0.00000000  0.00000000
   0.19542176  0.80457824  0.50000000
   0.80457824  0.19542176  0.50000000
   0.30457824  0.30457824  0.00000000
   0.69542176  0.69542176  0.00000000
 
 position of ions in cartesian coordinates  (Angst):
   2.44267215  2.44267215  1.65108036
   0.00000000  0.00000000  0.00000000
   0.95470259  3.93064171  1.65108036
   3.93064171  0.95470259  1.65108036
   1.48796956  1.48796956  0.00000000
   3.39737474  3.39737474  0.00000000
 


--------------------------------------------------------------------------------------------------------


 k-point  1 :   0.1250 0.1250 0.0833  plane waves:    3669
 k-point  2 :   0.3750 0.1250 0.0833  plane waves:    3687
 k-point  3 :   0.3750 0.3750 0.0833  plane waves:    3690
 k-point  4 :   0.1250 0.1250 0.2500  plane waves:    3659
 k-point  5 :   0.3750 0.1250 0.2500  plane waves:    3676
 k-point  6 :   0.3750 0.3750 0.2500  plane waves:    3686
 k-point  7 :   0.1250 0.1250 0.4167  plane waves:    3674
 k-point  8 :   0.3750 0.1250 0.4167  plane waves:    3659
 k-point  9 :   0.3750 0.3750 0.4167  plane waves:    3675

 maximum and minimum number of plane-waves per node :      3690     3659

 maximum number of plane-waves:      3690
 maximum index in each direction: 
   IXMAX=   10   IYMAX=   10   IZMAX=    7
   IXMIN=  -11   IYMIN=  -11   IZMIN=   -7


 serial   3D FFT for wavefunctions
 parallel 3D FFT for charge:
    minimum data exchange during FFTs selected (reduces bandwidth)


 total amount of memory used by VASP MPI-rank0    50838. kBytes
=======================================================================

   base      :      30000. kBytes
   nonl-proj :       9934. kBytes
   fftplans  :       3220. kBytes
   grid      :       4243. kBytes
   one-center:        186. kBytes
   wavefun   :       3255. kBytes
 
     INWAV:  cpu time    0.0000: real time    0.0000
 Broyden mixing: mesh for mixing (old mesh)
   NGX = 21   NGY = 21   NGZ = 15
  (NGX  = 72   NGY  = 72   NGZ  = 48)
  gives a total of   6615 points

 initial charge density was supplied:
 charge density of overlapping atoms calculated
 number of electron      54.0000000 magnetization       0.0000000
 keeping initial charge density in first step


--------------------------------------------------------------------------------------------------------


 Maximum index for augmentation-charges         7863 (set IRDMAX)


--------------------------------------------------------------------------------------------------------


 First call to EWALD:  gamma=   0.413
 Maximum number of real-space cells 2x 2x 3
 Maximum number of reciprocal cells 3x 3x 2

    FEWALD:  cpu time    0.0010: real time    0.0010


--------------------------------------- Iteration      1(   1)  ---------------------------------------


    POTLOK:  cpu time    0.0289: real time    0.0289
    SETDIJ:  cpu time    0.3866: real time    0.3866
atom =   1  type =  1  l = 2
 
 onsite density matrix
 
spin component  1
 
  0.2835  0.0000  0.0000  0.0000  0.0000
  0.0000  0.2835  0.0000  0.0000  0.0000
  0.0000  0.0000  0.2835  0.0000  0.0000
  0.0000  0.0000  0.0000  0.2835  0.0000
  0.0000  0.0000  0.0000  0.0000  0.2835
 
spin component  2
 
  0.7694  0.0000  0.0000  0.0000  0.0000
  0.0000  0.7694  0.0000  0.0000  0.0000
  0.0000  0.0000  0.7694  0.0000  0.0000
  0.0000  0.0000  0.0000  0.7694  0.0000
  0.0000  0.0000  0.0000  0.0000  0.7694
 
 occupancies and eigenvectors
 
  o =  0.2835  v =  1.0000  0.0000  0.0000  0.0000  0.0000  0.0000  0.0000  0.0000  0.0000  0.0000      0.0000  0.0000  0.0000  0.0000  0.0000  0.0000  0.0000  0.0000  0.0000  0.0000
  o =  0.2835  v =  0.0000  1.0000  0.0000  0.0000  0.0000  0.0000  0.0000  0.0000  0.0000  0.0000      0.0000  0.0000  0.0000  0.0000  0.0000  0.0000  0.0000  0.0000  0.0000  0.0000
  o =  0.2835  v =  0.0000  0.0000  1.0000  0.0000  0.0000  0.0000  0.0000  0.0000  0.0000  0.0000      0.0000  0.0000  0.0000  0.0000  0.0000  0.0000  0.0000  0.0000  0.0000  0.0000
  o =  0.2835  v =  0.0000  0.0000  0.0000  1.0000  0.0000  0.0000  0.0000  0.0000  0.0000  0.0000      0.0000  0.0000  0.0000  0.0000  0.0000  0.0000  0.0000  0.0000  0.0000  0.0000
  o =  0.2835  v =  0.0000  0.0000  0.0000  0.0000  1.0000  0.0000  0.0000  0.0000  0.0000  0.0000      0.0000  0.0000  0.0000  0.0000  0.0000  0.0000  0.0000  0.0000  0.0000  0.0000
  o =  0.7694  v =  0.0000  0.0000  0.0000  0.0000  0.0000  1.0000  0.0000  0.0000  0.0000  0.0000      0.0000  0.0000  0.0000  0.0000  0.0000  0.0000  0.0000  0.0000  0.0000  0.0000
  o =  0.7694  v =  0.0000  0.0000  0.0000  0.0000  0.0000  0.0000  1.0000  0.0000  0.0000  0.0000      0.0000  0.0000  0.0000  0.0000  0.0000  0.0000  0.0000  0.0000  0.0000  0.0000
  o =  0.7694  v =  0.0000  0.0000  0.0000  0.0000  0.0000  0.0000  0.0000  1.0000  0.0000  0.0000      0.0000  0.0000  0.0000  0.0000  0.0000  0.0000  0.0000  0.0000  0.0000  0.0000
  o =  0.7694  v =  0.0000  0.0000  0.0000  0.0000  0.0000  0.0000  0.0000  0.0000  1.0000  0.0000      0.0000  0.0000  0.0000  0.0000  0.0000  0.0000  0.0000  0.0000  0.0000  0.0000
  o =  0.7694  v =  0.0000  0.0000  0.0000  0.0000  0.0000  0.0000  0.0000  0.0000  0.0000  1.0000      0.0000  0.0000  0.0000  0.0000  0.0000  0.0000  0.0000  0.0000  0.0000  0.0000
atom =   2  type =  1  l = 2
 
 onsite density matrix
 
spin component  1
 
  0.7694  0.0000  0.0000  0.0000  0.0000
  0.0000  0.7694  0.0000  0.0000  0.0000
  0.0000  0.0000  0.7694  0.0000  0.0000
  0.0000  0.0000  0.0000  0.7694  0.0000
  0.0000  0.0000  0.0000  0.0000  0.7694
 
spin component  2
 
  0.2835  0.0000  0.0000  0.0000  0.0000
  0.0000  0.2835  0.0000  0.0000  0.0000
  0.0000  0.0000  0.2835  0.0000  0.0000
  0.0000  0.0000  0.0000  0.2835  0.0000
  0.0000  0.0000  0.0000  0.0000  0.2835
 
 occupancies and eigenvectors
 
  o =  0.2835  v =  0.0000  0.0000  0.0000  0.0000  0.0000  1.0000  0.0000  0.0000  0.0000  0.0000      0.0000  0.0000  0.0000  0.0000  0.0000  0.0000  0.0000  0.0000  0.0000  0.0000
  o =  0.2835  v =  0.0000  0.0000  0.0000  0.0000  0.0000  0.0000  1.0000  0.0000  0.0000  0.0000      0.0000  0.0000  0.0000  0.0000  0.0000  0.0000  0.0000  0.0000  0.0000  0.0000
  o =  0.2835  v =  0.0000  0.0000  0.0000  0.0000  0.0000  0.0000  0.0000  1.0000  0.0000  0.0000      0.0000  0.0000  0.0000  0.0000  0.0000  0.0000  0.0000  0.0000  0.0000  0.0000
  o =  0.2835  v =  0.0000  0.0000  0.0000  0.0000  0.0000  0.0000  0.0000  0.0000  1.0000  0.0000      0.0000  0.0000  0.0000  0.0000  0.0000  0.0000  0.0000  0.0000  0.0000  0.0000
  o =  0.2835  v =  0.0000  0.0000  0.0000  0.0000  0.0000  0.0000  0.0000  0.0000  0.0000  1.0000      0.0000  0.0000  0.0000  0.0000  0.0000  0.0000  0.0000  0.0000  0.0000  0.0000
  o =  0.7694  v =  1.0000  0.0000  0.0000  0.0000  0.0000  0.0000  0.0000  0.0000  0.0000  0.0000      0.0000  0.0000  0.0000  0.0000  0.0000  0.0000  0.0000  0.0000  0.0000  0.0000
  o =  0.7694  v =  0.0000  1.0000  0.0000  0.0000  0.0000  0.0000  0.0000  0.0000  0.0000  0.0000      0.0000  0.0000  0.0000  0.0000  0.0000  0.0000  0.0000  0.0000  0.0000  0.0000
  o =  0.7694  v =  0.0000  0.0000  1.0000  0.0000  0.0000  0.0000  0.0000  0.0000  0.0000  0.0000      0.0000  0.0000  0.0000  0.0000  0.0000  0.0000  0.0000  0.0000  0.0000  0.0000
  o =  0.7694  v =  0.0000  0.0000  0.0000  1.0000  0.0000  0.0000  0.0000  0.0000  0.0000  0.0000      0.0000  0.0000  0.0000  0.0000  0.0000  0.0000  0.0000  0.0000  0.0000  0.0000
  o =  0.7694  v =  0.0000  0.0000  0.0000  0.0000  1.0000  0.0000  0.0000  0.0000  0.0000  0.0000      0.0000  0.0000  0.0000  0.0000  0.0000  0.0000  0.0000  0.0000  0.0000  0.0000
     EDDAV:  cpu time    0.5419: real time    0.5615
 BZINTS: Fermi energy: 19.457570; 54.000000 electrons
         Band energy:  -4.261509;  BLOECHL correction: -0.109470
       DOS:  cpu time    0.0101: real time    0.0101
    --------------------------------------------
      LOOP:  cpu time    0.9675: real time    0.9871

 eigenvalue-minimisations  :  1296
 total energy-change (2. order) : 0.7322274E+03  (-0.3818620E+04)
 number of electron      54.0000000 magnetization       0.0000000
 augmentation part       54.0000000 magnetization       0.0000000

 Free energy of the ion-electron system (eV)
  ---------------------------------------------------
  alpha Z        PSCENC =       195.87907157
  Ewald energy   TEWEN  =     -4176.43754732
  -Hartree energ DENC   =     -2147.58857344
  -exchange      EXHF   =         0.00000000
  -V(xc)+E(xc)   XCENC  =       293.24643726
  PAW double counting   =      5439.83165491    -5546.16339751
  entropy T*S    EENTRO =         0.00000000
  eigenvalues    EBANDS =        -4.26150892
  atomic energy  EATOM  =      6677.72127621
  Solvation  Ediel_sol  =         0.00000000
  ---------------------------------------------------
  free energy    TOTEN  =       732.22741276 eV

  energy without entropy =      732.22741276  energy(sigma->0) =      732.22741276


--------------------------------------------------------------------------------------------------------




--------------------------------------- Iteration      1(   2)  ---------------------------------------


     EDDAV:  cpu time    0.5911: real time    0.5911
 BZINTS: Fermi energy:  3.981195; 54.000000 electrons
         Band energy:-721.142498;  BLOECHL correction:  0.000000
       DOS:  cpu time    0.0018: real time    0.0018
    --------------------------------------------
      LOOP:  cpu time    0.5929: real time    0.5929

 eigenvalue-minimisations  :  1476
 total energy-change (2. order) :-0.7168810E+03  (-0.6925381E+03)
 number of electron      54.0000000 magnetization       0.0000000
 augmentation part       54.0000000 magnetization       0.0000000

 Free energy of the ion-electron system (eV)
  ---------------------------------------------------
  alpha Z        PSCENC =       195.87907157
  Ewald energy   TEWEN  =     -4176.43754732
  -Hartree energ DENC   =     -2147.58857344
  -exchange      EXHF   =         0.00000000
  -V(xc)+E(xc)   XCENC  =       293.24643726
  PAW double counting   =      5439.83165491    -5546.16339751
  entropy T*S    EENTRO =         0.00000000
  eigenvalues    EBANDS =      -721.14249805
  atomic energy  EATOM  =      6677.72127621
  Solvation  Ediel_sol  =         0.00000000
  ---------------------------------------------------
  free energy    TOTEN  =        15.34642363 eV

  energy without entropy =       15.34642363  energy(sigma->0) =       15.34642363


--------------------------------------------------------------------------------------------------------




--------------------------------------- Iteration      1(   3)  ---------------------------------------


     EDDAV:  cpu time    0.5988: real time    0.5989
 BZINTS: Fermi energy:  3.013059; 54.000000 electrons
         Band energy:-775.793292;  BLOECHL correction:  0.000000
       DOS:  cpu time    0.0017: real time    0.0017
    --------------------------------------------
      LOOP:  cpu time    0.6006: real time    0.6006

 eigenvalue-minimisations  :  1488
 total energy-change (2. order) :-0.5465079E+02  (-0.5436735E+02)
 number of electron      54.0000000 magnetization       0.0000000
 augmentation part       54.0000000 magnetization       0.0000000

 Free energy of the ion-electron system (eV)
  ---------------------------------------------------
  alpha Z        PSCENC =       195.87907157
  Ewald energy   TEWEN  =     -4176.43754732
  -Hartree energ DENC   =     -2147.58857344
  -exchange      EXHF   =         0.00000000
  -V(xc)+E(xc)   XCENC  =       293.24643726
  PAW double counting   =      5439.83165491    -5546.16339751
  entropy T*S    EENTRO =         0.00000000
  eigenvalues    EBANDS =      -775.79329204
  atomic energy  EATOM  =      6677.72127621
  Solvation  Ediel_sol  =         0.00000000
  ---------------------------------------------------
  free energy    TOTEN  =       -39.30437036 eV

  energy without entropy =      -39.30437036  energy(sigma->0) =      -39.30437036


--------------------------------------------------------------------------------------------------------




--------------------------------------- Iteration      1(   4)  ---------------------------------------


     EDDAV:  cpu time    0.6028: real time    0.6028
 BZINTS: Fermi energy:  3.040816; 54.000000 electrons
         Band energy:-776.596559;  BLOECHL correction:  0.000000
       DOS:  cpu time    0.0017: real time    0.0017
    --------------------------------------------
      LOOP:  cpu time    0.6045: real time    0.6046

 eigenvalue-minimisations  :  1500
 total energy-change (2. order) :-0.8032665E+00  (-0.8029204E+00)
 number of electron      54.0000000 magnetization       0.0000000
 augmentation part       54.0000000 magnetization       0.0000000

 Free energy of the ion-electron system (eV)
  ---------------------------------------------------
  alpha Z        PSCENC =       195.87907157
  Ewald energy   TEWEN  =     -4176.43754732
  -Hartree energ DENC   =     -2147.58857344
  -exchange      EXHF   =         0.00000000
  -V(xc)+E(xc)   XCENC  =       293.24643726
  PAW double counting   =      5439.83165491    -5546.16339751
  entropy T*S    EENTRO =         0.00000000
  eigenvalues    EBANDS =      -776.59655855
  atomic energy  EATOM  =      6677.72127621
  Solvation  Ediel_sol  =         0.00000000
  ---------------------------------------------------
  free energy    TOTEN  =       -40.10763688 eV

  energy without entropy =      -40.10763688  energy(sigma->0) =      -40.10763688


--------------------------------------------------------------------------------------------------------




--------------------------------------- Iteration      1(   5)  ---------------------------------------


     EDDAV:  cpu time    0.6193: real time    0.6193
 BZINTS: Fermi energy:  3.096759; 54.000000 electrons
         Band energy:-776.609035;  BLOECHL correction:  0.000000
       DOS:  cpu time    0.0020: real time    0.0020
    CHARGE:  cpu time    0.0720: real time    0.0720
    MIXING:  cpu time    0.0008: real time    0.0008
    --------------------------------------------
      LOOP:  cpu time    0.6941: real time    0.6941

 eigenvalue-minimisations  :  1548
 total energy-change (2. order) :-0.1247664E-01  (-0.1247650E-01)
 number of electron      54.0000001 magnetization      -0.0000000
 augmentation part       20.0539451 magnetization      -0.0000000

 Broyden mixing:
  rms(total) = 0.22473E+01    rms(broyden)= 0.22473E+01
  rms(prec ) = 0.30176E+01
  weight for this iteration     100.00

 Free energy of the ion-electron system (eV)
  ---------------------------------------------------
  alpha Z        PSCENC =       195.87907157
  Ewald energy   TEWEN  =     -4176.43754732
  -Hartree energ DENC   =     -2147.58857344
  -exchange      EXHF   =         0.00000000
  -V(xc)+E(xc)   XCENC  =       293.24643726
  PAW double counting   =      5439.83165491    -5546.16339751
  entropy T*S    EENTRO =         0.00000000
  eigenvalues    EBANDS =      -776.60903520
  atomic energy  EATOM  =      6677.72127621
  Solvation  Ediel_sol  =         0.00000000
  ---------------------------------------------------
  free energy    TOTEN  =       -40.12011352 eV

  energy without entropy =      -40.12011352  energy(sigma->0) =      -40.12011352


--------------------------------------------------------------------------------------------------------




--------------------------------------- Iteration      1(   6)  ---------------------------------------


    POTLOK:  cpu time    0.0274: real time    0.0274
    SETDIJ:  cpu time    0.7087: real time    0.7087
atom =   1  type =  1  l = 2
 
 onsite density matrix
 
spin component  1
 
 -0.0783  0.0000  0.0027  0.0000 -0.0000
  0.0000 -0.0807  0.0000  0.0019  0.0000
  0.0027  0.0000 -0.0786  0.0000 -0.0000
  0.0000  0.0019  0.0000 -0.0807  0.0000
 -0.0000  0.0000 -0.0000  0.0000 -0.0851
 
spin component  2
 
  1.1020  0.0000  0.0137  0.0000  0.0000
  0.0000  1.0997  0.0000  0.0122  0.0000
  0.0137  0.0000  1.0934  0.0000  0.0000
  0.0000  0.0122  0.0000  1.0997  0.0000
  0.0000  0.0000  0.0000  0.0000  1.0894
 
 occupancies and eigenvectors
 
  o = -0.0851  v = -0.0000 -0.0000  0.0000  0.0000  1.0000  0.0000  0.0000  0.0000  0.0000  0.0000      0.0000  0.0000  0.0000  0.0000  0.0000  0.0000  0.0000  0.0000  0.0000  0.0000
  o = -0.0827  v =  0.0000  0.7071 -0.0000 -0.7071  0.0000  0.0000  0.0000  0.0000  0.0000  0.0000      0.0000  0.0000  0.0000  0.0000  0.0000  0.0000  0.0000  0.0000  0.0000  0.0000
  o = -0.0811  v =  0.6874 -0.0000 -0.7262  0.0000  0.0000  0.0000  0.0000  0.0000  0.0000  0.0000      0.0000  0.0000  0.0000  0.0000  0.0000  0.0000  0.0000  0.0000  0.0000  0.0000
  o = -0.0788  v =  0.0000 -0.7071 -0.0000 -0.7071 -0.0000  0.0000  0.0000  0.0000  0.0000  0.0000      0.0000  0.0000  0.0000  0.0000  0.0000  0.0000  0.0000  0.0000  0.0000  0.0000
  o = -0.0757  v =  0.7262  0.0000  0.6874  0.0000 -0.0000  0.0000  0.0000  0.0000  0.0000  0.0000      0.0000  0.0000  0.0000  0.0000  0.0000  0.0000  0.0000  0.0000  0.0000  0.0000
  o =  1.0833  v =  0.0000  0.0000  0.0000  0.0000  0.0000 -0.5925  0.0000  0.8055  0.0000  0.0000      0.0000  0.0000  0.0000  0.0000  0.0000  0.0000  0.0000  0.0000  0.0000  0.0000
  o =  1.0874  v =  0.0000  0.0000  0.0000  0.0000  0.0000  0.0000 -0.7071  0.0000  0.7071 -0.0000      0.0000  0.0000  0.0000  0.0000  0.0000  0.0000  0.0000  0.0000  0.0000  0.0000
  o =  1.0894  v =  0.0000  0.0000  0.0000  0.0000  0.0000  0.0000 -0.0000 -0.0000  0.0000  1.0000      0.0000  0.0000  0.0000  0.0000  0.0000  0.0000  0.0000  0.0000  0.0000  0.0000
  o =  1.1119  v =  0.0000  0.0000  0.0000  0.0000  0.0000  0.0000 -0.7071 -0.0000 -0.7071  0.0000      0.0000  0.0000  0.0000  0.0000  0.0000  0.0000  0.0000  0.0000  0.0000  0.0000
  o =  1.1121  v =  0.0000  0.0000  0.0000  0.0000  0.0000 -0.8055  0.0000 -0.5925  0.0000 -0.0000      0.0000  0.0000  0.0000  0.0000  0.0000  0.0000  0.0000  0.0000  0.0000  0.0000
atom =   2  type =  1  l = 2
 
 onsite density matrix
 
spin component  1
 
  1.1020  0.0000 -0.0137  0.0000  0.0000
  0.0000  1.0997  0.0000 -0.0122  0.0000
 -0.0137  0.0000  1.0934  0.0000 -0.0000
  0.0000 -0.0122  0.0000  1.0997  0.0000
  0.0000  0.0000 -0.0000  0.0000  1.0894
 
spin component  2
 
 -0.0783  0.0000 -0.0027  0.0000 -0.0000
  0.0000 -0.0807  0.0000 -0.0019  0.0000
 -0.0027  0.0000 -0.0786  0.0000  0.0000
  0.0000 -0.0019  0.0000 -0.0807  0.0000
 -0.0000  0.0000  0.0000  0.0000 -0.0851
 
 occupancies and eigenvectors
 
  o = -0.0851  v =  0.0000  0.0000  0.0000  0.0000  0.0000  0.0000  0.0000  0.0000  0.0000 -1.0000      0.0000  0.0000  0.0000  0.0000  0.0000  0.0000  0.0000  0.0000  0.0000  0.0000
  o = -0.0827  v =  0.0000  0.0000  0.0000  0.0000  0.0000  0.0000 -0.7071  0.0000 -0.7071 -0.0000      0.0000  0.0000  0.0000  0.0000  0.0000  0.0000  0.0000  0.0000  0.0000  0.0000
  o = -0.0811  v =  0.0000  0.0000  0.0000  0.0000  0.0000  0.6874  0.0000  0.7262  0.0000  0.0000      0.0000  0.0000  0.0000  0.0000  0.0000  0.0000  0.0000  0.0000  0.0000  0.0000
  o = -0.0788  v =  0.0000  0.0000  0.0000  0.0000  0.0000 -0.0000 -0.7071 -0.0000  0.7071 -0.0000      0.0000  0.0000  0.0000  0.0000  0.0000  0.0000  0.0000  0.0000  0.0000  0.0000
  o = -0.0757  v =  0.0000  0.0000  0.0000  0.0000  0.0000  0.7262 -0.0000 -0.6874  0.0000 -0.0000      0.0000  0.0000  0.0000  0.0000  0.0000  0.0000  0.0000  0.0000  0.0000  0.0000
  o =  1.0833  v = -0.5925  0.0000 -0.8055  0.0000  0.0000  0.0000  0.0000  0.0000  0.0000  0.0000      0.0000  0.0000  0.0000  0.0000  0.0000  0.0000  0.0000  0.0000  0.0000  0.0000
  o =  1.0874  v =  0.0000 -0.7071 -0.0000 -0.7071 -0.0000  0.0000  0.0000  0.0000  0.0000  0.0000      0.0000  0.0000  0.0000  0.0000  0.0000  0.0000  0.0000  0.0000  0.0000  0.0000
  o =  1.0894  v =  0.0000 -0.0000  0.0000 -0.0000  1.0000  0.0000  0.0000  0.0000  0.0000  0.0000      0.0000  0.0000  0.0000  0.0000  0.0000  0.0000  0.0000  0.0000  0.0000  0.0000
  o =  1.1119  v =  0.0000 -0.7071  0.0000  0.7071  0.0000  0.0000  0.0000  0.0000  0.0000  0.0000      0.0000  0.0000  0.0000  0.0000  0.0000  0.0000  0.0000  0.0000  0.0000  0.0000
  o =  1.1121  v = -0.8055  0.0000  0.5925  0.0000 -0.0000  0.0000  0.0000  0.0000  0.0000  0.0000      0.0000  0.0000  0.0000  0.0000  0.0000  0.0000  0.0000  0.0000  0.0000  0.0000
     EDDAV:  cpu time    0.6312: real time    0.6312
 BZINTS: Fermi energy:  1.247662; 54.000000 electrons
         Band energy:-764.181156;  BLOECHL correction:  0.000000
       DOS:  cpu time    0.0020: real time    0.0020
    CHARGE:  cpu time    0.0725: real time    0.0725
    MIXING:  cpu time    0.0008: real time    0.0008
    --------------------------------------------
      LOOP:  cpu time    1.4427: real time    1.4427

 eigenvalue-minimisations  :  1596
 total energy-change (2. order) : 0.1889564E+01  (-0.1556655E+01)
 number of electron      54.0000001 magnetization       0.0000000
 augmentation part       19.9238601 magnetization       0.0000000

 Broyden mixing:
  rms(total) = 0.14247E+01    rms(broyden)= 0.14246E+01
  rms(prec ) = 0.14894E+01
  weight for this iteration     100.00

 eigenvalues of (default mixing * dielectric matrix)
  average eigenvalue GAMMA=   0.7877
  0.7877

 Free energy of the ion-electron system (eV)
  ---------------------------------------------------
  alpha Z        PSCENC =       195.87907157
  Ewald energy   TEWEN  =     -4176.43754732
  -Hartree energ DENC   =     -2167.76447842
  -exchange      EXHF   =         0.00000000
  -V(xc)+E(xc)   XCENC  =       293.69155969
  PAW double counting   =      5691.66375392    -5788.80302979
  entropy T*S    EENTRO =         0.00000000
  eigenvalues    EBANDS =      -764.18115582
  atomic energy  EATOM  =      6677.72127621
  Solvation  Ediel_sol  =         0.00000000
  ---------------------------------------------------
  free energy    TOTEN  =       -38.23054996 eV

  energy without entropy =      -38.23054996  energy(sigma->0) =      -38.23054996


--------------------------------------------------------------------------------------------------------




--------------------------------------- Iteration      1(   7)  ---------------------------------------


    POTLOK:  cpu time    0.0272: real time    0.0272
    SETDIJ:  cpu time    0.7081: real time    0.7081
atom =   1  type =  1  l = 2
 
 onsite density matrix
 
spin component  1
 
  0.1155  0.0000  0.0189  0.0000  0.0000
  0.0000  0.1096  0.0000  0.0161  0.0000
  0.0189  0.0000  0.1049  0.0000 -0.0000
  0.0000  0.0161  0.0000  0.1096  0.0000
  0.0000  0.0000 -0.0000  0.0000  0.0926
 
spin component  2
 
  0.9012  0.0000  0.0067  0.0000 -0.0000
  0.0000  0.8995  0.0000  0.0059  0.0000
  0.0067  0.0000  0.8978  0.0000  0.0000
  0.0000  0.0059  0.0000  0.8995  0.0000
 -0.0000  0.0000  0.0000  0.0000  0.8935
 
 occupancies and eigenvectors
 
  o =  0.0906  v = -0.6050 -0.0000  0.7962  0.0000  0.0000  0.0000  0.0000  0.0000  0.0000  0.0000      0.0000  0.0000  0.0000  0.0000  0.0000  0.0000  0.0000  0.0000  0.0000  0.0000
  o =  0.0926  v = -0.0000  0.0000  0.0000  0.0000 -1.0000  0.0000  0.0000  0.0000  0.0000  0.0000      0.0000  0.0000  0.0000  0.0000  0.0000  0.0000  0.0000  0.0000  0.0000  0.0000
  o =  0.0935  v =  0.0000  0.7071  0.0000 -0.7071  0.0000  0.0000  0.0000  0.0000  0.0000  0.0000      0.0000  0.0000  0.0000  0.0000  0.0000  0.0000  0.0000  0.0000  0.0000  0.0000
  o =  0.1258  v =  0.0000  0.7071  0.0000  0.7071  0.0000  0.0000  0.0000  0.0000  0.0000  0.0000      0.0000  0.0000  0.0000  0.0000  0.0000  0.0000  0.0000  0.0000  0.0000  0.0000
  o =  0.1298  v = -0.7962 -0.0000 -0.6050  0.0000  0.0000  0.0000  0.0000  0.0000  0.0000  0.0000      0.0000  0.0000  0.0000  0.0000  0.0000  0.0000  0.0000  0.0000  0.0000  0.0000
  o =  0.8926  v =  0.0000  0.0000  0.0000  0.0000  0.0000 -0.6110  0.0000  0.7916  0.0000 -0.0000      0.0000  0.0000  0.0000  0.0000  0.0000  0.0000  0.0000  0.0000  0.0000  0.0000
  o =  0.8935  v =  0.0000  0.0000  0.0000  0.0000  0.0000  0.0000  0.0000  0.0000 -0.0000  1.0000      0.0000  0.0000  0.0000  0.0000  0.0000  0.0000  0.0000  0.0000  0.0000  0.0000
  o =  0.8937  v =  0.0000  0.0000  0.0000  0.0000  0.0000  0.0000 -0.7071  0.0000  0.7071  0.0000      0.0000  0.0000  0.0000  0.0000  0.0000  0.0000  0.0000  0.0000  0.0000  0.0000
  o =  0.9054  v =  0.0000  0.0000  0.0000  0.0000  0.0000  0.0000 -0.7071  0.0000 -0.7071  0.0000      0.0000  0.0000  0.0000  0.0000  0.0000  0.0000  0.0000  0.0000  0.0000  0.0000
  o =  0.9064  v =  0.0000  0.0000  0.0000  0.0000  0.0000 -0.7916  0.0000 -0.6110  0.0000  0.0000      0.0000  0.0000  0.0000  0.0000  0.0000  0.0000  0.0000  0.0000  0.0000  0.0000
atom =   2  type =  1  l = 2
 
 onsite density matrix
 
spin component  1
 
  0.9012  0.0000 -0.0067  0.0000 -0.0000
  0.0000  0.8995  0.0000 -0.0059  0.0000
 -0.0067  0.0000  0.8978  0.0000  0.0000
  0.0000 -0.0059  0.0000  0.8995  0.0000
 -0.0000  0.0000  0.0000  0.0000  0.8935
 
spin component  2
 
  0.1155  0.0000 -0.0189  0.0000  0.0000
  0.0000  0.1096  0.0000 -0.0161  0.0000
 -0.0189  0.0000  0.1049  0.0000 -0.0000
  0.0000 -0.0161  0.0000  0.1096  0.0000
  0.0000  0.0000 -0.0000  0.0000  0.0926
 
 occupancies and eigenvectors
 
  o =  0.0906  v =  0.0000  0.0000  0.0000  0.0000  0.0000 -0.6050  0.0000 -0.7962  0.0000 -0.0000      0.0000  0.0000  0.0000  0.0000  0.0000  0.0000  0.0000  0.0000  0.0000  0.0000
  o =  0.0926  v =  0.0000  0.0000  0.0000  0.0000  0.0000 -0.0000 -0.0000 -0.0000  0.0000  1.0000      0.0000  0.0000  0.0000  0.0000  0.0000  0.0000  0.0000  0.0000  0.0000  0.0000
  o =  0.0935  v =  0.0000  0.0000  0.0000  0.0000  0.0000  0.0000 -0.7071  0.0000 -0.7071 -0.0000      0.0000  0.0000  0.0000  0.0000  0.0000  0.0000  0.0000  0.0000  0.0000  0.0000
  o =  0.1258  v =  0.0000  0.0000  0.0000  0.0000  0.0000  0.0000  0.7071  0.0000 -0.7071  0.0000      0.0000  0.0000  0.0000  0.0000  0.0000  0.0000  0.0000  0.0000  0.0000  0.0000
  o =  0.1298  v =  0.0000  0.0000  0.0000  0.0000  0.0000 -0.7962  0.0000  0.6050  0.0000 -0.0000      0.0000  0.0000  0.0000  0.0000  0.0000  0.0000  0.0000  0.0000  0.0000  0.0000
  o =  0.8926  v = -0.6110  0.0000 -0.7916  0.0000  0.0000  0.0000  0.0000  0.0000  0.0000  0.0000      0.0000  0.0000  0.0000  0.0000  0.0000  0.0000  0.0000  0.0000  0.0000  0.0000
  o =  0.8935  v = -0.0000 -0.0000 -0.0000  0.0000 -1.0000  0.0000  0.0000  0.0000  0.0000  0.0000      0.0000  0.0000  0.0000  0.0000  0.0000  0.0000  0.0000  0.0000  0.0000  0.0000
  o =  0.8937  v =  0.0000  0.7071  0.0000  0.7071 -0.0000  0.0000  0.0000  0.0000  0.0000  0.0000      0.0000  0.0000  0.0000  0.0000  0.0000  0.0000  0.0000  0.0000  0.0000  0.0000
  o =  0.9054  v =  0.0000 -0.7071  0.0000  0.7071  0.0000  0.0000  0.0000  0.0000  0.0000  0.0000      0.0000  0.0000  0.0000  0.0000  0.0000  0.0000  0.0000  0.0000  0.0000  0.0000
  o =  0.9064  v = -0.7916  0.0000  0.6110  0.0000  0.0000  0.0000  0.0000  0.0000  0.0000  0.0000      0.0000  0.0000  0.0000  0.0000  0.0000  0.0000  0.0000  0.0000  0.0000  0.0000
     EDDAV:  cpu time    0.6226: real time    0.6226
 BZINTS: Fermi energy:  1.560407; 54.000000 electrons
         Band energy:-760.090824;  BLOECHL correction:  0.000000
       DOS:  cpu time    0.0018: real time    0.0018
    CHARGE:  cpu time    0.0725: real time    0.0725
    MIXING:  cpu time    0.0009: real time    0.0009
    --------------------------------------------
      LOOP:  cpu time    1.4331: real time    1.4331

 eigenvalue-minimisations  :  1560
 total energy-change (2. order) :-0.7179291E+00  (-0.1833230E+00)
 number of electron      54.0000001 magnetization      -0.0000000
 augmentation part       19.9201946 magnetization      -0.0000000

 Broyden mixing:
  rms(total) = 0.11254E+01    rms(broyden)= 0.11254E+01
  rms(prec ) = 0.11595E+01
  weight for this iteration     100.00

 eigenvalues of (default mixing * dielectric matrix)
  average eigenvalue GAMMA=   1.4002
  0.6944  2.1061

 Free energy of the ion-electron system (eV)
  ---------------------------------------------------
  alpha Z        PSCENC =       195.87907157
  Ewald energy   TEWEN  =     -4176.43754732
  -Hartree energ DENC   =     -2163.36080731
  -exchange      EXHF   =         0.00000000
  -V(xc)+E(xc)   XCENC  =       294.24583678
  PAW double counting   =      5913.38296190    -6020.28844648
  entropy T*S    EENTRO =         0.00000000
  eigenvalues    EBANDS =      -760.09082441
  atomic energy  EATOM  =      6677.72127621
  Solvation  Ediel_sol  =         0.00000000
  ---------------------------------------------------
  free energy    TOTEN  =       -38.94847906 eV

  energy without entropy =      -38.94847906  energy(sigma->0) =      -38.94847906


--------------------------------------------------------------------------------------------------------




--------------------------------------- Iteration      1(   8)  ---------------------------------------


    POTLOK:  cpu time    0.0274: real time    0.0274
    SETDIJ:  cpu time    0.7087: real time    0.7087
atom =   1  type =  1  l = 2
 
 onsite density matrix
 
spin component  1
 
 -0.0141  0.0000  0.0195  0.0000 -0.0000
  0.0000 -0.0203  0.0000  0.0159  0.0000
  0.0195  0.0000 -0.0235  0.0000 -0.0000
  0.0000  0.0159  0.0000 -0.0203  0.0000
 -0.0000  0.0000 -0.0000  0.0000 -0.0393
 
spin component  2
 
  1.0299  0.0000  0.0171  0.0000  0.0000
  0.0000  1.0251  0.0000  0.0157  0.0000
  0.0171  0.0000  1.0188  0.0000 -0.0000
  0.0000  0.0157  0.0000  1.0251  0.0000
  0.0000  0.0000 -0.0000  0.0000  1.0107
 
 occupancies and eigenvectors
 
  o = -0.0393  v =  0.0000 -0.0000 -0.0000  0.0000 -1.0000  0.0000  0.0000  0.0000  0.0000  0.0000      0.0000  0.0000  0.0000  0.0000  0.0000  0.0000  0.0000  0.0000  0.0000  0.0000
  o = -0.0388  v = -0.6190 -0.0000  0.7854  0.0000 -0.0000  0.0000  0.0000  0.0000  0.0000  0.0000      0.0000  0.0000  0.0000  0.0000  0.0000  0.0000  0.0000  0.0000  0.0000  0.0000
  o = -0.0363  v =  0.0000  0.7071  0.0000 -0.7071 -0.0000  0.0000  0.0000  0.0000  0.0000  0.0000      0.0000  0.0000  0.0000  0.0000  0.0000  0.0000  0.0000  0.0000  0.0000  0.0000
  o = -0.0044  v =  0.0000 -0.7071  0.0000 -0.7071  0.0000  0.0000  0.0000  0.0000  0.0000  0.0000      0.0000  0.0000  0.0000  0.0000  0.0000  0.0000  0.0000  0.0000  0.0000  0.0000
  o =  0.0013  v =  0.7854 -0.0000  0.6190  0.0000 -0.0000  0.0000  0.0000  0.0000  0.0000  0.0000      0.0000  0.0000  0.0000  0.0000  0.0000  0.0000  0.0000  0.0000  0.0000  0.0000
  o =  1.0064  v =  0.0000  0.0000  0.0000  0.0000  0.0000 -0.5887 -0.0000  0.8084  0.0000  0.0000      0.0000  0.0000  0.0000  0.0000  0.0000  0.0000  0.0000  0.0000  0.0000  0.0000
  o =  1.0094  v =  0.0000  0.0000  0.0000  0.0000  0.0000 -0.0000  0.7071  0.0000 -0.7071 -0.0000      0.0000  0.0000  0.0000  0.0000  0.0000  0.0000  0.0000  0.0000  0.0000  0.0000
  o =  1.0107  v =  0.0000  0.0000  0.0000  0.0000  0.0000  0.0000  0.0000 -0.0000 -0.0000  1.0000      0.0000  0.0000  0.0000  0.0000  0.0000  0.0000  0.0000  0.0000  0.0000  0.0000
  o =  1.0408  v =  0.0000  0.0000  0.0000  0.0000  0.0000 -0.0000  0.7071 -0.0000  0.7071 -0.0000      0.0000  0.0000  0.0000  0.0000  0.0000  0.0000  0.0000  0.0000  0.0000  0.0000
  o =  1.0423  v =  0.0000  0.0000  0.0000  0.0000  0.0000 -0.8084 -0.0000 -0.5887 -0.0000  0.0000      0.0000  0.0000  0.0000  0.0000  0.0000  0.0000  0.0000  0.0000  0.0000  0.0000
atom =   2  type =  1  l = 2
 
 onsite density matrix
 
spin component  1
 
  1.0299  0.0000 -0.0171  0.0000  0.0000
  0.0000  1.0251  0.0000 -0.0157  0.0000
 -0.0171  0.0000  1.0188  0.0000 -0.0000
  0.0000 -0.0157  0.0000  1.0251  0.0000
  0.0000  0.0000 -0.0000  0.0000  1.0107
 
spin component  2
 
 -0.0141  0.0000 -0.0195  0.0000  0.0000
  0.0000 -0.0203  0.0000 -0.0159  0.0000
 -0.0195  0.0000 -0.0235  0.0000  0.0000
  0.0000 -0.0159  0.0000 -0.0203  0.0000
  0.0000  0.0000  0.0000  0.0000 -0.0393
 
 occupancies and eigenvectors
 
  o = -0.0393  v =  0.0000  0.0000  0.0000  0.0000  0.0000 -0.0000 -0.0000 -0.0000 -0.0000  1.0000      0.0000  0.0000  0.0000  0.0000  0.0000  0.0000  0.0000  0.0000  0.0000  0.0000
  o = -0.0388  v =  0.0000  0.0000  0.0000  0.0000  0.0000  0.6190  0.0000  0.7854  0.0000  0.0000      0.0000  0.0000  0.0000  0.0000  0.0000  0.0000  0.0000  0.0000  0.0000  0.0000
  o = -0.0363  v =  0.0000  0.0000  0.0000  0.0000  0.0000  0.0000 -0.7071  0.0000 -0.7071 -0.0000      0.0000  0.0000  0.0000  0.0000  0.0000  0.0000  0.0000  0.0000  0.0000  0.0000
  o = -0.0044  v =  0.0000  0.0000  0.0000  0.0000  0.0000 -0.0000  0.7071  0.0000 -0.7071  0.0000      0.0000  0.0000  0.0000  0.0000  0.0000  0.0000  0.0000  0.0000  0.0000  0.0000
  o =  0.0013  v =  0.0000  0.0000  0.0000  0.0000  0.0000  0.7854  0.0000 -0.6190 -0.0000 -0.0000      0.0000  0.0000  0.0000  0.0000  0.0000  0.0000  0.0000  0.0000  0.0000  0.0000
  o =  1.0064  v = -0.5887  0.0000 -0.8084  0.0000 -0.0000  0.0000  0.0000  0.0000  0.0000  0.0000      0.0000  0.0000  0.0000  0.0000  0.0000  0.0000  0.0000  0.0000  0.0000  0.0000
  o =  1.0094  v =  0.0000  0.7071  0.0000  0.7071  0.0000  0.0000  0.0000  0.0000  0.0000  0.0000      0.0000  0.0000  0.0000  0.0000  0.0000  0.0000  0.0000  0.0000  0.0000  0.0000
  o =  1.0107  v = -0.0000 -0.0000 -0.0000 -0.0000  1.0000  0.0000  0.0000  0.0000  0.0000  0.0000      0.0000  0.0000  0.0000  0.0000  0.0000  0.0000  0.0000  0.0000  0.0000  0.0000
  o =  1.0408  v = -0.0000 -0.7071  0.0000  0.7071  0.0000  0.0000  0.0000  0.0000  0.0000  0.0000      0.0000  0.0000  0.0000  0.0000  0.0000  0.0000  0.0000  0.0000  0.0000  0.0000
  o =  1.0423  v = -0.8084  0.0000  0.5887 -0.0000 -0.0000  0.0000  0.0000  0.0000  0.0000  0.0000      0.0000  0.0000  0.0000  0.0000  0.0000  0.0000  0.0000  0.0000  0.0000  0.0000
     EDDAV:  cpu time    0.6015: real time    0.6015
 BZINTS: Fermi energy:  1.179538; 54.000000 electrons
         Band energy:-767.074198;  BLOECHL correction:  0.000000
       DOS:  cpu time    0.0020: real time    0.0020
    CHARGE:  cpu time    0.0733: real time    0.0733
    MIXING:  cpu time    0.0009: real time    0.0009
    --------------------------------------------
      LOOP:  cpu time    1.4138: real time    1.4138

 eigenvalue-minimisations  :  1488
 total energy-change (2. order) :-0.6302262E-01  (-0.4163234E-01)
 number of electron      54.0000001 magnetization      -0.0000000
 augmentation part       19.9518724 magnetization      -0.0000000

 Broyden mixing:
  rms(total) = 0.52244E+00    rms(broyden)= 0.52244E+00
  rms(prec ) = 0.54683E+00
  weight for this iteration     100.00

 eigenvalues of (default mixing * dielectric matrix)
  average eigenvalue GAMMA=   1.1900
  2.0836  0.8866  0.5999

 Free energy of the ion-electron system (eV)
  ---------------------------------------------------
  alpha Z        PSCENC =       195.87907157
  Ewald energy   TEWEN  =     -4176.43754732
  -Hartree energ DENC   =     -2158.70014272
  -exchange      EXHF   =         0.00000000
  -V(xc)+E(xc)   XCENC  =       293.75412343
  PAW double counting   =      6124.17506511    -6228.32914991
  entropy T*S    EENTRO =         0.00000000
  eigenvalues    EBANDS =      -767.07419805
  atomic energy  EATOM  =      6677.72127621
  Solvation  Ediel_sol  =         0.00000000
  ---------------------------------------------------
  free energy    TOTEN  =       -39.01150168 eV

  energy without entropy =      -39.01150168  energy(sigma->0) =      -39.01150168


--------------------------------------------------------------------------------------------------------




--------------------------------------- Iteration      1(   9)  ---------------------------------------


    POTLOK:  cpu time    0.0278: real time    0.0278
    SETDIJ:  cpu time    0.7075: real time    0.7075
atom =   1  type =  1  l = 2
 
 onsite density matrix
 
spin component  1
 
  0.0379  0.0000  0.0232  0.0000  0.0000
  0.0000  0.0302  0.0000  0.0201  0.0000
  0.0232  0.0000  0.0251  0.0000 -0.0000
  0.0000  0.0201  0.0000  0.0302  0.0000
  0.0000  0.0000 -0.0000  0.0000  0.0082
 
spin component  2
 
  0.9758  0.0000  0.0212  0.0000 -0.0000
  0.0000  0.9699  0.0000  0.0185  0.0000
  0.0212  0.0000  0.9636  0.0000 -0.0000
  0.0000  0.0185  0.0000  0.9699  0.0000
 -0.0000  0.0000 -0.0000  0.0000  0.9513
 
 occupancies and eigenvectors
 
  o =  0.0074  v = -0.6059 -0.0000  0.7956  0.0000  0.0000  0.0000  0.0000  0.0000  0.0000  0.0000      0.0000  0.0000  0.0000  0.0000  0.0000  0.0000  0.0000  0.0000  0.0000  0.0000
  o =  0.0082  v = -0.0000  0.0000  0.0000  0.0000 -1.0000  0.0000  0.0000  0.0000  0.0000  0.0000      0.0000  0.0000  0.0000  0.0000  0.0000  0.0000  0.0000  0.0000  0.0000  0.0000
  o =  0.0102  v =  0.0000  0.7071  0.0000 -0.7071  0.0000  0.0000  0.0000  0.0000  0.0000  0.0000      0.0000  0.0000  0.0000  0.0000  0.0000  0.0000  0.0000  0.0000  0.0000  0.0000
  o =  0.0503  v =  0.0000  0.7071  0.0000  0.7071  0.0000  0.0000  0.0000  0.0000  0.0000  0.0000      0.0000  0.0000  0.0000  0.0000  0.0000  0.0000  0.0000  0.0000  0.0000  0.0000
  o =  0.0555  v = -0.7956 -0.0000 -0.6059  0.0000  0.0000  0.0000  0.0000  0.0000  0.0000  0.0000      0.0000  0.0000  0.0000  0.0000  0.0000  0.0000  0.0000  0.0000  0.0000  0.0000
  o =  0.9476  v =  0.0000  0.0000  0.0000  0.0000  0.0000 -0.6011 -0.0000  0.7992  0.0000  0.0000      0.0000  0.0000  0.0000  0.0000  0.0000  0.0000  0.0000  0.0000  0.0000  0.0000
  o =  0.9513  v =  0.0000  0.0000  0.0000  0.0000  0.0000 -0.0000  0.0000  0.0000  0.0000 -1.0000      0.0000  0.0000  0.0000  0.0000  0.0000  0.0000  0.0000  0.0000  0.0000  0.0000
  o =  0.9514  v =  0.0000  0.0000  0.0000  0.0000  0.0000  0.0000  0.7071  0.0000 -0.7071  0.0000      0.0000  0.0000  0.0000  0.0000  0.0000  0.0000  0.0000  0.0000  0.0000  0.0000
  o =  0.9884  v =  0.0000  0.0000  0.0000  0.0000  0.0000  0.0000  0.7071  0.0000  0.7071  0.0000      0.0000  0.0000  0.0000  0.0000  0.0000  0.0000  0.0000  0.0000  0.0000  0.0000
  o =  0.9918  v =  0.0000  0.0000  0.0000  0.0000  0.0000 -0.7992  0.0000 -0.6011  0.0000  0.0000      0.0000  0.0000  0.0000  0.0000  0.0000  0.0000  0.0000  0.0000  0.0000  0.0000
atom =   2  type =  1  l = 2
 
 onsite density matrix
 
spin component  1
 
  0.9758  0.0000 -0.0212  0.0000 -0.0000
  0.0000  0.9699  0.0000 -0.0185  0.0000
 -0.0212  0.0000  0.9636  0.0000 -0.0000
  0.0000 -0.0185  0.0000  0.9699  0.0000
 -0.0000  0.0000 -0.0000  0.0000  0.9513
 
spin component  2
 
  0.0379  0.0000 -0.0232  0.0000  0.0000
  0.0000  0.0302  0.0000 -0.0201  0.0000
 -0.0232  0.0000  0.0251  0.0000  0.0000
  0.0000 -0.0201  0.0000  0.0302  0.0000
  0.0000  0.0000  0.0000  0.0000  0.0082
 
 occupancies and eigenvectors
 
  o =  0.0074  v =  0.0000  0.0000  0.0000  0.0000  0.0000 -0.6059 -0.0000 -0.7956  0.0000  0.0000      0.0000  0.0000  0.0000  0.0000  0.0000  0.0000  0.0000  0.0000  0.0000  0.0000
  o =  0.0082  v =  0.0000  0.0000  0.0000  0.0000  0.0000 -0.0000  0.0000 -0.0000  0.0000 -1.0000      0.0000  0.0000  0.0000  0.0000  0.0000  0.0000  0.0000  0.0000  0.0000  0.0000
  o =  0.0102  v =  0.0000  0.0000  0.0000  0.0000  0.0000  0.0000  0.7071  0.0000  0.7071  0.0000      0.0000  0.0000  0.0000  0.0000  0.0000  0.0000  0.0000  0.0000  0.0000  0.0000
  o =  0.0503  v =  0.0000  0.0000  0.0000  0.0000  0.0000  0.0000  0.7071  0.0000 -0.7071  0.0000      0.0000  0.0000  0.0000  0.0000  0.0000  0.0000  0.0000  0.0000  0.0000  0.0000
  o =  0.0555  v =  0.0000  0.0000  0.0000  0.0000  0.0000 -0.7956 -0.0000  0.6059  0.0000  0.0000      0.0000  0.0000  0.0000  0.0000  0.0000  0.0000  0.0000  0.0000  0.0000  0.0000
  o =  0.9476  v = -0.6011 -0.0000 -0.7992  0.0000 -0.0000  0.0000  0.0000  0.0000  0.0000  0.0000      0.0000  0.0000  0.0000  0.0000  0.0000  0.0000  0.0000  0.0000  0.0000  0.0000
  o =  0.9513  v =  0.0000 -0.0000  0.0000 -0.0000 -1.0000  0.0000  0.0000  0.0000  0.0000  0.0000      0.0000  0.0000  0.0000  0.0000  0.0000  0.0000  0.0000  0.0000  0.0000  0.0000
  o =  0.9514  v =  0.0000  0.7071  0.0000  0.7071 -0.0000  0.0000  0.0000  0.0000  0.0000  0.0000      0.0000  0.0000  0.0000  0.0000  0.0000  0.0000  0.0000  0.0000  0.0000  0.0000
  o =  0.9884  v =  0.0000  0.7071  0.0000 -0.7071 -0.0000  0.0000  0.0000  0.0000  0.0000  0.0000      0.0000  0.0000  0.0000  0.0000  0.0000  0.0000  0.0000  0.0000  0.0000  0.0000
  o =  0.9918  v = -0.7992 -0.0000  0.6011  0.0000 -0.0000  0.0000  0.0000  0.0000  0.0000  0.0000      0.0000  0.0000  0.0000  0.0000  0.0000  0.0000  0.0000  0.0000  0.0000  0.0000
     EDDAV:  cpu time    0.5473: real time    0.5475
 BZINTS: Fermi energy:  1.245178; 54.000000 electrons
         Band energy:-764.034089;  BLOECHL correction:  0.000000
       DOS:  cpu time    0.0017: real time    0.0017
    CHARGE:  cpu time    0.0724: real time    0.0725
    MIXING:  cpu time    0.0009: real time    0.0009
    --------------------------------------------
      LOOP:  cpu time    1.3578: real time    1.3580

 eigenvalue-minimisations  :  1332
 total energy-change (2. order) :-0.1579578E+00  (-0.4857119E-02)
 number of electron      54.0000001 magnetization      -0.0000000
 augmentation part       19.9447633 magnetization      -0.0000000

 Broyden mixing:
  rms(total) = 0.12715E+00    rms(broyden)= 0.12715E+00
  rms(prec ) = 0.14250E+00
  weight for this iteration     100.00

 eigenvalues of (default mixing * dielectric matrix)
  average eigenvalue GAMMA=   1.2247
  2.6193  0.8278  0.8278  0.6240

 Free energy of the ion-electron system (eV)
  ---------------------------------------------------
  alpha Z        PSCENC =       195.87907157
  Ewald energy   TEWEN  =     -4176.43754732
  -Hartree energ DENC   =     -2158.37241935
  -exchange      EXHF   =         0.00000000
  -V(xc)+E(xc)   XCENC  =       293.93608691
  PAW double counting   =      6279.03248574    -6386.89432407
  entropy T*S    EENTRO =         0.00000000
  eigenvalues    EBANDS =      -764.03408921
  atomic energy  EATOM  =      6677.72127621
  Solvation  Ediel_sol  =         0.00000000
  ---------------------------------------------------
  free energy    TOTEN  =       -39.16945952 eV

  energy without entropy =      -39.16945952  energy(sigma->0) =      -39.16945952


--------------------------------------------------------------------------------------------------------




--------------------------------------- Iteration      1(  10)  ---------------------------------------


    POTLOK:  cpu time    0.0275: real time    0.0275
    SETDIJ:  cpu time    0.7081: real time    0.7081
atom =   1  type =  1  l = 2
 
 onsite density matrix
 
spin component  1
 
  0.0460  0.0000  0.0254  0.0000 -0.0000
  0.0000  0.0379  0.0000  0.0217  0.0000
  0.0254  0.0000  0.0323  0.0000 -0.0000
  0.0000  0.0217  0.0000  0.0379  0.0000
 -0.0000  0.0000 -0.0000  0.0000  0.0140
 
spin component  2
 
  0.9679  0.0000  0.0190  0.0000  0.0000
  0.0000  0.9624  0.0000  0.0169  0.0000
  0.0190  0.0000  0.9565  0.0000 -0.0000
  0.0000  0.0169  0.0000  0.9624  0.0000
  0.0000  0.0000 -0.0000  0.0000  0.9457
 
 occupancies and eigenvectors
 
  o =  0.0128  v = -0.6079  0.0000  0.7940 -0.0000  0.0000  0.0000  0.0000  0.0000  0.0000  0.0000      0.0000  0.0000  0.0000  0.0000  0.0000  0.0000  0.0000  0.0000  0.0000  0.0000
  o =  0.0140  v =  0.0000  0.0000 -0.0000 -0.0000  1.0000  0.0000  0.0000  0.0000  0.0000  0.0000      0.0000  0.0000  0.0000  0.0000  0.0000  0.0000  0.0000  0.0000  0.0000  0.0000
  o =  0.0162  v =  0.0000  0.7071 -0.0000 -0.7071 -0.0000  0.0000  0.0000  0.0000  0.0000  0.0000      0.0000  0.0000  0.0000  0.0000  0.0000  0.0000  0.0000  0.0000  0.0000  0.0000
  o =  0.0596  v =  0.0000  0.7071  0.0000  0.7071  0.0000  0.0000  0.0000  0.0000  0.0000  0.0000      0.0000  0.0000  0.0000  0.0000  0.0000  0.0000  0.0000  0.0000  0.0000  0.0000
  o =  0.0655  v = -0.7940  0.0000 -0.6079  0.0000  0.0000  0.0000  0.0000  0.0000  0.0000  0.0000      0.0000  0.0000  0.0000  0.0000  0.0000  0.0000  0.0000  0.0000  0.0000  0.0000
  o =  0.9424  v =  0.0000  0.0000  0.0000  0.0000  0.0000 -0.5972 -0.0000  0.8021  0.0000  0.0000      0.0000  0.0000  0.0000  0.0000  0.0000  0.0000  0.0000  0.0000  0.0000  0.0000
  o =  0.9455  v =  0.0000  0.0000  0.0000  0.0000  0.0000  0.0000 -0.7071 -0.0000  0.7071  0.0000      0.0000  0.0000  0.0000  0.0000  0.0000  0.0000  0.0000  0.0000  0.0000  0.0000
  o =  0.9457  v =  0.0000  0.0000  0.0000  0.0000  0.0000  0.0000  0.0000 -0.0000 -0.0000  1.0000      0.0000  0.0000  0.0000  0.0000  0.0000  0.0000  0.0000  0.0000  0.0000  0.0000
  o =  0.9793  v =  0.0000  0.0000  0.0000  0.0000  0.0000  0.0000  0.7071 -0.0000  0.7071  0.0000      0.0000  0.0000  0.0000  0.0000  0.0000  0.0000  0.0000  0.0000  0.0000  0.0000
  o =  0.9820  v =  0.0000  0.0000  0.0000  0.0000  0.0000 -0.8021 -0.0000 -0.5972  0.0000  0.0000      0.0000  0.0000  0.0000  0.0000  0.0000  0.0000  0.0000  0.0000  0.0000  0.0000
atom =   2  type =  1  l = 2
 
 onsite density matrix
 
spin component  1
 
  0.9679  0.0000 -0.0190  0.0000  0.0000
  0.0000  0.9624  0.0000 -0.0169  0.0000
 -0.0190  0.0000  0.9565  0.0000  0.0000
  0.0000 -0.0169  0.0000  0.9624  0.0000
  0.0000  0.0000  0.0000  0.0000  0.9457
 
spin component  2
 
  0.0460  0.0000 -0.0254  0.0000  0.0000
  0.0000  0.0379  0.0000 -0.0217  0.0000
 -0.0254  0.0000  0.0323  0.0000  0.0000
  0.0000 -0.0217  0.0000  0.0379  0.0000
  0.0000  0.0000  0.0000  0.0000  0.0140
 
 occupancies and eigenvectors
 
  o =  0.0128  v =  0.0000  0.0000  0.0000  0.0000  0.0000 -0.6079 -0.0000 -0.7940  0.0000  0.0000      0.0000  0.0000  0.0000  0.0000  0.0000  0.0000  0.0000  0.0000  0.0000  0.0000
  o =  0.0140  v =  0.0000  0.0000  0.0000  0.0000  0.0000 -0.0000  0.0000 -0.0000  0.0000 -1.0000      0.0000  0.0000  0.0000  0.0000  0.0000  0.0000  0.0000  0.0000  0.0000  0.0000
  o =  0.0162  v =  0.0000  0.0000  0.0000  0.0000  0.0000  0.0000 -0.7071  0.0000 -0.7071 -0.0000      0.0000  0.0000  0.0000  0.0000  0.0000  0.0000  0.0000  0.0000  0.0000  0.0000
  o =  0.0596  v =  0.0000  0.0000  0.0000  0.0000  0.0000  0.0000 -0.7071  0.0000  0.7071 -0.0000      0.0000  0.0000  0.0000  0.0000  0.0000  0.0000  0.0000  0.0000  0.0000  0.0000
  o =  0.0655  v =  0.0000  0.0000  0.0000  0.0000  0.0000 -0.7940 -0.0000  0.6079  0.0000  0.0000      0.0000  0.0000  0.0000  0.0000  0.0000  0.0000  0.0000  0.0000  0.0000  0.0000
  o =  0.9424  v = -0.5972  0.0000 -0.8021  0.0000  0.0000  0.0000  0.0000  0.0000  0.0000  0.0000      0.0000  0.0000  0.0000  0.0000  0.0000  0.0000  0.0000  0.0000  0.0000  0.0000
  o =  0.9455  v =  0.0000 -0.7071  0.0000 -0.7071 -0.0000  0.0000  0.0000  0.0000  0.0000  0.0000      0.0000  0.0000  0.0000  0.0000  0.0000  0.0000  0.0000  0.0000  0.0000  0.0000
  o =  0.9457  v =  0.0000  0.0000 -0.0000  0.0000 -1.0000  0.0000  0.0000  0.0000  0.0000  0.0000      0.0000  0.0000  0.0000  0.0000  0.0000  0.0000  0.0000  0.0000  0.0000  0.0000
  o =  0.9793  v =  0.0000 -0.7071  0.0000  0.7071 -0.0000  0.0000  0.0000  0.0000  0.0000  0.0000      0.0000  0.0000  0.0000  0.0000  0.0000  0.0000  0.0000  0.0000  0.0000  0.0000
  o =  0.9820  v = -0.8021  0.0000  0.5972  0.0000 -0.0000  0.0000  0.0000  0.0000  0.0000  0.0000      0.0000  0.0000  0.0000  0.0000  0.0000  0.0000  0.0000  0.0000  0.0000  0.0000
     EDDAV:  cpu time    0.6363: real time    0.6363
 BZINTS: Fermi energy:  1.235932; 54.000000 electrons
         Band energy:-763.147853;  BLOECHL correction:  0.000000
       DOS:  cpu time    0.0017: real time    0.0017
    CHARGE:  cpu time    0.0726: real time    0.0726
    MIXING:  cpu time    0.0010: real time    0.0010
    --------------------------------------------
      LOOP:  cpu time    1.4473: real time    1.4473

 eigenvalue-minimisations  :  1596
 total energy-change (2. order) :-0.1135130E-02  (-0.1993798E-02)
 number of electron      54.0000001 magnetization      -0.0000000
 augmentation part       19.9430304 magnetization      -0.0000000

 Broyden mixing:
  rms(total) = 0.28294E-01    rms(broyden)= 0.28293E-01
  rms(prec ) = 0.31229E-01
  weight for this iteration     100.00

 eigenvalues of (default mixing * dielectric matrix)
  average eigenvalue GAMMA=   1.1583
  2.5195  0.9577  0.9577  0.7451  0.6115

 Free energy of the ion-electron system (eV)
  ---------------------------------------------------
  alpha Z        PSCENC =       195.87907157
  Ewald energy   TEWEN  =     -4176.43754732
  -Hartree energ DENC   =     -2159.15600335
  -exchange      EXHF   =         0.00000000
  -V(xc)+E(xc)   XCENC  =       294.04978346
  PAW double counting   =      6271.54914663    -6379.62846928
  entropy T*S    EENTRO =         0.00000000
  eigenvalues    EBANDS =      -763.14785257
  atomic energy  EATOM  =      6677.72127621
  Solvation  Ediel_sol  =         0.00000000
  ---------------------------------------------------
  free energy    TOTEN  =       -39.17059465 eV

  energy without entropy =      -39.17059465  energy(sigma->0) =      -39.17059465


--------------------------------------------------------------------------------------------------------




--------------------------------------- Iteration      1(  11)  ---------------------------------------


    POTLOK:  cpu time    0.0274: real time    0.0274
    SETDIJ:  cpu time    0.7089: real time    0.7089
atom =   1  type =  1  l = 2
 
 onsite density matrix
 
spin component  1
 
  0.0443  0.0000  0.0251  0.0000  0.0000
  0.0000  0.0362  0.0000  0.0214  0.0000
  0.0251  0.0000  0.0306  0.0000  0.0000
  0.0000  0.0214  0.0000  0.0362  0.0000
  0.0000  0.0000  0.0000  0.0000  0.0126
 
spin component  2
 
  0.9704  0.0000  0.0190  0.0000 -0.0000
  0.0000  0.9650  0.0000  0.0169  0.0000
  0.0190  0.0000  0.9591  0.0000 -0.0000
  0.0000  0.0169  0.0000  0.9650  0.0000
 -0.0000  0.0000 -0.0000  0.0000  0.9483
 
 occupancies and eigenvectors
 
  o =  0.0115  v = -0.6070  0.0000  0.7947  0.0000 -0.0000  0.0000  0.0000  0.0000  0.0000  0.0000      0.0000  0.0000  0.0000  0.0000  0.0000  0.0000  0.0000  0.0000  0.0000  0.0000
  o =  0.0126  v = -0.0000 -0.0000  0.0000  0.0000  1.0000  0.0000  0.0000  0.0000  0.0000  0.0000      0.0000  0.0000  0.0000  0.0000  0.0000  0.0000  0.0000  0.0000  0.0000  0.0000
  o =  0.0148  v =  0.0000  0.7071  0.0000 -0.7071  0.0000  0.0000  0.0000  0.0000  0.0000  0.0000      0.0000  0.0000  0.0000  0.0000  0.0000  0.0000  0.0000  0.0000  0.0000  0.0000
  o =  0.0576  v =  0.0000 -0.7071  0.0000 -0.7071 -0.0000  0.0000  0.0000  0.0000  0.0000  0.0000      0.0000  0.0000  0.0000  0.0000  0.0000  0.0000  0.0000  0.0000  0.0000  0.0000
  o =  0.0635  v = -0.7947  0.0000 -0.6070  0.0000 -0.0000  0.0000  0.0000  0.0000  0.0000  0.0000      0.0000  0.0000  0.0000  0.0000  0.0000  0.0000  0.0000  0.0000  0.0000  0.0000
  o =  0.9449  v =  0.0000  0.0000  0.0000  0.0000  0.0000 -0.5976  0.0000  0.8018  0.0000 -0.0000      0.0000  0.0000  0.0000  0.0000  0.0000  0.0000  0.0000  0.0000  0.0000  0.0000
  o =  0.9481  v =  0.0000  0.0000  0.0000  0.0000  0.0000  0.0000 -0.7071  0.0000  0.7071  0.0000      0.0000  0.0000  0.0000  0.0000  0.0000  0.0000  0.0000  0.0000  0.0000  0.0000
  o =  0.9483  v =  0.0000  0.0000  0.0000  0.0000  0.0000  0.0000 -0.0000 -0.0000  0.0000 -1.0000      0.0000  0.0000  0.0000  0.0000  0.0000  0.0000  0.0000  0.0000  0.0000  0.0000
  o =  0.9819  v =  0.0000  0.0000  0.0000  0.0000  0.0000  0.0000  0.7071  0.0000  0.7071  0.0000      0.0000  0.0000  0.0000  0.0000  0.0000  0.0000  0.0000  0.0000  0.0000  0.0000
  o =  0.9846  v =  0.0000  0.0000  0.0000  0.0000  0.0000 -0.8018  0.0000 -0.5976  0.0000  0.0000      0.0000  0.0000  0.0000  0.0000  0.0000  0.0000  0.0000  0.0000  0.0000  0.0000
atom =   2  type =  1  l = 2
 
 onsite density matrix
 
spin component  1
 
  0.9704  0.0000 -0.0190  0.0000  0.0000
  0.0000  0.9650  0.0000 -0.0169  0.0000
 -0.0190  0.0000  0.9591  0.0000  0.0000
  0.0000 -0.0169  0.0000  0.9650  0.0000
  0.0000  0.0000  0.0000  0.0000  0.9483
 
spin component  2
 
  0.0443  0.0000 -0.0251  0.0000 -0.0000
  0.0000  0.0362  0.0000 -0.0214  0.0000
 -0.0251  0.0000  0.0306  0.0000 -0.0000
  0.0000 -0.0214  0.0000  0.0362  0.0000
 -0.0000  0.0000 -0.0000  0.0000  0.0126
 
 occupancies and eigenvectors
 
  o =  0.0115  v =  0.0000  0.0000  0.0000  0.0000  0.0000 -0.6070 -0.0000 -0.7947  0.0000 -0.0000      0.0000  0.0000  0.0000  0.0000  0.0000  0.0000  0.0000  0.0000  0.0000  0.0000
  o =  0.0126  v =  0.0000  0.0000  0.0000  0.0000  0.0000 -0.0000  0.0000 -0.0000  0.0000  1.0000      0.0000  0.0000  0.0000  0.0000  0.0000  0.0000  0.0000  0.0000  0.0000  0.0000
  o =  0.0148  v =  0.0000  0.0000  0.0000  0.0000  0.0000  0.0000 -0.7071  0.0000 -0.7071  0.0000      0.0000  0.0000  0.0000  0.0000  0.0000  0.0000  0.0000  0.0000  0.0000  0.0000
  o =  0.0576  v =  0.0000  0.0000  0.0000  0.0000  0.0000  0.0000  0.7071  0.0000 -0.7071 -0.0000      0.0000  0.0000  0.0000  0.0000  0.0000  0.0000  0.0000  0.0000  0.0000  0.0000
[...]
     33       8.6788      0.00000
     34       9.7451      0.00000
     35      10.2509      0.00000
     36      11.2133      0.00000

 k-point     7 :       0.1250    0.1250    0.4167
  band No.  band energies     occupation 
      1     -46.7240      1.00000
      2     -46.6852      1.00000
      3     -46.6690      1.00000
      4     -41.7426      1.00000
      5     -41.7094      1.00000
      6     -41.6868      1.00000
      7     -20.8237      1.00000
      8     -20.6980      1.00000
      9     -20.6485      1.00000
     10     -20.5608      1.00000
     11      -4.2337      1.00000
     12      -3.9319      1.00000
     13      -3.5758      1.00000
     14      -3.5137      1.00000
     15      -3.3974      1.00000
     16      -3.1499      1.00000
     17      -2.6843      1.00000
     18      -2.4784      1.00000
     19      -2.4527      1.00000
     20      -1.9868      1.00000
     21      -1.8128      1.00000
     22      -1.7502      1.00000
     23      -0.5213      1.00000
     24      -0.2851      1.00000
     25       0.0527      1.00000
     26       0.5725      1.00000
     27       0.8869      1.00000
     28       7.1140      0.00000
     29       7.1444      0.00000
     30       7.2389      0.00000
     31       7.9176      0.00000
     32       8.0597      0.00000
     33       8.5618      0.00000
     34      10.7217      0.00000
     35      12.0081      0.00000
     36      12.4773      0.00000

 k-point     8 :       0.3750    0.1250    0.4167
  band No.  band energies     occupation 
      1     -46.7241      1.00000
      2     -46.6852      1.00000
      3     -46.6690      1.00000
      4     -41.7426      1.00000
      5     -41.7094      1.00000
      6     -41.6868      1.00000
      7     -20.7677      1.00000
      8     -20.7113      1.00000
      9     -20.6628      1.00000
     10     -20.5888      1.00000
     11      -4.1036      1.00000
     12      -3.9891      1.00000
     13      -3.8853      1.00000
     14      -3.5951      1.00000
     15      -3.4073      1.00000
     16      -2.9651      1.00000
     17      -2.8126      1.00000
     18      -2.6407      1.00000
     19      -2.2409      1.00000
     20      -1.9412      1.00000
     21      -1.7018      1.00000
     22      -1.5839      1.00000
     23      -0.5125      1.00000
     24      -0.3470      1.00000
     25      -0.0512      1.00000
     26       0.5246      1.00000
     27       1.0962      1.00000
     28       7.1114      0.00000
     29       7.1392      0.00000
     30       7.3669      0.00000
     31       7.8252      0.00000
     32       8.3217      0.00000
     33       9.0595      0.00000
     34      10.5248      0.00000
     35      11.0197      0.00000
     36      12.2105      0.00000

 k-point     9 :       0.3750    0.3750    0.4167
  band No.  band energies     occupation 
      1     -46.7241      1.00000
      2     -46.6852      1.00000
      3     -46.6690      1.00000
      4     -41.7426      1.00000
      5     -41.7094      1.00000
      6     -41.6869      1.00000
      7     -20.7466      1.00000
      8     -20.7364      1.00000
      9     -20.6641      1.00000
     10     -20.5798      1.00000
     11      -4.3653      1.00000
     12      -4.1137      1.00000
     13      -3.8604      1.00000
     14      -3.7815      1.00000
     15      -3.4615      1.00000
     16      -2.9777      1.00000
     17      -2.6665      1.00000
     18      -2.4310      1.00000
     19      -2.0480      1.00000
     20      -1.7596      1.00000
     21      -1.6397      1.00000
     22      -1.5370      1.00000
     23      -0.5136      1.00000
     24      -0.3383      1.00000
     25      -0.0967      1.00000
     26       0.5737      1.00000
     27       1.0443      1.00000
     28       7.1178      0.00000
     29       7.1636      0.00000
     30       7.3961      0.00000
     31       7.8174      0.00000
     32       8.1951      0.00000
     33       9.4817      0.00000
     34      11.0021      0.00000
     35      11.2113      0.00000
     36      11.2500      0.00000


--------------------------------------------------------------------------------------------------------


 soft charge-density along one line, spin component           1
         0         1         2         3         4         5         6         7         8         9
 total charge-density along one line
 
 soft charge-density along one line, spin component           2
         0         1         2         3         4         5         6         7         8         9
 total charge-density along one line
 
 pseudopotential strength for first ion, spin component:           1
-42.482  -0.000  -0.028   7.862   0.000   0.012   0.000   0.000
 -0.000 -42.454  -0.000   0.000   7.850   0.000   0.000   0.000
 -0.028  -0.000 -42.482   0.012   0.000   7.862   0.000   0.000
  7.862   0.000   0.012   5.258  -0.000  -0.002  -0.000  -0.000
  0.000   7.850   0.000  -0.000   5.261  -0.000  -0.000  -0.000
  0.012   0.000   7.862  -0.002  -0.000   5.258  -0.000  -0.000
  0.000   0.000   0.000  -0.000  -0.000  -0.000  -1.453  -0.000
  0.000   0.000   0.000  -0.000  -0.000  -0.000  -0.000  -1.412
 -0.000   0.000  -0.000   0.000  -0.000   0.000  -0.065   0.000
  0.000   0.000   0.000  -0.000  -0.000  -0.000  -0.000  -0.082
 -0.000  -0.000   0.000   0.000   0.000  -0.000  -0.000   0.000
  0.000   0.000   0.000  -0.000  -0.000  -0.000  -1.895  -0.000
  0.000   0.000   0.000  -0.000  -0.000  -0.000  -0.000  -1.853
 -0.000   0.000  -0.000   0.000  -0.000   0.000  -0.068   0.000
  0.000   0.000   0.000  -0.000  -0.000  -0.000  -0.000  -0.085
 -0.000  -0.000   0.000   0.000   0.000  -0.000  -0.000   0.000
 -0.000  -0.000  -0.000  -0.000  -0.000  -0.000   0.007   0.000
 -0.000  -0.000  -0.000  -0.000  -0.000  -0.000   0.013   0.000
 pseudopotential strength for first ion, spin component:           2
-45.823  -0.000  -0.020   9.393   0.000   0.007   0.000   0.000
 -0.000 -45.804  -0.000   0.000   9.387   0.000   0.000   0.000
 -0.020  -0.000 -45.823   0.007   0.000   9.393   0.000   0.000
  9.393   0.000   0.007   4.743  -0.000  -0.001  -0.000  -0.000
  0.000   9.387   0.000  -0.000   4.745  -0.000  -0.000  -0.000
  0.007   0.000   9.393  -0.001  -0.000   4.743  -0.000  -0.000
  0.000   0.000   0.000  -0.000  -0.000  -0.000  -7.746  -0.000
  0.000   0.000   0.000  -0.000  -0.000  -0.000  -0.000  -7.717
 -0.000   0.000  -0.000   0.000  -0.000   0.000  -0.045   0.000
  0.000   0.000   0.000  -0.000  -0.000  -0.000  -0.000  -0.065
 -0.000  -0.000   0.000   0.000   0.000  -0.000   0.000   0.000
  0.000   0.000   0.000  -0.000  -0.000  -0.000  -8.242  -0.000
  0.000   0.000   0.000  -0.000  -0.000  -0.000  -0.000  -8.213
 -0.000   0.000  -0.000   0.000  -0.000   0.000  -0.047   0.000
  0.000   0.000   0.000  -0.000  -0.000  -0.000  -0.000  -0.067
 -0.000  -0.000   0.000   0.000   0.000  -0.000   0.000   0.000
 -0.000  -0.000  -0.000  -0.000  -0.000  -0.000   0.003   0.000
 -0.000  -0.000  -0.000  -0.000  -0.000  -0.000   0.005   0.000
 total augmentation occupancy for first ion, spin component:           1
  1.998   0.000   0.000  -0.013   0.000   0.000   0.000   0.000   0.000   0.000   0.000   0.000   0.000   0.000   0.000   0.000
  0.000   1.998   0.000   0.000  -0.013   0.000   0.000   0.000   0.000   0.000   0.000   0.000   0.000   0.000   0.000   0.000
  0.000   0.000   1.998   0.000   0.000  -0.013   0.000   0.000   0.000   0.000   0.000   0.000   0.000   0.000   0.000   0.000
 -0.013   0.000   0.000   0.086   0.000  -0.008   0.000   0.000   0.000   0.000   0.000   0.000   0.000   0.000   0.000   0.000
  0.000  -0.013   0.000   0.000   0.098   0.000   0.000   0.000   0.000   0.000   0.000   0.000   0.000   0.000   0.000   0.000
  0.000   0.000  -0.013  -0.008   0.000   0.086   0.000   0.000   0.000   0.000   0.000   0.000   0.000   0.000   0.000   0.000
  0.000   0.000   0.000   0.000   0.000   0.000   7.597   0.000   2.894   0.000   0.000  -5.650   0.000  -2.733   0.000   0.000
  0.000   0.000   0.000   0.000   0.000   0.000   0.000   6.507   0.000   2.550   0.000   0.000  -4.613   0.000  -2.403   0.000
  0.000   0.000   0.000   0.000   0.000   0.000   2.894   0.000   5.884   0.000  -0.000  -2.734   0.000  -4.049   0.000   0.000
  0.000   0.000   0.000   0.000   0.000   0.000   0.000   2.550   0.000   6.507   0.000   0.000  -2.403   0.000  -4.613   0.000
  0.000   0.000   0.000   0.000   0.000   0.000   0.000   0.000  -0.000   0.000   3.840   0.000   0.000   0.000   0.000  -2.078
  0.000   0.000   0.000   0.000   0.000   0.000  -5.650   0.000  -2.734   0.000  -0.000   4.870   0.000   2.612   0.000  -0.000
  0.000   0.000   0.000   0.000   0.000   0.000   0.000  -4.613   0.000  -2.403   0.000   0.000   3.876   0.000   2.290   0.000
  0.000   0.000   0.000   0.000   0.000   0.000  -2.733   0.000  -4.049   0.000  -0.000   2.612   0.000   3.358   0.000   0.000
  0.000   0.000   0.000   0.000   0.000   0.000   0.000  -2.403   0.000  -4.613   0.000   0.000   2.290   0.000   3.876   0.000
  0.000   0.000   0.000   0.000   0.000   0.000   0.000   0.000   0.000   0.000  -2.078  -0.000   0.000   0.000   0.000   1.438
  0.000   0.000   0.000   0.000   0.000   0.000   0.198   0.000  -0.214   0.000  -0.000  -0.229   0.000   0.230   0.000   0.000
  0.000   0.000   0.000   0.000   0.000   0.000   0.003   0.000   0.015   0.000   0.000   0.022   0.000  -0.030   0.000  -0.000
 total augmentation occupancy for first ion, spin component:           2
  0.003   0.000  -0.000   0.011   0.000  -0.000   0.000   0.000   0.000   0.000   0.000   0.000   0.000   0.000   0.000   0.000
  0.000   0.003   0.000   0.000   0.012   0.000   0.000   0.000   0.000   0.000   0.000   0.000   0.000   0.000   0.000   0.000
 -0.000   0.000   0.003  -0.000   0.000   0.011   0.000   0.000   0.000   0.000   0.000   0.000   0.000   0.000   0.000   0.000
  0.011   0.000  -0.000  -0.011   0.000  -0.000   0.000   0.000   0.000   0.000   0.000   0.000   0.000   0.000   0.000   0.000
  0.000   0.012   0.000   0.000  -0.011   0.000   0.000   0.000   0.000   0.000   0.000   0.000   0.000   0.000   0.000   0.000
 -0.000   0.000   0.011  -0.000   0.000  -0.011   0.000   0.000   0.000   0.000   0.000   0.000   0.000   0.000   0.000   0.000
  0.000   0.000   0.000   0.000   0.000   0.000  -5.368   0.000  -1.630   0.000  -0.000   3.080   0.000   1.283   0.000   0.000
  0.000   0.000   0.000   0.000   0.000   0.000   0.000  -4.761   0.000  -1.451   0.000   0.000   2.590   0.000   1.142   0.000
  0.000   0.000   0.000   0.000   0.000   0.000  -1.630   0.000  -4.329   0.000   0.000   1.283   0.000   2.257   0.000  -0.000
  0.000   0.000   0.000   0.000   0.000   0.000   0.000  -1.451   0.000  -4.761   0.000   0.000   1.142   0.000   2.590   0.000
  0.000   0.000   0.000   0.000   0.000   0.000   0.000   0.000  -0.000   0.000  -3.300   0.000   0.000   0.000   0.000   1.437
  0.000   0.000   0.000   0.000   0.000   0.000   3.080   0.000   1.283   0.000  -0.000  -1.902   0.000  -0.942   0.000   0.000
  0.000   0.000   0.000   0.000   0.000   0.000   0.000   2.590   0.000   1.142   0.000   0.000  -1.528   0.000  -0.840   0.000
  0.000   0.000   0.000   0.000   0.000   0.000   1.283   0.000   2.257   0.000   0.000  -0.942   0.000  -1.288   0.000  -0.000
  0.000   0.000   0.000   0.000   0.000   0.000   0.000   1.142   0.000   2.590   0.000   0.000  -0.840   0.000  -1.528   0.000
  0.000   0.000   0.000   0.000   0.000   0.000   0.000   0.000   0.000   0.000   1.437   0.000   0.000  -0.000   0.000  -0.679
  0.000   0.000   0.000   0.000   0.000   0.000   0.024   0.000   0.008   0.000   0.000  -0.025   0.000   0.004   0.000  -0.000
  0.000   0.000   0.000   0.000   0.000   0.000  -0.048   0.000   0.025   0.000  -0.000   0.028   0.000  -0.014   0.000  -0.000


------------------------ aborting loop because EDIFF is reached ----------------------------------------


 


 total charge     
 
# of ion       s       p       d       tot
------------------------------------------
    1        0.164   6.153   4.950  11.266
    2        0.168   6.148   4.956  11.272
    3        1.726   4.368   0.000   6.094
    4        1.726   4.368   0.000   6.094
    5        1.726   4.364   0.000   6.090
    6        1.726   4.364   0.000   6.090
--------------------------------------------------
tot          7.235  29.765   9.906  46.906
 


 magnetization (x)
 
# of ion       s       p       d       tot
------------------------------------------
    1       -0.018  -0.019  -4.630  -4.667
    2        0.018   0.018   4.627   4.664
    3        0.002   0.017   0.000   0.018
    4        0.002   0.017   0.000   0.018
    5       -0.002  -0.013   0.000  -0.015
    6       -0.002  -0.013   0.000  -0.015
--------------------------------------------------
tot         -0.001   0.006  -0.002   0.003
 
    CHARGE:  cpu time    0.0637: real time    0.0637
    FORLOC:  cpu time    0.0021: real time    0.0021
    FORNL :  cpu time    0.3152: real time    0.3152
    STRESS:  cpu time    0.9519: real time    0.9519
    FORCOR:  cpu time    0.0263: real time    0.0263
    FORHAR:  cpu time    0.0036: real time    0.0036
    MIXING:  cpu time    0.0011: real time    0.0011
    OFIELD:  cpu time    0.0000: real time    0.0000

  FORCE on cell =-STRESS in cart. coord.  units (eV):
  Direction    XX          YY          ZZ          XY          YZ          ZX
  --------------------------------------------------------------------------------------
  Alpha Z   195.87907   195.87907   195.87907
  Ewald   -1581.75631 -1581.75631 -1012.92804    -0.00000     0.00000     0.00000
  Hartree   591.70269   591.70269   976.33953    -0.00000    -0.00000    -0.00000
  E(xc)    -314.09382  -314.09382  -313.87357    -0.00000    -0.00000    -0.00000
  Local     160.19926   160.19926  -786.32094    -0.00000     0.00000    -0.00000
  n-local  -242.24918  -242.58828  -241.37373     0.02208     0.11773     0.12014
  augment   265.52128   265.52128   265.00721     0.00000     0.00000     0.00000
  Kinetic   924.55114   925.38869   917.25851    -0.46826    -0.87529    -0.93325
  Fock        0.00000     0.00000     0.00000     0.00000     0.00000     0.00000
  -------------------------------------------------------------------------------------
  Total       0.00335     0.00335    -0.01196    -0.00000     0.00000     0.00000
  in kB       0.06804     0.06804    -0.24309    -0.00000     0.00000     0.00000
  external pressure =       -0.04 kB  Pullay stress =        0.00 kB


 VOLUME and BASIS-vectors are now :
 -----------------------------------------------------------------------------
  energy-cutoff  :      750.00
  volume of cell :       78.81
      direct lattice vectors                 reciprocal lattice vectors
     4.885344301  0.000000000  0.000000000     0.204693864  0.000000000  0.000000000
     0.000000000  4.885344301  0.000000000     0.000000000  0.204693864  0.000000000
     0.000000000  0.000000000  3.302160723     0.000000000  0.000000000  0.302832019

  length of vectors
     4.885344301  4.885344301  3.302160723     0.204693864  0.204693864  0.302832019


 FORCES acting on ions
    electron-ion (+dipol)            ewald-force                    non-local-force                 convergence-correction
 -----------------------------------------------------------------------------------------------
   0.211E-11 0.514E-11 0.443E-11   -.114E-12 0.000E+00 0.396E-14   0.000E+00 0.000E+00 0.000E+00   -.374E-13 -.780E-13 -.932E-13
   -.566E-13 -.187E-13 -.116E-13   0.000E+00 -.568E-13 0.217E-14   0.000E+00 0.000E+00 0.000E+00   -.815E-13 0.417E-13 -.290E-14
   -.344E+02 0.344E+02 0.184E-11   0.358E+02 -.358E+02 -.316E-14   -.140E+01 0.140E+01 0.217E-18   -.259E-03 0.259E-03 0.337E-13
   0.344E+02 -.344E+02 -.134E-10   -.358E+02 0.358E+02 -.334E-14   0.140E+01 -.140E+01 -.217E-18   0.259E-03 -.259E-03 -.701E-13
   0.344E+02 0.344E+02 -.244E-07   -.358E+02 -.358E+02 -.224E-14   0.140E+01 0.140E+01 0.217E-18   0.259E-03 0.259E-03 0.291E-10
   -.344E+02 -.344E+02 0.244E-07   0.358E+02 0.358E+02 -.229E-14   -.140E+01 -.140E+01 -.217E-18   -.259E-03 -.259E-03 -.291E-10
 -----------------------------------------------------------------------------------------------
   0.336E-11 0.504E-11 -.262E-11   -.711E-14 0.711E-14 -.490E-14   0.000E+00 0.000E+00 0.000E+00   -.233E-12 -.178E-12 -.112E-12
 
 
 POSITION                                       TOTAL-FORCE (eV/Angst)
 -----------------------------------------------------------------------------------
      2.44267      2.44267      1.65108         0.000000      0.000000     -0.000000
      0.00000      0.00000      0.00000         0.000000      0.000000     -0.000000
      0.95470      3.93064      1.65108        -0.002441      0.002441     -0.000000
      3.93064      0.95470      1.65108         0.002441     -0.002441     -0.000000
      1.48797      1.48797      0.00000         0.002441      0.002441     -0.000000
      3.39737      3.39737      0.00000        -0.002441     -0.002441      0.000000
 -----------------------------------------------------------------------------------
    total drift:                                0.000000      0.000000     -0.000000


--------------------------------------------------------------------------------------------------------



  FREE ENERGIE OF THE ION-ELECTRON SYSTEM (eV)
  ---------------------------------------------------
  free  energy   TOTEN  =       -39.17104764 eV

  energy  without entropy=      -39.17104764  energy(sigma->0) =      -39.17104764
 


--------------------------------------------------------------------------------------------------------


    POTLOK:  cpu time    0.4126: real time    0.4126


--------------------------------------------------------------------------------------------------------


 writing wavefunctions
     LOOP+:  cpu time   18.6986: real time   18.7188
    4ORBIT:  cpu time    0.0000: real time    0.0000
 


 total charge     
 
# of ion       s       p       d       tot
------------------------------------------
    1        0.164   6.153   4.950  11.266
    2        0.168   6.148   4.956  11.272
    3        1.726   4.368   0.000   6.094
    4        1.726   4.368   0.000   6.094
    5        1.726   4.364   0.000   6.090
    6        1.726   4.364   0.000   6.090
--------------------------------------------------
tot          7.235  29.765   9.906  46.906
 


 magnetization (x)
 
# of ion       s       p       d       tot
------------------------------------------
    1       -0.018  -0.019  -4.630  -4.667
    2        0.018   0.018   4.627   4.664
    3        0.002   0.017   0.000   0.018
    4        0.002   0.017   0.000   0.018
    5       -0.002  -0.013   0.000  -0.015
    6       -0.002  -0.013   0.000  -0.015
--------------------------------------------------
tot         -0.001   0.006  -0.002   0.003
 
 BZINTS: Fermi energy:  1.251165; 54.000000 electrons
         Band energy:-762.766935;  BLOECHL correction:  0.000000

 total amount of memory used by VASP MPI-rank0    50838. kBytes
=======================================================================

   base      :      30000. kBytes
   nonl-proj :       9934. kBytes
   fftplans  :       3220. kBytes
   grid      :       4243. kBytes
   one-center:        186. kBytes
   wavefun   :       3255. kBytes
 
  
  
 General timing and accounting informations for this job:
 ========================================================
  
                  Total CPU time used (sec):       20.141
                            User time (sec):       15.581
                          System time (sec):        4.560
                         Elapsed time (sec):       20.209
  
                   Maximum memory used (kb):       76864.
                   Average memory used (kb):           0.
  
                          Minor page faults:        13592
                          Major page faults:            7
                 Voluntary context switches:          316
