       N       E                     dE             d eps       ncg     rms          rms(c)
DAV:   1     0.978571258182E+03    0.97857E+03   -0.39025E+04  1296   0.212E+03
DAV:   2     0.404944134841E+03   -0.57363E+03   -0.54975E+03  1512   0.526E+02
DAV:   3     0.369608431464E+03   -0.35336E+02   -0.34945E+02  1524   0.138E+02
DAV:   4     0.369167829350E+03   -0.44060E+00   -0.44031E+00  1500   0.170E+01
DAV:   5     0.369160363747E+03   -0.74656E-02   -0.74652E-02  1548   0.205E+00    0.588E+01
DAV:   6    -0.688058851934E+02   -0.43797E+03   -0.28370E+02  1572   0.213E+02    0.627E+01
DAV:   7    -0.715429207465E+02   -0.27370E+01   -0.50940E+01  1356   0.452E+01    0.172E+01
DAV:   8    -0.686624321908E+02    0.28805E+01   -0.70104E+00  1608   0.218E+01    0.665E+00
DAV:   9    -0.681645903539E+02    0.49784E+00   -0.50071E+00  1464   0.192E+01    0.821E+00
DAV:  10    -0.681147392710E+02    0.49851E-01   -0.43485E-01  1416   0.556E+00    0.601E+00
DAV:  11    -0.680795136681E+02    0.35226E-01   -0.11347E+00  1560   0.799E+00    0.202E+00
DAV:  12    -0.680404924305E+02    0.39021E-01   -0.10422E-01  1572   0.329E+00    0.123E+00
DAV:  13    -0.680320770446E+02    0.84154E-02   -0.72395E-02  1500   0.158E+00    0.104E+00
DAV:  14    -0.680273096496E+02    0.47674E-02   -0.52859E-02  1296   0.249E+00    0.408E-01
DAV:  15    -0.680281358561E+02   -0.82621E-03   -0.37311E-03  1488   0.449E-01    0.403E-01
DAV:  16    -0.680273252853E+02    0.81057E-03   -0.29237E-03  1404   0.357E-01    0.159E-01
DAV:  17    -0.680272603854E+02    0.64900E-04   -0.36366E-03  1416   0.430E-01    0.113E-01
DAV:  18    -0.680270337956E+02    0.22659E-03   -0.21267E-04  1308   0.108E-01    0.337E-02
DAV:  19    -0.680270220603E+02    0.11735E-04   -0.12318E-04  1512   0.735E-02    0.823E-03
DAV:  20    -0.680270444627E+02   -0.22402E-04   -0.75135E-06  1428   0.177E-02    0.970E-03
DAV:  21    -0.680270468356E+02   -0.23729E-05   -0.32181E-06  1116   0.124E-02    0.411E-03
DAV:  22    -0.680270452362E+02    0.15994E-05   -0.12823E-06   852   0.699E-03    0.132E-03
DAV:  23    -0.680270492325E+02   -0.39963E-05   -0.16691E-07   648   0.302E-03    0.115E-03
DAV:  24    -0.680270487342E+02    0.49832E-06   -0.24000E-08   648   0.126E-03
   1 F= -.68027049E+02 E0= -.68027049E+02  d E =0.000000E+00  mag=     0.0000
