       N       E                     dE             d eps       ncg     rms          rms(c)
DAV:   1     0.677960347430E+03    0.67796E+03   -0.34162E+04  1296   0.190E+03
DAV:   2     0.890715350285E+01   -0.66905E+03   -0.64546E+03  1452   0.512E+02
DAV:   3    -0.407486950877E+02   -0.49656E+02   -0.49429E+02  1572   0.154E+02
DAV:   4    -0.414084774996E+02   -0.65978E+00   -0.65965E+00  1416   0.194E+01
DAV:   5    -0.414186963644E+02   -0.10219E-01   -0.10219E-01  1584   0.236E+00    0.248E+01
DAV:   6    -0.393412158240E+02    0.20775E+01   -0.15690E+01  1608   0.319E+01    0.159E+01
DAV:   7    -0.399804744245E+02   -0.63926E+00   -0.15681E+00  1524   0.107E+01    0.118E+01
DAV:   8    -0.398941904136E+02    0.86284E-01   -0.52204E-01  1524   0.598E+00    0.473E+00
DAV:   9    -0.401702557408E+02   -0.27607E+00   -0.74053E-02  1428   0.259E+00    0.137E+00
DAV:  10    -0.401707434027E+02   -0.48766E-03   -0.16078E-02  1548   0.102E+00    0.252E-01
DAV:  11    -0.401707042183E+02    0.39184E-04   -0.15466E-03  1380   0.270E-01    0.139E-01
DAV:  12    -0.401707474684E+02   -0.43250E-04   -0.38677E-05  1776   0.831E-02    0.631E-02
DAV:  13    -0.401707536451E+02   -0.61768E-05   -0.38574E-05  1392   0.340E-02    0.213E-02
DAV:  14    -0.401707551281E+02   -0.14830E-05   -0.19321E-06  1440   0.141E-02    0.390E-03
DAV:  15    -0.401707553153E+02   -0.18715E-06   -0.13679E-07  1068   0.311E-03    0.136E-03
DAV:  16    -0.401707553309E+02   -0.15630E-07   -0.18539E-08   684   0.137E-03
   1 F= -.40170755E+02 E0= -.40170755E+02  d E =-.401708E+02  mag=    -0.0000
