       N       E                     dE             d eps       ncg     rms          rms(c)
DAV:   1     0.787020799194E+03    0.78702E+03   -0.42294E+04  1296   0.254E+03
DAV:   2     0.182409364518E+02   -0.76878E+03   -0.74182E+03  1476   0.595E+02
DAV:   3    -0.405153388110E+02   -0.58756E+02   -0.58463E+02  1572   0.173E+02
DAV:   4    -0.414309067084E+02   -0.91557E+00   -0.91522E+00  1452   0.229E+01
DAV:   5    -0.414446583180E+02   -0.13752E-01   -0.13751E-01  1536   0.280E+00    0.246E+01
DAV:   6    -0.393630766079E+02    0.20816E+01   -0.15668E+01  1608   0.319E+01    0.158E+01
DAV:   7    -0.400020316560E+02   -0.63896E+00   -0.15700E+00  1524   0.108E+01    0.118E+01
DAV:   8    -0.399159057675E+02    0.86126E-01   -0.51751E-01  1524   0.598E+00    0.473E+00
DAV:   9    -0.401875178729E+02   -0.27161E+00   -0.73363E-02  1464   0.259E+00    0.136E+00
DAV:  10    -0.401879403152E+02   -0.42244E-03   -0.15710E-02  1524   0.101E+00    0.252E-01
DAV:  11    -0.401878956003E+02    0.44715E-04   -0.15944E-03  1392   0.276E-01    0.143E-01
DAV:  12    -0.401879382849E+02   -0.42685E-04   -0.41857E-05  1764   0.854E-02    0.640E-02
DAV:  13    -0.401879442704E+02   -0.59855E-05   -0.41185E-05  1404   0.350E-02    0.210E-02
DAV:  14    -0.401879458093E+02   -0.15389E-05   -0.19051E-06  1212   0.141E-02    0.398E-03
DAV:  15    -0.401879459927E+02   -0.18345E-06   -0.17337E-07   648   0.350E-03
   1 F= -.40187946E+02 E0= -.40187946E+02  d E =0.000000E+00  mag=     0.0000
