       N       E                     dE             d eps       ncg     rms          rms(c)
DAV:   1     0.702961835394E+03    0.70296E+03   -0.35951E+04  1296   0.201E+03
DAV:   2     0.101576429805E+02   -0.69280E+03   -0.67120E+03  1500   0.528E+02
DAV:   3    -0.407177889143E+02   -0.50875E+02   -0.50657E+02  1488   0.157E+02
DAV:   4    -0.414099360367E+02   -0.69215E+00   -0.69185E+00  1488   0.199E+01
DAV:   5    -0.414208995119E+02   -0.10963E-01   -0.10963E-01  1524   0.243E+00    0.248E+01
DAV:   6    -0.393487787700E+02    0.20721E+01   -0.15656E+01  1620   0.319E+01    0.159E+01
DAV:   7    -0.399862574862E+02   -0.63748E+00   -0.15668E+00  1524   0.107E+01    0.118E+01
DAV:   8    -0.398984012202E+02    0.87856E-01   -0.52281E-01  1524   0.600E+00    0.472E+00
DAV:   9    -0.401759903511E+02   -0.27759E+00   -0.74630E-02  1428   0.260E+00    0.137E+00
DAV:  10    -0.401764473935E+02   -0.45704E-03   -0.15985E-02  1524   0.102E+00    0.251E-01
DAV:  11    -0.401764082963E+02    0.39097E-04   -0.15516E-03  1404   0.271E-01    0.140E-01
DAV:  12    -0.401764517747E+02   -0.43478E-04   -0.39279E-05  1740   0.836E-02    0.635E-02
DAV:  13    -0.401764577610E+02   -0.59863E-05   -0.39629E-05  1416   0.344E-02    0.210E-02
DAV:  14    -0.401764592085E+02   -0.14476E-05   -0.19562E-06  1464   0.143E-02    0.392E-03
DAV:  15    -0.401764593942E+02   -0.18561E-06   -0.14216E-07  1044   0.315E-03    0.137E-03
DAV:  16    -0.401764594104E+02   -0.16285E-07   -0.18803E-08   684   0.138E-03
   1 F= -.40176459E+02 E0= -.40176459E+02  d E =-.401765E+02  mag=     0.0000
       N       E                     dE             d eps       ncg     rms          rms(c)
DAV:   1    -0.401774412537E+02   -0.98186E-03   -0.20646E-02  1296   0.130E+00    0.268E-01
DAV:   2    -0.401765231867E+02    0.91807E-03   -0.28962E-03  1296   0.386E-01    0.157E-01
DAV:   3    -0.401765002971E+02    0.22890E-04   -0.20734E-04  1332   0.154E-01    0.616E-02
DAV:   4    -0.401764869635E+02    0.13334E-04   -0.17717E-05  1620   0.349E-02    0.400E-02
DAV:   5    -0.401764815412E+02    0.54223E-05   -0.40748E-06  1524   0.163E-02    0.133E-02
DAV:   6    -0.401764817457E+02   -0.20446E-06   -0.33619E-07  1488   0.616E-03    0.136E-03
DAV:   7    -0.401764817592E+02   -0.13555E-07   -0.47623E-08   672   0.172E-03
   2 F= -.40176482E+02 E0= -.40176482E+02  d E =-.223488E-04  mag=    -0.0000
