 vasp.5.4.4.18Apr17-6-g9f103f2a35 (build Apr 27 2017 11:13:10) complex          
  
 executed on           IFC91_ompi date 2020.05.13  11:12:21
 running on   12 total cores
 distrk:  each k-point on   12 cores,    1 groups
 distr:  one band on NCORES_PER_BAND=   1 cores,   12 groups


--------------------------------------------------------------------------------------------------------


 INCAR:
 POTCAR:    PAW Mn_pv 02Aug2007                   
 POTCAR:    PAW F 31May2000                       

 ----------------------------------------------------------------------------- 
|                                                                             |
|           W    W    AA    RRRRR   N    N  II  N    N   GGGG   !!!           |
|           W    W   A  A   R    R  NN   N  II  NN   N  G    G  !!!           |
|           W    W  A    A  R    R  N N  N  II  N N  N  G       !!!           |
|           W WW W  AAAAAA  RRRRR   N  N N  II  N  N N  G  GGG   !            |
|           WW  WW  A    A  R   R   N   NN  II  N   NN  G    G                |
|           W    W  A    A  R    R  N    N  II  N    N   GGGG   !!!           |
|                                                                             |
|      For optimal performance we recommend to set                            |
|        NCORE= 4 - approx SQRT( number of cores)                             |
|      NCORE specifies how many cores store one orbital (NPAR=cpu/NCORE).     |
|      This setting can  greatly improve the performance of VASP for DFT.     |
|      The default,   NCORE=1            might be grossly inefficient         |
|      on modern multi-core architectures or massively parallel machines.     |
|      Do your own testing !!!!                                               |
|      Unfortunately you need to use the default for GW and RPA calculations. |
|      (for HF NCORE is supported but not extensively tested yet)             |
|                                                                             |
 ----------------------------------------------------------------------------- 

 POTCAR:    PAW Mn_pv 02Aug2007                   
   VRHFIN =Mn: 3p4s3d                                                           
   LEXCH  = CA                                                                  
   EATOM  =  2028.0466 eV,  149.0572 Ry                                         
                                                                                
   TITEL  = PAW Mn_pv 02Aug2007                                                 
   LULTRA =        F    use ultrasoft PP ?                                      
   IUNSCR =        1    unscreen: 0-lin 1-nonlin 2-no                           
   RPACOR =    2.080    partial core radius                                     
   POMASS =   54.938; ZVAL   =   13.000    mass and valenz                      
   RCORE  =    2.300    outmost cutoff radius                                   
   RWIGS  =    2.500; RWIGS  =    1.323    wigner-seitz radius (au A)           
   ENMAX  =  269.944; ENMIN  =  202.458 eV                                      
   ICORE  =        3    local potential                                         
   LCOR   =        T    correct aug charges                                     
   LPAW   =        T    paw PP                                                  
   EAUG   =  569.085                                                            
   DEXC   =    0.000                                                            
   RMAX   =    2.343    core radius for proj-oper                               
   RAUG   =    1.300    factor for augmentation sphere                          
   RDEP   =    2.338    radius for radial grids                                 
   RDEPT  =    1.798    core radius for aug-charge                              
                                                                                
   Atomic configuration                                                         
    8 entries                                                                   
     n  l   j            E        occ.                                          
     1  0  0.50     -6393.6057   2.0000                                         
     2  0  0.50      -735.9993   2.0000                                         
     2  1  1.50      -624.3417   6.0000                                         
     3  0  0.50       -80.9782   2.0000                                         
     3  1  1.50       -50.3144   6.0000                                         
     3  2  2.50        -3.6171   6.0000                                         
     4  0  0.50        -4.3304   1.0000                                         
     4  3  2.50        -1.3606   0.0000                                         
   Description                                                                  
     l       E           TYP  RCUT    TYP  RCUT                                 
     1    -50.3143634     23  2.000                                             
     1     -1.3605826     23  2.000                                             
     2     -3.6171470     23  2.300                                             
     2     -4.9777296     23  2.300                                             
     0     -4.3303688     23  2.300                                             
     0      7.3408788     23  2.300                                             
     3      9.5240782     23  2.300                                             
  local pseudopotential read in
  partial core-charges read in
  partial kinetic energy density read in
  atomic valenz-charges read in
  non local Contribution for L=           1  read in
    real space projection operators read in
  non local Contribution for L=           1  read in
    real space projection operators read in
  non local Contribution for L=           2  read in
    real space projection operators read in
  non local Contribution for L=           2  read in
    real space projection operators read in
  non local Contribution for L=           0  read in
    real space projection operators read in
  non local Contribution for L=           0  read in
    real space projection operators read in
    PAW grid and wavefunctions read in
 
   number of l-projection  operators is LMAX  =           6
   number of lm-projection operators is LMMAX =          18
 
 POTCAR:    PAW F 31May2000                       
   VRHFIN =F: s2p5                                                              
   LEXCH  = CA                                                                  
   EATOM  =   658.3685 eV,   48.3887 Ry                                         
                                                                                
   TITEL  = PAW F 31May2000                                                     
   LULTRA =        F    use ultrasoft PP ?                                      
   IUNSCR =        1    unscreen: 0-lin 1-nonlin 2-no                           
   RPACOR =    1.200    partial core radius                                     
   POMASS =   18.998; ZVAL   =    7.000    mass and valenz                      
   RCORE  =    1.520    outmost cutoff radius                                   
   RWIGS  =    1.500; RWIGS  =    0.794    wigner-seitz radius (au A)           
   ENMAX  =  400.000; ENMIN  =  300.000 eV                                      
   ICORE  =        2    local potential                                         
   LCOR   =        T    correct aug charges                                     
   LPAW   =        T    paw PP                                                  
   EAUG   =  613.614                                                            
   DEXC   =    0.000                                                            
   RMAX   =    1.555    core radius for proj-oper                               
   RAUG   =    1.300    factor for augmentation sphere                          
   RDEP   =    1.539    radius for radial grids                                 
   RDEPT  =    1.299    core radius for aug-charge                              
                                                                                
   Atomic configuration                                                         
    4 entries                                                                   
     n  l   j            E        occ.                                          
     1  0  0.50      -658.3386   2.0000                                         
     2  0  0.50       -29.6221   2.0000                                         
     2  1  0.50       -11.2952   5.0000                                         
     3  2  1.50       -12.2452   0.0000                                         
   Description                                                                  
     l       E           TYP  RCUT    TYP  RCUT                                 
     0    -29.6221019     23  1.200                                             
     0     -9.5240782     23  1.200                                             
     1    -11.2951545     23  1.520                                             
     1      1.3605826     23  1.520                                             
     2    -12.2452434      7  1.500                                             
  local pseudopotential read in
  partial core-charges read in
  partial kinetic energy density read in
  kinetic energy density of atom read in
  atomic valenz-charges read in
  non local Contribution for L=           0  read in
    real space projection operators read in
  non local Contribution for L=           0  read in
    real space projection operators read in
  non local Contribution for L=           1  read in
    real space projection operators read in
  non local Contribution for L=           1  read in
    real space projection operators read in
    PAW grid and wavefunctions read in
 
   number of l-projection  operators is LMAX  =           4
   number of lm-projection operators is LMMAX =           8
 
  PAW Mn_pv 02Aug2007                   :
 energy of atom  1       EATOM=-2028.0466
 kinetic energy error for atom=    0.0033 (will be added to EATOM!!)
  PAW F 31May2000                       :
 energy of atom  2       EATOM= -658.3685
 kinetic energy error for atom=    0.0194 (will be added to EATOM!!)
 
 
 POSCAR: Mn  F                                   
  positions in cartesian coordinates
  No initial velocities read in
 exchange correlation table for  LEXCH =        2
   RHO(1)=    0.500       N(1)  =     2000
   RHO(2)=  100.500       N(2)  =     4000
 


--------------------------------------------------------------------------------------------------------


 ion  position               nearest neighbor table
   1  0.500  0.500  0.500-   3 2.06   4 2.06   5 2.10   6 2.10   5 2.10   6 2.10
   2  0.000  0.000  0.000-   5 2.06   6 2.06   3 2.10   4 2.10   3 2.10   4 2.10
   3  0.196  0.804  0.500-   1 2.06   2 2.10   2 2.10
   4  0.804  0.196  0.500-   1 2.06   2 2.10   2 2.10
   5  0.304  0.304  0.000-   2 2.06   1 2.10   1 2.10
   6  0.696  0.696  0.000-   2 2.06   1 2.10   1 2.10
 
  LATTYP: Found a simple tetragonal cell.
 ALAT       =     4.7959042861
 C/A-ratio  =     0.6772201529
  
  Lattice vectors:
  
 A1 = (   4.7959042861,   0.0000000000,   0.0000000000)
 A2 = (   0.0000000000,   4.7959042861,   0.0000000000)
 A3 = (   0.0000000000,   0.0000000000,   3.2478830338)


Analysis of symmetry for initial positions (statically):
=====================================================================
 Subroutine PRICEL returns:
 Original cell was already a primitive cell.
 

 Routine SETGRP: Setting up the symmetry group for a 
 simple tetragonal supercell.


 Subroutine GETGRP returns: Found 16 space group operations
 (whereof  8 operations were pure point group operations)
 out of a pool of 16 trial point group operations.


The static configuration has the point symmetry D_2h.
 The point group associated with its full space group is D_4h.


Analysis of symmetry for dynamics (positions and initial velocities):
=====================================================================
 Subroutine PRICEL returns:
 Original cell was already a primitive cell.
 

 Routine SETGRP: Setting up the symmetry group for a 
 simple tetragonal supercell.


 Subroutine GETGRP returns: Found 16 space group operations
 (whereof  8 operations were pure point group operations)
 out of a pool of 16 trial point group operations.


The dynamic configuration has the point symmetry D_2h.
 The point group associated with its full space group is D_4h.


Analysis of structural, dynamic, and magnetic symmetry:
=====================================================================
 Subroutine PRICEL returns:
 Original cell was already a primitive cell.
 

 Routine SETGRP: Setting up the symmetry group for a 
 simple tetragonal supercell.


 Subroutine GETGRP returns: Found 16 space group operations
 (whereof  8 operations were pure point group operations)
 out of a pool of 16 trial point group operations.


The magnetic configuration has the point symmetry D_2h.
 The point group associated with its full space group is D_4h.


 Subroutine INISYM returns: Found 16 space group operations
 (whereof  8 operations are pure point group operations),
 and found     1 'primitive' translations

 
 
 KPOINTS: KPOINTS created by Atomic Simulation Env

Automatic generation of k-mesh.
Space group operators:
 irot       det(A)        alpha          n_x          n_y          n_z        tau_x        tau_y        tau_z
    1     1.000000     0.000000     1.000000     0.000000     0.000000     0.000000     0.000000     0.000000
    2    -1.000000     0.000000     1.000000     0.000000     0.000000     0.000000     0.000000     0.000000
    3     1.000000   180.000000     0.000000     0.000000     1.000000     0.000000     0.000000     0.000000
    4    -1.000000   180.000000     0.000000     0.000000     1.000000     0.000000     0.000000     0.000000
    5     1.000000   180.000000     0.707107     0.707107     0.000000     0.000000     0.000000     0.000000
    6    -1.000000   180.000000     0.707107     0.707107     0.000000     0.000000     0.000000     0.000000
    7     1.000000   180.000000     0.707107    -0.707107     0.000000     0.000000     0.000000     0.000000
    8    -1.000000   180.000000     0.707107    -0.707107     0.000000     0.000000     0.000000     0.000000
    9     1.000000    90.000000     0.000000     0.000000    -1.000000     0.500000     0.500000     0.500000
   10    -1.000000    90.000000     0.000000     0.000000    -1.000000     0.500000     0.500000     0.500000
   11     1.000000    90.000000     0.000000     0.000000     1.000000     0.500000     0.500000     0.500000
   12    -1.000000    90.000000     0.000000     0.000000     1.000000     0.500000     0.500000     0.500000
   13     1.000000   180.000000     0.000000     1.000000     0.000000     0.500000     0.500000     0.500000
   14    -1.000000   180.000000     0.000000     1.000000     0.000000     0.500000     0.500000     0.500000
   15     1.000000   180.000000     1.000000     0.000000     0.000000     0.500000     0.500000     0.500000
   16    -1.000000   180.000000     1.000000     0.000000     0.000000     0.500000     0.500000     0.500000
 
 Subroutine IBZKPT returns following result:
 ===========================================
 
 Found      9 irreducible k-points:
 
 Following reciprocal coordinates:
            Coordinates               Weight
  0.125000  0.125000  0.083333      8.000000
  0.375000  0.125000  0.083333     16.000000
  0.375000  0.375000  0.083333      8.000000
  0.125000  0.125000  0.250000      8.000000
  0.375000  0.125000  0.250000     16.000000
  0.375000  0.375000  0.250000      8.000000
  0.125000  0.125000  0.416667      8.000000
  0.375000  0.125000  0.416667     16.000000
  0.375000  0.375000  0.416667      8.000000
 
 Following cartesian coordinates:
            Coordinates               Weight
  0.026064  0.026064  0.025658      8.000000
  0.078192  0.026064  0.025658     16.000000
  0.078192  0.078192  0.025658      8.000000
  0.026064  0.026064  0.076973      8.000000
  0.078192  0.026064  0.076973     16.000000
  0.078192  0.078192  0.076973      8.000000
  0.026064  0.026064  0.128289      8.000000
  0.078192  0.026064  0.128289     16.000000
  0.078192  0.078192  0.128289      8.000000
 


--------------------------------------------------------------------------------------------------------




 Dimension of arrays:
   k-points           NKPTS =      9   k-points in BZ     NKDIM =      9   number of bands    NBANDS=     36
   number of dos      NEDOS =    301   number of ions     NIONS =      6
   non local maximal  LDIM  =      6   non local SUM 2l+1 LMDIM =     18
   total plane-waves  NPLWV =  18000
   max r-space proj   IRMAX =      1   max aug-charges    IRDMAX=  58682
   dimension x,y,z NGX =    30 NGY =   30 NGZ =   20
   dimension x,y,z NGXF=    60 NGYF=   60 NGZF=   40
   support grid    NGXF=   120 NGYF=  120 NGZF=   80
   ions per type =               2   4
   NGX,Y,Z   is equivalent  to a cutoff of  10.40, 10.40, 10.24 a.u.
   NGXF,Y,Z  is equivalent  to a cutoff of  20.80, 20.80, 20.47 a.u.

 SYSTEM =  unknown system                          
 POSCAR =  Mn  F                                   

 Startparameter for this run:
   NWRITE =      2    write-flag & timer
   PREC   = normal    normal or accurate (medium, high low for compatibility)
   ISTART =      0    job   : 0-new  1-cont  2-samecut
   ICHARG =      2    charge: 1-file 2-atom 10-const
   ISPIN  =      2    spin polarized calculation?
   LNONCOLLINEAR =      F non collinear calculations
   LSORBIT =      F    spin-orbit coupling
   INIWAV =      1    electr: 0-lowe 1-rand  2-diag
   LASPH  =      T    aspherical Exc in radial PAW
   METAGGA=      F    non-selfconsistent MetaGGA calc.

 Electronic Relaxation 1
   ENCUT  =  650.0 eV  47.77 Ry    6.91 a.u.   9.97  9.97  6.75*2*pi/ulx,y,z
   ENINI  =  650.0     initial cutoff
   ENAUG  =  613.6 eV  augmentation charge cutoff
   NELM   =     60;   NELMIN=  2; NELMDL= -5     # of ELM steps 
   EDIFF  = 0.1E-06   stopping-criterion for ELM
   LREAL  =      F    real-space projection
   NLSPLINE    = F    spline interpolate recip. space projectors
   LCOMPAT=      F    compatible to vasp.4.4
   GGA_COMPAT  = T    GGA compatible to vasp.4.4-vasp.4.6
   LMAXPAW     = -100 max onsite density
   LMAXMIX     =    4 max onsite mixed and CHGCAR
   VOSKOWN=      0    Vosko Wilk Nusair interpolation
   ROPT   =    0.00000   0.00000
 Ionic relaxation
   EDIFFG = -.5E-02   stopping-criterion for IOM
   NSW    =     50    number of steps for IOM
   NBLOCK =      1;   KBLOCK =     50    inner block; outer block 
   IBRION =      2    ionic relax: 0-MD 1-quasi-New 2-CG
   NFREE  =      1    steps in history (QN), initial steepest desc. (CG)
   ISIF   =      3    stress and relaxation
   IWAVPR =     11    prediction:  0-non 1-charg 2-wave 3-comb
   ISYM   =      2    0-nonsym 1-usesym 2-fastsym
   LCORR  =      T    Harris-Foulkes like correction to forces

   POTIM  = 0.5000    time-step for ionic-motion
   TEIN   =    0.0    initial temperature
   TEBEG  =    0.0;   TEEND  =   0.0 temperature during run
   SMASS  =  -3.00    Nose mass-parameter (am)
   estimated Nose-frequenzy (Omega)   =  0.10E-29 period in steps =****** mass=  -0.526E-27a.u.
   SCALEE = 1.0000    scale energy and forces
   NPACO  =    256;   APACO  = 16.0  distance and # of slots for P.C.
   PSTRESS=    0.0 pullay stress

  Mass of Ions in am
   POMASS =  54.94 19.00
  Ionic Valenz
   ZVAL   =  13.00  7.00
  Atomic Wigner-Seitz radii
   RWIGS  =  -1.00 -1.00
  virtual crystal weights 
   VCA    =   1.00  1.00
   NELECT =      54.0000    total number of electrons
   NUPDOWN=      -1.0000    fix difference up-down

 DOS related values:
   EMIN   =  10.00;   EMAX   =-10.00  energy-range for DOS
   EFERMI =   0.00
   ISMEAR =     0;   SIGMA  =   0.02  broadening in eV -4-tet -1-fermi 0-gaus

 Electronic relaxation 2 (details)
   IALGO  =     38    algorithm
   LDIAG  =      T    sub-space diagonalisation (order eigenvalues)
   LSUBROT=      F    optimize rotation matrix (better conditioning)
   TURBO    =      0    0=normal 1=particle mesh
   IRESTART =      0    0=no restart 2=restart with 2 vectors
   NREBOOT  =      0    no. of reboots
   NMIN     =      0    reboot dimension
   EREF     =   0.00    reference energy to select bands
   IMIX   =      4    mixing-type and parameters
     AMIX     =   0.40;   BMIX     =  1.00
     AMIX_MAG =   1.60;   BMIX_MAG =  1.00
     AMIN     =   0.10
     WC   =   100.;   INIMIX=   1;  MIXPRE=   1;  MAXMIX= -45

 Intra band minimization:
   WEIMIN = 0.0010     energy-eigenvalue tresh-hold
   EBREAK =  0.69E-09  absolut break condition
   DEPER  =   0.30     relativ break condition  

   TIME   =   0.40     timestep for ELM

  volume/ion in A,a.u.               =      12.45        84.02
  Fermi-wavevector in a.u.,A,eV,Ry     =   1.469238  2.776458 29.370375  2.158662
  Thomas-Fermi vector in A             =   2.584640
 
 Write flags
   LWAVE        =      F    write WAVECAR
   LDOWNSAMPLE  =      F    k-point downsampling of WAVECAR
   LCHARG       =      F    write CHGCAR
   LVTOT        =      F    write LOCPOT, total local potential
   LVHAR        =      F    write LOCPOT, Hartree potential only
   LELF         =      F    write electronic localiz. function (ELF)
   LORBIT       =     11    0 simple, 1 ext, 2 COOP (PROOUT), +10 PAW based schemes


 Dipole corrections
   LMONO  =      F    monopole corrections only (constant potential shift)
   LDIPOL =      F    correct potential (dipole corrections)
   IDIPOL =      0    1-x, 2-y, 3-z, 4-all directions 
   EPSILON=  1.0000000 bulk dielectric constant

 LDA+U is selected, type is set to LDAUTYPE =  2
   angular momentum for each species LDAUL =     2   -1
   U (eV)           for each species LDAUU =   4.0  0.0
   J (eV)           for each species LDAUJ =   0.0  0.0
 Exchange correlation treatment:
   GGA     =    --    GGA type
   LEXCH   =     2    internal setting for exchange type
   VOSKOWN=      0    Vosko Wilk Nusair interpolation
   LHFCALC =     F    Hartree Fock is set to
   LHFONE  =     F    Hartree Fock one center treatment
   AEXX    =    0.0000 exact exchange contribution

 Linear response parameters
   LEPSILON=     F    determine dielectric tensor
   LRPA    =     F    only Hartree local field effects (RPA)
   LNABLA  =     F    use nabla operator in PAW spheres
   LVEL    =     F    velocity operator in full k-point grid
   LINTERFAST=   F  fast interpolation
   KINTER  =     0    interpolate to denser k-point grid
   CSHIFT  =0.1000    complex shift for real part using Kramers Kronig
   OMEGAMAX=  -1.0    maximum frequency
   DEG_THRESHOLD= 0.2000000E-02 threshold for treating states as degnerate
   RTIME   =   -0.100 relaxation time in fs
  (WPLASMAI=    0.000 imaginary part of plasma frequency in eV, 0.658/RTIME)
   DFIELD  = 0.0000000 0.0000000 0.0000000 field for delta impulse in time
 
 Orbital magnetization related:
   ORBITALMAG=     F  switch on orbital magnetization
   LCHIMAG   =     F  perturbation theory with respect to B field
   DQ        =  0.001000  dq finite difference perturbation B field
   LLRAUG    =     F  two centre corrections for induced B field



--------------------------------------------------------------------------------------------------------


 conjugate gradient relaxation of ions
 charge density and potential will be updated during run
 spin polarized calculation
 Variant of blocked Davidson
 Davidson routine will perform the subspace rotation
 perform sub-space diagonalisation
    after iterative eigenvector-optimisation
 modified Broyden-mixing scheme, WC =      100.0
 initial mixing is a Kerker type mixing with AMIX =  0.4000 and BMIX =      1.0000
 Hartree-type preconditioning will be used
 using additional bands            9
 reciprocal scheme for non local part
 use partial core corrections
 calculate Harris-corrections to forces 
   (improved forces if not selfconsistent)
 use of overlap-Matrix (Vanderbilt PP)
 Gauss-broadening in eV      SIGMA  =   0.02


--------------------------------------------------------------------------------------------------------


  energy-cutoff  :      650.00
  volume of cell :       74.70
      direct lattice vectors                 reciprocal lattice vectors
     4.795904286  0.000000000  0.000000000     0.208511251  0.000000000  0.000000000
     0.000000000  4.795904286  0.000000000     0.000000000  0.208511251  0.000000000
     0.000000000  0.000000000  3.247883034     0.000000000  0.000000000  0.307892861

  length of vectors
     4.795904286  4.795904286  3.247883034     0.208511251  0.208511251  0.307892861


 
 k-points in units of 2pi/SCALE and weight: KPOINTS created by Atomic Simulation Env
   0.02606391  0.02606391  0.02565774       0.083
   0.07819172  0.02606391  0.02565774       0.167
   0.07819172  0.07819172  0.02565774       0.083
   0.02606391  0.02606391  0.07697322       0.083
   0.07819172  0.02606391  0.07697322       0.167
   0.07819172  0.07819172  0.07697322       0.083
   0.02606391  0.02606391  0.12828869       0.083
   0.07819172  0.02606391  0.12828869       0.167
   0.07819172  0.07819172  0.12828869       0.083
 
 k-points in reciprocal lattice and weights: KPOINTS created by Atomic Simulation Env
   0.12500000  0.12500000  0.08333333       0.083
   0.37500000  0.12500000  0.08333333       0.167
   0.37500000  0.37500000  0.08333333       0.083
   0.12500000  0.12500000  0.25000000       0.083
   0.37500000  0.12500000  0.25000000       0.167
   0.37500000  0.37500000  0.25000000       0.083
   0.12500000  0.12500000  0.41666667       0.083
   0.37500000  0.12500000  0.41666667       0.167
   0.37500000  0.37500000  0.41666667       0.083
 
 position of ions in fractional coordinates (direct lattice) 
   0.50000000  0.50000000  0.50000000
   0.00000000  0.00000000  0.00000000
   0.19593145  0.80406855  0.50000000
   0.80406855  0.19593145  0.50000000
   0.30406855  0.30406855  0.00000000
   0.69593145  0.69593145  0.00000000
 
 position of ions in cartesian coordinates  (Angst):
   2.39795214  2.39795214  1.62394152
   0.00000000  0.00000000  0.00000000
   0.93966849  3.85623580  1.62394152
   3.85623580  0.93966849  1.62394152
   1.45828365  1.45828365  0.00000000
   3.33762063  3.33762063  0.00000000
 


--------------------------------------------------------------------------------------------------------


 k-point  1 :   0.1250 0.1250 0.0833  plane waves:    2795
 k-point  2 :   0.3750 0.1250 0.0833  plane waves:    2805
 k-point  3 :   0.3750 0.3750 0.0833  plane waves:    2828
 k-point  4 :   0.1250 0.1250 0.2500  plane waves:    2800
 k-point  5 :   0.3750 0.1250 0.2500  plane waves:    2812
 k-point  6 :   0.3750 0.3750 0.2500  plane waves:    2805
 k-point  7 :   0.1250 0.1250 0.4167  plane waves:    2816
 k-point  8 :   0.3750 0.1250 0.4167  plane waves:    2816
 k-point  9 :   0.3750 0.3750 0.4167  plane waves:    2805

 maximum and minimum number of plane-waves per node :      2828     2795

 maximum number of plane-waves:      2828
 maximum index in each direction: 
   IXMAX=    9   IYMAX=    9   IZMAX=    6
   IXMIN=  -10   IYMIN=  -10   IZMIN=   -7


 serial   3D FFT for wavefunctions
 parallel 3D FFT for charge:
    minimum data exchange during FFTs selected (reduces bandwidth)


 total amount of memory used by VASP MPI-rank0    44649. kBytes
=======================================================================

   base      :      30000. kBytes
   nonl-proj :       7612. kBytes
   fftplans  :       1875. kBytes
   grid      :       2467. kBytes
   one-center:        186. kBytes
   wavefun   :       2509. kBytes
 
     INWAV:  cpu time    0.0000: real time    0.0000
 Broyden mixing: mesh for mixing (old mesh)
   NGX = 19   NGY = 19   NGZ = 13
  (NGX  = 60   NGY  = 60   NGZ  = 40)
  gives a total of   4693 points

 initial charge density was supplied:
 charge density of overlapping atoms calculated
 number of electron      54.0000000 magnetization       0.0000000
 keeping initial charge density in first step


--------------------------------------------------------------------------------------------------------


 Maximum index for augmentation-charges         4435 (set IRDMAX)


--------------------------------------------------------------------------------------------------------


 First call to EWALD:  gamma=   0.421
 Maximum number of real-space cells 2x 2x 3
 Maximum number of reciprocal cells 3x 3x 2

    FEWALD:  cpu time    0.0009: real time    0.0009


--------------------------------------- Iteration      1(   1)  ---------------------------------------


    POTLOK:  cpu time    0.0065: real time    0.0065
    SETDIJ:  cpu time    0.2298: real time    0.2298
atom =   1  type =  1  l = 2
 
 onsite density matrix
 
spin component  1
 
  0.2837  0.0000  0.0000  0.0000  0.0000
  0.0000  0.2837  0.0000  0.0000  0.0000
  0.0000  0.0000  0.2837  0.0000  0.0000
  0.0000  0.0000  0.0000  0.2837  0.0000
  0.0000  0.0000  0.0000  0.0000  0.2837
 
spin component  2
 
  0.7701  0.0000  0.0000  0.0000  0.0000
  0.0000  0.7701  0.0000  0.0000  0.0000
  0.0000  0.0000  0.7701  0.0000  0.0000
  0.0000  0.0000  0.0000  0.7701  0.0000
  0.0000  0.0000  0.0000  0.0000  0.7701
 
 occupancies and eigenvectors
 
  o =  0.2837  v =  1.0000  0.0000  0.0000  0.0000  0.0000  0.0000  0.0000  0.0000  0.0000  0.0000      0.0000  0.0000  0.0000  0.0000  0.0000  0.0000  0.0000  0.0000  0.0000  0.0000
  o =  0.2837  v =  0.0000  1.0000  0.0000  0.0000  0.0000  0.0000  0.0000  0.0000  0.0000  0.0000      0.0000  0.0000  0.0000  0.0000  0.0000  0.0000  0.0000  0.0000  0.0000  0.0000
  o =  0.2837  v =  0.0000  0.0000  1.0000  0.0000  0.0000  0.0000  0.0000  0.0000  0.0000  0.0000      0.0000  0.0000  0.0000  0.0000  0.0000  0.0000  0.0000  0.0000  0.0000  0.0000
  o =  0.2837  v =  0.0000  0.0000  0.0000  1.0000  0.0000  0.0000  0.0000  0.0000  0.0000  0.0000      0.0000  0.0000  0.0000  0.0000  0.0000  0.0000  0.0000  0.0000  0.0000  0.0000
  o =  0.2837  v =  0.0000  0.0000  0.0000  0.0000  1.0000  0.0000  0.0000  0.0000  0.0000  0.0000      0.0000  0.0000  0.0000  0.0000  0.0000  0.0000  0.0000  0.0000  0.0000  0.0000
  o =  0.7701  v =  0.0000  0.0000  0.0000  0.0000  0.0000  1.0000  0.0000  0.0000  0.0000  0.0000      0.0000  0.0000  0.0000  0.0000  0.0000  0.0000  0.0000  0.0000  0.0000  0.0000
  o =  0.7701  v =  0.0000  0.0000  0.0000  0.0000  0.0000  0.0000  1.0000  0.0000  0.0000  0.0000      0.0000  0.0000  0.0000  0.0000  0.0000  0.0000  0.0000  0.0000  0.0000  0.0000
  o =  0.7701  v =  0.0000  0.0000  0.0000  0.0000  0.0000  0.0000  0.0000  1.0000  0.0000  0.0000      0.0000  0.0000  0.0000  0.0000  0.0000  0.0000  0.0000  0.0000  0.0000  0.0000
  o =  0.7701  v =  0.0000  0.0000  0.0000  0.0000  0.0000  0.0000  0.0000  0.0000  1.0000  0.0000      0.0000  0.0000  0.0000  0.0000  0.0000  0.0000  0.0000  0.0000  0.0000  0.0000
  o =  0.7701  v =  0.0000  0.0000  0.0000  0.0000  0.0000  0.0000  0.0000  0.0000  0.0000  1.0000      0.0000  0.0000  0.0000  0.0000  0.0000  0.0000  0.0000  0.0000  0.0000  0.0000
atom =   2  type =  1  l = 2
 
 onsite density matrix
 
spin component  1
 
  0.7701  0.0000  0.0000  0.0000  0.0000
  0.0000  0.7701  0.0000  0.0000  0.0000
  0.0000  0.0000  0.7701  0.0000  0.0000
  0.0000  0.0000  0.0000  0.7701  0.0000
  0.0000  0.0000  0.0000  0.0000  0.7701
 
spin component  2
 
  0.2837  0.0000  0.0000  0.0000  0.0000
  0.0000  0.2837  0.0000  0.0000  0.0000
  0.0000  0.0000  0.2837  0.0000  0.0000
  0.0000  0.0000  0.0000  0.2837  0.0000
  0.0000  0.0000  0.0000  0.0000  0.2837
 
 occupancies and eigenvectors
 
  o =  0.2837  v =  0.0000  0.0000  0.0000  0.0000  0.0000  1.0000  0.0000  0.0000  0.0000  0.0000      0.0000  0.0000  0.0000  0.0000  0.0000  0.0000  0.0000  0.0000  0.0000  0.0000
  o =  0.2837  v =  0.0000  0.0000  0.0000  0.0000  0.0000  0.0000  1.0000  0.0000  0.0000  0.0000      0.0000  0.0000  0.0000  0.0000  0.0000  0.0000  0.0000  0.0000  0.0000  0.0000
  o =  0.2837  v =  0.0000  0.0000  0.0000  0.0000  0.0000  0.0000  0.0000  1.0000  0.0000  0.0000      0.0000  0.0000  0.0000  0.0000  0.0000  0.0000  0.0000  0.0000  0.0000  0.0000
  o =  0.2837  v =  0.0000  0.0000  0.0000  0.0000  0.0000  0.0000  0.0000  0.0000  1.0000  0.0000      0.0000  0.0000  0.0000  0.0000  0.0000  0.0000  0.0000  0.0000  0.0000  0.0000
  o =  0.2837  v =  0.0000  0.0000  0.0000  0.0000  0.0000  0.0000  0.0000  0.0000  0.0000  1.0000      0.0000  0.0000  0.0000  0.0000  0.0000  0.0000  0.0000  0.0000  0.0000  0.0000
  o =  0.7701  v =  1.0000  0.0000  0.0000  0.0000  0.0000  0.0000  0.0000  0.0000  0.0000  0.0000      0.0000  0.0000  0.0000  0.0000  0.0000  0.0000  0.0000  0.0000  0.0000  0.0000
  o =  0.7701  v =  0.0000  1.0000  0.0000  0.0000  0.0000  0.0000  0.0000  0.0000  0.0000  0.0000      0.0000  0.0000  0.0000  0.0000  0.0000  0.0000  0.0000  0.0000  0.0000  0.0000
  o =  0.7701  v =  0.0000  0.0000  1.0000  0.0000  0.0000  0.0000  0.0000  0.0000  0.0000  0.0000      0.0000  0.0000  0.0000  0.0000  0.0000  0.0000  0.0000  0.0000  0.0000  0.0000
  o =  0.7701  v =  0.0000  0.0000  0.0000  1.0000  0.0000  0.0000  0.0000  0.0000  0.0000  0.0000      0.0000  0.0000  0.0000  0.0000  0.0000  0.0000  0.0000  0.0000  0.0000  0.0000
  o =  0.7701  v =  0.0000  0.0000  0.0000  0.0000  1.0000  0.0000  0.0000  0.0000  0.0000  0.0000      0.0000  0.0000  0.0000  0.0000  0.0000  0.0000  0.0000  0.0000  0.0000  0.0000
     EDDAV:  cpu time    0.3582: real time    0.3767
       DOS:  cpu time    0.0004: real time    0.0004
    --------------------------------------------
      LOOP:  cpu time    0.5949: real time    0.6134

 eigenvalue-minimisations  :  1296
 total energy-change (2. order) : 0.7029618E+03  (-0.3595150E+04)
 number of electron      54.0000000 magnetization       0.0000000
 augmentation part       54.0000000 magnetization       0.0000000

 Free energy of the ion-electron system (eV)
  ---------------------------------------------------
  alpha Z        PSCENC =       203.95051221
  Ewald energy   TEWEN  =     -4253.05950503
  -Hartree energ DENC   =     -2091.75274385
  -exchange      EXHF   =         0.00000000
  -V(xc)+E(xc)   XCENC  =       295.21122973
  PAW double counting   =      5431.03059579    -5549.10764102
  entropy T*S    EENTRO =        -0.00145946
  eigenvalues    EBANDS =       -22.79237465
  atomic energy  EATOM  =      6689.48322167
  Solvation  Ediel_sol  =         0.00000000
  ---------------------------------------------------
  free energy    TOTEN  =       702.96183539 eV

  energy without entropy =      702.96329485  energy(sigma->0) =      702.96256512


--------------------------------------------------------------------------------------------------------




--------------------------------------- Iteration      1(   2)  ---------------------------------------


     EDDAV:  cpu time    0.3942: real time    0.3942
       DOS:  cpu time    0.0002: real time    0.0002
    --------------------------------------------
      LOOP:  cpu time    0.3944: real time    0.3944

 eigenvalue-minimisations  :  1500
 total energy-change (2. order) :-0.6928042E+03  (-0.6711966E+03)
 number of electron      54.0000000 magnetization       0.0000000
 augmentation part       54.0000000 magnetization       0.0000000

 Free energy of the ion-electron system (eV)
  ---------------------------------------------------
  alpha Z        PSCENC =       203.95051221
  Ewald energy   TEWEN  =     -4253.05950503
  -Hartree energ DENC   =     -2091.75274385
  -exchange      EXHF   =         0.00000000
  -V(xc)+E(xc)   XCENC  =       295.21122973
  PAW double counting   =      5431.03059579    -5549.10764102
  entropy T*S    EENTRO =        -0.00000000
  eigenvalues    EBANDS =      -715.59802652
  atomic energy  EATOM  =      6689.48322167
  Solvation  Ediel_sol  =         0.00000000
  ---------------------------------------------------
  free energy    TOTEN  =        10.15764298 eV

  energy without entropy =       10.15764298  energy(sigma->0) =       10.15764298


--------------------------------------------------------------------------------------------------------




--------------------------------------- Iteration      1(   3)  ---------------------------------------


     EDDAV:  cpu time    0.3928: real time    0.3928
       DOS:  cpu time    0.0002: real time    0.0002
    --------------------------------------------
      LOOP:  cpu time    0.3930: real time    0.3930

 eigenvalue-minimisations  :  1488
 total energy-change (2. order) :-0.5087543E+02  (-0.5065749E+02)
 number of electron      54.0000000 magnetization       0.0000000
 augmentation part       54.0000000 magnetization       0.0000000

 Free energy of the ion-electron system (eV)
  ---------------------------------------------------
  alpha Z        PSCENC =       203.95051221
  Ewald energy   TEWEN  =     -4253.05950503
  -Hartree energ DENC   =     -2091.75274385
  -exchange      EXHF   =         0.00000000
  -V(xc)+E(xc)   XCENC  =       295.21122973
  PAW double counting   =      5431.03059579    -5549.10764102
  entropy T*S    EENTRO =        -0.00000000
  eigenvalues    EBANDS =      -766.47345842
  atomic energy  EATOM  =      6689.48322167
  Solvation  Ediel_sol  =         0.00000000
  ---------------------------------------------------
  free energy    TOTEN  =       -40.71778891 eV

  energy without entropy =      -40.71778891  energy(sigma->0) =      -40.71778891


--------------------------------------------------------------------------------------------------------




--------------------------------------- Iteration      1(   4)  ---------------------------------------


     EDDAV:  cpu time    0.3941: real time    0.3941
       DOS:  cpu time    0.0002: real time    0.0002
    --------------------------------------------
      LOOP:  cpu time    0.3943: real time    0.3943

 eigenvalue-minimisations  :  1488
 total energy-change (2. order) :-0.6921471E+00  (-0.6918457E+00)
 number of electron      54.0000000 magnetization       0.0000000
 augmentation part       54.0000000 magnetization       0.0000000

 Free energy of the ion-electron system (eV)
  ---------------------------------------------------
  alpha Z        PSCENC =       203.95051221
  Ewald energy   TEWEN  =     -4253.05950503
  -Hartree energ DENC   =     -2091.75274385
  -exchange      EXHF   =         0.00000000
  -V(xc)+E(xc)   XCENC  =       295.21122973
  PAW double counting   =      5431.03059579    -5549.10764102
  entropy T*S    EENTRO =        -0.00000000
  eigenvalues    EBANDS =      -767.16560554
  atomic energy  EATOM  =      6689.48322167
  Solvation  Ediel_sol  =         0.00000000
  ---------------------------------------------------
  free energy    TOTEN  =       -41.40993604 eV

  energy without entropy =      -41.40993604  energy(sigma->0) =      -41.40993604


--------------------------------------------------------------------------------------------------------




--------------------------------------- Iteration      1(   5)  ---------------------------------------


     EDDAV:  cpu time    0.4018: real time    0.4019
       DOS:  cpu time    0.0002: real time    0.0002
    CHARGE:  cpu time    0.0364: real time    0.0364
    MIXING:  cpu time    0.0005: real time    0.0005
    --------------------------------------------
      LOOP:  cpu time    0.4390: real time    0.4390

 eigenvalue-minimisations  :  1524
 total energy-change (2. order) :-0.1096348E-01  (-0.1096337E-01)
 number of electron      53.9999998 magnetization       0.0000000
 augmentation part       20.1211369 magnetization       0.0000000

 Broyden mixing:
  rms(total) = 0.24755E+01    rms(broyden)= 0.24755E+01
  rms(prec ) = 0.32101E+01
  weight for this iteration     100.00

 Free energy of the ion-electron system (eV)
  ---------------------------------------------------
  alpha Z        PSCENC =       203.95051221
  Ewald energy   TEWEN  =     -4253.05950503
  -Hartree energ DENC   =     -2091.75274385
  -exchange      EXHF   =         0.00000000
  -V(xc)+E(xc)   XCENC  =       295.21122973
  PAW double counting   =      5431.03059579    -5549.10764102
  entropy T*S    EENTRO =        -0.00000000
  eigenvalues    EBANDS =      -767.17656902
  atomic energy  EATOM  =      6689.48322167
  Solvation  Ediel_sol  =         0.00000000
  ---------------------------------------------------
  free energy    TOTEN  =       -41.42089951 eV

  energy without entropy =      -41.42089951  energy(sigma->0) =      -41.42089951


--------------------------------------------------------------------------------------------------------




--------------------------------------- Iteration      1(   6)  ---------------------------------------


    POTLOK:  cpu time    0.0047: real time    0.0047
    SETDIJ:  cpu time    0.2293: real time    0.2293
atom =   1  type =  1  l = 2
 
 onsite density matrix
 
spin component  1
 
 -0.0728  0.0000  0.0050  0.0000  0.0000
  0.0000 -0.0764  0.0000  0.0034  0.0000
  0.0050  0.0000 -0.0741  0.0000 -0.0000
  0.0000  0.0034  0.0000 -0.0764  0.0000
  0.0000  0.0000 -0.0000  0.0000 -0.0829
 
spin component  2
 
  1.1008  0.0000  0.0137  0.0000 -0.0000
  0.0000  1.0986  0.0000  0.0123  0.0000
  0.0137  0.0000  1.0920  0.0000 -0.0000
  0.0000  0.0123  0.0000  1.0986  0.0000
 -0.0000  0.0000 -0.0000  0.0000  1.0887
 
 occupancies and eigenvectors
 
  o = -0.0829  v =  0.0000  0.0000 -0.0000  0.0000 -1.0000  0.0000  0.0000  0.0000  0.0000  0.0000      0.0000  0.0000  0.0000  0.0000  0.0000  0.0000  0.0000  0.0000  0.0000  0.0000
  o = -0.0797  v =  0.0000  0.7071  0.0000 -0.7071  0.0000  0.0000  0.0000  0.0000  0.0000  0.0000      0.0000  0.0000  0.0000  0.0000  0.0000  0.0000  0.0000  0.0000  0.0000  0.0000
  o = -0.0785  v = -0.6619  0.0000  0.7496  0.0000 -0.0000  0.0000  0.0000  0.0000  0.0000  0.0000      0.0000  0.0000  0.0000  0.0000  0.0000  0.0000  0.0000  0.0000  0.0000  0.0000
  o = -0.0730  v =  0.0000  0.7071  0.0000  0.7071  0.0000  0.0000  0.0000  0.0000  0.0000  0.0000      0.0000  0.0000  0.0000  0.0000  0.0000  0.0000  0.0000  0.0000  0.0000  0.0000
  o = -0.0684  v =  0.7496  0.0000  0.6619  0.0000 -0.0000  0.0000  0.0000  0.0000  0.0000  0.0000      0.0000  0.0000  0.0000  0.0000  0.0000  0.0000  0.0000  0.0000  0.0000  0.0000
  o =  1.0820  v =  0.0000  0.0000  0.0000  0.0000  0.0000 -0.5887  0.0000  0.8083 -0.0000  0.0000      0.0000  0.0000  0.0000  0.0000  0.0000  0.0000  0.0000  0.0000  0.0000  0.0000
  o =  1.0863  v =  0.0000  0.0000  0.0000  0.0000  0.0000  0.0000  0.7071 -0.0000 -0.7071 -0.0000      0.0000  0.0000  0.0000  0.0000  0.0000  0.0000  0.0000  0.0000  0.0000  0.0000
  o =  1.0887  v =  0.0000  0.0000  0.0000  0.0000  0.0000  0.0000  0.0000 -0.0000 -0.0000  1.0000      0.0000  0.0000  0.0000  0.0000  0.0000  0.0000  0.0000  0.0000  0.0000  0.0000
  o =  1.1107  v =  0.0000  0.0000  0.0000  0.0000  0.0000 -0.8083 -0.0000 -0.5887 -0.0000  0.0000      0.0000  0.0000  0.0000  0.0000  0.0000  0.0000  0.0000  0.0000  0.0000  0.0000
  o =  1.1108  v =  0.0000  0.0000  0.0000  0.0000  0.0000  0.0000 -0.7071  0.0000 -0.7071 -0.0000      0.0000  0.0000  0.0000  0.0000  0.0000  0.0000  0.0000  0.0000  0.0000  0.0000
atom =   2  type =  1  l = 2
 
 onsite density matrix
 
spin component  1
 
  1.1008  0.0000 -0.0137  0.0000 -0.0000
  0.0000  1.0986  0.0000 -0.0123  0.0000
 -0.0137  0.0000  1.0920  0.0000 -0.0000
  0.0000 -0.0123  0.0000  1.0986  0.0000
 -0.0000  0.0000 -0.0000  0.0000  1.0887
 
spin component  2
 
 -0.0728  0.0000 -0.0050  0.0000  0.0000
  0.0000 -0.0764  0.0000 -0.0034  0.0000
 -0.0050  0.0000 -0.0741  0.0000 -0.0000
  0.0000 -0.0034  0.0000 -0.0764  0.0000
  0.0000  0.0000 -0.0000  0.0000 -0.0829
 
 occupancies and eigenvectors
 
  o = -0.0829  v =  0.0000  0.0000  0.0000  0.0000  0.0000  0.0000 -0.0000  0.0000  0.0000  1.0000      0.0000  0.0000  0.0000  0.0000  0.0000  0.0000  0.0000  0.0000  0.0000  0.0000
  o = -0.0797  v =  0.0000  0.0000  0.0000  0.0000  0.0000  0.0000  0.7071  0.0000  0.7071  0.0000      0.0000  0.0000  0.0000  0.0000  0.0000  0.0000  0.0000  0.0000  0.0000  0.0000
  o = -0.0785  v =  0.0000  0.0000  0.0000  0.0000  0.0000 -0.6619 -0.0000 -0.7496  0.0000  0.0000      0.0000  0.0000  0.0000  0.0000  0.0000  0.0000  0.0000  0.0000  0.0000  0.0000
  o = -0.0730  v =  0.0000  0.0000  0.0000  0.0000  0.0000  0.0000 -0.7071  0.0000  0.7071 -0.0000      0.0000  0.0000  0.0000  0.0000  0.0000  0.0000  0.0000  0.0000  0.0000  0.0000
  o = -0.0684  v =  0.0000  0.0000  0.0000  0.0000  0.0000  0.7496 -0.0000 -0.6619  0.0000  0.0000      0.0000  0.0000  0.0000  0.0000  0.0000  0.0000  0.0000  0.0000  0.0000  0.0000
  o =  1.0820  v = -0.5887  0.0000 -0.8083  0.0000 -0.0000  0.0000  0.0000  0.0000  0.0000  0.0000      0.0000  0.0000  0.0000  0.0000  0.0000  0.0000  0.0000  0.0000  0.0000  0.0000
  o =  1.0863  v = -0.0000 -0.7071 -0.0000 -0.7071 -0.0000  0.0000  0.0000  0.0000  0.0000  0.0000      0.0000  0.0000  0.0000  0.0000  0.0000  0.0000  0.0000  0.0000  0.0000  0.0000
  o =  1.0887  v = -0.0000 -0.0000 -0.0000 -0.0000  1.0000  0.0000  0.0000  0.0000  0.0000  0.0000      0.0000  0.0000  0.0000  0.0000  0.0000  0.0000  0.0000  0.0000  0.0000  0.0000
  o =  1.1107  v = -0.8083 -0.0000  0.5887  0.0000 -0.0000  0.0000  0.0000  0.0000  0.0000  0.0000      0.0000  0.0000  0.0000  0.0000  0.0000  0.0000  0.0000  0.0000  0.0000  0.0000
  o =  1.1108  v =  0.0000 -0.7071 -0.0000  0.7071  0.0000  0.0000  0.0000  0.0000  0.0000  0.0000      0.0000  0.0000  0.0000  0.0000  0.0000  0.0000  0.0000  0.0000  0.0000  0.0000
     EDDAV:  cpu time    0.4236: real time    0.4236
       DOS:  cpu time    0.0002: real time    0.0002
    CHARGE:  cpu time    0.0369: real time    0.0369
    MIXING:  cpu time    0.0005: real time    0.0005
    --------------------------------------------
      LOOP:  cpu time    0.6952: real time    0.6952

 eigenvalue-minimisations  :  1620
 total energy-change (2. order) : 0.2072121E+01  (-0.1565628E+01)
 number of electron      53.9999998 magnetization      -0.0000000
 augmentation part       19.9689987 magnetization      -0.0000000

 Broyden mixing:
  rms(total) = 0.15917E+01    rms(broyden)= 0.15916E+01
  rms(prec ) = 0.16416E+01
  weight for this iteration     100.00

 eigenvalues of (default mixing * dielectric matrix)
  average eigenvalue GAMMA=   0.8128
  0.8128

 Free energy of the ion-electron system (eV)
  ---------------------------------------------------
  alpha Z        PSCENC =       203.95051221
  Ewald energy   TEWEN  =     -4253.05950503
  -Hartree energ DENC   =     -2114.56804483
  -exchange      EXHF   =         0.00000000
  -V(xc)+E(xc)   XCENC  =       295.82575536
  PAW double counting   =      5723.93222281    -5833.55252965
  entropy T*S    EENTRO =        -0.00000000
  eigenvalues    EBANDS =      -751.36041130
  atomic energy  EATOM  =      6689.48322167
  Solvation  Ediel_sol  =         0.00000000
  ---------------------------------------------------
  free energy    TOTEN  =       -39.34877877 eV

  energy without entropy =      -39.34877877  energy(sigma->0) =      -39.34877877


--------------------------------------------------------------------------------------------------------




--------------------------------------- Iteration      1(   7)  ---------------------------------------


    POTLOK:  cpu time    0.0046: real time    0.0046
    SETDIJ:  cpu time    0.2290: real time    0.2290
atom =   1  type =  1  l = 2
 
 onsite density matrix
 
spin component  1
 
  0.1243  0.0000  0.0222  0.0000 -0.0000
  0.0000  0.1173  0.0000  0.0184  0.0000
  0.0222  0.0000  0.1119  0.0000 -0.0000
  0.0000  0.0184  0.0000  0.1173  0.0000
 -0.0000  0.0000 -0.0000  0.0000  0.0977
 
spin component  2
 
  0.8991  0.0000  0.0074  0.0000 -0.0000
  0.0000  0.8970  0.0000  0.0064  0.0000
  0.0074  0.0000  0.8953  0.0000 -0.0000
  0.0000  0.0064  0.0000  0.8970  0.0000
 -0.0000  0.0000 -0.0000  0.0000  0.8902
 
 occupancies and eigenvectors
 
  o =  0.0950  v = -0.6042  0.0000  0.7969 -0.0000  0.0000  0.0000  0.0000  0.0000  0.0000  0.0000      0.0000  0.0000  0.0000  0.0000  0.0000  0.0000  0.0000  0.0000  0.0000  0.0000
  o =  0.0977  v = -0.0000  0.0000  0.0000 -0.0000 -1.0000  0.0000  0.0000  0.0000  0.0000  0.0000      0.0000  0.0000  0.0000  0.0000  0.0000  0.0000  0.0000  0.0000  0.0000  0.0000
  o =  0.0989  v = -0.0000 -0.7071  0.0000  0.7071 -0.0000  0.0000  0.0000  0.0000  0.0000  0.0000      0.0000  0.0000  0.0000  0.0000  0.0000  0.0000  0.0000  0.0000  0.0000  0.0000
  o =  0.1356  v = -0.0000 -0.7071 -0.0000 -0.7071  0.0000  0.0000  0.0000  0.0000  0.0000  0.0000      0.0000  0.0000  0.0000  0.0000  0.0000  0.0000  0.0000  0.0000  0.0000  0.0000
  o =  0.1412  v = -0.7969  0.0000 -0.6042  0.0000  0.0000  0.0000  0.0000  0.0000  0.0000  0.0000      0.0000  0.0000  0.0000  0.0000  0.0000  0.0000  0.0000  0.0000  0.0000  0.0000
  o =  0.8896  v =  0.0000  0.0000  0.0000  0.0000  0.0000 -0.6129  0.0000  0.7902 -0.0000  0.0000      0.0000  0.0000  0.0000  0.0000  0.0000  0.0000  0.0000  0.0000  0.0000  0.0000
  o =  0.8902  v =  0.0000  0.0000  0.0000  0.0000  0.0000  0.0000 -0.0000 -0.0000  0.0000  1.0000      0.0000  0.0000  0.0000  0.0000  0.0000  0.0000  0.0000  0.0000  0.0000  0.0000
  o =  0.8906  v =  0.0000  0.0000  0.0000  0.0000  0.0000  0.0000  0.7071 -0.0000 -0.7071  0.0000      0.0000  0.0000  0.0000  0.0000  0.0000  0.0000  0.0000  0.0000  0.0000  0.0000
  o =  0.9034  v =  0.0000  0.0000  0.0000  0.0000  0.0000  0.0000  0.7071  0.0000  0.7071 -0.0000      0.0000  0.0000  0.0000  0.0000  0.0000  0.0000  0.0000  0.0000  0.0000  0.0000
  o =  0.9049  v =  0.0000  0.0000  0.0000  0.0000  0.0000 -0.7902  0.0000 -0.6129  0.0000  0.0000      0.0000  0.0000  0.0000  0.0000  0.0000  0.0000  0.0000  0.0000  0.0000  0.0000
atom =   2  type =  1  l = 2
 
 onsite density matrix
 
spin component  1
 
  0.8991  0.0000 -0.0074  0.0000  0.0000
  0.0000  0.8970  0.0000 -0.0064  0.0000
 -0.0074  0.0000  0.8953  0.0000  0.0000
  0.0000 -0.0064  0.0000  0.8970  0.0000
  0.0000  0.0000  0.0000  0.0000  0.8902
 
spin component  2
 
  0.1243  0.0000 -0.0222  0.0000 -0.0000
  0.0000  0.1173  0.0000 -0.0184  0.0000
 -0.0222  0.0000  0.1119  0.0000 -0.0000
  0.0000 -0.0184  0.0000  0.1173  0.0000
 -0.0000  0.0000 -0.0000  0.0000  0.0977
 
 occupancies and eigenvectors
 
  o =  0.0950  v =  0.0000  0.0000  0.0000  0.0000  0.0000 -0.6042 -0.0000 -0.7969  0.0000 -0.0000      0.0000  0.0000  0.0000  0.0000  0.0000  0.0000  0.0000  0.0000  0.0000  0.0000
  o =  0.0977  v =  0.0000  0.0000  0.0000  0.0000  0.0000 -0.0000  0.0000 -0.0000  0.0000  1.0000      0.0000  0.0000  0.0000  0.0000  0.0000  0.0000  0.0000  0.0000  0.0000  0.0000
  o =  0.0989  v =  0.0000  0.0000  0.0000  0.0000  0.0000  0.0000 -0.7071  0.0000 -0.7071  0.0000      0.0000  0.0000  0.0000  0.0000  0.0000  0.0000  0.0000  0.0000  0.0000  0.0000
  o =  0.1356  v =  0.0000  0.0000  0.0000  0.0000  0.0000  0.0000  0.7071  0.0000 -0.7071 -0.0000      0.0000  0.0000  0.0000  0.0000  0.0000  0.0000  0.0000  0.0000  0.0000  0.0000
  o =  0.1412  v =  0.0000  0.0000  0.0000  0.0000  0.0000 -0.7969 -0.0000  0.6042  0.0000 -0.0000      0.0000  0.0000  0.0000  0.0000  0.0000  0.0000  0.0000  0.0000  0.0000  0.0000
  o =  0.8896  v = -0.6129 -0.0000 -0.7902  0.0000  0.0000  0.0000  0.0000  0.0000  0.0000  0.0000      0.0000  0.0000  0.0000  0.0000  0.0000  0.0000  0.0000  0.0000  0.0000  0.0000
  o =  0.8902  v =  0.0000 -0.0000  0.0000 -0.0000  1.0000  0.0000  0.0000  0.0000  0.0000  0.0000      0.0000  0.0000  0.0000  0.0000  0.0000  0.0000  0.0000  0.0000  0.0000  0.0000
  o =  0.8906  v = -0.0000 -0.7071 -0.0000 -0.7071 -0.0000  0.0000  0.0000  0.0000  0.0000  0.0000      0.0000  0.0000  0.0000  0.0000  0.0000  0.0000  0.0000  0.0000  0.0000  0.0000
  o =  0.9034  v =  0.0000  0.7071  0.0000 -0.7071  0.0000  0.0000  0.0000  0.0000  0.0000  0.0000      0.0000  0.0000  0.0000  0.0000  0.0000  0.0000  0.0000  0.0000  0.0000  0.0000
  o =  0.9049  v = -0.7902 -0.0000  0.6129  0.0000  0.0000  0.0000  0.0000  0.0000  0.0000  0.0000      0.0000  0.0000  0.0000  0.0000  0.0000  0.0000  0.0000  0.0000  0.0000  0.0000
     EDDAV:  cpu time    0.4041: real time    0.4041
       DOS:  cpu time    0.0002: real time    0.0002
    CHARGE:  cpu time    0.0375: real time    0.0375
    MIXING:  cpu time    0.0006: real time    0.0006
    --------------------------------------------
      LOOP:  cpu time    0.6760: real time    0.6760

 eigenvalue-minimisations  :  1524
 total energy-change (2. order) :-0.6374787E+00  (-0.1566793E+00)
 number of electron      53.9999998 magnetization      -0.0000000
 augmentation part       19.9470981 magnetization      -0.0000000

 Broyden mixing:
  rms(total) = 0.11819E+01    rms(broyden)= 0.11819E+01
  rms(prec ) = 0.12099E+01
  weight for this iteration     100.00

 eigenvalues of (default mixing * dielectric matrix)
  average eigenvalue GAMMA=   1.4398
  0.7016  2.1781

 Free energy of the ion-electron system (eV)
  ---------------------------------------------------
  alpha Z        PSCENC =       203.95051221
  Ewald energy   TEWEN  =     -4253.05950503
  -Hartree energ DENC   =     -2110.89824951
  -exchange      EXHF   =         0.00000000
  -V(xc)+E(xc)   XCENC  =       296.46200544
  PAW double counting   =      5976.81477739    -6096.23437463
  entropy T*S    EENTRO =        -0.00000000
  eigenvalues    EBANDS =      -746.50464503
  atomic energy  EATOM  =      6689.48322167
  Solvation  Ediel_sol  =         0.00000000
  ---------------------------------------------------
  free energy    TOTEN  =       -39.98625749 eV

  energy without entropy =      -39.98625749  energy(sigma->0) =      -39.98625749


--------------------------------------------------------------------------------------------------------




--------------------------------------- Iteration      1(   8)  ---------------------------------------


    POTLOK:  cpu time    0.0046: real time    0.0046
    SETDIJ:  cpu time    0.2291: real time    0.2291
atom =   1  type =  1  l = 2
 
 onsite density matrix
 
spin component  1
 
 -0.0255  0.0000  0.0237  0.0000  0.0000
  0.0000 -0.0335  0.0000  0.0183  0.0000
  0.0237  0.0000 -0.0364  0.0000 -0.0000
  0.0000  0.0183  0.0000 -0.0335  0.0000
  0.0000  0.0000 -0.0000  0.0000 -0.0563
 
spin component  2
 
  1.0503  0.0000  0.0209  0.0000 -0.0000
  0.0000  1.0442  0.0000  0.0192  0.0000
  0.0209  0.0000  1.0362  0.0000 -0.0000
  0.0000  0.0192  0.0000  1.0442  0.0000
 -0.0000  0.0000 -0.0000  0.0000  1.0271
 
 occupancies and eigenvectors
 
  o = -0.0563  v =  0.0000  0.0000 -0.0000 -0.0000 -1.0000  0.0000  0.0000  0.0000  0.0000  0.0000      0.0000  0.0000  0.0000  0.0000  0.0000  0.0000  0.0000  0.0000  0.0000  0.0000
  o = -0.0552  v =  0.6231  0.0000 -0.7822 -0.0000  0.0000  0.0000  0.0000  0.0000  0.0000  0.0000      0.0000  0.0000  0.0000  0.0000  0.0000  0.0000  0.0000  0.0000  0.0000  0.0000
  o = -0.0518  v = -0.0000  0.7071  0.0000 -0.7071  0.0000  0.0000  0.0000  0.0000  0.0000  0.0000      0.0000  0.0000  0.0000  0.0000  0.0000  0.0000  0.0000  0.0000  0.0000  0.0000
  o = -0.0152  v = -0.0000  0.7071 -0.0000  0.7071  0.0000  0.0000  0.0000  0.0000  0.0000  0.0000      0.0000  0.0000  0.0000  0.0000  0.0000  0.0000  0.0000  0.0000  0.0000  0.0000
  o = -0.0067  v =  0.7822  0.0000  0.6231  0.0000 -0.0000  0.0000  0.0000  0.0000  0.0000  0.0000      0.0000  0.0000  0.0000  0.0000  0.0000  0.0000  0.0000  0.0000  0.0000  0.0000
  o =  1.0212  v =  0.0000  0.0000  0.0000  0.0000  0.0000 -0.5826  0.0000  0.8127  0.0000 -0.0000      0.0000  0.0000  0.0000  0.0000  0.0000  0.0000  0.0000  0.0000  0.0000  0.0000
  o =  1.0250  v =  0.0000  0.0000  0.0000  0.0000  0.0000  0.0000 -0.7071  0.0000  0.7071  0.0000      0.0000  0.0000  0.0000  0.0000  0.0000  0.0000  0.0000  0.0000  0.0000  0.0000
  o =  1.0271  v =  0.0000  0.0000  0.0000  0.0000  0.0000  0.0000 -0.0000 -0.0000  0.0000 -1.0000      0.0000  0.0000  0.0000  0.0000  0.0000  0.0000  0.0000  0.0000  0.0000  0.0000
  o =  1.0634  v =  0.0000  0.0000  0.0000  0.0000  0.0000  0.0000 -0.7071  0.0000 -0.7071  0.0000      0.0000  0.0000  0.0000  0.0000  0.0000  0.0000  0.0000  0.0000  0.0000  0.0000
  o =  1.0653  v =  0.0000  0.0000  0.0000  0.0000  0.0000 -0.8127  0.0000 -0.5826  0.0000  0.0000      0.0000  0.0000  0.0000  0.0000  0.0000  0.0000  0.0000  0.0000  0.0000  0.0000
atom =   2  type =  1  l = 2
 
 onsite density matrix
 
spin component  1
 
  1.0503  0.0000 -0.0209  0.0000 -0.0000
  0.0000  1.0442  0.0000 -0.0192  0.0000
 -0.0209  0.0000  1.0362  0.0000 -0.0000
  0.0000 -0.0192  0.0000  1.0442  0.0000
 -0.0000  0.0000 -0.0000  0.0000  1.0271
 
spin component  2
 
 -0.0255  0.0000 -0.0237  0.0000 -0.0000
  0.0000 -0.0335  0.0000 -0.0183  0.0000
 -0.0237  0.0000 -0.0364  0.0000  0.0000
  0.0000 -0.0183  0.0000 -0.0335  0.0000
 -0.0000  0.0000  0.0000  0.0000 -0.0563
 
 occupancies and eigenvectors
 
  o = -0.0563  v =  0.0000  0.0000  0.0000  0.0000  0.0000  0.0000  0.0000  0.0000  0.0000 -1.0000      0.0000  0.0000  0.0000  0.0000  0.0000  0.0000  0.0000  0.0000  0.0000  0.0000
  o = -0.0552  v =  0.0000  0.0000  0.0000  0.0000  0.0000  0.6231 -0.0000  0.7822 -0.0000  0.0000      0.0000  0.0000  0.0000  0.0000  0.0000  0.0000  0.0000  0.0000  0.0000  0.0000
  o = -0.0518  v =  0.0000  0.0000  0.0000  0.0000  0.0000 -0.0000 -0.7071 -0.0000 -0.7071 -0.0000      0.0000  0.0000  0.0000  0.0000  0.0000  0.0000  0.0000  0.0000  0.0000  0.0000
  o = -0.0152  v =  0.0000  0.0000  0.0000  0.0000  0.0000 -0.0000 -0.7071  0.0000  0.7071 -0.0000      0.0000  0.0000  0.0000  0.0000  0.0000  0.0000  0.0000  0.0000  0.0000  0.0000
  o = -0.0067  v =  0.0000  0.0000  0.0000  0.0000  0.0000  0.7822 -0.0000 -0.6231  0.0000 -0.0000      0.0000  0.0000  0.0000  0.0000  0.0000  0.0000  0.0000  0.0000  0.0000  0.0000
  o =  1.0212  v = -0.5826  0.0000 -0.8127  0.0000 -0.0000  0.0000  0.0000  0.0000  0.0000  0.0000      0.0000  0.0000  0.0000  0.0000  0.0000  0.0000  0.0000  0.0000  0.0000  0.0000
  o =  1.0250  v = -0.0000 -0.7071 -0.0000 -0.7071  0.0000  0.0000  0.0000  0.0000  0.0000  0.0000      0.0000  0.0000  0.0000  0.0000  0.0000  0.0000  0.0000  0.0000  0.0000  0.0000
  o =  1.0271  v =  0.0000 -0.0000  0.0000 -0.0000 -1.0000  0.0000  0.0000  0.0000  0.0000  0.0000      0.0000  0.0000  0.0000  0.0000  0.0000  0.0000  0.0000  0.0000  0.0000  0.0000
  o =  1.0634  v = -0.0000 -0.7071  0.0000  0.7071  0.0000  0.0000  0.0000  0.0000  0.0000  0.0000      0.0000  0.0000  0.0000  0.0000  0.0000  0.0000  0.0000  0.0000  0.0000  0.0000
  o =  1.0653  v = -0.8127  0.0000  0.5826 -0.0000 -0.0000  0.0000  0.0000  0.0000  0.0000  0.0000      0.0000  0.0000  0.0000  0.0000  0.0000  0.0000  0.0000  0.0000  0.0000  0.0000
     EDDAV:  cpu time    0.4214: real time    0.4215
       DOS:  cpu time    0.0002: real time    0.0002
    CHARGE:  cpu time    0.0376: real time    0.0376
    MIXING:  cpu time    0.0006: real time    0.0006
    --------------------------------------------
      LOOP:  cpu time    0.6935: real time    0.6936

 eigenvalue-minimisations  :  1524
 total energy-change (2. order) : 0.8785627E-01  (-0.5228052E-01)
 number of electron      53.9999998 magnetization      -0.0000000
 augmentation part       19.9813633 magnetization      -0.0000000

 Broyden mixing:
  rms(total) = 0.47237E+00    rms(broyden)= 0.47237E+00
  rms(prec ) = 0.50353E+00
  weight for this iteration     100.00

 eigenvalues of (default mixing * dielectric matrix)
  average eigenvalue GAMMA=   1.2508
  2.0964  1.0228  0.6331

 Free energy of the ion-electron system (eV)
  ---------------------------------------------------
  alpha Z        PSCENC =       203.95051221
  Ewald energy   TEWEN  =     -4253.05950503
  -Hartree energ DENC   =     -2105.43163517
  -exchange      EXHF   =         0.00000000
  -V(xc)+E(xc)   XCENC  =       295.78848290
  PAW double counting   =      6248.93109077    -6364.98882264
  entropy T*S    EENTRO =        -0.00000000
  eigenvalues    EBANDS =      -754.57174592
  atomic energy  EATOM  =      6689.48322167
  Solvation  Ediel_sol  =         0.00000000
  ---------------------------------------------------
  free energy    TOTEN  =       -39.89840122 eV

  energy without entropy =      -39.89840122  energy(sigma->0) =      -39.89840122


--------------------------------------------------------------------------------------------------------




--------------------------------------- Iteration      1(   9)  ---------------------------------------


    POTLOK:  cpu time    0.0051: real time    0.0051
    SETDIJ:  cpu time    0.3049: real time    0.3049
atom =   1  type =  1  l = 2
 
 onsite density matrix
 
spin component  1
 
  0.0496  0.0000  0.0276  0.0000  0.0000
  0.0000  0.0401  0.0000  0.0230  0.0000
  0.0276  0.0000  0.0343  0.0000 -0.0000
  0.0000  0.0230  0.0000  0.0401  0.0000
  0.0000  0.0000 -0.0000  0.0000  0.0146
 
spin component  2
 
  0.9744  0.0000  0.0241  0.0000 -0.0000
  0.0000  0.9673  0.0000  0.0206  0.0000
  0.0241  0.0000  0.9604  0.0000  0.0000
  0.0000  0.0206  0.0000  0.9673  0.0000
 -0.0000  0.0000  0.0000  0.0000  0.9464
 
 occupancies and eigenvectors
 
  o =  0.0133  v = -0.6049  0.0000  0.7963 -0.0000  0.0000  0.0000  0.0000  0.0000  0.0000  0.0000      0.0000  0.0000  0.0000  0.0000  0.0000  0.0000  0.0000  0.0000  0.0000  0.0000
  o =  0.0146  v =  0.0000 -0.0000 -0.0000  0.0000  1.0000  0.0000  0.0000  0.0000  0.0000  0.0000      0.0000  0.0000  0.0000  0.0000  0.0000  0.0000  0.0000  0.0000  0.0000  0.0000
  o =  0.0171  v = -0.0000 -0.7071  0.0000  0.7071 -0.0000  0.0000  0.0000  0.0000  0.0000  0.0000      0.0000  0.0000  0.0000  0.0000  0.0000  0.0000  0.0000  0.0000  0.0000  0.0000
  o =  0.0631  v =  0.0000  0.7071  0.0000  0.7071 -0.0000  0.0000  0.0000  0.0000  0.0000  0.0000      0.0000  0.0000  0.0000  0.0000  0.0000  0.0000  0.0000  0.0000  0.0000  0.0000
  o =  0.0706  v = -0.7963  0.0000 -0.6049  0.0000  0.0000  0.0000  0.0000  0.0000  0.0000  0.0000      0.0000  0.0000  0.0000  0.0000  0.0000  0.0000  0.0000  0.0000  0.0000  0.0000
  o =  0.9422  v =  0.0000  0.0000  0.0000  0.0000  0.0000 -0.6005  0.0000  0.7996  0.0000 -0.0000      0.0000  0.0000  0.0000  0.0000  0.0000  0.0000  0.0000  0.0000  0.0000  0.0000
  o =  0.9464  v =  0.0000  0.0000  0.0000  0.0000  0.0000  0.0000  0.0000  0.0000  0.0000  1.0000      0.0000  0.0000  0.0000  0.0000  0.0000  0.0000  0.0000  0.0000  0.0000  0.0000
  o =  0.9467  v =  0.0000  0.0000  0.0000  0.0000  0.0000  0.0000  0.7071  0.0000 -0.7071 -0.0000      0.0000  0.0000  0.0000  0.0000  0.0000  0.0000  0.0000  0.0000  0.0000  0.0000
  o =  0.9879  v =  0.0000  0.0000  0.0000  0.0000  0.0000  0.0000 -0.7071  0.0000 -0.7071  0.0000      0.0000  0.0000  0.0000  0.0000  0.0000  0.0000  0.0000  0.0000  0.0000  0.0000
  o =  0.9925  v =  0.0000  0.0000  0.0000  0.0000  0.0000 -0.7996  0.0000 -0.6005  0.0000  0.0000      0.0000  0.0000  0.0000  0.0000  0.0000  0.0000  0.0000  0.0000  0.0000  0.0000
atom =   2  type =  1  l = 2
 
 onsite density matrix
 
spin component  1
 
  0.9744  0.0000 -0.0241  0.0000 -0.0000
  0.0000  0.9673  0.0000 -0.0206  0.0000
 -0.0241  0.0000  0.9604  0.0000 -0.0000
  0.0000 -0.0206  0.0000  0.9673  0.0000
 -0.0000  0.0000 -0.0000  0.0000  0.9464
 
spin component  2
 
  0.0496  0.0000 -0.0276  0.0000 -0.0000
  0.0000  0.0401  0.0000 -0.0230  0.0000
 -0.0276  0.0000  0.0343  0.0000 -0.0000
  0.0000 -0.0230  0.0000  0.0401  0.0000
 -0.0000  0.0000 -0.0000  0.0000  0.0146
 
 occupancies and eigenvectors
 
  o =  0.0133  v =  0.0000  0.0000  0.0000  0.0000  0.0000 -0.6049 -0.0000 -0.7963  0.0000 -0.0000      0.0000  0.0000  0.0000  0.0000  0.0000  0.0000  0.0000  0.0000  0.0000  0.0000
  o =  0.0146  v =  0.0000  0.0000  0.0000  0.0000  0.0000 -0.0000  0.0000 -0.0000  0.0000  1.0000      0.0000  0.0000  0.0000  0.0000  0.0000  0.0000  0.0000  0.0000  0.0000  0.0000
  o =  0.0171  v =  0.0000  0.0000  0.0000  0.0000  0.0000  0.0000 -0.7071  0.0000 -0.7071  0.0000      0.0000  0.0000  0.0000  0.0000  0.0000  0.0000  0.0000  0.0000  0.0000  0.0000
  o =  0.0631  v =  0.0000  0.0000  0.0000  0.0000  0.0000  0.0000  0.7071  0.0000 -0.7071 -0.0000      0.0000  0.0000  0.0000  0.0000  0.0000  0.0000  0.0000  0.0000  0.0000  0.0000
  o =  0.0706  v =  0.0000  0.0000  0.0000  0.0000  0.0000 -0.7963 -0.0000  0.6049  0.0000 -0.0000      0.0000  0.0000  0.0000  0.0000  0.0000  0.0000  0.0000  0.0000  0.0000  0.0000
  o =  0.9422  v = -0.6005  0.0000 -0.7996  0.0000 -0.0000  0.0000  0.0000  0.0000  0.0000  0.0000      0.0000  0.0000  0.0000  0.0000  0.0000  0.0000  0.0000  0.0000  0.0000  0.0000
  o =  0.9464  v =  0.0000 -0.0000 -0.0000 -0.0000  1.0000  0.0000  0.0000  0.0000  0.0000  0.0000      0.0000  0.0000  0.0000  0.0000  0.0000  0.0000  0.0000  0.0000  0.0000  0.0000
  o =  0.9467  v =  0.0000  0.7071 -0.0000  0.7071  0.0000  0.0000  0.0000  0.0000  0.0000  0.0000      0.0000  0.0000  0.0000  0.0000  0.0000  0.0000  0.0000  0.0000  0.0000  0.0000
  o =  0.9879  v =  0.0000  0.7071 -0.0000 -0.7071  0.0000  0.0000  0.0000  0.0000  0.0000  0.0000      0.0000  0.0000  0.0000  0.0000  0.0000  0.0000  0.0000  0.0000  0.0000  0.0000
  o =  0.9925  v = -0.7996  0.0000  0.6005  0.0000  0.0000  0.0000  0.0000  0.0000  0.0000  0.0000      0.0000  0.0000  0.0000  0.0000  0.0000  0.0000  0.0000  0.0000  0.0000  0.0000
     EDDAV:  cpu time    0.3824: real time    0.3824
       DOS:  cpu time    0.0002: real time    0.0002
    CHARGE:  cpu time    0.0370: real time    0.0370
    MIXING:  cpu time    0.0006: real time    0.0006
    --------------------------------------------
      LOOP:  cpu time    0.7302: real time    0.7302

 eigenvalue-minimisations  :  1428
 total energy-change (2. order) :-0.2775891E+00  (-0.7462959E-02)
 number of electron      53.9999998 magnetization      -0.0000000
 augmentation part       19.9707575 magnetization      -0.0000000

 Broyden mixing:
  rms(total) = 0.13674E+00    rms(broyden)= 0.13673E+00
  rms(prec ) = 0.14619E+00
  weight for this iteration     100.00

 eigenvalues of (default mixing * dielectric matrix)
  average eigenvalue GAMMA=   1.2167
  2.6242  0.8086  0.8086  0.6252

 Free energy of the ion-electron system (eV)
  ---------------------------------------------------
  alpha Z        PSCENC =       203.95051221
  Ewald energy   TEWEN  =     -4253.05950503
  -Hartree energ DENC   =     -2105.63018994
  -exchange      EXHF   =         0.00000000
  -V(xc)+E(xc)   XCENC  =       296.07871780
  PAW double counting   =      6380.83771513    -6501.09636900
  entropy T*S    EENTRO =        -0.00000000
  eigenvalues    EBANDS =      -750.74009319
  atomic energy  EATOM  =      6689.48322167
  Solvation  Ediel_sol  =         0.00000000
  ---------------------------------------------------
  free energy    TOTEN  =       -40.17599035 eV

  energy without entropy =      -40.17599035  energy(sigma->0) =      -40.17599035


--------------------------------------------------------------------------------------------------------




--------------------------------------- Iteration      1(  10)  ---------------------------------------


    POTLOK:  cpu time    0.0047: real time    0.0047
    SETDIJ:  cpu time    0.3520: real time    0.3520
atom =   1  type =  1  l = 2
 
 onsite density matrix
 
spin component  1
 
  0.0546  0.0000  0.0299  0.0000 -0.0000
  0.0000  0.0447  0.0000  0.0245  0.0000
  0.0299  0.0000  0.0385  0.0000 -0.0000
  0.0000  0.0245  0.0000  0.0447  0.0000
 -0.0000  0.0000 -0.0000  0.0000  0.0173
 
spin component  2
 
  0.9697  0.0000  0.0216  0.0000  0.0000
  0.0000  0.9631  0.0000  0.0190  0.0000
  0.0216  0.0000  0.9565  0.0000 -0.0000
  0.0000  0.0190  0.0000  0.9631  0.0000
  0.0000  0.0000 -0.0000  0.0000  0.9443
 
 occupancies and eigenvectors
 
  o =  0.0156  v = -0.6077  0.0000  0.7942  0.0000  0.0000  0.0000  0.0000  0.0000  0.0000  0.0000      0.0000  0.0000  0.0000  0.0000  0.0000  0.0000  0.0000  0.0000  0.0000  0.0000
  o =  0.0173  v = -0.0000 -0.0000  0.0000  0.0000 -1.0000  0.0000  0.0000  0.0000  0.0000  0.0000      0.0000  0.0000  0.0000  0.0000  0.0000  0.0000  0.0000  0.0000  0.0000  0.0000
  o =  0.0202  v =  0.0000  0.7071  0.0000 -0.7071 -0.0000  0.0000  0.0000  0.0000  0.0000  0.0000      0.0000  0.0000  0.0000  0.0000  0.0000  0.0000  0.0000  0.0000  0.0000  0.0000
  o =  0.0692  v =  0.0000  0.7071  0.0000  0.7071 -0.0000  0.0000  0.0000  0.0000  0.0000  0.0000      0.0000  0.0000  0.0000  0.0000  0.0000  0.0000  0.0000  0.0000  0.0000  0.0000
  o =  0.0775  v = -0.7942  0.0000 -0.6077  0.0000  0.0000  0.0000  0.0000  0.0000  0.0000  0.0000      0.0000  0.0000  0.0000  0.0000  0.0000  0.0000  0.0000  0.0000  0.0000  0.0000
  o =  0.9405  v =  0.0000  0.0000  0.0000  0.0000  0.0000 -0.5956 -0.0000  0.8032  0.0000  0.0000      0.0000  0.0000  0.0000  0.0000  0.0000  0.0000  0.0000  0.0000  0.0000  0.0000
  o =  0.9441  v =  0.0000  0.0000  0.0000  0.0000  0.0000 -0.0000  0.7071  0.0000 -0.7071 -0.0000      0.0000  0.0000  0.0000  0.0000  0.0000  0.0000  0.0000  0.0000  0.0000  0.0000
  o =  0.9443  v =  0.0000  0.0000  0.0000  0.0000  0.0000 -0.0000 -0.0000  0.0000  0.0000 -1.0000      0.0000  0.0000  0.0000  0.0000  0.0000  0.0000  0.0000  0.0000  0.0000  0.0000
  o =  0.9820  v =  0.0000  0.0000  0.0000  0.0000  0.0000  0.0000  0.7071  0.0000  0.7071  0.0000      0.0000  0.0000  0.0000  0.0000  0.0000  0.0000  0.0000  0.0000  0.0000  0.0000
  o =  0.9857  v =  0.0000  0.0000  0.0000  0.0000  0.0000 -0.8032  0.0000 -0.5956  0.0000  0.0000      0.0000  0.0000  0.0000  0.0000  0.0000  0.0000  0.0000  0.0000  0.0000  0.0000
atom =   2  type =  1  l = 2
 
 onsite density matrix
 
spin component  1
 
  0.9697  0.0000 -0.0216  0.0000 -0.0000
  0.0000  0.9631  0.0000 -0.0190  0.0000
 -0.0216  0.0000  0.9565  0.0000 -0.0000
  0.0000 -0.0190  0.0000  0.9631  0.0000
 -0.0000  0.0000 -0.0000  0.0000  0.9443
 
spin component  2
 
  0.0546  0.0000 -0.0299  0.0000 -0.0000
  0.0000  0.0447  0.0000 -0.0245  0.0000
 -0.0299  0.0000  0.0385  0.0000 -0.0000
  0.0000 -0.0245  0.0000  0.0447  0.0000
 -0.0000  0.0000 -0.0000  0.0000  0.0173
 
 occupancies and eigenvectors
 
  o =  0.0156  v =  0.0000  0.0000  0.0000  0.0000  0.0000 -0.6077 -0.0000 -0.7942  0.0000 -0.0000      0.0000  0.0000  0.0000  0.0000  0.0000  0.0000  0.0000  0.0000  0.0000  0.0000
  o =  0.0173  v =  0.0000  0.0000  0.0000  0.0000  0.0000 -0.0000  0.0000 -0.0000  0.0000  1.0000      0.0000  0.0000  0.0000  0.0000  0.0000  0.0000  0.0000  0.0000  0.0000  0.0000
  o =  0.0202  v =  0.0000  0.0000  0.0000  0.0000  0.0000  0.0000 -0.7071  0.0000 -0.7071  0.0000      0.0000  0.0000  0.0000  0.0000  0.0000  0.0000  0.0000  0.0000  0.0000  0.0000
  o =  0.0692  v =  0.0000  0.0000  0.0000  0.0000  0.0000  0.0000  0.7071  0.0000 -0.7071 -0.0000      0.0000  0.0000  0.0000  0.0000  0.0000  0.0000  0.0000  0.0000  0.0000  0.0000
  o =  0.0775  v =  0.0000  0.0000  0.0000  0.0000  0.0000 -0.7942 -0.0000  0.6077  0.0000 -0.0000      0.0000  0.0000  0.0000  0.0000  0.0000  0.0000  0.0000  0.0000  0.0000  0.0000
  o =  0.9405  v = -0.5956  0.0000 -0.8032  0.0000 -0.0000  0.0000  0.0000  0.0000  0.0000  0.0000      0.0000  0.0000  0.0000  0.0000  0.0000  0.0000  0.0000  0.0000  0.0000  0.0000
  o =  0.9441  v =  0.0000 -0.7071  0.0000 -0.7071  0.0000  0.0000  0.0000  0.0000  0.0000  0.0000      0.0000  0.0000  0.0000  0.0000  0.0000  0.0000  0.0000  0.0000  0.0000  0.0000
  o =  0.9443  v =  0.0000  0.0000 -0.0000  0.0000  1.0000  0.0000  0.0000  0.0000  0.0000  0.0000      0.0000  0.0000  0.0000  0.0000  0.0000  0.0000  0.0000  0.0000  0.0000  0.0000
  o =  0.9820  v =  0.0000  0.7071  0.0000 -0.7071 -0.0000  0.0000  0.0000  0.0000  0.0000  0.0000      0.0000  0.0000  0.0000  0.0000  0.0000  0.0000  0.0000  0.0000  0.0000  0.0000
  o =  0.9857  v = -0.8032  0.0000  0.5956  0.0000  0.0000  0.0000  0.0000  0.0000  0.0000  0.0000      0.0000  0.0000  0.0000  0.0000  0.0000  0.0000  0.0000  0.0000  0.0000  0.0000
     EDDAV:  cpu time    0.4044: real time    0.4044
       DOS:  cpu time    0.0002: real time    0.0002
    CHARGE:  cpu time    0.0375: real time    0.0375
    MIXING:  cpu time    0.0007: real time    0.0007
    --------------------------------------------
      LOOP:  cpu time    0.7995: real time    0.7995

 eigenvalue-minimisations  :  1524
 total energy-change (2. order) :-0.4570424E-03  (-0.1598505E-02)
 number of electron      53.9999998 magnetization      -0.0000000
 augmentation part       19.9674268 magnetization      -0.0000000

 Broyden mixing:
  rms(total) = 0.25083E-01    rms(broyden)= 0.25078E-01
  rms(prec ) = 0.27708E-01
  weight for this iteration     100.00

 eigenvalues of (default mixing * dielectric matrix)
  average eigenvalue GAMMA=   1.1597
  2.5370  0.9632  0.9632  0.7292  0.6056

 Free energy of the ion-electron system (eV)
  ---------------------------------------------------
  alpha Z        PSCENC =       203.95051221
  Ewald energy   TEWEN  =     -4253.05950503
  -Hartree energ DENC   =     -2106.31776463
  -exchange      EXHF   =         0.00000000
  -V(xc)+E(xc)   XCENC  =       296.17279616
  PAW double counting   =      6368.56653899    -6488.91281582
  entropy T*S    EENTRO =        -0.00000000
  eigenvalues    EBANDS =      -750.05943093
  atomic energy  EATOM  =      6689.48322167
  Solvation  Ediel_sol  =         0.00000000
  ---------------------------------------------------
  free energy    TOTEN  =       -40.17644739 eV

  energy without entropy =      -40.17644739  energy(sigma->0) =      -40.17644739


--------------------------------------------------------------------------------------------------------




--------------------------------------- Iteration      1(  11)  ---------------------------------------


    POTLOK:  cpu time    0.0046: real time    0.0046
    SETDIJ:  cpu time    0.2290: real time    0.2290
atom =   1  type =  1  l = 2
 
 onsite density matrix
 
spin component  1
 
  0.0532  0.0000  0.0296  0.0000  0.0000
  0.0000  0.0433  0.0000  0.0243  0.0000
  0.0296  0.0000  0.0371  0.0000 -0.0000
  0.0000  0.0243  0.0000  0.0433  0.0000
  0.0000  0.0000 -0.0000  0.0000  0.0161
 
spin component  2
 
  0.9719  0.0000  0.0216  0.0000 -0.0000
  0.0000  0.9654  0.0000  0.0189  0.0000
  0.0216  0.0000  0.9588  0.0000 -0.0000
  0.0000  0.0189  0.0000  0.9654  0.0000
 -0.0000  0.0000 -0.0000  0.0000  0.9467
 
 occupancies and eigenvectors
 
  o =  0.0145  v = -0.6069 -0.0000  0.7948  0.0000  0.0000  0.0000  0.0000  0.0000  0.0000  0.0000      0.0000  0.0000  0.0000  0.0000  0.0000  0.0000  0.0000  0.0000  0.0000  0.0000
  o =  0.0161  v = -0.0000  0.0000  0.0000 -0.0000 -1.0000  0.0000  0.0000  0.0000  0.0000  0.0000      0.0000  0.0000  0.0000  0.0000  0.0000  0.0000  0.0000  0.0000  0.0000  0.0000
  o =  0.0189  v =  0.0000  0.7071 -0.0000 -0.7071  0.0000  0.0000  0.0000  0.0000  0.0000  0.0000      0.0000  0.0000  0.0000  0.0000  0.0000  0.0000  0.0000  0.0000  0.0000  0.0000
  o =  0.0676  v =  0.0000  0.7071  0.0000  0.7071  0.0000  0.0000  0.0000  0.0000  0.0000  0.0000      0.0000  0.0000  0.0000  0.0000  0.0000  0.0000  0.0000  0.0000  0.0000  0.0000
  o =  0.0758  v = -0.7948  0.0000 -0.6069  0.0000  0.0000  0.0000  0.0000  0.0000  0.0000  0.0000      0.0000  0.0000  0.0000  0.0000  0.0000  0.0000  0.0000  0.0000  0.0000  0.0000
  o =  0.9428  v =  0.0000  0.0000  0.0000  0.0000  0.0000 -0.5960  0.0000  0.8030  0.0000  0.0000      0.0000  0.0000  0.0000  0.0000  0.0000  0.0000  0.0000  0.0000  0.0000  0.0000
  o =  0.9465  v =  0.0000  0.0000  0.0000  0.0000  0.0000  0.0000  0.7071  0.0000 -0.7071 -0.0000      0.0000  0.0000  0.0000  0.0000  0.0000  0.0000  0.0000  0.0000  0.0000  0.0000
  o =  0.9467  v =  0.0000  0.0000  0.0000  0.0000  0.0000 -0.0000 -0.0000  0.0000  0.0000 -1.0000      0.0000  0.0000  0.0000  0.0000  0.0000  0.0000  0.0000  0.0000  0.0000  0.0000
  o =  0.9843  v =  0.0000  0.0000  0.0000  0.0000  0.0000  0.0000  0.7071  0.0000  0.7071 -0.0000      0.0000  0.0000  0.0000  0.0000  0.0000  0.0000  0.0000  0.0000  0.0000  0.0000
  o =  0.9880  v =  0.0000  0.0000  0.0000  0.0000  0.0000 -0.8030  0.0000 -0.5960  0.0000  0.0000      0.0000  0.0000  0.0000  0.0000  0.0000  0.0000  0.0000  0.0000  0.0000  0.0000
atom =   2  type =  1  l = 2
 
 onsite density matrix
 
spin component  1
 
  0.9719  0.0000 -0.0216  0.0000  0.0000
  0.0000  0.9654  0.0000 -0.0189  0.0000
 -0.0216  0.0000  0.9588  0.0000  0.0000
  0.0000 -0.0189  0.0000  0.9654  0.0000
  0.0000  0.0000  0.0000  0.0000  0.9467
 
spin component  2
 
  0.0532  0.0000 -0.0296  0.0000  0.0000
  0.0000  0.0433  0.0000 -0.0243  0.0000
 -0.0296  0.0000  0.0371  0.0000 -0.0000
  0.0000 -0.0243  0.0000  0.0433  0.0000
  0.0000  0.0000 -0.0000  0.0000  0.0161
 
 occupancies and eigenvectors
 
  o =  0.0145  v =  0.0000  0.0000  0.0000  0.0000  0.0000 -0.6069  0.0000 -0.7948  0.0000 -0.0000      0.0000  0.0000  0.0000  0.0000  0.0000  0.0000  0.0000  0.0000  0.0000  0.0000
  o =  0.0161  v =  0.0000  0.0000  0.0000  0.0000  0.0000 -0.0000 -0.0000 -0.0000  0.0000  1.0000      0.0000  0.0000  0.0000  0.0000  0.0000  0.0000  0.0000  0.0000  0.0000  0.0000
  o =  0.0189  v =  0.0000  0.0000  0.0000  0.0000  0.0000  0.0000 -0.7071  0.0000 -0.7071 -0.0000      0.0000  0.0000  0.0000  0.0000  0.0000  0.0000  0.0000  0.0000  0.0000  0.0000
  o =  0.0676  v =  0.0000  0.0000  0.0000  0.0000  0.0000  0.0000  0.7071  0.0000 -0.7071  0.0000      0.0000  0.0000  0.0000  0.0000  0.0000  0.0000  0.0000  0.0000  0.0000  0.0000
  o =  0.0758  v =  0.0000  0.0000  0.0000  0.0000  0.0000 -0.7948  0.0000  0.6069  0.0000 -0.0000      0.0000  0.0000  0.0000  0.0000  0.0000  0.0000  0.0000  0.0000  0.0000  0.0000
  o =  0.9428  v = -0.5960  0.0000 -0.8030  0.0000  0.0000  0.0000  0.0000  0.0000  0.0000  0.0000      0.0000  0.0000  0.0000  0.0000  0.0000  0.0000  0.0000  0.0000  0.0000  0.0000
  o =  0.9465  v =  0.0000  0.7071  0.0000  0.7071  0.0000  0.0000  0.0000  0.0000  0.0000  0.0000      0.0000  0.0000  0.0000  0.0000  0.0000  0.0000  0.0000  0.0000  0.0000  0.0000
  o =  0.9467  v =  0.0000  0.0000 -0.0000  0.0000 -1.0000  0.0000  0.0000  0.0000  0.0000  0.0000      0.0000  0.0000  0.0000  0.0000  0.0000  0.0000  0.0000  0.0000  0.0000  0.0000
  o =  0.9843  v =  0.0000  0.7071  0.0000 -0.7071  0.0000  0.0000  0.0000  0.0000  0.0000  0.0000      0.0000  0.0000  0.0000  0.0000  0.0000  0.0000  0.0000  0.0000  0.0000  0.0000
  o =  0.9880  v = -0.8030  0.0000  0.5960  0.0000 -0.0000  0.0000  0.0000  0.0000  0.0000  0.0000      0.0000  0.0000  0.0000  0.0000  0.0000  0.0000  0.0000  0.0000  0.0000  0.0000
     EDDAV:  cpu time    0.3754: real time    0.3755
       DOS:  cpu time    0.0002: real time    0.0002
    CHARGE:  cpu time    0.0375: real time    0.0375
    MIXING:  cpu time    0.0007: real time    0.0007
    --------------------------------------------
      LOOP:  cpu time    0.6475: real time    0.6475

 eigenvalue-minimisations  :  1404
 total energy-change (2. order) : 0.3909718E-04  (-0.1551550E-03)
 number of electron      53.9999998 magnetization       0.0000000
 augmentation part       19.9630528 magnetization       0.0000000

 Broyden mixing:
  rms(total) = 0.14001E-01    rms(broyden)= 0.13999E-01
  rms(prec ) = 0.15301E-01
  weight for this iteration     100.00

 eigenvalues of (default mixing * dielectric matrix)
  average eigenvalue GAMMA=   1.1236
  2.5299  1.3323  0.8147  0.8147  0.6445  0.6055

 Free energy of the ion-electron system (eV)
[...]
     13      -3.6572      1.00000
     14      -3.5757      1.00000
     15      -3.4691      1.00000
     16      -3.1999      1.00000
     17      -2.7088      1.00000
     18      -2.4942      1.00000
     19      -2.4688      1.00000
     20      -1.9496      1.00000
     21      -1.8054      1.00000
     22      -1.7502      1.00000
     23       0.0001      1.00000
     24       0.1963      1.00000
     25       0.5269      1.00000
     26       1.1067      1.00000
     27       1.4549      1.00000
     28       7.0830      0.00000
     29       7.0951      0.00000
     30       7.2101      0.00000
     31       8.0293      0.00000
     32       8.2434      0.00000
     33       8.9175      0.00000
     34      11.0889      0.00000
     35      12.5031      0.00000
     36      12.7330      0.00000

 k-point     8 :       0.3750    0.1250    0.4167
  band No.  band energies     occupation 
      1     -45.9515      1.00000
      2     -45.9216      1.00000
      3     -45.8946      1.00000
      4     -41.3647      1.00000
      5     -41.3446      1.00000
      6     -41.3096      1.00000
      7     -20.5059      1.00000
      8     -20.4391      1.00000
      9     -20.3889      1.00000
     10     -20.2984      1.00000
     11      -4.2130      1.00000
     12      -4.0752      1.00000
     13      -3.9938      1.00000
     14      -3.6788      1.00000
     15      -3.4361      1.00000
     16      -3.0181      1.00000
     17      -2.8374      1.00000
     18      -2.6699      1.00000
     19      -2.2085      1.00000
     20      -1.9076      1.00000
     21      -1.6844      1.00000
     22      -1.5581      1.00000
     23       0.0096      1.00000
     24       0.1272      1.00000
     25       0.4182      1.00000
     26       1.0538      1.00000
     27       1.6589      1.00000
     28       7.0774      0.00000
     29       7.0837      0.00000
     30       7.3295      0.00000
     31       7.9535      0.00000
     32       8.4783      0.00000
     33       9.4676      0.00000
     34      10.8468      0.00000
     35      11.4736      0.00000
     36      12.5275      0.00000

 k-point     9 :       0.3750    0.3750    0.4167
  band No.  band energies     occupation 
      1     -45.9515      1.00000
      2     -45.9216      1.00000
      3     -45.8946      1.00000
      4     -41.3647      1.00000
      5     -41.3446      1.00000
      6     -41.3097      1.00000
      7     -20.4784      1.00000
      8     -20.4692      1.00000
      9     -20.3919      1.00000
     10     -20.2877      1.00000
     11      -4.4861      1.00000
     12      -4.2461      1.00000
     13      -3.9593      1.00000
     14      -3.9049      1.00000
     15      -3.4774      1.00000
     16      -2.9978      1.00000
     17      -2.6997      1.00000
     18      -2.4444      1.00000
     19      -1.9862      1.00000
     20      -1.7205      1.00000
     21      -1.6051      1.00000
     22      -1.4977      1.00000
     23       0.0100      1.00000
     24       0.1252      1.00000
     25       0.3771      1.00000
     26       1.1048      1.00000
     27       1.6136      1.00000
     28       7.0798      0.00000
     29       7.1029      0.00000
     30       7.3622      0.00000
     31       7.9275      0.00000
     32       8.3595      0.00000
     33       9.9782      0.00000
     34      11.4266      0.00000
     35      11.4275      0.00000
     36      11.5995      0.00000


--------------------------------------------------------------------------------------------------------


 soft charge-density along one line, spin component           1
         0         1         2         3         4         5         6         7         8         9
 total charge-density along one line
 
 soft charge-density along one line, spin component           2
         0         1         2         3         4         5         6         7         8         9
 total charge-density along one line
 
 pseudopotential strength for first ion, spin component:           1
-41.880  -0.000  -0.031   7.895   0.000   0.013   0.000  -0.000
 -0.000 -41.854  -0.000   0.000   7.885   0.000  -0.000  -0.000
 -0.031  -0.000 -41.880   0.013   0.000   7.895  -0.000  -0.000
  7.895   0.000   0.013   5.349  -0.000  -0.005  -0.000   0.000
  0.000   7.885   0.000  -0.000   5.353  -0.000   0.000  -0.000
  0.013   0.000   7.895  -0.005  -0.000   5.349  -0.000   0.000
  0.000  -0.000  -0.000  -0.000   0.000  -0.000  -1.371  -0.000
 -0.000  -0.000  -0.000   0.000  -0.000   0.000  -0.000  -1.326
  0.000  -0.000  -0.000   0.000   0.000  -0.000  -0.075   0.000
 -0.000  -0.000  -0.000   0.000  -0.000   0.000  -0.000  -0.090
  0.000  -0.000  -0.000   0.000   0.000   0.000   0.000   0.000
  0.000  -0.000  -0.000  -0.000   0.000  -0.000  -1.814  -0.000
 -0.000  -0.000  -0.000   0.000  -0.000   0.000  -0.000  -1.768
  0.000  -0.000  -0.000   0.000   0.000  -0.000  -0.079   0.000
 -0.000  -0.000  -0.000   0.000  -0.000   0.000  -0.000  -0.093
  0.000  -0.000  -0.000   0.000   0.000   0.000   0.000   0.000
 -0.000   0.000   0.000  -0.000   0.000   0.000   0.006   0.000
 -0.000   0.000   0.000  -0.000   0.000   0.000   0.012   0.000
 pseudopotential strength for first ion, spin component:           2
-44.949  -0.000  -0.024   9.381   0.000   0.009   0.000  -0.000
 -0.000 -44.931  -0.000   0.000   9.374   0.000  -0.000  -0.000
 -0.024  -0.000 -44.949   0.009   0.000   9.381  -0.000  -0.000
  9.381   0.000   0.009   4.854  -0.000  -0.003   0.000   0.000
  0.000   9.374   0.000  -0.000   4.857  -0.000   0.000  -0.000
  0.009   0.000   9.381  -0.003  -0.000   4.854  -0.000   0.000
  0.000  -0.000  -0.000   0.000   0.000  -0.000  -7.374  -0.000
 -0.000  -0.000  -0.000   0.000  -0.000   0.000  -0.000  -7.343
  0.000  -0.000  -0.000   0.000   0.000  -0.000  -0.053   0.000
 -0.000  -0.000  -0.000   0.000  -0.000   0.000  -0.000  -0.074
  0.000  -0.000  -0.000   0.000   0.000  -0.000   0.000   0.000
  0.000  -0.000  -0.000   0.000   0.000  -0.000  -7.868  -0.000
 -0.000  -0.000  -0.000   0.000  -0.000   0.000  -0.000  -7.835
  0.000  -0.000  -0.000   0.000   0.000  -0.000  -0.055   0.000
 -0.000  -0.000  -0.000   0.000  -0.000   0.000  -0.000  -0.075
  0.000  -0.000  -0.000   0.000   0.000  -0.000   0.000   0.000
 -0.000   0.000   0.000  -0.000   0.000   0.000   0.004   0.000
 -0.000   0.000   0.000  -0.000   0.000   0.000   0.007   0.000
 total augmentation occupancy for first ion, spin component:           1
  1.998   0.000  -0.000  -0.013   0.000   0.000   0.000   0.000   0.000   0.000   0.000   0.000   0.000   0.000   0.000   0.000
  0.000   1.998   0.000   0.000  -0.013   0.000   0.000   0.000   0.000   0.000   0.000   0.000   0.000   0.000   0.000   0.000
 -0.000   0.000   1.998   0.000   0.000  -0.013   0.000   0.000   0.000   0.000   0.000   0.000   0.000   0.000   0.000   0.000
 -0.013   0.000   0.000   0.097   0.000  -0.010   0.000   0.000   0.000   0.000   0.000   0.000   0.000   0.000   0.000   0.000
  0.000  -0.013   0.000   0.000   0.108   0.000   0.000   0.000   0.000   0.000   0.000   0.000   0.000   0.000   0.000   0.000
  0.000   0.000  -0.013  -0.010   0.000   0.097   0.000   0.000   0.000   0.000   0.000   0.000   0.000   0.000   0.000   0.000
  0.000   0.000   0.000   0.000   0.000   0.000   8.385   0.000   3.396   0.000   0.000  -6.457   0.000  -3.222   0.000   0.000
  0.000   0.000   0.000   0.000   0.000   0.000   0.000   7.004   0.000   2.926   0.000   0.000  -5.140   0.000  -2.764   0.000
  0.000   0.000   0.000   0.000   0.000   0.000   3.396   0.000   6.317   0.000  -0.000  -3.223   0.000  -4.516   0.000  -0.000
  0.000   0.000   0.000   0.000   0.000   0.000   0.000   2.926   0.000   7.004   0.000   0.000  -2.764   0.000  -5.140   0.000
  0.000   0.000   0.000   0.000   0.000   0.000   0.000   0.000  -0.000   0.000   3.957  -0.000   0.000   0.000   0.000  -2.233
  0.000   0.000   0.000   0.000   0.000   0.000  -6.457   0.000  -3.223   0.000   0.000   5.700   0.000   3.093   0.000  -0.000
  0.000   0.000   0.000   0.000   0.000   0.000   0.000  -5.140   0.000  -2.764   0.000   0.000   4.434   0.000   2.640   0.000
  0.000   0.000   0.000   0.000   0.000   0.000  -3.222   0.000  -4.516   0.000   0.000   3.093   0.000   3.860   0.000   0.000
  0.000   0.000   0.000   0.000   0.000   0.000   0.000  -2.764   0.000  -5.140   0.000   0.000   2.640   0.000   4.434   0.000
  0.000   0.000   0.000   0.000   0.000   0.000   0.000   0.000   0.000   0.000  -2.233  -0.000   0.000  -0.000   0.000   1.628
  0.000   0.000   0.000   0.000   0.000   0.000   0.265   0.000  -0.231   0.000   0.000  -0.295   0.000   0.240   0.000   0.000
  0.000   0.000   0.000   0.000   0.000   0.000  -0.008   0.000   0.027   0.000   0.000   0.033   0.000  -0.038   0.000   0.000
 total augmentation occupancy for first ion, spin component:           2
  0.004   0.000  -0.000   0.016   0.000  -0.000   0.000   0.000   0.000   0.000   0.000   0.000   0.000   0.000   0.000   0.000
  0.000   0.004   0.000   0.000   0.017   0.000   0.000   0.000   0.000   0.000   0.000   0.000   0.000   0.000   0.000   0.000
 -0.000   0.000   0.004  -0.000   0.000   0.016   0.000   0.000   0.000   0.000   0.000   0.000   0.000   0.000   0.000   0.000
  0.016   0.000  -0.000  -0.009   0.000  -0.000   0.000   0.000   0.000   0.000   0.000   0.000   0.000   0.000   0.000   0.000
  0.000   0.017   0.000   0.000  -0.009   0.000   0.000   0.000   0.000   0.000   0.000   0.000   0.000   0.000   0.000   0.000
 -0.000   0.000   0.016  -0.000   0.000  -0.009   0.000   0.000   0.000   0.000   0.000   0.000   0.000   0.000   0.000   0.000
  0.000   0.000   0.000   0.000   0.000   0.000  -5.675   0.000  -1.875   0.000  -0.000   3.340   0.000   1.480   0.000   0.000
  0.000   0.000   0.000   0.000   0.000   0.000   0.000  -4.911   0.000  -1.644   0.000   0.000   2.717   0.000   1.297   0.000
  0.000   0.000   0.000   0.000   0.000   0.000  -1.875   0.000  -4.441   0.000   0.000   1.480   0.000   2.357   0.000  -0.000
  0.000   0.000   0.000   0.000   0.000   0.000   0.000  -1.644   0.000  -4.911   0.000   0.000   1.297   0.000   2.717   0.000
  0.000   0.000   0.000   0.000   0.000   0.000   0.000   0.000   0.000   0.000  -3.273   0.000   0.000   0.000   0.000   1.423
  0.000   0.000   0.000   0.000   0.000   0.000   3.340   0.000   1.480   0.000   0.000  -2.105   0.000  -1.091   0.000   0.000
  0.000   0.000   0.000   0.000   0.000   0.000   0.000   2.717   0.000   1.297   0.000   0.000  -1.623   0.000  -0.957   0.000
  0.000   0.000   0.000   0.000   0.000   0.000   1.480   0.000   2.357   0.000  -0.000  -1.091   0.000  -1.368   0.000   0.000
  0.000   0.000   0.000   0.000   0.000   0.000   0.000   1.297   0.000   2.717   0.000   0.000  -0.957   0.000  -1.623   0.000
  0.000   0.000   0.000   0.000   0.000   0.000  -0.000   0.000  -0.000   0.000   1.423   0.000   0.000   0.000   0.000  -0.670
  0.000   0.000   0.000   0.000   0.000   0.000   0.006   0.000   0.024   0.000   0.000  -0.015   0.000  -0.004   0.000  -0.000
  0.000   0.000   0.000   0.000   0.000   0.000  -0.047   0.000   0.012   0.000   0.000   0.027   0.000  -0.006   0.000  -0.000


------------------------ aborting loop because EDIFF is reached ----------------------------------------


 


 total charge     
 
# of ion       s       p       d       tot
------------------------------------------
    1        0.179   6.173   4.981  11.333
    2        0.184   6.168   4.988  11.340
    3        1.721   4.366   0.000   6.086
    4        1.721   4.366   0.000   6.086
    5        1.720   4.362   0.000   6.082
    6        1.720   4.362   0.000   6.082
--------------------------------------------------
tot          7.245  29.795   9.969  47.009
 


 magnetization (x)
 
# of ion       s       p       d       tot
------------------------------------------
    1       -0.014  -0.015  -4.598  -4.626
    2        0.014   0.013   4.595   4.622
    3        0.002   0.021   0.000   0.023
    4        0.002   0.021   0.000   0.023
    5       -0.003  -0.017   0.000  -0.020
    6       -0.003  -0.017   0.000  -0.020
--------------------------------------------------
tot         -0.001   0.007  -0.003   0.003
 
    CHARGE:  cpu time    0.0361: real time    0.0361
    FORLOC:  cpu time    0.0008: real time    0.0008
    FORNL :  cpu time    0.1845: real time    0.1845
    STRESS:  cpu time    0.5463: real time    0.5463
    FORCOR:  cpu time    0.0042: real time    0.0041
    FORHAR:  cpu time    0.0021: real time    0.0021
    MIXING:  cpu time    0.0006: real time    0.0006
    OFIELD:  cpu time    0.0000: real time    0.0000

  FORCE on cell =-STRESS in cart. coord.  units (eV):
  Direction    XX          YY          ZZ          XY          YZ          ZX
  --------------------------------------------------------------------------------------
  Alpha Z   204.19688   204.19688   204.19688
  Ewald   -1607.17686 -1607.17686 -1040.38537    -0.00000     0.00000     0.00000
  Hartree   575.30534   575.30534   955.10971    -0.00000    -0.00000    -0.00000
  E(xc)    -309.51356  -309.51356  -309.55827    -0.00000     0.00000     0.00000
  Local     186.34155   186.34155  -752.97547     0.00000    -0.00000    -0.00000
  n-local  -238.15965  -238.51147  -237.29295     0.02736     0.12123     0.12227
  augment   267.13639   267.13639   266.51865    -0.00000    -0.00000    -0.00000
  Kinetic   921.66845   922.43381   914.40889    -0.51125    -0.95424    -1.01275
  Fock        0.00000     0.00000     0.00000     0.00000     0.00000     0.00000
  -------------------------------------------------------------------------------------
  Total       0.00532     0.00532     0.02206     0.00000     0.00000     0.00000
  in kB       0.11415     0.11415     0.47378     0.00000     0.00000     0.00000
  external pressure =        0.23 kB  Pullay stress =        0.00 kB


 VOLUME and BASIS-vectors are now :
 -----------------------------------------------------------------------------
  energy-cutoff  :      650.00
  volume of cell :       74.61
      direct lattice vectors                 reciprocal lattice vectors
     4.793975157  0.000000000  0.000000000     0.208595157  0.000000000  0.000000000
    -0.000000000  4.793975157  0.000000000     0.000000000  0.208595157  0.000000000
     0.000000000  0.000000000  3.246575661     0.000000000  0.000000000  0.308016847

  length of vectors
     4.793975157  4.793975157  3.246575661     0.208595157  0.208595157  0.308016847


 FORCES acting on ions
    electron-ion (+dipol)            ewald-force                    non-local-force                 convergence-correction
 -----------------------------------------------------------------------------------------------
   -.179E-11 0.654E-11 -.498E-12   0.284E-13 0.853E-13 -.102E-13   -.124E-26 0.000E+00 0.000E+00   -.699E-13 0.116E-12 0.170E-12
   -.300E-13 -.220E-13 0.485E-12   -.114E-12 -.142E-12 -.117E-13   0.116E-26 0.000E+00 0.000E+00   -.515E-13 -.130E-12 -.208E-12
   -.340E+02 0.340E+02 -.343E-11   0.352E+02 -.352E+02 0.653E-14   -.129E+01 0.129E+01 -.434E-18   -.116E-03 0.116E-03 0.791E-13
   0.340E+02 -.340E+02 -.114E-10   -.352E+02 0.352E+02 0.637E-14   0.129E+01 -.129E+01 0.434E-18   0.116E-03 -.116E-03 0.209E-12
   0.340E+02 0.340E+02 0.171E-08   -.352E+02 -.352E+02 0.228E-14   0.129E+01 0.129E+01 -.434E-18   0.116E-03 0.116E-03 -.213E-11
   -.340E+02 -.340E+02 -.169E-08   0.352E+02 0.352E+02 0.256E-14   -.129E+01 -.129E+01 0.434E-18   -.116E-03 -.116E-03 0.186E-11
 -----------------------------------------------------------------------------------------------
   0.181E-11 0.970E-11 0.552E-11   0.000E+00 0.000E+00 -.415E-14   0.000E+00 0.000E+00 0.000E+00   -.120E-12 -.482E-13 -.209E-13
 
 
 POSITION                                       TOTAL-FORCE (eV/Angst)
 -----------------------------------------------------------------------------------
      2.39699      2.39699      1.62329         0.000000     -0.000000     -0.000000
      0.00000      0.00000      0.00000        -0.000000     -0.000000     -0.000000
      0.93916      3.85481      1.62329        -0.000381      0.000381     -0.000000
      3.85481      0.93916      1.62329         0.000381     -0.000381     -0.000000
      1.45782      1.45782     -0.00000         0.000381      0.000381     -0.000000
      3.33615      3.33615      0.00000        -0.000381     -0.000381      0.000000
 -----------------------------------------------------------------------------------
    total drift:                                0.000000      0.000000      0.000000


--------------------------------------------------------------------------------------------------------



  FREE ENERGIE OF THE ION-ELECTRON SYSTEM (eV)
  ---------------------------------------------------
  free  energy   TOTEN  =       -40.17648176 eV

  energy  without entropy=      -40.17648176  energy(sigma->0) =      -40.17648176
 
 d Force = 0.1499194E-05[ 0.383E-06, 0.262E-05]  d Energy = 0.2234880E-04-0.208E-04
 d Force =-0.3535223E-01[-0.354E-01,-0.353E-01]  d Ewald  = 0.1676392E+01-0.171E+01


--------------------------------------------------------------------------------------------------------


    POTLOK:  cpu time    0.2334: real time    0.2334


--------------------------------------------------------------------------------------------------------


 Steepest descent step on ions:
 trial-energy change:   -0.000022  1 .order   -0.000025   -0.000063    0.000013
  (g-gl).g = 0.630E-04      g.g   = 0.630E-04  gl.gl    = 0.000E+00
 g(Force)  = 0.262E-05   g(Stress)= 0.604E-04 ortho     = 0.000E+00
 gamma     =   0.00000
 trial     =   1.00000
 opt step  =   0.79579  (harmonic =   0.83144) maximal distance =0.00009997
 next E    =   -40.176483   (d E  =  -0.00002)


--------------------------------------------------------------------------------------------------------


  
 reached required accuracy - stopping structural energy minimisation
     LOOP+:  cpu time    5.6349: real time    5.6351
    4ORBIT:  cpu time    0.0000: real time    0.0000
 


 total charge     
 
# of ion       s       p       d       tot
------------------------------------------
    1        0.179   6.173   4.981  11.333
    2        0.184   6.168   4.988  11.340
    3        1.721   4.366   0.000   6.086
    4        1.721   4.366   0.000   6.086
    5        1.720   4.362   0.000   6.082
    6        1.720   4.362   0.000   6.082
--------------------------------------------------
tot          7.245  29.795   9.969  47.009
 


 magnetization (x)
 
# of ion       s       p       d       tot
------------------------------------------
    1       -0.014  -0.015  -4.598  -4.626
    2        0.014   0.013   4.595   4.622
    3        0.002   0.021   0.000   0.023
    4        0.002   0.021   0.000   0.023
    5       -0.003  -0.017   0.000  -0.020
    6       -0.003  -0.017   0.000  -0.020
--------------------------------------------------
tot         -0.001   0.007  -0.003   0.003
 

 total amount of memory used by VASP MPI-rank0    44649. kBytes
=======================================================================

   base      :      30000. kBytes
   nonl-proj :       7612. kBytes
   fftplans  :       1875. kBytes
   grid      :       2467. kBytes
   one-center:        186. kBytes
   wavefun   :       2509. kBytes
 
  
  
 General timing and accounting informations for this job:
 ========================================================
  
                  Total CPU time used (sec):       17.527
                            User time (sec):       14.333
                          System time (sec):        3.194
                         Elapsed time (sec):       17.593
  
                   Maximum memory used (kb):       60504.
                   Average memory used (kb):           0.
  
                          Minor page faults:         9351
                          Major page faults:            8
                 Voluntary context switches:          275
