       N       E                     dE             d eps       ncg     rms          rms(c)
DAV:   1     0.645943390913E+03    0.64594E+03   -0.32549E+04  1308   0.176E+03
DAV:   2     0.605703680193E+01   -0.63989E+03   -0.62256E+03  1488   0.490E+02
DAV:   3    -0.394959850407E+02   -0.45553E+02   -0.45361E+02  1512   0.145E+02
DAV:   4    -0.401044197988E+02   -0.60843E+00   -0.60830E+00  1440   0.184E+01
DAV:   5    -0.401143466337E+02   -0.99268E-02   -0.99266E-02  1536   0.228E+00    0.225E+01
DAV:   6    -0.382108264417E+02    0.19035E+01   -0.15695E+01  1596   0.316E+01    0.142E+01
DAV:   7    -0.389343837585E+02   -0.72356E+00   -0.18204E+00  1548   0.107E+01    0.112E+01
DAV:   8    -0.389943032436E+02   -0.59919E-01   -0.41543E-01  1488   0.545E+00    0.521E+00
DAV:   9    -0.391549162482E+02   -0.16061E+00   -0.48103E-02  1332   0.216E+00    0.127E+00
DAV:  10    -0.391558661097E+02   -0.94986E-03   -0.19674E-02  1596   0.124E+00    0.283E-01
DAV:  11    -0.391561113736E+02   -0.24526E-03   -0.27894E-03  1368   0.349E-01    0.133E-01
DAV:  12    -0.391562627264E+02   -0.15135E-03   -0.10131E-04  1584   0.120E-01    0.534E-02
DAV:  13    -0.391563186023E+02   -0.55876E-04   -0.87734E-05  1356   0.540E-02    0.212E-02
DAV:  14    -0.391563278521E+02   -0.92498E-05   -0.84269E-06  1536   0.210E-02    0.906E-03
DAV:  15    -0.391563276406E+02    0.21156E-06   -0.13502E-06   936   0.728E-03
   1 F= -.39156328E+02 E0= -.39156328E+02  d E =0.000000E+00  mag=    -0.0000
