 vasp.5.4.4.18Apr17-6-g9f103f2a35 (build Apr 24 2018 11:19:41) complex          
  
 executed on         CrayXC-Intel date 2021.08.20  17:18:45
 running on  192 total cores
 distrk:  each k-point on   48 cores,    4 groups
 distr:  one band on NCORES_PER_BAND=  12 cores,    4 groups


--------------------------------------------------------------------------------------------------------


 INCAR:
 POTCAR:    PAW_PBE Mn_pv 02Aug2007               
 POTCAR:    PAW_PBE F 08Apr2002                   
 POTCAR:    PAW_PBE H 15Jun2001                   

 ----------------------------------------------------------------------------- 
|                                                                             |
|           W    W    AA    RRRRR   N    N  II  N    N   GGGG   !!!           |
|           W    W   A  A   R    R  NN   N  II  NN   N  G    G  !!!           |
|           W    W  A    A  R    R  N N  N  II  N N  N  G       !!!           |
|           W WW W  AAAAAA  RRRRR   N  N N  II  N  N N  G  GGG   !            |
|           WW  WW  A    A  R   R   N   NN  II  N   NN  G    G                |
|           W    W  A    A  R    R  N    N  II  N    N   GGGG   !!!           |
|                                                                             |
|      You have enabled k-point parallelism (KPAR>1).                         |
|      This developmental code was originally  written by Paul Kent at ORNL,  |
|      and carefully double checked in Vienna.                                |
|      GW as well as linear response parallelism added by Martijn Marsman     |
|      and Georg Kresse.                                                      |
|      Carefully verify results versus KPAR=1.                                |
|      Report problems to Paul Kent and Vienna.                               |
|                                                                             |
 ----------------------------------------------------------------------------- 

 POTCAR:    PAW_PBE Mn_pv 02Aug2007               
   VRHFIN =Mn: 3p4s3d                                                           
   LEXCH  = PE                                                                  
   EATOM  =  2025.2664 eV,  148.8529 Ry                                         
                                                                                
   TITEL  = PAW_PBE Mn_pv 02Aug2007                                             
   LULTRA =        F    use ultrasoft PP ?                                      
   IUNSCR =        1    unscreen: 0-lin 1-nonlin 2-no                           
   RPACOR =    2.080    partial core radius                                     
   POMASS =   54.938; ZVAL   =   13.000    mass and valenz                      
   RCORE  =    2.300    outmost cutoff radius                                   
   RWIGS  =    2.500; RWIGS  =    1.323    wigner-seitz radius (au A)           
   ENMAX  =  269.864; ENMIN  =  202.398 eV                                      
   ICORE  =        3    local potential                                         
   LCOR   =        T    correct aug charges                                     
   LPAW   =        T    paw PP                                                  
   EAUG   =  569.085                                                            
   DEXC   =    0.000                                                            
   RMAX   =    2.343    core radius for proj-oper                               
   RAUG   =    1.300    factor for augmentation sphere                          
   RDEP   =    2.338    radius for radial grids                                 
   RDEPT  =    1.798    core radius for aug-charge                              
                                                                                
   Atomic configuration                                                         
    8 entries                                                                   
     n  l   j            E        occ.                                          
     1  0  0.50     -6424.8287   2.0000                                         
     2  0  0.50      -739.1154   2.0000                                         
     2  1  1.50      -625.3949   6.0000                                         
     3  0  0.50       -81.6100   2.0000                                         
     3  1  1.50       -50.4667   6.0000                                         
     3  2  2.50        -3.3745   6.0000                                         
     4  0  0.50        -4.1331   1.0000                                         
     4  3  2.50        -1.3606   0.0000                                         
   Description                                                                  
     l       E           TYP  RCUT    TYP  RCUT                                 
     1    -50.4666628     23  2.000                                             
     1     -1.3605826     23  2.000                                             
     2     -3.3744729     23  2.300                                             
     2     -4.7350555     23  2.300                                             
     0     -4.1331431     23  2.300                                             
     0      7.6656591     23  2.300                                             
     3      9.5240782     23  2.300                                             
  local pseudopotential read in
  partial core-charges read in
  partial kinetic energy density read in
  atomic valenz-charges read in
  non local Contribution for L=           1  read in
    real space projection operators read in
  non local Contribution for L=           1  read in
    real space projection operators read in
  non local Contribution for L=           2  read in
    real space projection operators read in
  non local Contribution for L=           2  read in
    real space projection operators read in
  non local Contribution for L=           0  read in
    real space projection operators read in
  non local Contribution for L=           0  read in
    real space projection operators read in
    PAW grid and wavefunctions read in
 
   number of l-projection  operators is LMAX  =           6
   number of lm-projection operators is LMMAX =          18
 
 POTCAR:    PAW_PBE F 08Apr2002                   
   VRHFIN =F: s2p5                                                              
   LEXCH  = PE                                                                  
   EATOM  =   659.6475 eV,   48.4827 Ry                                         
                                                                                
   TITEL  = PAW_PBE F 08Apr2002                                                 
   LULTRA =        F    use ultrasoft PP ?                                      
   IUNSCR =        1    unscreen: 0-lin 1-nonlin 2-no                           
   RPACOR =    1.200    partial core radius                                     
   POMASS =   18.998; ZVAL   =    7.000    mass and valenz                      
   RCORE  =    1.520    outmost cutoff radius                                   
   RWIGS  =    1.500; RWIGS  =    0.794    wigner-seitz radius (au A)           
   ENMAX  =  400.000; ENMIN  =  300.000 eV                                      
   ICORE  =        2    local potential                                         
   LCOR   =        T    correct aug charges                                     
   LPAW   =        T    paw PP                                                  
   EAUG   =  613.614                                                            
   RMAX   =    1.555    core radius for proj-oper                               
   RAUG   =    1.300    factor for augmentation sphere                          
   RDEP   =    1.539    radius for radial grids                                 
   RDEPT  =    1.299    core radius for aug-charge                              
                                                                                
   Atomic configuration                                                         
    4 entries                                                                   
     n  l   j            E        occ.                                          
     1  0  0.50      -663.3661   2.0000                                         
     2  0  0.50       -29.8995   2.0000                                         
     2  1  0.50       -11.1114   5.0000                                         
     3  2  1.50       -10.8847   0.0000                                         
   Description                                                                  
     l       E           TYP  RCUT    TYP  RCUT                                 
     0    -29.8995018     23  1.200                                             
     0     -9.5240782     23  1.200                                             
     1    -11.1113914     23  1.520                                             
     1      1.3605826     23  1.520                                             
     2    -10.8846608      7  1.500                                             
  local pseudopotential read in
  partial core-charges read in
  partial kinetic energy density read in
  atomic valenz-charges read in
  non local Contribution for L=           0  read in
    real space projection operators read in
  non local Contribution for L=           0  read in
    real space projection operators read in
  non local Contribution for L=           1  read in
    real space projection operators read in
  non local Contribution for L=           1  read in
    real space projection operators read in
    PAW grid and wavefunctions read in
 
   number of l-projection  operators is LMAX  =           4
   number of lm-projection operators is LMMAX =           8
 
 POTCAR:    PAW_PBE H 15Jun2001                   
   VRHFIN =H: ultrasoft test                                                    
   LEXCH  = PE                                                                  
   EATOM  =    12.4884 eV,    0.9179 Ry                                         
                                                                                
   TITEL  = PAW_PBE H 15Jun2001                                                 
   LULTRA =        F    use ultrasoft PP ?                                      
   IUNSCR =        0    unscreen: 0-lin 1-nonlin 2-no                           
   RPACOR =    0.000    partial core radius                                     
   POMASS =    1.000; ZVAL   =    1.000    mass and valenz                      
   RCORE  =    1.100    outmost cutoff radius                                   
   RWIGS  =    0.700; RWIGS  =    0.370    wigner-seitz radius (au A)           
   ENMAX  =  250.000; ENMIN  =  200.000 eV                                      
   RCLOC  =    0.701    cutoff for local pot                                    
   LCOR   =        T    correct aug charges                                     
   LPAW   =        T    paw PP                                                  
   EAUG   =  400.000                                                            
   RMAX   =    1.123    core radius for proj-oper                               
   RAUG   =    1.200    factor for augmentation sphere                          
   RDEP   =    1.112    radius for radial grids                                 
   RDEPT  =    0.926    core radius for aug-charge                              
                                                                                
   Atomic configuration                                                         
    2 entries                                                                   
     n  l   j            E        occ.                                          
     1  0  0.50        -6.4927   1.0000                                         
     2  1  0.50        -3.4015   0.0000                                         
   Description                                                                  
     l       E           TYP  RCUT    TYP  RCUT                                 
     0     -6.4927494     23  1.100                                             
     0      6.8029130     23  1.100                                             
     1     -4.0817478     23  1.100                                             
  local pseudopotential read in
  atomic valenz-charges read in
  non local Contribution for L=           0  read in
    real space projection operators read in
  non local Contribution for L=           0  read in
    real space projection operators read in
  non local Contribution for L=           1  read in
    real space projection operators read in
    PAW grid and wavefunctions read in
 
   number of l-projection  operators is LMAX  =           3
   number of lm-projection operators is LMMAX =           5
 

 ----------------------------------------------------------------------------- 
|                                                                             |
|  ADVICE TO THIS USER RUNNING 'VASP/VAMP'   (HEAR YOUR MASTER'S VOICE ...):  |
|                                                                             |
|      You have a (more or less) 'large supercell' and for larger cells       |
|      it might be more efficient to use real space projection opertators     |
|      So try LREAL= Auto  in the INCAR   file.                               |
|      Mind:          For very  accurate calculation you might also keep the  |
|      reciprocal projection scheme          (i.e. LREAL=.FALSE.)             |
|                                                                             |
 ----------------------------------------------------------------------------- 


 ----------------------------------------------------------------------------- 
|                                                                             |
|  ADVICE TO THIS USER RUNNING 'VASP/VAMP'   (HEAR YOUR MASTER'S VOICE ...):  |
|                                                                             |
|      You enforced a specific xc-type in the INCAR file,                     |
|      a different type was found on the POTCAR file                          |
|          I HOPE YOU KNOW, WHAT YOU ARE  DOING                               |
|                                                                             |
 ----------------------------------------------------------------------------- 

  PAW_PBE Mn_pv 02Aug2007               :
 energy of atom  1       EATOM=-2025.2664
 kinetic energy error for atom=    0.0020 (will be added to EATOM!!)
  PAW_PBE F 08Apr2002                   :
 energy of atom  2       EATOM= -659.6475
 kinetic energy error for atom=    0.0140 (will be added to EATOM!!)
  PAW_PBE H 15Jun2001                   :
 energy of atom  3       EATOM=  -12.4884
 kinetic energy error for atom=    0.0002 (will be added to EATOM!!)
 
 
 POSCAR: Mn  F  H                                
  positions in direct lattice
  velocities in cartesian coordinates
 exchange correlation table for  LEXCH =       14
   RHO(1)=    0.500       N(1)  =     2000
   RHO(2)=  100.500       N(2)  =     4000
 


--------------------------------------------------------------------------------------------------------


 ion  position               nearest neighbor table
   1  0.162  0.162  0.125- 217 1.64  73 2.05  74 2.05  80 2.14  76 2.14  75 2.29  79 2.29
   2  1.000  1.000  0.998- 204 2.10  75 2.12 182 2.13 117 2.13 105 2.15 170 2.15
   3  0.171  0.171  0.379-  79 2.04  84 2.09  78 2.11  77 2.11  80 2.14  83 2.15
   4  1.000  1.000  0.252- 208 2.10  79 2.12 109 2.13 174 2.13 105 2.15 170 2.15
   5  0.166  0.166  0.625-  82 2.11  81 2.11  83 2.11  87 2.11  88 2.13  84 2.13
   6  0.001  0.001  0.500-  83 2.11 212 2.11 109 2.13 174 2.13 178 2.13 113 2.13
   7  0.171  0.171  0.871-  75 2.04  88 2.09  86 2.11  85 2.11  76 2.14  87 2.15
   8  0.001  0.001  0.750-  87 2.11 216 2.11 117 2.13 182 2.13 178 2.13 113 2.13
   9  0.167  0.500  0.125-  89 2.10  90 2.10  96 2.13  92 2.13  91 2.13  95 2.13
  10  0.001  0.332  1.000- 172 2.10  91 2.10  85 2.13 186 2.13 198 2.13  73 2.16
  11  0.166  0.499  0.375-  93 2.10  94 2.11  99 2.13  96 2.13 100 2.13  95 2.14
  12  0.001  0.332  0.250- 176 2.10  95 2.10  77 2.13 186 2.13 190 2.13  73 2.16
  13  0.167  0.501  0.625-  97 2.10  98 2.10  99 2.13 103 2.13 104 2.13 100 2.13
  14  1.000  0.334  0.500-  99 2.11 180 2.11  77 2.12 194 2.13  81 2.13 190 2.13
  15  0.166  0.499  0.875- 101 2.10 102 2.11 103 2.13  92 2.13 104 2.13  91 2.14
  16  1.000  0.334  0.750- 103 2.11 184 2.11  85 2.12 194 2.13  81 2.13 198 2.13
  17  0.166  0.833  0.125- 105 2.10 106 2.10 107 2.13 111 2.13 108 2.14 112 2.14
  18  1.000  0.667  0.000- 107 2.10 188 2.10 214 2.13 202 2.13 101 2.13  89 2.13
  19  0.167  0.833  0.375- 109 2.10 110 2.10 115 2.13 111 2.13 116 2.13 112 2.14
  20  1.000  0.667  0.250- 111 2.10 192 2.10 206 2.13 202 2.13  93 2.13  89 2.13
  21  0.167  0.834  0.625- 113 2.10 114 2.11 115 2.13 119 2.13 116 2.13 120 2.13
  22  0.000  0.667  0.500- 115 2.10 196 2.10  97 2.13 206 2.13 210 2.13  93 2.13
  23  0.166  0.833  0.875- 117 2.10 118 2.10 119 2.13 107 2.13 120 2.13 108 2.14
  24  0.000  0.667  0.750- 119 2.10 200 2.10  97 2.13 214 2.13 210 2.13 101 2.13
  25  0.500  0.167  0.125- 122 2.10 121 2.10 128 2.13 124 2.13 123 2.13 127 2.13
  26  0.332  0.001  1.000- 108 2.10 123 2.10  86 2.13 153 2.13 165 2.13  74 2.16
  27  0.499  0.166  0.375- 126 2.10 125 2.11 131 2.13 128 2.13 132 2.13 127 2.14
  28  0.332  0.001  0.250- 112 2.10 127 2.10  78 2.13 153 2.13 157 2.13  74 2.16
  29  0.501  0.167  0.625- 130 2.10 129 2.10 131 2.13 135 2.13 136 2.13 132 2.13
  30  0.334  1.000  0.500- 131 2.11 116 2.11  78 2.12 161 2.13  82 2.13 157 2.13
  31  0.499  0.166  0.875- 134 2.10 133 2.11 135 2.13 124 2.13 136 2.13 123 2.14
  32  0.334  1.000  0.750- 135 2.11 120 2.11  86 2.12 161 2.13  82 2.13 165 2.13
  33  0.499  0.499  0.125- 137 2.10 138 2.10 143 2.13 139 2.13 140 2.13 144 2.13
  34  0.333  0.332  0.001- 139 2.11  76 2.12  90 2.13 121 2.13 102 2.13 133 2.13
  35  0.501  0.501  0.374- 141 2.10 142 2.10 144 2.13 147 2.13 148 2.13 143 2.13
  36  0.333  0.332  0.250- 143 2.11  80 2.12 121 2.13  90 2.13  94 2.13 125 2.13
  37  0.501  0.501  0.625- 146 2.10 145 2.10 152 2.13 148 2.13 147 2.13 151 2.13
  38  0.335  0.335  0.500- 147 2.09  84 2.10  98 2.13 129 2.13 125 2.14  94 2.14
  39  0.501  0.501  0.876- 149 2.10 150 2.10 140 2.13 151 2.13 152 2.13 139 2.13
  40  0.335  0.335  0.750- 151 2.09  88 2.10  98 2.13 129 2.13 133 2.14 102 2.14
  41  0.499  0.834  0.125- 154 2.11 153 2.12 156 2.13 160 2.13 159 2.13 155 2.13
  42  0.333  0.667  0.000- 155 2.10  92 2.10 149 2.13 118 2.13 137 2.13 106 2.13
  43  0.500  0.833  0.375- 158 2.10 157 2.10 163 2.13 160 2.13 164 2.13 159 2.13
  44  0.333  0.667  0.250- 159 2.10  96 2.10 141 2.13 110 2.13 137 2.13 106 2.13
  45  0.501  0.833  0.625- 162 2.10 161 2.10 164 2.13 168 2.13 167 2.13 163 2.13
  46  0.334  0.667  0.500- 163 2.10 100 2.10 110 2.13 114 2.13 145 2.13 141 2.13
  47  0.500  0.833  0.875- 166 2.10 165 2.10 167 2.13 156 2.13 168 2.13 155 2.13
  48  0.334  0.667  0.750- 167 2.10 104 2.10 118 2.13 114 2.13 145 2.13 149 2.13
  49  0.833  0.166  0.125- 169 2.10 170 2.10 175 2.13 171 2.13 176 2.14 172 2.14
  50  0.667  1.000  0.000- 171 2.10 156 2.10 213 2.13 201 2.13 134 2.13 122 2.13
  51  0.833  0.166  0.375- 174 2.10 173 2.10 179 2.13 175 2.13 180 2.13 176 2.14
  52  0.667  1.000  0.250- 175 2.10 160 2.10 205 2.13 201 2.13 126 2.13 122 2.13
  53  0.834  0.167  0.625- 178 2.10 177 2.11 183 2.13 179 2.13 184 2.13 180 2.13
  54  0.667  0.000  0.500- 179 2.10 164 2.10 130 2.13 205 2.13 209 2.13 126 2.13
  55  0.833  0.166  0.875- 182 2.10 181 2.10 183 2.13 171 2.13 184 2.13 172 2.14
  56  0.667  0.000  0.750- 183 2.10 168 2.10 130 2.13 213 2.13 209 2.13 134 2.13
  57  0.834  0.499  0.125- 185 2.11 186 2.12 192 2.13 188 2.13 191 2.13 187 2.13
  58  0.667  0.333  0.000- 187 2.10 124 2.10 150 2.13 181 2.13 138 2.13 169 2.13
  59  0.833  0.500  0.375- 189 2.10 190 2.10 195 2.13 192 2.13 196 2.13 191 2.13
  60  0.667  0.333  0.250- 191 2.10 128 2.10 142 2.13 173 2.13 138 2.13 169 2.13
  61  0.833  0.500  0.625- 193 2.10 194 2.10 200 2.13 196 2.13 199 2.13 195 2.13
  62  0.667  0.334  0.500- 195 2.10 132 2.10 173 2.13 177 2.13 146 2.13 142 2.13
  63  0.833  0.500  0.875- 197 2.10 198 2.10 199 2.13 188 2.13 200 2.13 187 2.13
  64  0.667  0.334  0.750- 199 2.10 136 2.10 181 2.13 177 2.13 146 2.13 150 2.13
  65  0.834  0.834  0.125- 201 2.11 202 2.11 204 2.13 208 2.13 207 2.13 203 2.13
  66  0.667  0.667  0.000- 203 2.10 140 2.11 154 2.13 185 2.13 166 2.13 197 2.13
  67  0.834  0.834  0.375- 206 2.11 205 2.11 208 2.12 211 2.13 212 2.13 207 2.14
  68  0.667  0.667  0.250- 207 2.10 144 2.11 154 2.13 185 2.13 158 2.13 189 2.13
  69  0.834  0.834  0.625- 209 2.11 210 2.11 216 2.13 212 2.13 211 2.13 215 2.13
  70  0.667  0.667  0.500- 211 2.10 148 2.10 189 2.13 162 2.13 158 2.13 193 2.13
  71  0.834  0.834  0.875- 214 2.11 213 2.11 204 2.12 215 2.13 216 2.13 203 2.14
  72  0.667  0.667  0.750- 215 2.10 152 2.10 197 2.13 166 2.13 162 2.13 193 2.13
  73  0.065  0.263  0.125-   1 2.05  12 2.16  10 2.16
  74  0.263  0.065  0.125-   1 2.05  28 2.16  26 2.16
  75  0.101  0.101  0.980-   7 2.04   2 2.12   1 2.29
  76  0.230  0.230  0.004-  34 2.12   1 2.14   7 2.14
  77  0.068  0.272  0.376-   3 2.11  14 2.12  12 2.13
  78  0.272  0.068  0.377-   3 2.11  30 2.12  28 2.13
  79  0.101  0.101  0.270-   3 2.04   4 2.12   1 2.29
  80  0.230  0.230  0.246-  36 2.12   1 2.14   3 2.14
  81  0.065  0.269  0.625-   5 2.11  14 2.13  16 2.13
  82  0.269  0.065  0.625-   5 2.11  32 2.13  30 2.13
  83  0.102  0.102  0.500-   6 2.11   5 2.11   3 2.15
  84  0.234  0.234  0.504-   3 2.09  38 2.10   5 2.13
  85  0.068  0.272  0.874-   7 2.11  16 2.12  10 2.13
  86  0.272  0.068  0.874-   7 2.11  32 2.12  26 2.13
  87  0.102  0.102  0.750-   8 2.11   5 2.11   7 2.15
  88  0.234  0.234  0.746-   7 2.09  40 2.10   5 2.13
  89  0.065  0.601  0.125-   9 2.10  20 2.13  18 2.13
  90  0.269  0.399  0.125-   9 2.10  34 2.13  36 2.13
  91  0.102  0.434  0.001-  10 2.10   9 2.13  15 2.14
  92  0.232  0.565  1.000-  42 2.10   9 2.13  15 2.13
  93  0.065  0.601  0.375-  11 2.10  20 2.13  22 2.13
  94  0.267  0.397  0.375-  11 2.11  36 2.13  38 2.14
  95  0.102  0.434  0.249-  12 2.10   9 2.13  11 2.14
  96  0.232  0.565  0.250-  44 2.10   9 2.13  11 2.13
  97  0.065  0.602  0.625-  13 2.10  24 2.13  22 2.13
  98  0.270  0.401  0.625-  13 2.10  40 2.13  38 2.13
  99  0.101  0.436  0.501-  14 2.11  11 2.13  13 2.13
 100  0.232  0.565  0.499-  46 2.10  13 2.13  11 2.13
 101  0.065  0.601  0.875-  15 2.10  18 2.13  24 2.13
 102  0.267  0.397  0.875-  15 2.11  34 2.13  40 2.14
 103  0.101  0.436  0.749-  16 2.11  15 2.13  13 2.13
 104  0.232  0.565  0.751-  48 2.10  13 2.13  15 2.13
 105  0.062  0.932  0.125-  17 2.10   2 2.15   4 2.15
 106  0.269  0.732  0.125-  17 2.10  44 2.13  42 2.13
 107  0.102  0.767  1.000-  18 2.10  17 2.13  23 2.13
 108  0.230  0.900  1.000-  26 2.10  23 2.14  17 2.14
 109  0.063  0.932  0.376-  19 2.10   6 2.13   4 2.13
 110  0.269  0.732  0.375-  19 2.10  44 2.13  46 2.13
 111  0.102  0.767  0.250-  20 2.10  17 2.13  19 2.13
 112  0.230  0.900  0.250-  28 2.10  19 2.14  17 2.14
 113  0.066  0.935  0.625-  21 2.10   8 2.13   6 2.13
 114  0.269  0.732  0.625-  21 2.11  48 2.13  46 2.13
 115  0.102  0.767  0.501-  22 2.10  19 2.13  21 2.13
 116  0.232  0.899  0.500-  30 2.11  19 2.13  21 2.13
 117  0.063  0.932  0.874-  23 2.10   8 2.13   2 2.13
 118  0.269  0.732  0.875-  23 2.10  42 2.13  48 2.13
 119  0.102  0.767  0.750-  24 2.10  23 2.13  21 2.13
 120  0.232  0.899  0.750-  32 2.11  23 2.13  21 2.13
 121  0.399  0.269  0.125-  25 2.10  36 2.13  34 2.13
 122  0.601  0.065  0.125-  25 2.10  50 2.13  52 2.13
 123  0.434  0.102  0.001-  26 2.10  25 2.13  31 2.14
 124  0.565  0.232  1.000-  58 2.10  25 2.13  31 2.13
 125  0.397  0.267  0.375-  27 2.11  36 2.13  38 2.14
 126  0.601  0.065  0.375-  27 2.10  52 2.13  54 2.13
 127  0.434  0.102  0.249-  28 2.10  25 2.13  27 2.14
 128  0.565  0.232  0.250-  60 2.10  25 2.13  27 2.13
 129  0.401  0.270  0.625-  29 2.10  40 2.13  38 2.13
 130  0.602  0.065  0.625-  29 2.10  56 2.13  54 2.13
 131  0.436  0.101  0.501-  30 2.11  27 2.13  29 2.13
 132  0.565  0.232  0.499-  62 2.10  29 2.13  27 2.13
 133  0.397  0.267  0.875-  31 2.11  34 2.13  40 2.14
 134  0.601  0.065  0.875-  31 2.10  50 2.13  56 2.13
 135  0.436  0.101  0.749-  32 2.11  31 2.13  29 2.13
 136  0.565  0.232  0.751-  64 2.10  29 2.13  31 2.13
 137  0.398  0.601  0.125-  33 2.10  44 2.13  42 2.13
 138  0.601  0.398  0.125-  33 2.10  58 2.13  60 2.13
 139  0.434  0.434  0.999-  34 2.11  33 2.13  39 2.13
 140  0.565  0.565  0.001-  66 2.11  39 2.13  33 2.13
 141  0.399  0.602  0.375-  35 2.10  44 2.13  46 2.13
 142  0.602  0.399  0.375-  35 2.10  60 2.13  62 2.13
 143  0.434  0.434  0.251-  36 2.11  33 2.13  35 2.13
 144  0.565  0.565  0.249-  68 2.11  35 2.13  33 2.13
 145  0.399  0.602  0.625-  37 2.10  48 2.13  46 2.13
 146  0.602  0.399  0.625-  37 2.10  64 2.13  62 2.13
 147  0.436  0.436  0.500-  38 2.09  35 2.13  37 2.13
 148  0.566  0.566  0.500-  70 2.10  37 2.13  35 2.13
 149  0.399  0.602  0.875-  39 2.10  42 2.13  48 2.13
 150  0.602  0.399  0.875-  39 2.10  58 2.13  64 2.13
 151  0.436  0.436  0.750-  40 2.09  39 2.13  37 2.13
 152  0.566  0.566  0.750-  72 2.10  37 2.13  39 2.13
 153  0.397  0.936  0.125-  41 2.12  26 2.13  28 2.13
 154  0.602  0.733  0.125-  41 2.11  68 2.13  66 2.13
 155  0.435  0.768  0.000-  42 2.10  41 2.13  47 2.13
 156  0.565  0.899  0.000-  50 2.10  41 2.13  47 2.13
 157  0.398  0.935  0.374-  43 2.10  28 2.13  30 2.13
 158  0.602  0.732  0.375-  43 2.10  70 2.13  68 2.13
 159  0.435  0.768  0.250-  44 2.10  41 2.13  43 2.13
 160  0.565  0.899  0.250-  52 2.10  41 2.13  43 2.13
 161  0.399  0.934  0.625-  45 2.10  30 2.13  32 2.13
 162  0.602  0.732  0.625-  45 2.10  72 2.13  70 2.13
 163  0.435  0.768  0.500-  46 2.10  43 2.13  45 2.13
 164  0.565  0.899  0.500-  54 2.10  45 2.13  43 2.13
 165  0.398  0.935  0.876-  47 2.10  26 2.13  32 2.13
 166  0.602  0.732  0.875-  47 2.10  72 2.13  66 2.13
 167  0.435  0.768  0.750-  48 2.10  47 2.13  45 2.13
 168  0.565  0.899  0.750-  56 2.10  45 2.13  47 2.13
 169  0.732  0.268  0.125-  49 2.10  60 2.13  58 2.13
 170  0.932  0.062  0.125-  49 2.10   4 2.15   2 2.15
 171  0.767  0.102  1.000-  50 2.10  49 2.13  55 2.13
 172  0.900  0.230  1.000-  10 2.10  55 2.14  49 2.14
 173  0.732  0.269  0.375-  51 2.10  60 2.13  62 2.13
 174  0.932  0.063  0.376-  51 2.10   6 2.13   4 2.13
 175  0.767  0.102  0.250-  52 2.10  49 2.13  51 2.13
 176  0.900  0.230  0.250-  12 2.10  51 2.14  49 2.14
 177  0.732  0.269  0.625-  53 2.11  64 2.13  62 2.13
 178  0.935  0.066  0.625-  53 2.10   8 2.13   6 2.13
 179  0.768  0.102  0.501-  54 2.10  51 2.13  53 2.13
 180  0.899  0.232  0.500-  14 2.11  51 2.13  53 2.13
 181  0.732  0.269  0.875-  55 2.10  58 2.13  64 2.13
 182  0.932  0.063  0.874-  55 2.10   8 2.13   2 2.13
 183  0.768  0.102  0.750-  56 2.10  55 2.13  53 2.13
 184  0.899  0.232  0.750-  16 2.11  55 2.13  53 2.13
 185  0.733  0.602  0.125-  57 2.11  68 2.13  66 2.13
 186  0.936  0.397  0.125-  57 2.12  12 2.13  10 2.13
 187  0.768  0.435  0.000-  58 2.10  57 2.13  63 2.13
 188  0.899  0.565  0.000-  18 2.10  57 2.13  63 2.13
 189  0.732  0.602  0.375-  59 2.10  70 2.13  68 2.13
 190  0.935  0.398  0.374-  59 2.10  12 2.13  14 2.13
 191  0.768  0.435  0.250-  60 2.10  57 2.13  59 2.13
 192  0.899  0.565  0.250-  20 2.10  57 2.13  59 2.13
 193  0.732  0.602  0.625-  61 2.10  72 2.13  70 2.13
 194  0.934  0.399  0.625-  61 2.10  16 2.13  14 2.13
 195  0.768  0.435  0.500-  62 2.10  59 2.13  61 2.13
 196  0.899  0.565  0.500-  22 2.10  61 2.13  59 2.13
 197  0.732  0.602  0.875-  63 2.10  72 2.13  66 2.13
 198  0.935  0.398  0.876-  63 2.10  10 2.13  16 2.13
 199  0.768  0.435  0.750-  64 2.10  63 2.13  61 2.13
 200  0.899  0.565  0.750-  24 2.10  61 2.13  63 2.13
 201  0.732  0.935  0.125-  65 2.11  52 2.13  50 2.13
 202  0.935  0.732  0.125-  65 2.11  20 2.13  18 2.13
 203  0.768  0.768  1.000-  66 2.10  65 2.13  71 2.14
 204  0.898  0.898  1.000-   2 2.10  71 2.12  65 2.13
 205  0.732  0.935  0.375-  67 2.11  52 2.13  54 2.13
 206  0.935  0.732  0.375-  67 2.11  20 2.13  22 2.13
 207  0.768  0.768  0.250-  68 2.10  65 2.13  67 2.14
 208  0.898  0.898  0.250-   4 2.10  67 2.12  65 2.13
 209  0.732  0.935  0.625-  69 2.11  56 2.13  54 2.13
 210  0.935  0.731  0.625-  69 2.11  24 2.13  22 2.13
 211  0.769  0.768  0.500-  70 2.10  67 2.13  69 2.13
 212  0.899  0.899  0.501-   6 2.11  69 2.13  67 2.13
 213  0.732  0.935  0.875-  71 2.11  50 2.13  56 2.13
 214  0.935  0.732  0.875-  71 2.11  18 2.13  24 2.13
 215  0.769  0.768  0.750-  72 2.10  71 2.13  69 2.13
 216  0.899  0.899  0.749-   8 2.11  69 2.13  71 2.13
 217  0.082  0.083  0.125-   1 1.64
 

IMPORTANT INFORMATION: All symmetrisations will be switched off!
NOSYMM: (Re-)initialisation of all symmetry stuff for point group C_1.

 
 
 KPOINTS: KPOINTS created by Atomic Simulation Env

Automatic generation of k-mesh.
Space group operators:
 irot       det(A)        alpha          n_x          n_y          n_z        tau_x        tau_y        tau_z
    1     1.000000     0.000000     1.000000     0.000000     0.000000     0.000000     0.000000     0.000000
 
 Subroutine IBZKPT returns following result:
 ===========================================
 
 Found      4 irreducible k-points:
 
 Following reciprocal coordinates:
            Coordinates               Weight
  0.250000  0.250000  0.250000      2.000000
 -0.250000  0.250000  0.250000      2.000000
  0.250000 -0.250000  0.250000      2.000000
 -0.250000 -0.250000  0.250000      2.000000
 
 Following cartesian coordinates:
            Coordinates               Weight
  0.017066  0.017066  0.018935      2.000000
 -0.017066  0.017066  0.018935      2.000000
  0.017066 -0.017066  0.018935      2.000000
 -0.017066 -0.017066  0.018935      2.000000
 


--------------------------------------------------------------------------------------------------------




 Dimension of arrays:
   k-points           NKPTS =      4   k-points in BZ     NKDIM =      4   number of bands    NBANDS=   1168
   number of dos      NEDOS =    301   number of ions     NIONS =    217
   non local maximal  LDIM  =      6   non local SUM 2l+1 LMDIM =     18
   total plane-waves  NPLWV = 829440
   max r-space proj   IRMAX =      1   max aug-charges    IRDMAX=  71248
   dimension x,y,z NGX =    96 NGY =   96 NGZ =   90
   dimension x,y,z NGXF=   192 NGYF=  192 NGZF=  180
   support grid    NGXF=   384 NGYF=  384 NGZF=  360
   ions per type =              72 144   1
   NGX,Y,Z   is equivalent  to a cutoff of  10.89, 10.89, 11.33 a.u.
   NGXF,Y,Z  is equivalent  to a cutoff of  21.79, 21.79, 22.66 a.u.

 SYSTEM =  unknown system                          
 POSCAR =  Mn  F  H                                

 Startparameter for this run:
   NWRITE =      2    write-flag & timer
   PREC   = normal    normal or accurate (medium, high low for compatibility)
   ISTART =      1    job   : 0-new  1-cont  2-samecut
   ICHARG =      1    charge: 1-file 2-atom 10-const
   ISPIN  =      2    spin polarized calculation?
   LNONCOLLINEAR =      F non collinear calculations
   LSORBIT =      F    spin-orbit coupling
   INIWAV =      1    electr: 0-lowe 1-rand  2-diag
   LASPH  =      T    aspherical Exc in radial PAW
   METAGGA=      F    non-selfconsistent MetaGGA calc.

 Electronic Relaxation 1
   ENCUT  =  700.0 eV  51.45 Ry    7.17 a.u.  31.60 31.60 28.48*2*pi/ulx,y,z
   ENINI  =  700.0     initial cutoff
   ENAUG  =  613.6 eV  augmentation charge cutoff
   NELM   =     60;   NELMIN=  2; NELMDL=  0     # of ELM steps 
   EDIFF  = 0.1E-06   stopping-criterion for ELM
   LREAL  =      F    real-space projection
   NLSPLINE    = F    spline interpolate recip. space projectors
   LCOMPAT=      F    compatible to vasp.4.4
   GGA_COMPAT  = T    GGA compatible to vasp.4.4-vasp.4.6
   LMAXPAW     = -100 max onsite density
   LMAXMIX     =    4 max onsite mixed and CHGCAR
   VOSKOWN=      0    Vosko Wilk Nusair interpolation
   ROPT   =    0.00000   0.00000   0.00000
 Ionic relaxation
   EDIFFG = -.5E-02   stopping-criterion for IOM
   NSW    =      0    number of steps for IOM
   NBLOCK =      1;   KBLOCK =      1    inner block; outer block 
   IBRION =     -1    ionic relax: 0-MD 1-quasi-New 2-CG
   NFREE  =      0    steps in history (QN), initial steepest desc. (CG)
   ISIF   =      2    stress and relaxation
   IWAVPR =     10    prediction:  0-non 1-charg 2-wave 3-comb
   ISYM   =      0    0-nonsym 1-usesym 2-fastsym
   LCORR  =      T    Harris-Foulkes like correction to forces

   POTIM  = 0.5000    time-step for ionic-motion
   TEIN   =    0.0    initial temperature
   TEBEG  =    0.0;   TEEND  =   0.0 temperature during run
   SMASS  =  -3.00    Nose mass-parameter (am)
   estimated Nose-frequenzy (Omega)   =  0.10E-29 period in steps =****** mass=  -0.490E-26a.u.
   SCALEE = 1.0000    scale energy and forces
   NPACO  =    256;   APACO  = 16.0  distance and # of slots for P.C.
   PSTRESS=    0.0 pullay stress

  Mass of Ions in am
   POMASS =  54.94 19.00  1.00
  Ionic Valenz
   ZVAL   =  13.00  7.00  1.00
  Atomic Wigner-Seitz radii
   RWIGS  =  -1.00 -1.00 -1.00
  virtual crystal weights 
   VCA    =   1.00  1.00  1.00
   NELECT =    1945.0000    total number of electrons
   NUPDOWN=      -1.0000    fix difference up-down

 DOS related values:
   EMIN   =  10.00;   EMAX   =-10.00  energy-range for DOS
   EFERMI =   0.00
   ISMEAR =     0;   SIGMA  =   0.01  broadening in eV -4-tet -1-fermi 0-gaus

 Electronic relaxation 2 (details)
   IALGO  =     68    algorithm
   LDIAG  =      T    sub-space diagonalisation (order eigenvalues)
   LSUBROT=      F    optimize rotation matrix (better conditioning)
   TURBO    =      0    0=normal 1=particle mesh
   IRESTART =      0    0=no restart 2=restart with 2 vectors
   NREBOOT  =      0    no. of reboots
   NMIN     =      0    reboot dimension
   EREF     =   0.00    reference energy to select bands
   IMIX   =      4    mixing-type and parameters
     AMIX     =   0.40;   BMIX     =  1.00
     AMIX_MAG =   1.60;   BMIX_MAG =  1.00
     AMIN     =   0.10
     WC   =   100.;   INIMIX=   1;  MIXPRE=   1;  MAXMIX= -45

 Intra band minimization:
   WEIMIN = 0.0000     energy-eigenvalue tresh-hold
   EBREAK =  0.21E-10  absolut break condition
   DEPER  =   0.30     relativ break condition  

   TIME   =   0.40     timestep for ELM

  volume/ion in A,a.u.               =      13.06        88.12
  Fermi-wavevector in a.u.,A,eV,Ry     =   1.444135  2.729020 28.375312  2.085527
  Thomas-Fermi vector in A             =   2.562464
 
 Write flags
   LWAVE        =      T    write WAVECAR
   LDOWNSAMPLE  =      F    k-point downsampling of WAVECAR
   LCHARG       =      T    write CHGCAR
   LVTOT        =      F    write LOCPOT, total local potential
   LVHAR        =      F    write LOCPOT, Hartree potential only
   LELF         =      F    write electronic localiz. function (ELF)
   LORBIT       =     11    0 simple, 1 ext, 2 COOP (PROOUT), +10 PAW based schemes


 Dipole corrections
   LMONO  =      F    monopole corrections only (constant potential shift)
   LDIPOL =      F    correct potential (dipole corrections)
   IDIPOL =      0    1-x, 2-y, 3-z, 4-all directions 
   EPSILON=  1.0000000 bulk dielectric constant

 LDA+U is selected, type is set to LDAUTYPE =  2
   angular momentum for each species LDAUL =     2   -1   -1
   U (eV)           for each species LDAUU =   4.0  0.0  0.0
   J (eV)           for each species LDAUJ =   0.0  0.0  0.0
 Exchange correlation treatment:
   GGA     =    PS    GGA type
   LEXCH   =    14    internal setting for exchange type
   VOSKOWN=      0    Vosko Wilk Nusair interpolation
   LHFCALC =     F    Hartree Fock is set to
   LHFONE  =     F    Hartree Fock one center treatment
   AEXX    =    0.0000 exact exchange contribution

 Linear response parameters
   LEPSILON=     F    determine dielectric tensor
   LRPA    =     F    only Hartree local field effects (RPA)
   LNABLA  =     F    use nabla operator in PAW spheres
   LVEL    =     F    velocity operator in full k-point grid
   LINTERFAST=   F  fast interpolation
   KINTER  =     0    interpolate to denser k-point grid
   CSHIFT  =0.1000    complex shift for real part using Kramers Kronig
   OMEGAMAX=  -1.0    maximum frequency
   DEG_THRESHOLD= 0.2000000E-02 threshold for treating states as degnerate
   RTIME   =   -0.100 relaxation time in fs
  (WPLASMAI=    0.000 imaginary part of plasma frequency in eV, 0.658/RTIME)
   DFIELD  = 0.0000000 0.0000000 0.0000000 field for delta impulse in time
 
 Orbital magnetization related:
   ORBITALMAG=     F  switch on orbital magnetization
   LCHIMAG   =     F  perturbation theory with respect to B field
   DQ        =  0.001000  dq finite difference perturbation B field
   LLRAUG    =     F  two centre corrections for induced B field



--------------------------------------------------------------------------------------------------------


 Static calculation
 charge density and potential will be updated during run
 spin polarized calculation
 RMM-DIIS sequential band-by-band and
  variant of blocked Davidson during initial phase
 perform sub-space diagonalisation
    before iterative eigenvector-optimisation
 modified Broyden-mixing scheme, WC =      100.0
 initial mixing is a Kerker type mixing with AMIX =  0.4000 and BMIX =      1.0000
 Hartree-type preconditioning will be used
 using additional bands          195
 reciprocal scheme for non local part
 use partial core corrections
 calculate Harris-corrections to forces 
   (improved forces if not selfconsistent)
 use gradient corrections 
 use of overlap-Matrix (Vanderbilt PP)
 Gauss-broadening in eV      SIGMA  =   0.01


--------------------------------------------------------------------------------------------------------


  energy-cutoff  :      700.00
  volume of cell :     2833.48
      direct lattice vectors                 reciprocal lattice vectors
    14.649432430  0.000000000  0.000000000     0.068262030  0.000000000  0.000000000
     0.000000000 14.649432430  0.000000000     0.000000000  0.068262030  0.000000000
     0.000000000  0.000000000 13.203190708     0.000000000  0.000000000  0.075739268

  length of vectors
    14.649432430 14.649432430 13.203190708     0.068262030  0.068262030  0.075739268


 
 old parameters found on file WAVECAR:
  energy-cutoff  :      700.00
  volume of cell :     2833.48
      direct lattice vectors                 reciprocal lattice vectors
    14.649432430  0.000000000  0.000000000     0.068262030  0.000000000  0.000000000
     0.000000000 14.649432430  0.000000000     0.000000000  0.068262030  0.000000000
     0.000000000  0.000000000 13.203190708     0.000000000  0.000000000  0.075739268

  length of vectors

 
 k-points in units of 2pi/SCALE and weight: KPOINTS created by Atomic Simulation Env
   0.01706551  0.01706551  0.01893482       0.250
  -0.01706551  0.01706551  0.01893482       0.250
   0.01706551 -0.01706551  0.01893482       0.250
  -0.01706551 -0.01706551  0.01893482       0.250
 
 k-points in reciprocal lattice and weights: KPOINTS created by Atomic Simulation Env
   0.25000000  0.25000000  0.25000000       0.250
  -0.25000000  0.25000000  0.25000000       0.250
   0.25000000 -0.25000000  0.25000000       0.250
  -0.25000000 -0.25000000  0.25000000       0.250
 
 position of ions in fractional coordinates (direct lattice) 
   0.16165847  0.16160568  0.12502851
   0.99990858  0.99980487  0.99839247
   0.17142225  0.17133449  0.37935347
   0.99991772  0.99979567  0.25165863
   0.16629289  0.16620662  0.62502894
   0.00063705  0.00056923  0.50005368
   0.17141908  0.17133487  0.87070417
   0.00064086  0.00056361  0.74999461
   0.16698349  0.50038506  0.12502230
   0.00078573  0.33212971  0.99956787
   0.16627754  0.49935110  0.37493301
   0.00077910  0.33213801  0.25049109
   0.16741059  0.50091080  0.62502229
   0.99981185  0.33408236  0.50036194
   0.16627320  0.49935024  0.87511055
   0.99980365  0.33408901  0.74969478
   0.16643200  0.83291471  0.12501775
   0.99996120  0.66652332  0.00000910
   0.16650104  0.83289612  0.37523757
   0.99996636  0.66652140  0.25003753
   0.16709496  0.83361809  0.62501789
   0.00015199  0.66658935  0.50002644
   0.16649595  0.83289621  0.87479928
   0.00015207  0.66658751  0.75001943
   0.50045720  0.16691220  0.12502283
   0.33218687  0.00071504  0.99956000
   0.49941759  0.16619578  0.37493223
   0.33218267  0.00072080  0.25048415
   0.50099114  0.16733972  0.62502408
   0.33418015  0.99971798  0.50035936
   0.49941421  0.16619671  0.87511439
   0.33417121  0.99972386  0.74968545
   0.49908479  0.49900347  0.12502140
   0.33251865  0.33245218  0.00053190
   0.50085650  0.50077451  0.37436116
   0.33252435  0.33244627  0.24951404
   0.50113283  0.50105186  0.62502205
   0.33526466  0.33519326  0.50041313
   0.50085746  0.50077785  0.87568136
   0.33526683  0.33519093  0.74963367
   0.49930652  0.83402638  0.12502079
   0.33332045  0.66658316  0.00001397
   0.49994899  0.83329539  0.37483674
   0.33332515  0.66658023  0.25001949
   0.50055426  0.83310152  0.62502105
   0.33362172  0.66677098  0.49991633
   0.49994833  0.83329548  0.87520539
   0.33362200  0.66676974  0.75011842
   0.83298620  0.16633662  0.12502848
   0.66659093  0.99989151  0.00001050
   0.83299100  0.16642348  0.37523892
   0.66659462  0.99988818  0.25003735
   0.83369144  0.16701852  0.62502817
   0.66666186  0.00008549  0.50002412
   0.83298989  0.16642372  0.87481645
   0.66666305  0.00008269  0.75002463
   0.83409115  0.49924982  0.12502756
   0.66666039  0.33324237  0.00002315
   0.83336602  0.49987798  0.37484251
   0.66666476  0.33323756  0.25002717
   0.83318044  0.50046825  0.62502613
   0.66684746  0.33354356  0.49992100
   0.83336501  0.49987592  0.87521024
   0.66685066  0.33354009  0.75012970
   0.83358562  0.83351307  0.12502440
   0.66692290  0.66685096  0.00048200
   0.83384830  0.83377447  0.37526475
   0.66691393  0.66685929  0.24956614
   0.83365537  0.83358910  0.62502359
   0.66723236  0.66714701  0.49970544
   0.83384771  0.83377600  0.87478344
   0.66722577  0.66715539  0.75034251
   0.06495483  0.26315766  0.12503511
   0.26315879  0.06483475  0.12502059
   0.10145471  0.10121661  0.97971295
   0.23044978  0.23038647  0.00401718
   0.06804434  0.27167461  0.37649276
   0.27179551  0.06799300  0.37652504
   0.10146900  0.10120112  0.27034998
   0.23045643  0.23037969  0.24603910
   0.06510561  0.26863164  0.62503308
   0.26871834  0.06502365  0.62501916
   0.10237748  0.10230282  0.50045808
   0.23404159  0.23398240  0.50392202
   0.06804399  0.27167696  0.87355493
   0.27178802  0.06798974  0.87352803
   0.10238258  0.10229614  0.74959897
   0.23404631  0.23397610  0.74613609
   0.06506529  0.60125615  0.12502172
   0.26878199  0.39916323  0.12502667
   0.10188459  0.43397415  0.00086354
   0.23164548  0.56510525  0.99955711
   0.06493112  0.60098267  0.37493247
   0.26736683  0.39708560  0.37484965
   0.10187934  0.43398135  0.24918580
   0.23164575  0.56510727  0.25048302
   0.06545155  0.60177650  0.62502264
   0.27038715  0.40097598  0.62502580
   0.10138674  0.43573858  0.50077660
   0.23227418  0.56513037  0.49918335
   0.06492474  0.60097923  0.87511565
   0.26736235  0.39708497  0.87519052
   0.10137725  0.43574610  0.74926864
   0.23227338  0.56512971  0.75086011
   0.06221591  0.93153663  0.12501948
   0.26856855  0.73213741  0.12501946
   0.10246469  0.76699747  0.99998423
   0.23038107  0.89961112  0.99991033
   0.06308762  0.93195109  0.37605897
   0.26876639  0.73220101  0.37494539
   0.10246435  0.76700129  0.25005456
   0.23037634  0.89961705  0.25012479
   0.06582102  0.93535870  0.62502158
   0.26866899  0.73193787  0.62501868
   0.10229241  0.76745820  0.50052434
   0.23183911  0.89882993  0.49966303
   0.06308279  0.93195180  0.87399646
   0.26876218  0.73220085  0.87508508
   0.10229109  0.76745819  0.74951255
   0.23182858  0.89883719  0.75037480
   0.39923395  0.26870939  0.12502081
   0.60133184  0.06499626  0.12502598
   0.43403801  0.10181228  0.00087188
   0.56517987  0.23156908  0.99955657
   0.39715805  0.26728939  0.37485513
   0.60105095  0.06485206  0.37492685
   0.43403742  0.10181454  0.24917518
   0.56518188  0.23156661  0.25048874
   0.40104730  0.27030782  0.62502254
   0.60186262  0.06538659  0.62502692
   0.43583623  0.10129604  0.50078457
   0.56521005  0.23219582  0.49917892
   0.39715566  0.26729104  0.87519496
   0.60104698  0.06485161  0.87511713
   0.43582572  0.10130432  0.74926261
   0.56520886  0.23219653  0.75086931
   0.39780276  0.60083428  0.12501587
   0.60091344  0.39771802  0.12502764
   0.43444531  0.43437223  0.99932457
   0.56523780  0.56514683  0.00111123
   0.39896444  0.60187730  0.37480123
   0.60195795  0.39888098  0.37480189
   0.43444844  0.43436842  0.25071571
   0.56522915  0.56515429  0.24893441
   0.39879948  0.60170774  0.62501782
   0.60178771  0.39871767  0.62502763
   0.43616768  0.43608789  0.49958776
   0.56582015  0.56573383  0.49972229
   0.39896625  0.60188154  0.87523621
   0.60196173  0.39888649  0.87524202
   0.43616970  0.43608673  0.75045695
   0.56581121  0.56574457  0.75031973
   0.39678890  0.93586106  0.12502487
   0.60156935  0.73250566  0.12501886
   0.43470706  0.76831522  0.00035391
   0.56458401  0.89883493  0.00021449
   0.39807496  0.93455123  0.37444049
   0.60160976  0.73185383  0.37464662
   0.43471449  0.76830895  0.24968669
   0.56459054  0.89882847  0.24982920
   0.39868594  0.93411400  0.62502693
   0.60209082  0.73193696  0.62501978
   0.43527463  0.76809156  0.49998735
   0.56503786  0.89855987  0.49981646
   0.39807695  0.93455513  0.87559466
   0.60161113  0.73185497  0.87540857
   0.43527593  0.76808995  0.75005392
   0.56504496  0.89855136  0.75022670
   0.73221539  0.26848120  0.12502349
   0.93157061  0.06207744  0.12503206
   0.76707382  0.10238992  0.99998305
   0.89971310  0.23028877  0.99994412
   0.73229457  0.26869128  0.37495482
   0.93207406  0.06303165  0.37602238
   0.76707359  0.10239052  0.25007173
   0.89970268  0.23030039  0.25011215
   0.73201891  0.26859522  0.62502423
   0.93543548  0.06575158  0.62502796
   0.76754487  0.10221616  0.50052189
   0.89892057  0.23174814  0.49967199
   0.73229414  0.26869172  0.87510063
   0.93207275  0.06303256  0.87401930
   0.76754303  0.10221666  0.74953334
   0.89891204  0.23175576  0.75038366
   0.73257715  0.60151253  0.12503058
   0.93592991  0.39673447  0.12502513
   0.76838564  0.43463875  0.00036399
   0.89889870  0.56452027  0.00021452
   0.73192908  0.60154268  0.37463218
   0.93462711  0.39800120  0.37446751
   0.76839045  0.43463404  0.24969120
   0.89890903  0.56451239  0.24983830
   0.73201454  0.60200969  0.62502910
   0.93419727  0.39859846  0.62502398
   0.76815758  0.43520683  0.49999093
   0.89862476  0.56496796  0.49982343
   0.73192529  0.60153797  0.87540615
   0.93462714  0.39800046  0.87559737
   0.76816749  0.43519665  0.75006041
   0.89862643  0.56496469  0.75022937
   0.73171065  0.93489968  0.12502290
   0.93496658  0.73163141  0.12502588
   0.76843982  0.76836285  0.99986307
   0.89836489  0.89828276  0.99977351
   0.73178905  0.93502863  0.37506288
   0.93509719  0.73171047  0.37506226
   0.76842697  0.76837565  0.25018473
   0.89837506  0.89827247  0.25027552
   0.73153595  0.93472943  0.62502344
   0.93480072  0.73147209  0.62502425
   0.76854482  0.76846551  0.49989906
   0.89874653  0.89869589  0.50060043
   0.73178540  0.93502687  0.87498778
   0.93510046  0.73171589  0.87498039
   0.76853970  0.76847170  0.75014926
   0.89874728  0.89869396  0.74944735
   0.08235998  0.08281629  0.12503330
 
 position of ions in cartesian coordinates  (Angst):
   2.36820483  2.36743156  1.65077526
  14.64809312 14.64657390 13.18196616
   2.51123866  2.50995307  5.00867620
  14.64822706 14.64643917  3.32269690
   2.43609652  2.43483268  8.25237634
   0.00933235  0.00833892  6.60230404
   2.51119220  2.50995865 11.49607317
   0.00938825  0.00825656  9.90232192
   2.44621330  7.33035715  1.65069323
   0.01151055  4.86551174 13.19748526
   2.43587158  7.31521023  4.95031199
   0.01141341  4.86563333  3.30728165
   2.45247006  7.33805898  8.25228849
  14.64667611  4.89411698  6.60637416
   2.43580808  7.31519753 11.55425152
  14.64655603  4.89421440  9.89836312
   2.43813431 12.20172771  1.65063318
  14.64886397  9.76418839  0.00012012
   2.43914577 12.20145543  4.95433321
  14.64893968  9.76416019  3.30129325
   2.44784633 12.21203184  8.25223036
   0.00222657  9.76515564  6.60194439
   2.43907123 12.20145677 11.55014179
   0.00222776  9.76512876  9.90264958
   7.33141390  2.44516903  1.65070029
   4.86634914  0.01047490 13.19738131
   7.31618418  2.43467390  4.95030173
   4.86628761  0.01055928  3.30719000
   7.33923582  2.45143197  8.25231213
   4.89554956 14.64530097  6.60634011
   7.31613471  2.43468753 11.55430213
   4.89541855 14.64538710  9.89824003
   7.31130891  7.31011763  1.65068136
   4.87120947  4.87023579  0.00702276
   7.33726340  7.33606230  4.94276184
   4.87129303  4.87014910  3.29438149
   7.34131151  7.34012531  8.25228531
   4.91143694  4.91039098  6.60705004
   7.33727745  7.33611134 11.56178804
   4.91146875  4.91035685  9.89755628
   7.31455707 12.21801314  1.65067327
   4.88295536  9.76506490  0.00018447
   7.32396892 12.20730446  4.94904098
   4.88302431  9.76502201  3.30105496
   7.33283581 12.20446436  8.25227217
   4.88736889  9.76781641  6.60049071
   7.32395931 12.20730590 11.55550369
   4.88737298  9.76779823  9.90395661
  12.20277502  2.43673708  1.65077480
   9.76517886 14.64784313  0.00013869
  12.20284537  2.43800947  4.95435107
   9.76523283 14.64779436  3.30129081
  12.21310645  2.44672649  8.25236612
   9.76621789  0.00125239  6.60191382
  12.20282905  2.43801307 11.55036838
   9.76623533  0.00121130  9.90271823
  12.21896195  7.31372646  1.65076275
   9.76619627  4.88181157  0.00030563
  12.20833919  7.32292862  4.94911718
   9.76626035  4.88174115  3.30115647
  12.20562050  7.33157582  8.25233918
   9.76893678  4.88622390  6.60055236
  12.20832442  7.32289846 11.55556774
   9.76898374  4.88617308  9.90410544
  12.21155620 12.21049337  1.65072098
   9.77004203  9.76898806  0.00636394
  12.21540429 12.21432269  4.95469201
   9.76991056  9.76911007  3.29506939
  12.21257795 12.21160717  8.25230564
   9.77457537  9.77332506  6.59770622
  12.21539567 12.21434515 11.54993263
   9.77447887  9.77344774  9.90691522
   0.95155144  3.85511031  1.65086243
   3.85512693  0.94979230  1.65067064
   1.48625385  1.48276594 12.93533693
   3.37595855  3.37503101  0.05303955
   0.99681103  3.97987882  4.97090574
   3.98164999  0.99605892  4.97133190
   1.48646330  1.48253890  3.56948235
   3.37605593  3.37493167  3.24850121
   0.95376021  3.93530103  8.25243098
   3.93657113  0.95255957  8.25224713
   1.49977194  1.49867823  6.60764347
   3.42857640  3.42770940  6.65337853
   0.99680583  3.97991331 11.53371237
   3.98154021  0.99601104 11.53335719
   1.49984670  1.49858045  9.89709810
   3.42864562  3.42761704  9.85137712
   0.95316956  8.80806135  1.65068562
   3.93750367  5.84751476  1.65075097
   1.49255146  6.35747492  0.01140153
   3.39347479  8.27847117 13.19734312
   0.95120401  8.80405501  4.95030486
   3.91677226  5.81707872  4.94921139
   1.49247455  6.35758040  3.29004762
   3.39347873  8.27850081  3.30717502
   0.95882809  8.81568415  8.25229308
   3.96101824  5.87407058  8.25233488
   1.48525814  6.38332284  6.61184891
   3.40268491  8.27883911  6.59081293
   0.95111060  8.80400464 11.55431884
   3.91670667  5.81706945 11.55530731
   1.48511915  6.38343303  9.89273675
   3.40267318  8.27882944  9.91374929
   0.91142782 13.64648294  1.65065600
   3.93437677 10.72539756  1.65065574
   1.50104960 11.23607760 13.20298249
   3.37495195 13.17879226 13.20200673
   0.92419782 13.65255449  4.96517830
   3.93727500 10.72632927  4.95047555
   1.50104455 11.23613361  3.30151806
   3.37488268 13.17887921  3.30244529
   0.96424054 13.70247403  8.25227914
   3.93584817 10.72247437  8.25224088
   1.49852579 11.24282704  6.60851831
   3.39631140 13.16734838  6.59714633
   0.92412700 13.65256498 11.53954195
   3.93721344 10.72632693 11.55391518
   1.49850641 11.24282684  9.89595709
   3.39615705 13.16745462  9.90734154
   5.84855071  3.93644001  1.65067366
   8.80917018  0.95215835  1.65074187
   6.35841046  1.49149214  0.01151162
   8.27956436  3.39235563 13.19733602
   5.81814005  3.91563780  4.94928370
   8.80505525  0.95004581  4.95023068
   6.35840188  1.49152528  3.28990748
   8.27959377  3.39231941  3.30725059
   5.87511537  3.95985612  8.25229183
   8.81694582  0.95787647  8.25234963
   6.38475346  1.48392954  6.61195413
   8.28000637  3.40153698  6.59075450
   5.81810498  3.91566208 11.55536603
   8.80499711  0.95003925 11.55433838
   6.38459938  1.48405084  9.89265709
   8.27998894  3.40154745  9.91387075
   5.82758466  8.80188117  1.65060840
   8.80304088  5.82634330  1.65076371
   6.36437722  6.36330658 13.19427286
   8.28041294  8.27908027  0.01467172
   5.84460265  8.81716084  4.94857211
   8.81834225  5.84338001  4.94858081
   6.36442307  6.36325076  3.31024735
   8.28028619  8.27918956  3.28672851
   5.84218609  8.81467686  8.25222943
   8.81584845  5.84098750  8.25235904
   6.38960900  6.38844006  6.59615251
   8.28894400  8.28767951  6.59792875
   5.84462906  8.81722302 11.55591066
   8.81839766  5.84346071 11.55598727
   6.38963850  6.38842315  9.90842619
   8.28881305  8.28783680  9.90661445
   5.81273220 13.70983339  1.65072722
   8.81264951 10.73079223  1.65064783
   6.36821166 11.25538184  0.00467268
   8.27083531 13.16742154  0.00283189
   5.83157216 13.69064504  4.94380916
   8.81324154 10.72124316  4.94653081
   6.36832049 11.25529011  3.29666102
   8.27093092 13.16732696  3.29854262
   5.84052279 13.68423995  8.25234981
   8.82028877 10.72246106  8.25225534
   6.37652626 11.25210546  6.60142831
   8.27748400 13.16339208  6.59917204
   5.83160134 13.69070226 11.56064333
   8.81326156 10.72125995 11.55818629
   6.37654540 11.25208180  9.90310495
   8.27758789 13.16326740  9.90538624
  10.72653995  3.93309724  1.65070892
  13.64698071  0.90939933  1.65082215
  11.23719608  1.49995419 13.20296691
  13.18028627  3.37359981 13.20245285
  10.72769984  3.93617471  4.95060004
  13.65435592  0.92337797  4.96469519
  11.23719274  1.49996294  3.30174480
  13.18013361  3.37377003  3.30227845
  10.72366151  3.93476748  8.25231417
  13.70359880  0.96322332  8.25236339
  11.24409673  1.49740872  6.60848592
  13.16867609  3.39497874  6.59726460
  10.72769357  3.93618124 11.55412056
  13.65433674  0.92339117 11.53984354
  11.24406981  1.49741612  9.89623167
  13.16855120  3.39509041  9.90745857
  10.73183941  8.81181721  1.65080264
  13.71084199  5.81193482  1.65073062
  11.25641349  6.36721104  0.00480589
  13.16835573  8.26990153  0.00283232
  10.72234563  8.81225890  4.94634006
  13.69175675  5.83049171  4.94416596
  11.25648396  6.36714204  3.29672058
  13.16850706  8.26978617  3.29866271
  10.72359754  8.81910025  8.25237842
  13.68545971  5.83924124  8.25231079
  11.25307253  6.37553307  6.60147560
  13.16434268  8.27646000  6.59926408
  10.72229011  8.81218983 11.55815434
  13.69175708  5.83048078 11.56067904
  11.25321777  6.37538394  9.90319069
  13.16436713  8.27641202  9.90542150
  10.71914567 13.69574966  1.65070125
  13.69672973 10.71798487  1.65074055
  11.25720718 11.25607966 13.20138274
  13.16053576 13.15933263 13.20020030
  10.72029421 13.69763867  4.95202671
  13.69864304 10.71914316  4.95201850
  11.25701899 11.25626711  3.30323672
  13.16068479 13.15918180  3.30443545
  10.71658650 13.69325563  8.25230365
  13.69429998 10.71565094  8.25231431
  11.25874534 11.25758358  6.60026264
  13.16612654 13.16538472  6.60952293
  10.72024083 13.69761297 11.55263057
  13.69869094 10.71922252 11.55253293
  11.25867033 11.25767423  9.90436368
  13.16613759 13.16535648  9.89509626
   1.20652698  1.21321165  1.65083846
 


--------------------------------------------------------------------------------------------------------


 k-point  1 :   0.2500 0.2500 0.2500  plane waves:  119170
 k-point  2 :  -0.2500 0.2500 0.2500  plane waves:  119170
 k-point  3 :   0.2500-0.2500 0.2500  plane waves:  119170
 k-point  4 :  -0.2500-0.2500 0.2500  plane waves:  119170

 maximum and minimum number of plane-waves per node :      9968     9893

 maximum number of plane-waves:    119170
 maximum index in each direction: 
   IXMAX=   31   IYMAX=   31   IZMAX=   28
   IXMIN=  -31   IYMIN=  -31   IZMIN=  -28


 parallel 3D FFT for wavefunctions:
    minimum data exchange during FFTs selected (reduces bandwidth)
 parallel 3D FFT for charge:
    minimum data exchange during FFTs selected (reduces bandwidth)


 total amount of memory used by VASP MPI-rank0   501409. kBytes
=======================================================================

   base      :      30000. kBytes
   nonl-proj :      51625. kBytes
   fftplans  :      22373. kBytes
   grid      :      17829. kBytes
   one-center:        590. kBytes
   wavefun   :     378992. kBytes
 
     INWAV:  cpu time   74.6475: real time   74.7059
 Broyden mixing: mesh for mixing (old mesh)
   NGX = 63   NGY = 63   NGZ = 57
  (NGX  =192   NGY  =192   NGZ  =180)
  gives a total of 226233 points

 initial charge density was supplied:
 number of electron    1945.0000038 magnetization      -0.9999998
 keeping initial charge density in first step


--------------------------------------------------------------------------------------------------------


 Maximum index for augmentation-charges         2066 (set IRDMAX)


--------------------------------------------------------------------------------------------------------


 First call to EWALD:  gamma=   0.125
 Maximum number of real-space cells 3x 3x 3
 Maximum number of reciprocal cells 3x 3x 3

    FEWALD:  cpu time    0.1254: real time    0.1254


--------------------------------------- Iteration      1(   1)  ---------------------------------------


    POTLOK:  cpu time    0.2212: real time    0.2670
    SETDIJ:  cpu time    4.8432: real time    4.8434
atom =   1  type =  1  l = 2
 
 onsite density matrix
 
spin component  1
 
  0.8580  0.0000  0.0712  0.0000 -0.0006
  0.0000  0.9605 -0.0000  0.0118  0.0000
  0.0712 -0.0000  0.9359 -0.0000  0.0003
  0.0000  0.0118 -0.0000  0.9605  0.0000
 -0.0006  0.0000  0.0003  0.0000  0.9471
 
spin component  2
 
  0.1442 -0.0000 -0.0331 -0.0000  0.0006
 -0.0000  0.0332  0.0000  0.0164  0.0000
 -0.0331  0.0000  0.0736  0.0000 -0.0004
 -0.0000  0.0164  0.0000  0.0332  0.0000
  0.0006  0.0000 -0.0004  0.0000  0.0164
 
 occupancies and eigenvectors
 
  o =  0.0164  v =  0.0000  0.0000  0.0000  0.0000  0.0000 -0.0034  0.0004  0.0048 -0.0005  1.0000      0.0000  0.0000  0.0000  0.0000  0.0000  0.0000  0.0000  0.0000  0.0000  0.0000
  o =  0.0168  v =  0.0000  0.0000  0.0000  0.0000  0.0000  0.0000  0.7068  0.0001 -0.7074 -0.0006      0.0000  0.0000  0.0000  0.0000  0.0000  0.0000  0.0000  0.0000  0.0000  0.0000
  o =  0.0496  v =  0.0000  0.0000  0.0000  0.0000  0.0000  0.0000 -0.7074  0.0003 -0.7068 -0.0001      0.0000  0.0000  0.0000  0.0000  0.0000  0.0000  0.0000  0.0000  0.0000  0.0000
  o =  0.0605  v =  0.0000  0.0000  0.0000  0.0000  0.0000  0.3680  0.0001  0.9298  0.0003 -0.0032      0.0000  0.0000  0.0000  0.0000  0.0000  0.0000  0.0000  0.0000  0.0000  0.0000
  o =  0.1573  v =  0.0000  0.0000  0.0000  0.0000  0.0000 -0.9298  0.0001  0.3680  0.0000 -0.0049      0.0000  0.0000  0.0000  0.0000  0.0000  0.0000  0.0000  0.0000  0.0000  0.0000
  o =  0.8157  v =  0.8602 -0.0000 -0.5099 -0.0001  0.0050  0.0000  0.0000  0.0000  0.0000  0.0000      0.0000  0.0000  0.0000  0.0000  0.0000  0.0000  0.0000  0.0000  0.0000  0.0000
  o =  0.9471  v =  0.0034 -0.0001 -0.0042  0.0002 -1.0000  0.0000  0.0000  0.0000  0.0000  0.0000      0.0000  0.0000  0.0000  0.0000  0.0000  0.0000  0.0000  0.0000  0.0000  0.0000
  o =  0.9487  v = -0.0000 -0.7064 -0.0001  0.7078  0.0002  0.0000  0.0000  0.0000  0.0000  0.0000      0.0000  0.0000  0.0000  0.0000  0.0000  0.0000  0.0000  0.0000  0.0000  0.0000
  o =  0.9723  v = -0.0001  0.7078 -0.0004  0.7064  0.0001  0.0000  0.0000  0.0000  0.0000  0.0000      0.0000  0.0000  0.0000  0.0000  0.0000  0.0000  0.0000  0.0000  0.0000  0.0000
  o =  0.9782  v = -0.5099 -0.0002 -0.8602 -0.0004  0.0019  0.0000  0.0000  0.0000  0.0000  0.0000      0.0000  0.0000  0.0000  0.0000  0.0000  0.0000  0.0000  0.0000  0.0000  0.0000
atom =   2  type =  1  l = 2
 
 onsite density matrix
 
spin component  1
 
  0.0453 -0.0018 -0.0248 -0.0019  0.0000
 -0.0018  0.0373  0.0012 -0.0205  0.0001
 -0.0248  0.0012  0.0312  0.0012 -0.0000
 -0.0019 -0.0205  0.0012  0.0373 -0.0001
  0.0000  0.0001 -0.0000 -0.0001  0.0136
 
spin component  2
 
  0.9691 -0.0016 -0.0186 -0.0017  0.0000
 -0.0016  0.9641  0.0010 -0.0163  0.0004
 -0.0186  0.0010  0.9578  0.0010 -0.0000
 -0.0017 -0.0163  0.0010  0.9641 -0.0004
  0.0000  0.0004 -0.0000 -0.0004  0.9473
 
 occupancies and eigenvectors
 
  o =  0.0125  v = -0.6044 -0.0447 -0.7942 -0.0448 -0.0012  0.0000  0.0000  0.0000  0.0000  0.0000      0.0000  0.0000  0.0000  0.0000  0.0000  0.0000  0.0000  0.0000  0.0000  0.0000
  o =  0.0136  v = -0.0011 -0.0029 -0.0008  0.0030  1.0000  0.0000  0.0000  0.0000  0.0000  0.0000      0.0000  0.0000  0.0000  0.0000  0.0000  0.0000  0.0000  0.0000  0.0000  0.0000
  o =  0.0166  v =  0.0135  0.7042 -0.0896  0.7042 -0.0002  0.0000  0.0000  0.0000  0.0000  0.0000      0.0000  0.0000  0.0000  0.0000  0.0000  0.0000  0.0000  0.0000  0.0000  0.0000
  o =  0.0579  v =  0.0017 -0.7072 -0.0014  0.7070 -0.0041  0.0000  0.0000  0.0000  0.0000  0.0000      0.0000  0.0000  0.0000  0.0000  0.0000  0.0000  0.0000  0.0000  0.0000  0.0000
  o =  0.0642  v = -0.7966  0.0443  0.6010  0.0474 -0.0004  0.0000  0.0000  0.0000  0.0000  0.0000      0.0000  0.0000  0.0000  0.0000  0.0000  0.0000  0.0000  0.0000  0.0000  0.0000
  o =  0.9439  v =  0.0000  0.0000  0.0000  0.0000  0.0000 -0.5981 -0.0472 -0.7986 -0.0475 -0.0015      0.0000  0.0000  0.0000  0.0000  0.0000  0.0000  0.0000  0.0000  0.0000  0.0000
  o =  0.9473  v =  0.0000  0.0000  0.0000  0.0000  0.0000 -0.0014 -0.0186 -0.0001  0.0063  0.9998      0.0000  0.0000  0.0000  0.0000  0.0000  0.0000  0.0000  0.0000  0.0000  0.0000
  o =  0.9476  v =  0.0000  0.0000  0.0000  0.0000  0.0000  0.0218  0.7033 -0.0997  0.7035  0.0087      0.0000  0.0000  0.0000  0.0000  0.0000  0.0000  0.0000  0.0000  0.0000  0.0000
  o =  0.9805  v =  0.0000  0.0000  0.0000  0.0000  0.0000  0.0024 -0.7071 -0.0019  0.7069 -0.0176      0.0000  0.0000  0.0000  0.0000  0.0000  0.0000  0.0000  0.0000  0.0000  0.0000
  o =  0.9831  v =  0.0000  0.0000  0.0000  0.0000  0.0000 -0.8011  0.0523  0.5935  0.0567 -0.0005      0.0000  0.0000  0.0000  0.0000  0.0000  0.0000  0.0000  0.0000  0.0000  0.0000
atom =   3  type =  1  l = 2
 
 onsite density matrix
 
spin component  1
 
  0.9693 -0.0000  0.0185 -0.0000 -0.0000
 -0.0000  0.9621 -0.0003  0.0148 -0.0006
  0.0185 -0.0003  0.9587 -0.0003 -0.0000
 -0.0000  0.0148 -0.0003  0.9621  0.0006
 -0.0000 -0.0006 -0.0000  0.0006  0.9479
 
spin component  2
 
  0.0488  0.0049  0.0240  0.0049 -0.0000
  0.0049  0.0411  0.0004  0.0247 -0.0010
  0.0240  0.0004  0.0330  0.0003 -0.0000
  0.0049  0.0247  0.0003  0.0411  0.0009
 -0.0000 -0.0010 -0.0000  0.0009  0.0145
 
 occupancies and eigenvectors
 
  o =  0.0138  v =  0.0000  0.0000  0.0000  0.0000  0.0000  0.0018  0.3191 -0.0021 -0.3190  0.8924      0.0000  0.0000  0.0000  0.0000  0.0000  0.0000  0.0000  0.0000  0.0000  0.0000
  o =  0.0154  v =  0.0000  0.0000  0.0000  0.0000  0.0000 -0.5913  0.0541  0.8031  0.0496  0.0014      0.0000  0.0000  0.0000  0.0000  0.0000  0.0000  0.0000  0.0000  0.0000  0.0000
  o =  0.0171  v =  0.0000  0.0000  0.0000  0.0000  0.0000 -0.0009 -0.6304  0.0020  0.6316  0.4512      0.0000  0.0000  0.0000  0.0000  0.0000  0.0000  0.0000  0.0000  0.0000  0.0000
  o =  0.0602  v =  0.0000  0.0000  0.0000  0.0000  0.0000  0.5352 -0.5016  0.4589 -0.5014  0.0001      0.0000  0.0000  0.0000  0.0000  0.0000  0.0000  0.0000  0.0000  0.0000  0.0000
  o =  0.0720  v =  0.0000  0.0000  0.0000  0.0000  0.0000 -0.6033 -0.4962 -0.3800 -0.4954  0.0007      0.0000  0.0000  0.0000  0.0000  0.0000  0.0000  0.0000  0.0000  0.0000  0.0000
  o =  0.9448  v =  0.6017 -0.0061 -0.7987 -0.0082 -0.0004  0.0000  0.0000  0.0000  0.0000  0.0000      0.0000  0.0000  0.0000  0.0000  0.0000  0.0000  0.0000  0.0000  0.0000  0.0000
  o =  0.9467  v = -0.0006  0.5719  0.0008 -0.5719  0.5881  0.0000  0.0000  0.0000  0.0000  0.0000      0.0000  0.0000  0.0000  0.0000  0.0000  0.0000  0.0000  0.0000  0.0000  0.0000
  o =  0.9484  v = -0.0009  0.4159  0.0008 -0.4158 -0.8088  0.0000  0.0000  0.0000  0.0000  0.0000      0.0000  0.0000  0.0000  0.0000  0.0000  0.0000  0.0000  0.0000  0.0000  0.0000
  o =  0.9769  v =  0.0441  0.7062  0.0206  0.7063  0.0001  0.0000  0.0000  0.0000  0.0000  0.0000      0.0000  0.0000  0.0000  0.0000  0.0000  0.0000  0.0000  0.0000  0.0000  0.0000
  o =  0.9833  v = -0.7975  0.0335 -0.6014  0.0337  0.0002  0.0000  0.0000  0.0000  0.0000  0.0000      0.0000  0.0000  0.0000  0.0000  0.0000  0.0000  0.0000  0.0000  0.0000  0.0000
atom =   4  type =  1  l = 2
 
 onsite density matrix
 
spin component  1
 
  0.0453  0.0018 -0.0248  0.0019  0.0000
  0.0018  0.0373 -0.0012 -0.0205 -0.0001
 -0.0248 -0.0012  0.0312 -0.0012 -0.0000
  0.0019 -0.0205 -0.0012  0.0373  0.0001
  0.0000 -0.0001 -0.0000  0.0001  0.0136
 
spin component  2
 
  0.9691  0.0016 -0.0186  0.0017  0.0000
  0.0016  0.9641 -0.0010 -0.0163 -0.0004
 -0.0186 -0.0010  0.9578 -0.0010 -0.0000
  0.0017 -0.0163 -0.0010  0.9641  0.0004
  0.0000 -0.0004 -0.0000  0.0004  0.9473
 
 occupancies and eigenvectors
 
  o =  0.0125  v = -0.6044  0.0448 -0.7942  0.0448 -0.0016  0.0000  0.0000  0.0000  0.0000  0.0000      0.0000  0.0000  0.0000  0.0000  0.0000  0.0000  0.0000  0.0000  0.0000  0.0000
  o =  0.0136  v = -0.0013  0.0027 -0.0010 -0.0032  1.0000  0.0000  0.0000  0.0000  0.0000  0.0000      0.0000  0.0000  0.0000  0.0000  0.0000  0.0000  0.0000  0.0000  0.0000  0.0000
  o =  0.0166  v =  0.0135 -0.7042 -0.0897 -0.7042 -0.0004  0.0000  0.0000  0.0000  0.0000  0.0000      0.0000  0.0000  0.0000  0.0000  0.0000  0.0000  0.0000  0.0000  0.0000  0.0000
  o =  0.0579  v =  0.0014  0.7072 -0.0011 -0.7070 -0.0041  0.0000  0.0000  0.0000  0.0000  0.0000      0.0000  0.0000  0.0000  0.0000  0.0000  0.0000  0.0000  0.0000  0.0000  0.0000
  o =  0.0642  v = -0.7966 -0.0446  0.6010 -0.0472 -0.0004  0.0000  0.0000  0.0000  0.0000  0.0000      0.0000  0.0000  0.0000  0.0000  0.0000  0.0000  0.0000  0.0000  0.0000  0.0000
  o =  0.9439  v =  0.0000  0.0000  0.0000  0.0000  0.0000 -0.5981  0.0473 -0.7986  0.0474 -0.0016      0.0000  0.0000  0.0000  0.0000  0.0000  0.0000  0.0000  0.0000  0.0000  0.0000
  o =  0.9473  v =  0.0000  0.0000  0.0000  0.0000  0.0000 -0.0015  0.0173 -0.0004 -0.0076  0.9998      0.0000  0.0000  0.0000  0.0000  0.0000  0.0000  0.0000  0.0000  0.0000  0.0000
  o =  0.9476  v =  0.0000  0.0000  0.0000  0.0000  0.0000  0.0218 -0.7033 -0.0998 -0.7034  0.0068      0.0000  0.0000  0.0000  0.0000  0.0000  0.0000  0.0000  0.0000  0.0000  0.0000
  o =  0.9805  v =  0.0000  0.0000  0.0000  0.0000  0.0000  0.0019  0.7071 -0.0015 -0.7069 -0.0176      0.0000  0.0000  0.0000  0.0000  0.0000  0.0000  0.0000  0.0000  0.0000  0.0000
  o =  0.9831  v =  0.0000  0.0000  0.0000  0.0000  0.0000 -0.8011 -0.0528  0.5935 -0.0563 -0.0005      0.0000  0.0000  0.0000  0.0000  0.0000  0.0000  0.0000  0.0000  0.0000  0.0000
atom =   5  type =  1  l = 2
 
 onsite density matrix
 
spin component  1
 
  0.9710 -0.0000  0.0185  0.0000 -0.0000
 -0.0000  0.9650 -0.0000  0.0179  0.0000
  0.0185 -0.0000  0.9581  0.0000 -0.0000
  0.0000  0.0179  0.0000  0.9650  0.0000
 -0.0000  0.0000 -0.0000  0.0000  0.9477
 
spin component  2
 
  0.0465 -0.0000  0.0248  0.0000 -0.0000
 -0.0000  0.0391 -0.0000  0.0230  0.0000
  0.0248 -0.0000  0.0321  0.0000 -0.0000
  0.0000  0.0230  0.0000  0.0391  0.0000
 -0.0000  0.0000 -0.0000  0.0000  0.0140
 
 occupancies and eigenvectors
 
  o =  0.0135  v =  0.0000  0.0000  0.0000  0.0000  0.0000 -0.6006 -0.0000  0.7996  0.0000 -0.0004      0.0000  0.0000  0.0000  0.0000  0.0000  0.0000  0.0000  0.0000  0.0000  0.0000
  o =  0.0140  v =  0.0000  0.0000  0.0000  0.0000  0.0000  0.0002  0.0000 -0.0003  0.0000 -1.0000      0.0000  0.0000  0.0000  0.0000  0.0000  0.0000  0.0000  0.0000  0.0000  0.0000
  o =  0.0161  v =  0.0000  0.0000  0.0000  0.0000  0.0000 -0.0000 -0.7071 -0.0001  0.7071  0.0000      0.0000  0.0000  0.0000  0.0000  0.0000  0.0000  0.0000  0.0000  0.0000  0.0000
  o =  0.0621  v =  0.0000  0.0000  0.0000  0.0000  0.0000  0.0001 -0.7071  0.0001 -0.7071 -0.0000      0.0000  0.0000  0.0000  0.0000  0.0000  0.0000  0.0000  0.0000  0.0000  0.0000
  o =  0.0652  v =  0.0000  0.0000  0.0000  0.0000  0.0000 -0.7996 -0.0001 -0.6006 -0.0002  0.0000      0.0000  0.0000  0.0000  0.0000  0.0000  0.0000  0.0000  0.0000  0.0000  0.0000
  o =  0.9449  v =  0.5796  0.0000 -0.8149 -0.0000  0.0001  0.0000  0.0000  0.0000  0.0000  0.0000      0.0000  0.0000  0.0000  0.0000  0.0000  0.0000  0.0000  0.0000  0.0000  0.0000
  o =  0.9471  v = -0.0000 -0.7071 -0.0001  0.7072 -0.0001  0.0000  0.0000  0.0000  0.0000  0.0000      0.0000  0.0000  0.0000  0.0000  0.0000  0.0000  0.0000  0.0000  0.0000  0.0000
  o =  0.9477  v = -0.0000 -0.0001  0.0001  0.0001  1.0000  0.0000  0.0000  0.0000  0.0000  0.0000      0.0000  0.0000  0.0000  0.0000  0.0000  0.0000  0.0000  0.0000  0.0000  0.0000
  o =  0.9829  v =  0.0002 -0.7072  0.0001 -0.7071 -0.0000  0.0000  0.0000  0.0000  0.0000  0.0000      0.0000  0.0000  0.0000  0.0000  0.0000  0.0000  0.0000  0.0000  0.0000  0.0000
  o =  0.9842  v = -0.8149 -0.0001 -0.5796 -0.0002  0.0000  0.0000  0.0000  0.0000  0.0000  0.0000      0.0000  0.0000  0.0000  0.0000  0.0000  0.0000  0.0000  0.0000  0.0000  0.0000
atom =   6  type =  1  l = 2
 
 onsite density matrix
 
spin component  1
 
  0.0455 -0.0003 -0.0249 -0.0002  0.0000
 -0.0003  0.0379  0.0003 -0.0220 -0.0007
 -0.0249  0.0003  0.0317  0.0003 -0.0000
 -0.0002 -0.0220  0.0003  0.0378  0.0007
  0.0000 -0.0007 -0.0000  0.0007  0.0137
 
spin component  2
 
  0.9700 -0.0003 -0.0188 -0.0003  0.0000
 -0.0003  0.9646  0.0002 -0.0173 -0.0005
 -0.0188  0.0002  0.9582  0.0002 -0.0000
 -0.0003 -0.0173  0.0002  0.9646  0.0005
  0.0000 -0.0005 -0.0000  0.0005  0.9477
 
 occupancies and eigenvectors
 
  o =  0.0127  v =  0.6038 -0.0396  0.7951 -0.0397 -0.0003  0.0000  0.0000  0.0000  0.0000  0.0000      0.0000  0.0000  0.0000  0.0000  0.0000  0.0000  0.0000  0.0000  0.0000  0.0000
  o =  0.0137  v =  0.0001  0.0146  0.0003 -0.0142  0.9998  0.0000  0.0000  0.0000  0.0000  0.0000      0.0000  0.0000  0.0000  0.0000  0.0000  0.0000  0.0000  0.0000  0.0000  0.0000
  o =  0.0159  v =  0.0433  0.7058  0.0375  0.7060 -0.0004  0.0000  0.0000  0.0000  0.0000  0.0000      0.0000  0.0000  0.0000  0.0000  0.0000  0.0000  0.0000  0.0000  0.0000  0.0000
  o =  0.0599  v =  0.0003  0.7071 -0.0003 -0.7069 -0.0204  0.0000  0.0000  0.0000  0.0000  0.0000      0.0000  0.0000  0.0000  0.0000  0.0000  0.0000  0.0000  0.0000  0.0000  0.0000
  o =  0.0645  v = -0.7959  0.0086  0.6053  0.0080 -0.0001  0.0000  0.0000  0.0000  0.0000  0.0000      0.0000  0.0000  0.0000  0.0000  0.0000  0.0000  0.0000  0.0000  0.0000  0.0000
  o =  0.9444  v =  0.0000  0.0000  0.0000  0.0000  0.0000  0.5921  0.0113  0.8057  0.0112 -0.0002      0.0000  0.0000  0.0000  0.0000  0.0000  0.0000  0.0000  0.0000  0.0000  0.0000
  o =  0.9473  v =  0.0000  0.0000  0.0000  0.0000  0.0000 -0.0011 -0.7069  0.0205 -0.7070 -0.0010      0.0000  0.0000  0.0000  0.0000  0.0000  0.0000  0.0000  0.0000  0.0000  0.0000
  o =  0.9476  v =  0.0000  0.0000  0.0000  0.0000  0.0000  0.0000  0.0137  0.0002 -0.0152  0.9998      0.0000  0.0000  0.0000  0.0000  0.0000  0.0000  0.0000  0.0000  0.0000  0.0000
  o =  0.9819  v =  0.0000  0.0000  0.0000  0.0000  0.0000  0.0003  0.7071 -0.0004 -0.7069 -0.0204      0.0000  0.0000  0.0000  0.0000  0.0000  0.0000  0.0000  0.0000  0.0000  0.0000
  o =  0.9838  v =  0.0000  0.0000  0.0000  0.0000  0.0000 -0.8058  0.0095  0.5920  0.0089 -0.0001      0.0000  0.0000  0.0000  0.0000  0.0000  0.0000  0.0000  0.0000  0.0000  0.0000
atom =   7  type =  1  l = 2
 
 onsite density matrix
 
spin component  1
 
  0.9693  0.0000  0.0185  0.0000 -0.0000
  0.0000  0.9621  0.0003  0.0148  0.0006
  0.0185  0.0003  0.9587  0.0003 -0.0000
  0.0000  0.0148  0.0003  0.9621 -0.0006
 -0.0000  0.0006 -0.0000 -0.0006  0.9479
 
spin component  2
 
  0.0488 -0.0049  0.0240 -0.0049 -0.0000
 -0.0049  0.0411 -0.0004  0.0247  0.0009
  0.0240 -0.0004  0.0330 -0.0003 -0.0000
 -0.0049  0.0247 -0.0003  0.0411 -0.0009
 -0.0000  0.0009 -0.0000 -0.0009  0.0145
 
 occupancies and eigenvectors
 
  o =  0.0138  v =  0.0000  0.0000  0.0000  0.0000  0.0000  0.0016 -0.3190 -0.0018  0.3190  0.8925      0.0000  0.0000  0.0000  0.0000  0.0000  0.0000  0.0000  0.0000  0.0000  0.0000
  o =  0.0154  v =  0.0000  0.0000  0.0000  0.0000  0.0000  0.5913  0.0541 -0.8031  0.0497 -0.0011      0.0000  0.0000  0.0000  0.0000  0.0000  0.0000  0.0000  0.0000  0.0000  0.0000
  o =  0.0171  v =  0.0000  0.0000  0.0000  0.0000  0.0000  0.0010 -0.6305 -0.0020  0.6316 -0.4511      0.0000  0.0000  0.0000  0.0000  0.0000  0.0000  0.0000  0.0000  0.0000  0.0000
  o =  0.0602  v =  0.0000  0.0000  0.0000  0.0000  0.0000  0.5352  0.5017  0.4588  0.5015  0.0000      0.0000  0.0000  0.0000  0.0000  0.0000  0.0000  0.0000  0.0000  0.0000  0.0000
  o =  0.0720  v =  0.0000  0.0000  0.0000  0.0000  0.0000 -0.6033  0.4961 -0.3801  0.4954  0.0005      0.0000  0.0000  0.0000  0.0000  0.0000  0.0000  0.0000  0.0000  0.0000  0.0000
  o =  0.9448  v = -0.6017 -0.0061  0.7987 -0.0082  0.0003  0.0000  0.0000  0.0000  0.0000  0.0000      0.0000  0.0000  0.0000  0.0000  0.0000  0.0000  0.0000  0.0000  0.0000  0.0000
  o =  0.9467  v = -0.0006 -0.5718  0.0009  0.5719  0.5882  0.0000  0.0000  0.0000  0.0000  0.0000      0.0000  0.0000  0.0000  0.0000  0.0000  0.0000  0.0000  0.0000  0.0000  0.0000
  o =  0.9484  v =  0.0008  0.4161 -0.0008 -0.4158  0.8087  0.0000  0.0000  0.0000  0.0000  0.0000      0.0000  0.0000  0.0000  0.0000  0.0000  0.0000  0.0000  0.0000  0.0000  0.0000
  o =  0.9769  v =  0.0440 -0.7062  0.0205 -0.7063  0.0001  0.0000  0.0000  0.0000  0.0000  0.0000      0.0000  0.0000  0.0000  0.0000  0.0000  0.0000  0.0000  0.0000  0.0000  0.0000
  o =  0.9833  v = -0.7975 -0.0335 -0.6014 -0.0337  0.0002  0.0000  0.0000  0.0000  0.0000  0.0000      0.0000  0.0000  0.0000  0.0000  0.0000  0.0000  0.0000  0.0000  0.0000  0.0000
atom =   8  type =  1  l = 2
 
 onsite density matrix
 
spin component  1
 
  0.0455  0.0003 -0.0249  0.0002  0.0000
  0.0003  0.0379 -0.0003 -0.0220  0.0007
 -0.0249 -0.0003  0.0317 -0.0003 -0.0000
  0.0002 -0.0220 -0.0003  0.0378 -0.0007
  0.0000  0.0007 -0.0000 -0.0007  0.0137
 
spin component  2
 
  0.9700  0.0003 -0.0188  0.0003  0.0000
  0.0003  0.9646 -0.0002 -0.0173  0.0005
 -0.0188 -0.0002  0.9582 -0.0002 -0.0000
  0.0003 -0.0173 -0.0002  0.9646 -0.0005
  0.0000  0.0005 -0.0000 -0.0005  0.9477
 
 occupancies and eigenvectors
 
  o =  0.0127  v =  0.6038  0.0395  0.7951  0.0397 -0.0002  0.0000  0.0000  0.0000  0.0000  0.0000      0.0000  0.0000  0.0000  0.0000  0.0000  0.0000  0.0000  0.0000  0.0000  0.0000
  o =  0.0137  v = -0.0000 -0.0148  0.0002  0.0140  0.9998  0.0000  0.0000  0.0000  0.0000  0.0000      0.0000  0.0000  0.0000  0.0000  0.0000  0.0000  0.0000  0.0000  0.0000  0.0000
  o =  0.0159  v =  0.0433 -0.7058  0.0375 -0.7061 -0.0005  0.0000  0.0000  0.0000  0.0000  0.0000      0.0000  0.0000  0.0000  0.0000  0.0000  0.0000  0.0000  0.0000  0.0000  0.0000
  o =  0.0599  v =  0.0005 -0.7071 -0.0005  0.7069 -0.0204  0.0000  0.0000  0.0000  0.0000  0.0000      0.0000  0.0000  0.0000  0.0000  0.0000  0.0000  0.0000  0.0000  0.0000  0.0000
  o =  0.0645  v = -0.7959 -0.0089  0.6053 -0.0078 -0.0002  0.0000  0.0000  0.0000  0.0000  0.0000      0.0000  0.0000  0.0000  0.0000  0.0000  0.0000  0.0000  0.0000  0.0000  0.0000
  o =  0.9444  v =  0.0000  0.0000  0.0000  0.0000  0.0000 -0.5921  0.0113 -0.8057  0.0112  0.0001      0.0000  0.0000  0.0000  0.0000  0.0000  0.0000  0.0000  0.0000  0.0000  0.0000
  o =  0.9473  v =  0.0000  0.0000  0.0000  0.0000  0.0000 -0.0011  0.7069  0.0206  0.7070 -0.0018      0.0000  0.0000  0.0000  0.0000  0.0000  0.0000  0.0000  0.0000  0.0000  0.0000
  o =  0.9476  v =  0.0000  0.0000  0.0000  0.0000  0.0000 -0.0001 -0.0132  0.0002  0.0157  0.9998      0.0000  0.0000  0.0000  0.0000  0.0000  0.0000  0.0000  0.0000  0.0000  0.0000
  o =  0.9819  v =  0.0000  0.0000  0.0000  0.0000  0.0000 -0.0007  0.7071  0.0007 -0.7069  0.0204      0.0000  0.0000  0.0000  0.0000  0.0000  0.0000  0.0000  0.0000  0.0000  0.0000
  o =  0.9838  v =  0.0000  0.0000  0.0000  0.0000  0.0000 -0.8058 -0.0099  0.5920 -0.0086 -0.0002      0.0000  0.0000  0.0000  0.0000  0.0000  0.0000  0.0000  0.0000  0.0000  0.0000
atom =   9  type =  1  l = 2
 
 onsite density matrix
 
spin component  1
 
  0.9702  0.0000  0.0192  0.0000 -0.0002
  0.0000  0.9647  0.0000  0.0172 -0.0000
  0.0192  0.0000  0.9585 -0.0000 -0.0002
  0.0000  0.0172 -0.0000  0.9644 -0.0000
 -0.0002 -0.0000 -0.0002 -0.0000  0.9477
 
spin component  2
 
  0.0462  0.0000  0.0255  0.0000 -0.0003
  0.0000  0.0380  0.0000  0.0218 -0.0000
  0.0255  0.0000  0.0320 -0.0000 -0.0002
  0.0000  0.0218 -0.0000  0.0376 -0.0000
 -0.0003 -0.0000 -0.0002 -0.0000  0.0139
 
 occupancies and eigenvectors
 
  o =  0.0127  v =  0.0000  0.0000  0.0000  0.0000  0.0000 -0.6051  0.0000  0.7961  0.0000  0.0012      0.0000  0.0000  0.0000  0.0000  0.0000  0.0000  0.0000  0.0000  0.0000  0.0000
  o =  0.0139  v =  0.0000  0.0000  0.0000  0.0000  0.0000 -0.0059 -0.0002 -0.0030  0.0002 -1.0000      0.0000  0.0000  0.0000  0.0000  0.0000  0.0000  0.0000  0.0000  0.0000  0.0000
  o =  0.0160  v =  0.0000  0.0000  0.0000  0.0000  0.0000 -0.0000  0.7034 -0.0000 -0.7108 -0.0002      0.0000  0.0000  0.0000  0.0000  0.0000  0.0000  0.0000  0.0000  0.0000  0.0000
  o =  0.0596  v =  0.0000  0.0000  0.0000  0.0000  0.0000  0.0003 -0.7108  0.0002 -0.7034  0.0000      0.0000  0.0000  0.0000  0.0000  0.0000  0.0000  0.0000  0.0000  0.0000  0.0000
  o =  0.0656  v =  0.0000  0.0000  0.0000  0.0000  0.0000 -0.7961 -0.0003 -0.6051 -0.0002  0.0065      0.0000  0.0000  0.0000  0.0000  0.0000  0.0000  0.0000  0.0000  0.0000  0.0000
  o =  0.9443  v = -0.5953  0.0000  0.8034  0.0000  0.0095  0.0000  0.0000  0.0000  0.0000  0.0000      0.0000  0.0000  0.0000  0.0000  0.0000  0.0000  0.0000  0.0000  0.0000  0.0000
  o =  0.9473  v = -0.0000  0.7037 -0.0000 -0.7105  0.0009  0.0000  0.0000  0.0000  0.0000  0.0000      0.0000  0.0000  0.0000  0.0000  0.0000  0.0000  0.0000  0.0000  0.0000  0.0000
  o =  0.9477  v = -0.0109  0.0006  0.0038 -0.0007 -0.9999  0.0000  0.0000  0.0000  0.0000  0.0000      0.0000  0.0000  0.0000  0.0000  0.0000  0.0000  0.0000  0.0000  0.0000  0.0000
  o =  0.9817  v = -0.0004  0.7105 -0.0003  0.7037 -0.0000  0.0000  0.0000  0.0000  0.0000  0.0000      0.0000  0.0000  0.0000  0.0000  0.0000  0.0000  0.0000  0.0000  0.0000  0.0000
  o =  0.9845  v = -0.8034 -0.0004 -0.5954 -0.0003  0.0065  0.0000  0.0000  0.0000  0.0000  0.0000      0.0000  0.0000  0.0000  0.0000  0.0000  0.0000  0.0000  0.0000  0.0000  0.0000
atom =  10  type =  1  l = 2
 
 onsite density matrix
 
spin component  1
 
[...]
    1        0.208   6.184   4.942  11.333
    2        0.166   6.148   4.948  11.262
    3        0.172   6.159   4.959  11.290
    4        0.166   6.148   4.948  11.262
    5        0.168   6.154   4.958  11.281
    6        0.166   6.150   4.953  11.269
    7        0.172   6.159   4.959  11.290
    8        0.166   6.150   4.953  11.269
    9        0.167   6.151   4.954  11.272
   10        0.165   6.149   4.951  11.266
   11        0.166   6.150   4.953  11.269
   12        0.166   6.149   4.951  11.266
   13        0.167   6.151   4.954  11.272
   14        0.167   6.151   4.954  11.273
   15        0.166   6.150   4.953  11.269
   16        0.167   6.151   4.954  11.273
   17        0.167   6.151   4.952  11.270
   18        0.166   6.151   4.954  11.271
   19        0.167   6.151   4.954  11.271
   20        0.166   6.151   4.954  11.271
   21        0.166   6.150   4.953  11.270
   22        0.166   6.151   4.953  11.270
   23        0.167   6.151   4.954  11.271
   24        0.166   6.151   4.953  11.270
   25        0.167   6.151   4.954  11.272
   26        0.165   6.149   4.951  11.266
   27        0.166   6.150   4.953  11.269
   28        0.165   6.149   4.951  11.266
   29        0.167   6.151   4.954  11.272
   30        0.167   6.151   4.954  11.273
   31        0.166   6.150   4.953  11.269
   32        0.167   6.151   4.954  11.273
   33        0.166   6.150   4.953  11.269
   34        0.166   6.150   4.952  11.267
   35        0.167   6.151   4.954  11.272
   36        0.166   6.150   4.952  11.267
   37        0.166   6.151   4.953  11.270
   38        0.167   6.152   4.955  11.274
   39        0.167   6.151   4.954  11.272
   40        0.167   6.152   4.955  11.274
   41        0.166   6.150   4.952  11.268
   42        0.166   6.151   4.954  11.271
   43        0.166   6.151   4.953  11.270
   44        0.166   6.151   4.954  11.271
   45        0.167   6.151   4.954  11.272
   46        0.166   6.151   4.953  11.270
   47        0.166   6.151   4.953  11.270
   48        0.166   6.151   4.953  11.270
   49        0.167   6.151   4.952  11.270
   50        0.166   6.151   4.954  11.271
   51        0.167   6.151   4.954  11.271
   52        0.166   6.151   4.954  11.271
   53        0.166   6.150   4.953  11.270
   54        0.166   6.151   4.953  11.270
   55        0.167   6.151   4.954  11.271
   56        0.166   6.151   4.953  11.270
   57        0.166   6.150   4.952  11.268
   58        0.166   6.151   4.954  11.271
   59        0.166   6.151   4.953  11.270
   60        0.166   6.151   4.954  11.271
   61        0.167   6.151   4.954  11.272
   62        0.166   6.151   4.953  11.270
   63        0.166   6.151   4.953  11.270
   64        0.166   6.151   4.953  11.270
   65        0.166   6.150   4.953  11.269
   66        0.166   6.150   4.953  11.269
   67        0.166   6.151   4.953  11.270
   68        0.166   6.150   4.953  11.269
   69        0.167   6.151   4.954  11.272
   70        0.167   6.151   4.954  11.271
   71        0.166   6.151   4.953  11.270
   72        0.167   6.151   4.954  11.271
   73        1.726   4.363   0.000   6.088
   74        1.726   4.363   0.000   6.088
   75        1.732   4.349   0.000   6.080
   76        1.726   4.363   0.000   6.089
   77        1.726   4.367   0.000   6.093
   78        1.726   4.367   0.000   6.093
   79        1.732   4.349   0.000   6.080
   80        1.726   4.363   0.000   6.089
   81        1.726   4.366   0.000   6.092
   82        1.726   4.366   0.000   6.092
   83        1.726   4.366   0.000   6.092
   84        1.726   4.370   0.000   6.096
   85        1.726   4.367   0.000   6.093
   86        1.726   4.367   0.000   6.093
   87        1.726   4.366   0.000   6.092
   88        1.726   4.370   0.000   6.096
   89        1.726   4.366   0.000   6.092
   90        1.726   4.367   0.000   6.093
   91        1.726   4.366   0.000   6.092
   92        1.726   4.366   0.000   6.092
   93        1.726   4.366   0.000   6.092
   94        1.726   4.366   0.000   6.091
   95        1.726   4.366   0.000   6.092
   96        1.726   4.366   0.000   6.092
   97        1.726   4.367   0.000   6.092
   98        1.726   4.367   0.000   6.092
   99        1.726   4.367   0.000   6.092
  100        1.726   4.366   0.000   6.092
  101        1.726   4.366   0.000   6.092
  102        1.726   4.366   0.000   6.091
  103        1.726   4.367   0.000   6.092
  104        1.726   4.366   0.000   6.092
  105        1.728   4.358   0.000   6.085
  106        1.726   4.366   0.000   6.092
  107        1.726   4.367   0.000   6.092
  108        1.726   4.366   0.000   6.091
  109        1.726   4.367   0.000   6.093
  110        1.726   4.367   0.000   6.092
  111        1.726   4.367   0.000   6.092
  112        1.726   4.366   0.000   6.091
  113        1.726   4.366   0.000   6.092
  114        1.726   4.366   0.000   6.092
  115        1.726   4.366   0.000   6.092
  116        1.726   4.366   0.000   6.091
  117        1.726   4.367   0.000   6.093
  118        1.726   4.367   0.000   6.092
  119        1.726   4.366   0.000   6.092
  120        1.726   4.366   0.000   6.091
  121        1.726   4.367   0.000   6.093
  122        1.726   4.366   0.000   6.092
  123        1.726   4.366   0.000   6.092
  124        1.726   4.366   0.000   6.092
  125        1.726   4.366   0.000   6.091
  126        1.726   4.366   0.000   6.092
  127        1.726   4.366   0.000   6.092
  128        1.726   4.366   0.000   6.092
  129        1.726   4.367   0.000   6.092
  130        1.726   4.367   0.000   6.092
  131        1.726   4.367   0.000   6.092
  132        1.726   4.366   0.000   6.092
  133        1.726   4.366   0.000   6.091
  134        1.726   4.366   0.000   6.092
  135        1.726   4.367   0.000   6.092
  136        1.726   4.366   0.000   6.092
  137        1.726   4.366   0.000   6.092
  138        1.726   4.366   0.000   6.092
  139        1.726   4.365   0.000   6.091
  140        1.726   4.366   0.000   6.092
  141        1.726   4.366   0.000   6.092
  142        1.726   4.366   0.000   6.092
  143        1.726   4.365   0.000   6.091
  144        1.726   4.366   0.000   6.092
  145        1.726   4.366   0.000   6.092
  146        1.726   4.366   0.000   6.092
  147        1.726   4.368   0.000   6.094
  148        1.726   4.367   0.000   6.092
  149        1.726   4.366   0.000   6.092
  150        1.726   4.366   0.000   6.092
  151        1.726   4.368   0.000   6.094
  152        1.726   4.367   0.000   6.092
  153        1.726   4.365   0.000   6.090
  154        1.726   4.365   0.000   6.091
  155        1.726   4.366   0.000   6.092
  156        1.726   4.367   0.000   6.092
  157        1.726   4.366   0.000   6.092
  158        1.726   4.366   0.000   6.092
  159        1.726   4.366   0.000   6.092
  160        1.726   4.367   0.000   6.092
  161        1.726   4.367   0.000   6.093
  162        1.726   4.367   0.000   6.092
  163        1.726   4.366   0.000   6.092
  164        1.726   4.366   0.000   6.092
  165        1.726   4.366   0.000   6.092
  166        1.726   4.366   0.000   6.092
  167        1.726   4.366   0.000   6.092
  168        1.726   4.366   0.000   6.092
  169        1.726   4.366   0.000   6.092
  170        1.728   4.357   0.000   6.085
  171        1.726   4.367   0.000   6.092
  172        1.726   4.366   0.000   6.091
  173        1.726   4.367   0.000   6.092
  174        1.726   4.367   0.000   6.093
  175        1.726   4.367   0.000   6.092
  176        1.726   4.366   0.000   6.091
  177        1.726   4.366   0.000   6.092
  178        1.726   4.366   0.000   6.092
  179        1.726   4.366   0.000   6.092
  180        1.726   4.366   0.000   6.091
  181        1.726   4.367   0.000   6.092
  182        1.726   4.367   0.000   6.093
  183        1.726   4.366   0.000   6.092
  184        1.726   4.366   0.000   6.091
  185        1.726   4.365   0.000   6.091
  186        1.726   4.365   0.000   6.090
  187        1.726   4.366   0.000   6.092
  188        1.726   4.367   0.000   6.092
  189        1.726   4.366   0.000   6.092
  190        1.726   4.366   0.000   6.092
  191        1.726   4.366   0.000   6.092
  192        1.726   4.367   0.000   6.092
  193        1.726   4.367   0.000   6.092
  194        1.726   4.367   0.000   6.093
  195        1.726   4.366   0.000   6.092
  196        1.726   4.366   0.000   6.092
  197        1.726   4.366   0.000   6.092
  198        1.726   4.366   0.000   6.092
  199        1.726   4.366   0.000   6.092
  200        1.726   4.366   0.000   6.092
  201        1.726   4.366   0.000   6.092
  202        1.726   4.366   0.000   6.092
  203        1.726   4.366   0.000   6.091
  204        1.726   4.367   0.000   6.093
  205        1.726   4.366   0.000   6.092
  206        1.726   4.366   0.000   6.092
  207        1.726   4.366   0.000   6.091
  208        1.726   4.367   0.000   6.093
  209        1.726   4.366   0.000   6.092
  210        1.726   4.366   0.000   6.092
  211        1.726   4.367   0.000   6.092
  212        1.726   4.366   0.000   6.092
  213        1.726   4.366   0.000   6.092
  214        1.726   4.366   0.000   6.092
  215        1.726   4.367   0.000   6.092
  216        1.726   4.366   0.000   6.092
  217        0.486   0.012   0.000   0.497
--------------------------------------------------
tot        261.0261071.592 356.6341689.252
 


 magnetization (x)
 
# of ion       s       p       d       tot
------------------------------------------
    1        0.002   0.000   4.353   4.356
    2       -0.018  -0.018  -4.628  -4.664
    3        0.017   0.018   4.612   4.648
    4       -0.018  -0.018  -4.628  -4.664
    5        0.018   0.018   4.626   4.662
    6       -0.018  -0.018  -4.629  -4.665
    7        0.017   0.018   4.612   4.648
    8       -0.018  -0.018  -4.629  -4.665
    9        0.018   0.019   4.628   4.665
   10       -0.018  -0.018  -4.629  -4.666
   11        0.018   0.018   4.629   4.665
   12       -0.018  -0.018  -4.629  -4.666
   13        0.018   0.019   4.628   4.665
   14       -0.018  -0.019  -4.628  -4.665
   15        0.018   0.018   4.629   4.665
   16       -0.018  -0.019  -4.628  -4.665
   17        0.018   0.018   4.627   4.663
   18       -0.018  -0.019  -4.628  -4.665
   19        0.018   0.019   4.628   4.665
   20       -0.018  -0.019  -4.628  -4.665
   21        0.018   0.018   4.628   4.665
   22       -0.018  -0.019  -4.628  -4.665
   23        0.018   0.019   4.628   4.665
   24       -0.018  -0.019  -4.628  -4.665
   25        0.018   0.019   4.628   4.665
   26       -0.018  -0.018  -4.629  -4.666
   27        0.018   0.018   4.629   4.665
   28       -0.018  -0.018  -4.629  -4.666
   29        0.018   0.019   4.628   4.665
   30       -0.018  -0.019  -4.628  -4.665
   31        0.018   0.018   4.629   4.665
   32       -0.018  -0.019  -4.628  -4.665
   33        0.018   0.018   4.628   4.665
   34       -0.018  -0.018  -4.629  -4.666
   35        0.018   0.019   4.628   4.665
   36       -0.018  -0.018  -4.629  -4.666
   37        0.018   0.019   4.628   4.665
   38       -0.018  -0.019  -4.627  -4.664
   39        0.018   0.019   4.628   4.665
   40       -0.018  -0.019  -4.627  -4.664
   41        0.018   0.018   4.629   4.666
   42       -0.018  -0.019  -4.628  -4.665
   43        0.018   0.019   4.628   4.665
   44       -0.018  -0.019  -4.628  -4.665
   45        0.018   0.019   4.628   4.665
   46       -0.018  -0.019  -4.628  -4.665
   47        0.018   0.019   4.628   4.665
   48       -0.018  -0.019  -4.628  -4.665
   49        0.018   0.018   4.627   4.663
   50       -0.018  -0.019  -4.628  -4.665
   51        0.018   0.019   4.628   4.665
   52       -0.018  -0.019  -4.628  -4.665
   53        0.018   0.018   4.628   4.665
   54       -0.018  -0.019  -4.628  -4.665
   55        0.018   0.019   4.628   4.665
   56       -0.018  -0.019  -4.628  -4.665
   57        0.018   0.018   4.629   4.666
   58       -0.018  -0.019  -4.628  -4.665
   59        0.018   0.019   4.628   4.665
   60       -0.018  -0.019  -4.628  -4.665
   61        0.018   0.019   4.628   4.665
   62       -0.018  -0.019  -4.628  -4.665
   63        0.018   0.019   4.628   4.665
   64       -0.018  -0.019  -4.628  -4.665
   65        0.018   0.018   4.629   4.666
   66       -0.018  -0.018  -4.628  -4.665
   67        0.018   0.019   4.628   4.665
   68       -0.018  -0.018  -4.628  -4.665
   69        0.018   0.019   4.628   4.665
   70       -0.018  -0.019  -4.628  -4.665
   71        0.018   0.019   4.628   4.665
   72       -0.018  -0.019  -4.628  -4.665
   73       -0.003  -0.019   0.000  -0.022
   74       -0.003  -0.019   0.000  -0.022
   75       -0.002  -0.036   0.000  -0.038
   76        0.002   0.015   0.000   0.017
   77       -0.002  -0.016   0.000  -0.018
   78       -0.002  -0.016   0.000  -0.018
   79       -0.002  -0.036   0.000  -0.038
   80        0.002   0.015   0.000   0.017
   81       -0.002  -0.015   0.000  -0.017
   82       -0.002  -0.015   0.000  -0.017
   83        0.002   0.016   0.000   0.018
   84        0.002   0.015   0.000   0.017
   85       -0.002  -0.016   0.000  -0.017
   86       -0.002  -0.016   0.000  -0.018
   87        0.002   0.016   0.000   0.018
   88        0.002   0.015   0.000   0.017
   89       -0.002  -0.015   0.000  -0.017
   90       -0.002  -0.015   0.000  -0.017
   91        0.002   0.015   0.000   0.017
   92        0.002   0.015   0.000   0.017
   93       -0.002  -0.015   0.000  -0.017
   94       -0.002  -0.015   0.000  -0.017
   95        0.002   0.015   0.000   0.017
   96        0.002   0.015   0.000   0.017
   97       -0.002  -0.015   0.000  -0.017
   98       -0.002  -0.016   0.000  -0.017
   99        0.002   0.015   0.000   0.017
  100        0.002   0.015   0.000   0.017
  101       -0.002  -0.015   0.000  -0.017
  102       -0.002  -0.015   0.000  -0.017
  103        0.002   0.015   0.000   0.017
  104        0.002   0.015   0.000   0.017
  105       -0.003  -0.034   0.000  -0.037
  106       -0.002  -0.015   0.000  -0.017
  107        0.002   0.015   0.000   0.017
  108        0.002   0.014   0.000   0.016
  109       -0.002  -0.015   0.000  -0.017
  110       -0.002  -0.015   0.000  -0.017
  111        0.002   0.015   0.000   0.017
  112        0.002   0.014   0.000   0.016
  113       -0.002  -0.015   0.000  -0.017
  114       -0.002  -0.015   0.000  -0.017
  115        0.002   0.015   0.000   0.017
  116        0.002   0.015   0.000   0.017
  117       -0.002  -0.015   0.000  -0.017
  118       -0.002  -0.015   0.000  -0.017
  119        0.002   0.015   0.000   0.017
  120        0.002   0.015   0.000   0.017
  121       -0.002  -0.015   0.000  -0.017
  122       -0.002  -0.015   0.000  -0.017
  123        0.002   0.015   0.000   0.017
  124        0.002   0.015   0.000   0.017
  125       -0.002  -0.015   0.000  -0.017
  126       -0.002  -0.015   0.000  -0.017
  127        0.002   0.015   0.000   0.017
  128        0.002   0.015   0.000   0.017
  129       -0.002  -0.016   0.000  -0.017
  130       -0.002  -0.015   0.000  -0.017
  131        0.002   0.015   0.000   0.017
  132        0.002   0.015   0.000   0.017
  133       -0.002  -0.015   0.000  -0.017
  134       -0.002  -0.015   0.000  -0.017
  135        0.002   0.015   0.000   0.017
  136        0.002   0.015   0.000   0.017
  137       -0.002  -0.015   0.000  -0.017
  138       -0.002  -0.015   0.000  -0.017
  139        0.002   0.015   0.000   0.017
  140        0.002   0.015   0.000   0.017
  141       -0.002  -0.015   0.000  -0.017
  142       -0.002  -0.015   0.000  -0.017
  143        0.002   0.015   0.000   0.017
  144        0.002   0.015   0.000   0.017
  145       -0.002  -0.015   0.000  -0.017
  146       -0.002  -0.015   0.000  -0.017
  147        0.002   0.014   0.000   0.016
  148        0.002   0.015   0.000   0.017
  149       -0.002  -0.015   0.000  -0.017
  150       -0.002  -0.015   0.000  -0.017
  151        0.002   0.014   0.000   0.016
  152        0.002   0.015   0.000   0.017
  153       -0.002  -0.016   0.000  -0.018
  154       -0.002  -0.015   0.000  -0.017
  155        0.002   0.015   0.000   0.017
  156        0.002   0.015   0.000   0.017
  157       -0.002  -0.015   0.000  -0.017
  158       -0.002  -0.015   0.000  -0.017
  159        0.002   0.015   0.000   0.017
  160        0.002   0.015   0.000   0.017
  161       -0.002  -0.015   0.000  -0.017
  162       -0.002  -0.015   0.000  -0.017
  163        0.002   0.015   0.000   0.017
  164        0.002   0.015   0.000   0.017
  165       -0.002  -0.015   0.000  -0.017
  166       -0.002  -0.015   0.000  -0.017
  167        0.002   0.015   0.000   0.017
  168        0.002   0.015   0.000   0.017
  169       -0.002  -0.015   0.000  -0.017
  170       -0.003  -0.034   0.000  -0.037
  171        0.002   0.015   0.000   0.017
  172        0.002   0.014   0.000   0.016
  173       -0.002  -0.015   0.000  -0.017
  174       -0.002  -0.015   0.000  -0.017
  175        0.002   0.015   0.000   0.017
  176        0.002   0.014   0.000   0.016
  177       -0.002  -0.015   0.000  -0.017
  178       -0.002  -0.015   0.000  -0.017
  179        0.002   0.015   0.000   0.017
  180        0.002   0.015   0.000   0.017
  181       -0.002  -0.015   0.000  -0.017
  182       -0.002  -0.015   0.000  -0.017
  183        0.002   0.015   0.000   0.017
  184        0.002   0.015   0.000   0.017
  185       -0.002  -0.015   0.000  -0.017
  186       -0.002  -0.016   0.000  -0.018
  187        0.002   0.015   0.000   0.017
  188        0.002   0.015   0.000   0.017
  189       -0.002  -0.015   0.000  -0.017
  190       -0.002  -0.015   0.000  -0.017
  191        0.002   0.015   0.000   0.017
  192        0.002   0.015   0.000   0.017
  193       -0.002  -0.015   0.000  -0.017
  194       -0.002  -0.015   0.000  -0.017
  195        0.002   0.015   0.000   0.017
  196        0.002   0.015   0.000   0.017
  197       -0.002  -0.015   0.000  -0.017
  198       -0.002  -0.015   0.000  -0.017
  199        0.002   0.015   0.000   0.017
  200        0.002   0.015   0.000   0.017
  201       -0.002  -0.015   0.000  -0.017
  202       -0.002  -0.015   0.000  -0.017
  203        0.002   0.015   0.000   0.016
  204        0.002   0.015   0.000   0.017
  205       -0.002  -0.015   0.000  -0.017
  206       -0.002  -0.015   0.000  -0.017
  207        0.002   0.015   0.000   0.016
  208        0.002   0.015   0.000   0.017
  209       -0.002  -0.015   0.000  -0.017
  210       -0.002  -0.015   0.000  -0.017
  211        0.002   0.015   0.000   0.016
  212        0.002   0.016   0.000   0.018
  213       -0.002  -0.015   0.000  -0.017
  214       -0.002  -0.015   0.000  -0.017
  215        0.002   0.015   0.000   0.016
  216        0.002   0.016   0.000   0.018
  217       -0.228   0.002   0.000  -0.225
--------------------------------------------------
tot         -0.257  -0.174  -0.312  -0.743
 

 total amount of memory used by VASP MPI-rank0   501409. kBytes
=======================================================================

   base      :      30000. kBytes
   nonl-proj :      51625. kBytes
   fftplans  :      22373. kBytes
   grid      :      17829. kBytes
   one-center:        590. kBytes
   wavefun   :     378992. kBytes
 
  
  
 General timing and accounting informations for this job:
 ========================================================
  
                  Total CPU time used (sec):     1017.474
                            User time (sec):      997.301
                          System time (sec):       20.173
                         Elapsed time (sec):     1179.990
  
                   Maximum memory used (kb):      720836.
                   Average memory used (kb):           0.
  
                          Minor page faults:       198536
                          Major page faults:           23
                 Voluntary context switches:        12711
