 vasp.5.4.4.18Apr17-6-g9f103f2a35 (build Apr 24 2018 11:19:41) complex          
  
 executed on         CrayXC-Intel date 2021.08.20  15:50:07
 running on  192 total cores
 distrk:  each k-point on   48 cores,    4 groups
 distr:  one band on NCORES_PER_BAND=  12 cores,    4 groups


--------------------------------------------------------------------------------------------------------


 INCAR:
 POTCAR:    PAW_PBE Mn_pv 02Aug2007               
 POTCAR:    PAW_PBE F 08Apr2002                   
 POTCAR:    PAW_PBE H 15Jun2001                   

 ----------------------------------------------------------------------------- 
|                                                                             |
|           W    W    AA    RRRRR   N    N  II  N    N   GGGG   !!!           |
|           W    W   A  A   R    R  NN   N  II  NN   N  G    G  !!!           |
|           W    W  A    A  R    R  N N  N  II  N N  N  G       !!!           |
|           W WW W  AAAAAA  RRRRR   N  N N  II  N  N N  G  GGG   !            |
|           WW  WW  A    A  R   R   N   NN  II  N   NN  G    G                |
|           W    W  A    A  R    R  N    N  II  N    N   GGGG   !!!           |
|                                                                             |
|      You have enabled k-point parallelism (KPAR>1).                         |
|      This developmental code was originally  written by Paul Kent at ORNL,  |
|      and carefully double checked in Vienna.                                |
|      GW as well as linear response parallelism added by Martijn Marsman     |
|      and Georg Kresse.                                                      |
|      Carefully verify results versus KPAR=1.                                |
|      Report problems to Paul Kent and Vienna.                               |
|                                                                             |
 ----------------------------------------------------------------------------- 

 POTCAR:    PAW_PBE Mn_pv 02Aug2007               
   VRHFIN =Mn: 3p4s3d                                                           
   LEXCH  = PE                                                                  
   EATOM  =  2025.2664 eV,  148.8529 Ry                                         
                                                                                
   TITEL  = PAW_PBE Mn_pv 02Aug2007                                             
   LULTRA =        F    use ultrasoft PP ?                                      
   IUNSCR =        1    unscreen: 0-lin 1-nonlin 2-no                           
   RPACOR =    2.080    partial core radius                                     
   POMASS =   54.938; ZVAL   =   13.000    mass and valenz                      
   RCORE  =    2.300    outmost cutoff radius                                   
   RWIGS  =    2.500; RWIGS  =    1.323    wigner-seitz radius (au A)           
   ENMAX  =  269.864; ENMIN  =  202.398 eV                                      
   ICORE  =        3    local potential                                         
   LCOR   =        T    correct aug charges                                     
   LPAW   =        T    paw PP                                                  
   EAUG   =  569.085                                                            
   DEXC   =    0.000                                                            
   RMAX   =    2.343    core radius for proj-oper                               
   RAUG   =    1.300    factor for augmentation sphere                          
   RDEP   =    2.338    radius for radial grids                                 
   RDEPT  =    1.798    core radius for aug-charge                              
                                                                                
   Atomic configuration                                                         
    8 entries                                                                   
     n  l   j            E        occ.                                          
     1  0  0.50     -6424.8287   2.0000                                         
     2  0  0.50      -739.1154   2.0000                                         
     2  1  1.50      -625.3949   6.0000                                         
     3  0  0.50       -81.6100   2.0000                                         
     3  1  1.50       -50.4667   6.0000                                         
     3  2  2.50        -3.3745   6.0000                                         
     4  0  0.50        -4.1331   1.0000                                         
     4  3  2.50        -1.3606   0.0000                                         
   Description                                                                  
     l       E           TYP  RCUT    TYP  RCUT                                 
     1    -50.4666628     23  2.000                                             
     1     -1.3605826     23  2.000                                             
     2     -3.3744729     23  2.300                                             
     2     -4.7350555     23  2.300                                             
     0     -4.1331431     23  2.300                                             
     0      7.6656591     23  2.300                                             
     3      9.5240782     23  2.300                                             
  local pseudopotential read in
  partial core-charges read in
  partial kinetic energy density read in
  atomic valenz-charges read in
  non local Contribution for L=           1  read in
    real space projection operators read in
  non local Contribution for L=           1  read in
    real space projection operators read in
  non local Contribution for L=           2  read in
    real space projection operators read in
  non local Contribution for L=           2  read in
    real space projection operators read in
  non local Contribution for L=           0  read in
    real space projection operators read in
  non local Contribution for L=           0  read in
    real space projection operators read in
    PAW grid and wavefunctions read in
 
   number of l-projection  operators is LMAX  =           6
   number of lm-projection operators is LMMAX =          18
 
 POTCAR:    PAW_PBE F 08Apr2002                   
   VRHFIN =F: s2p5                                                              
   LEXCH  = PE                                                                  
   EATOM  =   659.6475 eV,   48.4827 Ry                                         
                                                                                
   TITEL  = PAW_PBE F 08Apr2002                                                 
   LULTRA =        F    use ultrasoft PP ?                                      
   IUNSCR =        1    unscreen: 0-lin 1-nonlin 2-no                           
   RPACOR =    1.200    partial core radius                                     
   POMASS =   18.998; ZVAL   =    7.000    mass and valenz                      
   RCORE  =    1.520    outmost cutoff radius                                   
   RWIGS  =    1.500; RWIGS  =    0.794    wigner-seitz radius (au A)           
   ENMAX  =  400.000; ENMIN  =  300.000 eV                                      
   ICORE  =        2    local potential                                         
   LCOR   =        T    correct aug charges                                     
   LPAW   =        T    paw PP                                                  
   EAUG   =  613.614                                                            
   RMAX   =    1.555    core radius for proj-oper                               
   RAUG   =    1.300    factor for augmentation sphere                          
   RDEP   =    1.539    radius for radial grids                                 
   RDEPT  =    1.299    core radius for aug-charge                              
                                                                                
   Atomic configuration                                                         
    4 entries                                                                   
     n  l   j            E        occ.                                          
     1  0  0.50      -663.3661   2.0000                                         
     2  0  0.50       -29.8995   2.0000                                         
     2  1  0.50       -11.1114   5.0000                                         
     3  2  1.50       -10.8847   0.0000                                         
   Description                                                                  
     l       E           TYP  RCUT    TYP  RCUT                                 
     0    -29.8995018     23  1.200                                             
     0     -9.5240782     23  1.200                                             
     1    -11.1113914     23  1.520                                             
     1      1.3605826     23  1.520                                             
     2    -10.8846608      7  1.500                                             
  local pseudopotential read in
  partial core-charges read in
  partial kinetic energy density read in
  atomic valenz-charges read in
  non local Contribution for L=           0  read in
    real space projection operators read in
  non local Contribution for L=           0  read in
    real space projection operators read in
  non local Contribution for L=           1  read in
    real space projection operators read in
  non local Contribution for L=           1  read in
    real space projection operators read in
    PAW grid and wavefunctions read in
 
   number of l-projection  operators is LMAX  =           4
   number of lm-projection operators is LMMAX =           8
 
 POTCAR:    PAW_PBE H 15Jun2001                   
   VRHFIN =H: ultrasoft test                                                    
   LEXCH  = PE                                                                  
   EATOM  =    12.4884 eV,    0.9179 Ry                                         
                                                                                
   TITEL  = PAW_PBE H 15Jun2001                                                 
   LULTRA =        F    use ultrasoft PP ?                                      
   IUNSCR =        0    unscreen: 0-lin 1-nonlin 2-no                           
   RPACOR =    0.000    partial core radius                                     
   POMASS =    1.000; ZVAL   =    1.000    mass and valenz                      
   RCORE  =    1.100    outmost cutoff radius                                   
   RWIGS  =    0.700; RWIGS  =    0.370    wigner-seitz radius (au A)           
   ENMAX  =  250.000; ENMIN  =  200.000 eV                                      
   RCLOC  =    0.701    cutoff for local pot                                    
   LCOR   =        T    correct aug charges                                     
   LPAW   =        T    paw PP                                                  
   EAUG   =  400.000                                                            
   RMAX   =    1.123    core radius for proj-oper                               
   RAUG   =    1.200    factor for augmentation sphere                          
   RDEP   =    1.112    radius for radial grids                                 
   RDEPT  =    0.926    core radius for aug-charge                              
                                                                                
   Atomic configuration                                                         
    2 entries                                                                   
     n  l   j            E        occ.                                          
     1  0  0.50        -6.4927   1.0000                                         
     2  1  0.50        -3.4015   0.0000                                         
   Description                                                                  
     l       E           TYP  RCUT    TYP  RCUT                                 
     0     -6.4927494     23  1.100                                             
     0      6.8029130     23  1.100                                             
     1     -4.0817478     23  1.100                                             
  local pseudopotential read in
  atomic valenz-charges read in
  non local Contribution for L=           0  read in
    real space projection operators read in
  non local Contribution for L=           0  read in
    real space projection operators read in
  non local Contribution for L=           1  read in
    real space projection operators read in
    PAW grid and wavefunctions read in
 
   number of l-projection  operators is LMAX  =           3
   number of lm-projection operators is LMMAX =           5
 

 ----------------------------------------------------------------------------- 
|                                                                             |
|  ADVICE TO THIS USER RUNNING 'VASP/VAMP'   (HEAR YOUR MASTER'S VOICE ...):  |
|                                                                             |
|      You have a (more or less) 'large supercell' and for larger cells       |
|      it might be more efficient to use real space projection opertators     |
|      So try LREAL= Auto  in the INCAR   file.                               |
|      Mind:          For very  accurate calculation you might also keep the  |
|      reciprocal projection scheme          (i.e. LREAL=.FALSE.)             |
|                                                                             |
 ----------------------------------------------------------------------------- 


 ----------------------------------------------------------------------------- 
|                                                                             |
|  ADVICE TO THIS USER RUNNING 'VASP/VAMP'   (HEAR YOUR MASTER'S VOICE ...):  |
|                                                                             |
|      You enforced a specific xc-type in the INCAR file,                     |
|      a different type was found on the POTCAR file                          |
|          I HOPE YOU KNOW, WHAT YOU ARE  DOING                               |
|                                                                             |
 ----------------------------------------------------------------------------- 

  PAW_PBE Mn_pv 02Aug2007               :
 energy of atom  1       EATOM=-2025.2664
 kinetic energy error for atom=    0.0020 (will be added to EATOM!!)
  PAW_PBE F 08Apr2002                   :
 energy of atom  2       EATOM= -659.6475
 kinetic energy error for atom=    0.0140 (will be added to EATOM!!)
  PAW_PBE H 15Jun2001                   :
 energy of atom  3       EATOM=  -12.4884
 kinetic energy error for atom=    0.0002 (will be added to EATOM!!)
 
 
 POSCAR: Mn  F  H                                
  positions in direct lattice
  velocities in cartesian coordinates
 exchange correlation table for  LEXCH =       14
   RHO(1)=    0.500       N(1)  =     2000
   RHO(2)=  100.500       N(2)  =     4000
 


--------------------------------------------------------------------------------------------------------


 ion  position               nearest neighbor table
   1  0.166  0.170  0.126-  73 2.10  74 2.11  80 2.12  76 2.13  79 2.13  75 2.14
   2  0.006  1.000  0.000- 204 2.12  75 2.13 117 2.13 105 2.13 170 2.14 182 2.14
   3  0.166  0.167  0.375-  77 2.10  78 2.11  80 2.13  83 2.13  84 2.13  79 2.13
   4  0.000  0.000  0.250- 208 2.10  79 2.11 170 2.13 174 2.13 109 2.13 105 2.14
   5  0.166  0.167  0.625-  81 2.10  82 2.11  88 2.13  83 2.13  84 2.13  87 2.13
   6  0.000  1.000  0.500- 212 2.10  83 2.10 178 2.13 174 2.13 109 2.13 113 2.13
   7  0.166  0.170  0.874-  85 2.10  86 2.11  88 2.12  76 2.13  87 2.13  75 2.14
   8  0.000  0.000  0.750- 216 2.10  87 2.11 182 2.13 178 2.13 113 2.13 117 2.14
   9  0.167  0.500  0.125-  90 2.11  89 2.11  92 2.13  91 2.13  95 2.13  96 2.13
  10  1.000  0.334  0.000- 172 2.10  91 2.10  73 2.13  85 2.13 198 2.13 186 2.13
  11  0.167  0.500  0.375-  94 2.10  93 2.10  96 2.13  95 2.13  99 2.13 100 2.13
  12  0.999  0.335  0.251-  95 2.10 176 2.11  73 2.12 190 2.12 186 2.13  77 2.14
  13  0.167  0.500  0.625-  98 2.10  97 2.10 103 2.13 104 2.13 100 2.13  99 2.13
  14  1.000  0.333  0.500-  99 2.10 180 2.10  81 2.13  77 2.13 190 2.13 194 2.13
  15  0.167  0.500  0.875- 101 2.11 102 2.11  92 2.13  91 2.13 103 2.13 104 2.13
  16  0.999  0.335  0.749- 103 2.10 184 2.11  85 2.12 194 2.12 198 2.13  81 2.14
  17  0.167  0.830  0.126- 106 2.10 105 2.11 111 2.12 107 2.13 112 2.13 108 2.14
  18  0.999  0.666  0.000- 188 2.10 107 2.10 214 2.13 202 2.13 101 2.13  89 2.13
  19  0.167  0.833  0.375- 110 2.10 109 2.11 111 2.13 116 2.13 115 2.13 112 2.13
  20  1.000  0.666  0.250- 192 2.10 111 2.10  93 2.13 202 2.13 206 2.13  89 2.13
  21  0.167  0.833  0.625- 114 2.10 113 2.11 119 2.13 116 2.13 115 2.13 120 2.13
  22  1.000  0.667  0.500- 196 2.11 115 2.11  93 2.13  97 2.13 206 2.13 210 2.13
  23  0.167  0.830  0.874- 118 2.10 117 2.11 119 2.12 107 2.13 120 2.13 108 2.14
  24  1.000  0.666  0.750- 200 2.10 119 2.10  97 2.13 214 2.13 210 2.13 101 2.13
  25  0.499  0.166  0.125- 121 2.10 122 2.10 127 2.13 124 2.13 123 2.14 128 2.14
  26  0.328  0.000  0.000- 123 2.12 108 2.13  74 2.13  86 2.13 153 2.14 165 2.14
  27  0.500  0.167  0.375- 125 2.10 126 2.10 128 2.13 132 2.13 127 2.13 131 2.13
  28  0.333  1.000  0.250- 127 2.10 112 2.11 153 2.13 157 2.13  78 2.13  74 2.13
  29  0.500  0.167  0.625- 129 2.10 130 2.10 136 2.13 132 2.13 135 2.13 131 2.13
  30  0.333  0.000  0.500- 131 2.10 116 2.10 157 2.13 161 2.13  82 2.13  78 2.13
  31  0.499  0.165  0.875- 133 2.10 134 2.10 135 2.13 124 2.13 123 2.14 136 2.14
  32  0.333  1.000  0.750- 135 2.10 120 2.11 165 2.13 161 2.13  82 2.13  86 2.13
  33  0.501  0.500  0.125- 137 2.10 138 2.10 140 2.13 144 2.13 139 2.13 143 2.13
  34  0.334  0.334  0.000- 139 2.10  76 2.10 133 2.13 121 2.13  90 2.13 102 2.13
  35  0.501  0.500  0.375- 142 2.10 141 2.10 143 2.13 148 2.13 147 2.13 144 2.13
  36  0.334  0.334  0.250- 143 2.10  80 2.10  94 2.13 121 2.13 125 2.13  90 2.13
  37  0.501  0.500  0.625- 146 2.10 145 2.10 151 2.13 148 2.13 147 2.13 152 2.13
  38  0.333  0.333  0.500- 147 2.11  84 2.11  94 2.13  98 2.13 129 2.13 125 2.13
  39  0.501  0.500  0.875- 149 2.10 150 2.10 140 2.13 152 2.13 139 2.13 151 2.13
  40  0.334  0.334  0.750- 151 2.10  88 2.10  98 2.13 133 2.13 129 2.13 102 2.13
  41  0.499  0.834  0.125- 153 2.11 154 2.11 156 2.13 155 2.13 159 2.13 160 2.13
  42  0.333  0.666  0.000- 155 2.10  92 2.10 118 2.13 106 2.13 137 2.13 149 2.13
  43  0.500  0.833  0.375- 158 2.10 157 2.10 163 2.13 160 2.13 164 2.13 159 2.13
  44  0.334  0.665  0.251-  96 2.10 159 2.11 106 2.12 141 2.12 137 2.13 110 2.14
  45  0.500  0.833  0.625- 162 2.10 161 2.10 163 2.13 168 2.13 164 2.13 167 2.13
  46  0.333  0.667  0.500- 100 2.10 163 2.10 114 2.13 110 2.13 141 2.13 145 2.13
  47  0.499  0.834  0.875- 165 2.11 166 2.11 156 2.13 155 2.13 167 2.13 168 2.13
  48  0.334  0.665  0.749- 104 2.10 167 2.11 118 2.12 145 2.12 149 2.13 114 2.14
  49  0.834  0.166  0.125- 170 2.11 169 2.11 171 2.13 172 2.13 176 2.13 175 2.13
  50  0.667  1.000  0.000- 156 2.10 171 2.10 134 2.13 201 2.13 213 2.13 122 2.13
  51  0.833  0.167  0.375- 173 2.10 174 2.10 180 2.13 175 2.13 179 2.13 176 2.13
  52  0.667  1.000  0.250- 160 2.10 175 2.10 205 2.13 126 2.13 122 2.13 201 2.13
  53  0.833  0.167  0.625- 177 2.10 178 2.10 180 2.13 183 2.13 179 2.13 184 2.13
  54  0.667  1.000  0.500- 179 2.10 164 2.10 205 2.13 130 2.13 126 2.13 209 2.13
  55  0.834  0.166  0.875- 182 2.11 181 2.11 171 2.13 172 2.13 184 2.13 183 2.13
  56  0.667  1.000  0.750- 183 2.10 168 2.10 209 2.13 130 2.13 134 2.13 213 2.13
  57  0.832  0.500  0.125- 186 2.10 185 2.10 187 2.13 191 2.13 188 2.13 192 2.13
  58  0.667  0.332  0.000- 187 2.11 124 2.11 181 2.13 169 2.13 150 2.13 138 2.13
  59  0.833  0.500  0.375- 189 2.10 190 2.10 192 2.13 195 2.13 196 2.13 191 2.13
  60  0.667  0.332  0.250- 128 2.10 191 2.11 138 2.13 173 2.13 169 2.13 142 2.13
  61  0.833  0.500  0.625- 193 2.10 194 2.10 200 2.13 195 2.13 196 2.13 199 2.13
  62  0.667  0.333  0.500- 195 2.10 132 2.10 142 2.13 146 2.13 177 2.13 173 2.13
  63  0.832  0.500  0.875- 198 2.10 197 2.10 187 2.13 199 2.13 188 2.13 200 2.13
  64  0.667  0.332  0.750- 136 2.10 199 2.11 150 2.13 177 2.13 181 2.13 146 2.13
  65  0.835  0.834  0.125- 202 2.10 201 2.10 208 2.13 203 2.13 204 2.14 207 2.14
  66  0.667  0.668  0.000- 140 2.11 203 2.11 166 2.13 154 2.13 185 2.13 197 2.13
  67  0.833  0.833  0.375- 206 2.10 205 2.10 207 2.13 211 2.13 208 2.13 212 2.13
  68  0.667  0.667  0.250- 207 2.10 144 2.11 185 2.13 158 2.13 154 2.13 189 2.13
  69  0.833  0.833  0.625- 210 2.10 209 2.10 215 2.13 211 2.13 216 2.13 212 2.13
  70  0.667  0.667  0.500- 148 2.10 211 2.10 193 2.13 189 2.13 158 2.13 162 2.13
  71  0.835  0.834  0.875- 214 2.10 213 2.10 216 2.13 203 2.13 204 2.14 215 2.14
  72  0.667  0.667  0.750- 215 2.10 152 2.11 197 2.13 162 2.13 166 2.13 193 2.13
  73  0.067  0.273  0.127-   1 2.10  12 2.12  10 2.13
  74  0.267  0.067  0.127-   1 2.11  26 2.13  28 2.13
  75  0.089  0.119  0.000-   2 2.13   7 2.14   1 2.14
  76  0.234  0.231  0.000-  34 2.10   1 2.13   7 2.13
  77  0.065  0.268  0.375-   3 2.10  14 2.13  12 2.14
  78  0.268  0.065  0.375-   3 2.11  28 2.13  30 2.13
  79  0.101  0.102  0.249-   4 2.11   1 2.13   3 2.13
  80  0.232  0.232  0.251-  36 2.10   1 2.12   3 2.13
  81  0.065  0.268  0.625-   5 2.10  14 2.13  16 2.14
  82  0.268  0.065  0.625-   5 2.11  32 2.13  30 2.13
  83  0.101  0.101  0.500-   6 2.10   3 2.13   5 2.13
  84  0.232  0.232  0.500-  38 2.11   5 2.13   3 2.13
  85  0.067  0.273  0.873-   7 2.10  16 2.12  10 2.13
  86  0.267  0.067  0.873-   7 2.11  26 2.13  32 2.13
  87  0.101  0.102  0.751-   8 2.11   7 2.13   5 2.13
  88  0.232  0.232  0.749-  40 2.10   7 2.12   5 2.13
  89  0.065  0.602  0.125-   9 2.11  20 2.13  18 2.13
  90  0.268  0.398  0.125-   9 2.11  36 2.13  34 2.13
  91  0.101  0.436  0.000-  10 2.10   9 2.13  15 2.13
  92  0.232  0.564  0.000-  42 2.10  15 2.13   9 2.13
  93  0.065  0.601  0.375-  11 2.10  22 2.13  20 2.13
  94  0.268  0.398  0.375-  11 2.10  38 2.13  36 2.13
  95  0.101  0.436  0.250-  12 2.10  11 2.13   9 2.13
  96  0.233  0.564  0.250-  44 2.10  11 2.13   9 2.13
  97  0.065  0.601  0.625-  13 2.10  22 2.13  24 2.13
  98  0.268  0.398  0.625-  13 2.10  38 2.13  40 2.13
  99  0.102  0.434  0.500-  14 2.10  11 2.13  13 2.13
 100  0.232  0.565  0.500-  46 2.10  13 2.13  11 2.13
 101  0.065  0.602  0.875-  15 2.11  24 2.13  18 2.13
 102  0.268  0.398  0.875-  15 2.11  40 2.13  34 2.13
 103  0.101  0.436  0.750-  16 2.10  13 2.13  15 2.13
 104  0.233  0.564  0.750-  48 2.10  13 2.13  15 2.13
 105  0.067  0.933  0.127-  17 2.11   2 2.13   4 2.14
 106  0.267  0.727  0.127-  17 2.10  44 2.12  42 2.13
 107  0.100  0.769  0.000-  18 2.10  23 2.13  17 2.13
 108  0.244  0.881  0.000-  26 2.13  17 2.14  23 2.14
 109  0.066  0.935  0.375-  19 2.11   4 2.13   6 2.13
 110  0.269  0.732  0.375-  19 2.10  46 2.13  44 2.14
 111  0.101  0.767  0.251-  20 2.10  17 2.12  19 2.13
 112  0.232  0.898  0.249-  28 2.11  17 2.13  19 2.13
 113  0.066  0.935  0.625-  21 2.11   8 2.13   6 2.13
 114  0.269  0.732  0.625-  21 2.10  46 2.13  48 2.14
 115  0.102  0.768  0.500-  22 2.11  21 2.13  19 2.13
 116  0.232  0.898  0.500-  30 2.10  19 2.13  21 2.13
 117  0.067  0.933  0.873-  23 2.11   2 2.13   8 2.14
 118  0.267  0.727  0.873-  23 2.10  48 2.12  42 2.13
 119  0.101  0.767  0.749-  24 2.10  23 2.12  21 2.13
 120  0.232  0.897  0.751-  32 2.11  23 2.13  21 2.13
 121  0.399  0.268  0.125-  25 2.10  36 2.13  34 2.13
 122  0.601  0.065  0.125-  25 2.10  50 2.13  52 2.13
 123  0.432  0.101  0.000-  26 2.12  31 2.14  25 2.14
 124  0.564  0.231  0.000-  58 2.11  25 2.13  31 2.13
 125  0.399  0.268  0.375-  27 2.10  38 2.13  36 2.13
 126  0.602  0.065  0.375-  27 2.10  52 2.13  54 2.13
 127  0.435  0.101  0.251-  28 2.10  25 2.13  27 2.13
 128  0.565  0.231  0.249-  60 2.10  27 2.13  25 2.14
 129  0.399  0.268  0.625-  29 2.10  38 2.13  40 2.13
 130  0.602  0.065  0.625-  29 2.10  56 2.13  54 2.13
 131  0.435  0.102  0.500-  30 2.10  29 2.13  27 2.13
 132  0.565  0.232  0.500-  62 2.10  27 2.13  29 2.13
 133  0.399  0.268  0.875-  31 2.10  40 2.13  34 2.13
 134  0.601  0.065  0.875-  31 2.10  50 2.13  56 2.13
 135  0.435  0.101  0.749-  32 2.10  31 2.13  29 2.13
 136  0.565  0.231  0.751-  64 2.10  29 2.13  31 2.14
 137  0.400  0.601  0.125-  33 2.10  44 2.13  42 2.13
 138  0.602  0.398  0.125-  33 2.10  60 2.13  58 2.13
 139  0.436  0.435  0.000-  34 2.10  33 2.13  39 2.13
 140  0.566  0.565  0.000-  66 2.11  33 2.13  39 2.13
 141  0.399  0.601  0.376-  35 2.10  44 2.12  46 2.13
 142  0.602  0.398  0.375-  35 2.10  62 2.13  60 2.13
 143  0.435  0.435  0.250-  36 2.10  35 2.13  33 2.13
 144  0.566  0.565  0.250-  68 2.11  33 2.13  35 2.13
 145  0.399  0.601  0.624-  37 2.10  48 2.12  46 2.13
 146  0.602  0.398  0.625-  37 2.10  62 2.13  64 2.13
 147  0.435  0.434  0.500-  38 2.11  35 2.13  37 2.13
 148  0.566  0.565  0.500-  70 2.10  37 2.13  35 2.13
 149  0.400  0.601  0.875-  39 2.10  48 2.13  42 2.13
 150  0.602  0.398  0.875-  39 2.10  64 2.13  58 2.13
 151  0.435  0.435  0.750-  40 2.10  37 2.13  39 2.13
 152  0.566  0.565  0.750-  72 2.11  39 2.13  37 2.13
 153  0.398  0.937  0.124-  41 2.11  28 2.13  26 2.14
 154  0.601  0.733  0.125-  41 2.11  66 2.13  68 2.13
 155  0.434  0.768  0.000-  42 2.10  41 2.13  47 2.13
 156  0.565  0.898  0.000-  50 2.10  47 2.13  41 2.13
 157  0.398  0.935  0.375-  43 2.10  28 2.13  30 2.13
 158  0.601  0.732  0.375-  43 2.10  68 2.13  70 2.13
 159  0.434  0.769  0.250-  44 2.11  41 2.13  43 2.13
 160  0.565  0.899  0.250-  52 2.10  43 2.13  41 2.13
 161  0.398  0.935  0.625-  45 2.10  32 2.13  30 2.13
 162  0.602  0.732  0.625-  45 2.10  72 2.13  70 2.13
 163  0.435  0.768  0.500-  46 2.10  43 2.13  45 2.13
 164  0.565  0.899  0.500-  54 2.10  45 2.13  43 2.13
 165  0.398  0.937  0.876-  47 2.11  32 2.13  26 2.14
 166  0.601  0.733  0.875-  47 2.11  66 2.13  72 2.13
 167  0.434  0.769  0.750-  48 2.11  47 2.13  45 2.13
 168  0.565  0.899  0.750-  56 2.10  45 2.13  47 2.13
 169  0.732  0.267  0.125-  49 2.11  58 2.13  60 2.13
 170  0.936  0.063  0.124-  49 2.11   4 2.13   2 2.14
 171  0.768  0.101  0.000-  50 2.10  49 2.13  55 2.13
 172  0.899  0.232  0.000-  10 2.10  55 2.13  49 2.13
 173  0.732  0.268  0.375-  51 2.10  60 2.13  62 2.13
 174  0.935  0.065  0.375-  51 2.10   4 2.13   6 2.13
 175  0.769  0.101  0.250-  52 2.10  51 2.13  49 2.13
 176  0.899  0.231  0.250-  12 2.11  49 2.13  51 2.13
 177  0.732  0.268  0.625-  53 2.10  64 2.13  62 2.13
 178  0.935  0.065  0.625-  53 2.10   8 2.13   6 2.13
 179  0.768  0.101  0.500-  54 2.10  51 2.13  53 2.13
 180  0.898  0.232  0.500-  14 2.10  53 2.13  51 2.13
 181  0.732  0.267  0.875-  55 2.11  58 2.13  64 2.13
 182  0.936  0.063  0.876-  55 2.11   8 2.13   2 2.14
 183  0.769  0.101  0.750-  56 2.10  53 2.13  55 2.13
 184  0.899  0.231  0.750-  16 2.11  55 2.13  53 2.13
 185  0.731  0.602  0.125-  57 2.10  68 2.13  66 2.13
 186  0.934  0.399  0.125-  57 2.10  12 2.13  10 2.13
 187  0.767  0.435  0.000-  58 2.11  63 2.13  57 2.13
 188  0.898  0.565  0.000-  18 2.10  57 2.13  63 2.13
 189  0.732  0.602  0.375-  59 2.10  70 2.13  68 2.13
 190  0.934  0.399  0.376-  59 2.10  12 2.12  14 2.13
 191  0.768  0.435  0.250-  60 2.11  57 2.13  59 2.13
 192  0.898  0.565  0.250-  20 2.10  59 2.13  57 2.13
 193  0.732  0.602  0.625-  61 2.10  70 2.13  72 2.13
 194  0.934  0.399  0.624-  61 2.10  16 2.12  14 2.13
 195  0.768  0.435  0.500-  62 2.10  61 2.13  59 2.13
 196  0.898  0.566  0.500-  22 2.11  59 2.13  61 2.13
 197  0.731  0.602  0.875-  63 2.10  72 2.13  66 2.13
 198  0.934  0.399  0.875-  63 2.10  16 2.13  10 2.13
 199  0.768  0.435  0.750-  64 2.11  63 2.13  61 2.13
 200  0.898  0.565  0.750-  24 2.10  61 2.13  63 2.13
 201  0.732  0.935  0.125-  65 2.10  50 2.13  52 2.13
 202  0.935  0.732  0.125-  65 2.10  20 2.13  18 2.13
 203  0.769  0.769  0.000-  66 2.11  65 2.13  71 2.13
 204  0.902  0.899  0.000-   2 2.12  71 2.14  65 2.14
 205  0.732  0.935  0.375-  67 2.10  52 2.13  54 2.13
 206  0.935  0.732  0.375-  67 2.10  22 2.13  20 2.13
 207  0.768  0.769  0.249-  68 2.10  67 2.13  65 2.14
 208  0.899  0.899  0.251-   4 2.10  65 2.13  67 2.13
 209  0.732  0.935  0.625-  69 2.10  56 2.13  54 2.13
 210  0.935  0.732  0.625-  69 2.10  22 2.13  24 2.13
 211  0.768  0.768  0.500-  70 2.10  67 2.13  69 2.13
 212  0.898  0.898  0.500-   6 2.10  69 2.13  67 2.13
 213  0.732  0.935  0.875-  71 2.10  50 2.13  56 2.13
 214  0.935  0.732  0.875-  71 2.10  24 2.13  18 2.13
 215  0.768  0.769  0.751-  72 2.10  69 2.13  71 2.14
 216  0.899  0.899  0.749-   8 2.10  71 2.13  69 2.13
 217  0.167  1.000  0.000-
 

IMPORTANT INFORMATION: All symmetrisations will be switched off!
NOSYMM: (Re-)initialisation of all symmetry stuff for point group C_1.

 
 
 KPOINTS: KPOINTS created by Atomic Simulation Env

Automatic generation of k-mesh.
Space group operators:
 irot       det(A)        alpha          n_x          n_y          n_z        tau_x        tau_y        tau_z
    1     1.000000     0.000000     1.000000     0.000000     0.000000     0.000000     0.000000     0.000000
 
 Subroutine IBZKPT returns following result:
 ===========================================
 
 Found      4 irreducible k-points:
 
 Following reciprocal coordinates:
            Coordinates               Weight
  0.250000  0.250000  0.250000      2.000000
 -0.250000  0.250000  0.250000      2.000000
  0.250000 -0.250000  0.250000      2.000000
 -0.250000 -0.250000  0.250000      2.000000
 
 Following cartesian coordinates:
            Coordinates               Weight
  0.017066  0.017066  0.018935      2.000000
 -0.017066  0.017066  0.018935      2.000000
  0.017066 -0.017066  0.018935      2.000000
 -0.017066 -0.017066  0.018935      2.000000
 


--------------------------------------------------------------------------------------------------------




 Dimension of arrays:
   k-points           NKPTS =      4   k-points in BZ     NKDIM =      4   number of bands    NBANDS=   1168
   number of dos      NEDOS =    301   number of ions     NIONS =    217
   non local maximal  LDIM  =      6   non local SUM 2l+1 LMDIM =     18
   total plane-waves  NPLWV = 829440
   max r-space proj   IRMAX =      1   max aug-charges    IRDMAX=  71248
   dimension x,y,z NGX =    96 NGY =   96 NGZ =   90
   dimension x,y,z NGXF=   192 NGYF=  192 NGZF=  180
   support grid    NGXF=   384 NGYF=  384 NGZF=  360
   ions per type =              72 144   1
   NGX,Y,Z   is equivalent  to a cutoff of  10.89, 10.89, 11.33 a.u.
   NGXF,Y,Z  is equivalent  to a cutoff of  21.79, 21.79, 22.66 a.u.

 SYSTEM =  unknown system                          
 POSCAR =  Mn  F  H                                

 Startparameter for this run:
   NWRITE =      2    write-flag & timer
   PREC   = normal    normal or accurate (medium, high low for compatibility)
   ISTART =      1    job   : 0-new  1-cont  2-samecut
   ICHARG =      1    charge: 1-file 2-atom 10-const
   ISPIN  =      2    spin polarized calculation?
   LNONCOLLINEAR =      F non collinear calculations
   LSORBIT =      F    spin-orbit coupling
   INIWAV =      1    electr: 0-lowe 1-rand  2-diag
   LASPH  =      T    aspherical Exc in radial PAW
   METAGGA=      F    non-selfconsistent MetaGGA calc.

 Electronic Relaxation 1
   ENCUT  =  700.0 eV  51.45 Ry    7.17 a.u.  31.60 31.60 28.48*2*pi/ulx,y,z
   ENINI  =  700.0     initial cutoff
   ENAUG  =  613.6 eV  augmentation charge cutoff
   NELM   =     60;   NELMIN=  2; NELMDL=  0     # of ELM steps 
   EDIFF  = 0.1E-06   stopping-criterion for ELM
   LREAL  =      F    real-space projection
   NLSPLINE    = F    spline interpolate recip. space projectors
   LCOMPAT=      F    compatible to vasp.4.4
   GGA_COMPAT  = T    GGA compatible to vasp.4.4-vasp.4.6
   LMAXPAW     = -100 max onsite density
   LMAXMIX     =    4 max onsite mixed and CHGCAR
   VOSKOWN=      0    Vosko Wilk Nusair interpolation
   ROPT   =    0.00000   0.00000   0.00000
 Ionic relaxation
   EDIFFG = -.5E-02   stopping-criterion for IOM
   NSW    =      0    number of steps for IOM
   NBLOCK =      1;   KBLOCK =      1    inner block; outer block 
   IBRION =     -1    ionic relax: 0-MD 1-quasi-New 2-CG
   NFREE  =      0    steps in history (QN), initial steepest desc. (CG)
   ISIF   =      2    stress and relaxation
   IWAVPR =     10    prediction:  0-non 1-charg 2-wave 3-comb
   ISYM   =      0    0-nonsym 1-usesym 2-fastsym
   LCORR  =      T    Harris-Foulkes like correction to forces

   POTIM  = 0.5000    time-step for ionic-motion
   TEIN   =    0.0    initial temperature
   TEBEG  =    0.0;   TEEND  =   0.0 temperature during run
   SMASS  =  -3.00    Nose mass-parameter (am)
   estimated Nose-frequenzy (Omega)   =  0.10E-29 period in steps =****** mass=  -0.490E-26a.u.
   SCALEE = 1.0000    scale energy and forces
   NPACO  =    256;   APACO  = 16.0  distance and # of slots for P.C.
   PSTRESS=    0.0 pullay stress

  Mass of Ions in am
   POMASS =  54.94 19.00  1.00
  Ionic Valenz
   ZVAL   =  13.00  7.00  1.00
  Atomic Wigner-Seitz radii
   RWIGS  =  -1.00 -1.00 -1.00
  virtual crystal weights 
   VCA    =   1.00  1.00  1.00
   NELECT =    1945.0000    total number of electrons
   NUPDOWN=      -1.0000    fix difference up-down

 DOS related values:
   EMIN   =  10.00;   EMAX   =-10.00  energy-range for DOS
   EFERMI =   0.00
   ISMEAR =     0;   SIGMA  =   0.01  broadening in eV -4-tet -1-fermi 0-gaus

 Electronic relaxation 2 (details)
   IALGO  =     68    algorithm
   LDIAG  =      T    sub-space diagonalisation (order eigenvalues)
   LSUBROT=      F    optimize rotation matrix (better conditioning)
   TURBO    =      0    0=normal 1=particle mesh
   IRESTART =      0    0=no restart 2=restart with 2 vectors
   NREBOOT  =      0    no. of reboots
   NMIN     =      0    reboot dimension
   EREF     =   0.00    reference energy to select bands
   IMIX   =      4    mixing-type and parameters
     AMIX     =   0.40;   BMIX     =  1.00
     AMIX_MAG =   1.60;   BMIX_MAG =  1.00
     AMIN     =   0.10
     WC   =   100.;   INIMIX=   1;  MIXPRE=   1;  MAXMIX= -45

 Intra band minimization:
   WEIMIN = 0.0000     energy-eigenvalue tresh-hold
   EBREAK =  0.21E-10  absolut break condition
   DEPER  =   0.30     relativ break condition  

   TIME   =   0.40     timestep for ELM

  volume/ion in A,a.u.               =      13.06        88.12
  Fermi-wavevector in a.u.,A,eV,Ry     =   1.444135  2.729020 28.375312  2.085527
  Thomas-Fermi vector in A             =   2.562464
 
 Write flags
   LWAVE        =      T    write WAVECAR
   LDOWNSAMPLE  =      F    k-point downsampling of WAVECAR
   LCHARG       =      T    write CHGCAR
   LVTOT        =      F    write LOCPOT, total local potential
   LVHAR        =      F    write LOCPOT, Hartree potential only
   LELF         =      F    write electronic localiz. function (ELF)
   LORBIT       =     11    0 simple, 1 ext, 2 COOP (PROOUT), +10 PAW based schemes


 Dipole corrections
   LMONO  =      F    monopole corrections only (constant potential shift)
   LDIPOL =      F    correct potential (dipole corrections)
   IDIPOL =      0    1-x, 2-y, 3-z, 4-all directions 
   EPSILON=  1.0000000 bulk dielectric constant

 LDA+U is selected, type is set to LDAUTYPE =  2
   angular momentum for each species LDAUL =     2   -1   -1
   U (eV)           for each species LDAUU =   4.0  0.0  0.0
   J (eV)           for each species LDAUJ =   0.0  0.0  0.0
 Exchange correlation treatment:
   GGA     =    PS    GGA type
   LEXCH   =    14    internal setting for exchange type
   VOSKOWN=      0    Vosko Wilk Nusair interpolation
   LHFCALC =     F    Hartree Fock is set to
   LHFONE  =     F    Hartree Fock one center treatment
   AEXX    =    0.0000 exact exchange contribution

 Linear response parameters
   LEPSILON=     F    determine dielectric tensor
   LRPA    =     F    only Hartree local field effects (RPA)
   LNABLA  =     F    use nabla operator in PAW spheres
   LVEL    =     F    velocity operator in full k-point grid
   LINTERFAST=   F  fast interpolation
   KINTER  =     0    interpolate to denser k-point grid
   CSHIFT  =0.1000    complex shift for real part using Kramers Kronig
   OMEGAMAX=  -1.0    maximum frequency
   DEG_THRESHOLD= 0.2000000E-02 threshold for treating states as degnerate
   RTIME   =   -0.100 relaxation time in fs
  (WPLASMAI=    0.000 imaginary part of plasma frequency in eV, 0.658/RTIME)
   DFIELD  = 0.0000000 0.0000000 0.0000000 field for delta impulse in time
 
 Orbital magnetization related:
   ORBITALMAG=     F  switch on orbital magnetization
   LCHIMAG   =     F  perturbation theory with respect to B field
   DQ        =  0.001000  dq finite difference perturbation B field
   LLRAUG    =     F  two centre corrections for induced B field



--------------------------------------------------------------------------------------------------------


 Static calculation
 charge density and potential will be updated during run
 spin polarized calculation
 RMM-DIIS sequential band-by-band and
  variant of blocked Davidson during initial phase
 perform sub-space diagonalisation
    before iterative eigenvector-optimisation
 modified Broyden-mixing scheme, WC =      100.0
 initial mixing is a Kerker type mixing with AMIX =  0.4000 and BMIX =      1.0000
 Hartree-type preconditioning will be used
 using additional bands          195
 reciprocal scheme for non local part
 use partial core corrections
 calculate Harris-corrections to forces 
   (improved forces if not selfconsistent)
 use gradient corrections 
 use of overlap-Matrix (Vanderbilt PP)
 Gauss-broadening in eV      SIGMA  =   0.01


--------------------------------------------------------------------------------------------------------


  energy-cutoff  :      700.00
  volume of cell :     2833.48
      direct lattice vectors                 reciprocal lattice vectors
    14.649432430  0.000000000  0.000000000     0.068262030  0.000000000  0.000000000
     0.000000000 14.649432430  0.000000000     0.000000000  0.068262030  0.000000000
     0.000000000  0.000000000 13.203190708     0.000000000  0.000000000  0.075739268

  length of vectors
    14.649432430 14.649432430 13.203190708     0.068262030  0.068262030  0.075739268


 
 old parameters found on file WAVECAR:
  energy-cutoff  :      700.00
  volume of cell :     2833.48
      direct lattice vectors                 reciprocal lattice vectors
    14.649432430  0.000000000  0.000000000     0.068262030  0.000000000  0.000000000
     0.000000000 14.649432430  0.000000000     0.000000000  0.068262030  0.000000000
     0.000000000  0.000000000 13.203190708     0.000000000  0.000000000  0.075739268

  length of vectors

 
 k-points in units of 2pi/SCALE and weight: KPOINTS created by Atomic Simulation Env
   0.01706551  0.01706551  0.01893482       0.250
  -0.01706551  0.01706551  0.01893482       0.250
   0.01706551 -0.01706551  0.01893482       0.250
  -0.01706551 -0.01706551  0.01893482       0.250
 
 k-points in reciprocal lattice and weights: KPOINTS created by Atomic Simulation Env
   0.25000000  0.25000000  0.25000000       0.250
  -0.25000000  0.25000000  0.25000000       0.250
   0.25000000 -0.25000000  0.25000000       0.250
  -0.25000000 -0.25000000  0.25000000       0.250
 
 position of ions in fractional coordinates (direct lattice) 
   0.16619031  0.16997944  0.12579155
   0.00571683  0.99975140  0.00002961
   0.16626166  0.16667082  0.37510067
   0.00009972  0.00015629  0.25038411
   0.16626368  0.16669011  0.62493770
   0.00005917  0.99956862  0.50002734
   0.16618141  0.16997193  0.87425050
   0.00010836  0.00016392  0.74966826
   0.16668350  0.49993904  0.12516820
   0.99991167  0.33365424  0.00001617
   0.16668560  0.49993829  0.37528459
   0.99894345  0.33467717  0.25056503
   0.16668465  0.49994137  0.62476484
   0.99998500  0.33310657  0.50001662
   0.16668664  0.49994791  0.87488354
   0.99893827  0.33469332  0.74946990
   0.16718917  0.82991785  0.12580809
   0.99926562  0.66626067  0.00001997
   0.16713338  0.83322789  0.37511283
   0.99965743  0.66608524  0.25020445
   0.16712211  0.83321250  0.62494655
   0.99991244  0.66680407  0.50001388
   0.16719542  0.82992621  0.87425518
   0.99965395  0.66608180  0.74983205
   0.49879794  0.16550459  0.12464498
   0.32761410  0.00014918  0.00003818
   0.50028065  0.16677395  0.37491464
   0.33329030  0.99974540  0.25039392
   0.50027535  0.16676682  0.62512693
   0.33333348  0.00033029  0.50003927
   0.49878910  0.16549391  0.87540253
   0.33327888  0.99973705  0.74967333
   0.50108473  0.50000072  0.12489112
   0.33412663  0.33364249  0.00002337
   0.50059074  0.49959159  0.37506831
   0.33372609  0.33381581  0.25020326
   0.50059618  0.49959138  0.62497622
   0.33347458  0.33309493  0.50002216
   0.50108112  0.49999490  0.87515310
   0.33372639  0.33381446  0.74984424
   0.49893340  0.83425729  0.12474844
   0.33344846  0.66623795  0.00003060
   0.49993246  0.83337541  0.37494352
   0.33442842  0.66519447  0.25058282
   0.49995047  0.83337924  0.62512465
   0.33338979  0.66677761  0.50003321
   0.49893164  0.83426129  0.87531626
   0.33443443  0.66519955  0.74947984
   0.83442615  0.16562403  0.12472361
   0.66668874  0.99992927  0.00002118
   0.83343439  0.16650947  0.37491820
   0.66667607  0.99994459  0.24984425
   0.83343105  0.16651136  0.62510082
   0.66668531  0.99994953  0.50002216
   0.83443030  0.16563030  0.87529341
   0.66668528  0.99995020  0.75020107
   0.83230402  0.49991314  0.12488317
   0.66678680  0.33184393  0.00001296
   0.83279831  0.50030619  0.37506549
   0.66680980  0.33247563  0.24967408
   0.83278940  0.50030603  0.62497030
   0.66680650  0.33317196  0.50001135
   0.83229539  0.49990852  0.87514935
   0.66679703  0.33246057  0.75035124
   0.83458266  0.83438519  0.12465286
   0.66658567  0.66806528  0.00002742
   0.83309982  0.83313941  0.37492097
   0.66658257  0.66742843  0.24969368
   0.83310874  0.83314124  0.62512753
   0.66657194  0.66673432  0.50002468
   0.83459432  0.83439134  0.87539640
   0.66658922  0.66743072  0.75036433
   0.06660444  0.27262341  0.12662825
   0.26689484  0.06660840  0.12704247
   0.08932794  0.11856860  0.00002295
   0.23357577  0.23104350  0.00001609
   0.06474082  0.26828605  0.37483434
   0.26768926  0.06487064  0.37499758
   0.10113024  0.10237002  0.24927722
   0.23202266  0.23245014  0.25108810
   0.06474683  0.26830902  0.62520510
   0.26767614  0.06486938  0.62507204
   0.10129826  0.10148352  0.50002536
   0.23170970  0.23160127  0.50001492
   0.06660473  0.27262952  0.87340011
   0.26685419  0.06656796  0.87303171
   0.10110059  0.10240974  0.75075072
   0.23203280  0.23244133  0.74896544
   0.06543976  0.60196210  0.12494272
   0.26793522  0.39792412  0.12494246
   0.10096651  0.43575975  0.00002259
   0.23240287  0.56412562  0.00002904
   0.06500827  0.60143545  0.37529782
   0.26837491  0.39845506  0.37530518
   0.10066884  0.43605624  0.25049201
   0.23270876  0.56381089  0.25049675
   0.06501367  0.60144631  0.62473366
   0.26836272  0.39844441  0.62474271
   0.10164355  0.43448541  0.50002223
   0.23173175  0.56539500  0.50002651
   0.06543072  0.60195759  0.87509794
   0.26795175  0.39794517  0.87510421
   0.10066163  0.43607470  0.74955876
   0.23269879  0.56382952  0.74955291
   0.06650624  0.93331466  0.12701666
   0.26674525  0.72724204  0.12665575
   0.09979898  0.76886829  0.00002414
   0.24405713  0.88129524  0.00003841
   0.06570848  0.93503388  0.37498461
   0.26864027  0.73159875  0.37485105
   0.10135921  0.76745081  0.25110592
   0.23226722  0.89752027  0.24928835
   0.06570936  0.93503207  0.62507042
   0.26863912  0.73159425  0.62521409
   0.10167507  0.76830001  0.50002221
   0.23207625  0.89842986  0.50003778
   0.06655843  0.93336938  0.87304805
   0.26675896  0.72725575  0.87340764
   0.10134949  0.76745530  0.74896387
   0.23227597  0.89749771  0.75076169
   0.39850292  0.26821642  0.12532860
   0.60102710  0.06468517  0.12486445
   0.43164704  0.10100753  0.00002774
   0.56449035  0.23068513  0.00001959
   0.39878493  0.26828922  0.37500710
   0.60179095  0.06522290  0.37492282
   0.43458779  0.10127309  0.25056703
   0.56495493  0.23122619  0.24928355
   0.39878225  0.26828638  0.62503579
   0.60179546  0.06522429  0.62512075
   0.43498047  0.10164030  0.50002209
   0.56532746  0.23170459  0.50001803
   0.39850255  0.26821543  0.87471990
   0.60102062  0.06467691  0.87517980
   0.43456879  0.10127093  0.74948185
   0.56495019  0.23120211  0.75075918
   0.39953254  0.60125653  0.12478361
   0.60193904  0.39785072  0.12477581
   0.43568570  0.43477160  0.00002722
   0.56594124  0.56541087  0.00002036
   0.39918930  0.60119108  0.37578641
   0.60171247  0.39785583  0.37469947
   0.43523584  0.43514647  0.24983529
   0.56552252  0.56527584  0.25021146
   0.39920178  0.60119765  0.62427819
   0.60169737  0.39783699  0.62532848
   0.43541425  0.43437878  0.50002227
   0.56574941  0.56468305  0.50002192
   0.39953119  0.60125202  0.87527425
   0.60191794  0.39782884  0.87525153
   0.43522636  0.43515315  0.75020313
   0.56554710  0.56525374  0.74983737
   0.39761062  0.93661171  0.12409835
   0.60103314  0.73265716  0.12502439
   0.43444875  0.76817761  0.00003297
   0.56513441  0.89842469  0.00002932
   0.39829802  0.93477115  0.37525916
   0.60149977  0.73204736  0.37500640
   0.43441931  0.76855983  0.24977234
   0.56458865  0.89885972  0.24983102
   0.39831254  0.93477589  0.62481326
   0.60152389  0.73205860  0.62505204
   0.43504755  0.76817917  0.50004071
   0.56499255  0.89859400  0.50002809
   0.39759903  0.93660632  0.87597179
   0.60102619  0.73265194  0.87503209
   0.43443629  0.76855602  0.75028955
   0.56460217  0.89886236  0.75023945
   0.73235681  0.26725154  0.12499879
   0.93575964  0.06328437  0.12409547
   0.76825351  0.10142840  0.00000930
   0.89891158  0.23171067  0.00000878
   0.73187415  0.26784695  0.37499320
   0.93507580  0.06511688  0.37524808
   0.76876408  0.10103136  0.24980665
   0.89895781  0.23130768  0.24974555
   0.73185280  0.26782994  0.62502805
   0.93506838  0.06511323  0.62480111
   0.76838334  0.10129947  0.50000874
   0.89832965  0.23170758  0.50001358
   0.73234566  0.26724302  0.87502703
   0.93575488  0.06328077  0.87595212
   0.76876859  0.10103673  0.75021681
   0.89893956  0.23133543  0.75026939
   0.73144822  0.60206156  0.12478660
   0.93384856  0.39864716  0.12477418
   0.76742812  0.43450644  0.00001741
   0.89769059  0.56514781  0.00001532
   0.73168862  0.60205855  0.37472084
   0.93418456  0.39868734  0.37576414
   0.76786488  0.43463469  0.25020174
   0.89815331  0.56475332  0.24983525
   0.73168233  0.60205465  0.62532859
   0.93418225  0.39869755  0.62426460
   0.76763717  0.43521295  0.50001705
   0.89798567  0.56550588  0.50001748
   0.73144857  0.60206155  0.87526753
   0.93384798  0.39865454  0.87526564
   0.76786085  0.43461694  0.74983211
   0.89813812  0.56475957  0.75020101
   0.73232894  0.93517880  0.12487892
   0.93489523  0.73169169  0.12532990
   0.76889993  0.76920302  0.00001937
   0.90173313  0.89886719  0.00002869
   0.73157923  0.93468249  0.37492145
   0.93459084  0.73161210  0.37500942
   0.76844074  0.76867110  0.24929827
   0.89878603  0.89864336  0.25056485
   0.73158513  0.93468212  0.62512485
   0.93458736  0.73160306  0.62502260
   0.76802443  0.76823039  0.50002475
   0.89841507  0.89825527  0.50002135
   0.73235816  0.93520193  0.87516483
   0.93490849  0.73170172  0.87471169
   0.76845026  0.76867573  0.75075425
   0.89881876  0.89862881  0.74948381
   0.16676201  0.99998255  0.00012802
 
 position of ions in cartesian coordinates  (Angst):
   2.43459371  2.49010231  1.66084986
   0.08374829 14.64579053  0.00039100
   2.43563900  2.44163298  4.95252574
   0.00146091  0.00228961  3.30586914
   2.43566859  2.44191553  8.25117166
   0.00086680 14.64311299  6.60195631
   2.43446328  2.48999236 11.54289603
   0.00158748  0.00240140  9.89801304
   2.44181862  7.32382326  1.65261966
  14.64813842  4.88784530  0.00021356
   2.44184941  7.32381217  4.95495400
  14.63395464  4.90283061  3.30825781
   2.44183555  7.32385734  8.24888935
  14.64921263  4.87982218  6.60181476
   2.44186463  7.32395314 11.55125425
  14.63387864  4.90306724  9.89539408
   2.44922648 12.15782547  1.66106819
  14.63867417  9.76034061  0.00026366
   2.44840918 12.20631564  4.95268628
  14.64441401  9.75777078  3.30349709
   2.44824408 12.20609016  8.25128848
  14.64814980  9.76830110  6.60177865
   2.44931799 12.15794791 11.54295792
  14.64436303  9.75772027  9.90017555
   7.30710671  2.42454828  1.64571146
   4.79936069  0.00218537  0.00050411
   7.32882756  2.44314367  4.95006943
   4.88251374 14.64570265  3.30599862
   7.32874988  2.44303932  8.25367002
   4.88314630  0.00483851  6.60211378
   7.30697719  2.42439187 11.55810656
   4.88234642 14.64558036  9.89807991
   7.34060687  7.32472675  1.64896127
   4.89476547  4.88767315  0.00030853
   7.33337016  7.31873319  4.95209847
   4.88889783  4.89021209  3.30348140
   7.33344994  7.31873022  8.25168024
   4.88521334  4.87965170  6.60188793
   7.34055404  7.32464144 11.55481327
   4.88890213  4.89019240  9.90033656
   7.30909115 12.22139585  1.64707740
   4.88483071  9.76000790  0.00040406
   7.32372683 12.20847669  4.95045082
   4.89918651  9.74472140  3.30849282
   7.32399069 12.20853280  8.25363996
   4.88397119  9.76791358  6.60203388
   7.30906538 12.22145444 11.55696758
   4.89927464  9.74479589  9.89552529
  12.22386955  2.42629797  1.64674963
   9.76661162 14.64839625  0.00027962
  12.20934075  2.43926924  4.95011643
   9.76642609 14.64862068  3.29874124
  12.20929183  2.43929696  8.25332538
   9.76656138 14.64869306  6.60188791
  12.22393030  2.42638989 11.55666583
   9.76656089 14.64870292  9.90504775
  12.19278154  7.32344377  1.64885633
   9.76804820  4.86132526  0.00017106
  12.20002263  7.32920174  4.95206113
   9.76838512  4.87057935  3.29649443
  12.19989198  7.32919944  8.25160211
   9.76833680  4.88078005  6.60174521
  12.19265512  7.32337608 11.55476374
   9.76819798  4.87035859  9.90703046
  12.22616223 12.22326944  1.64581544
   9.76510173  9.78677720  0.00036209
  12.20443956 12.20501950  4.95015306
   9.76505631  9.77744770  3.29675324
  12.20457017 12.20504634  8.25367797
   9.76490067  9.76727932  6.60192116
  12.22633304 12.22335958 11.55802563
   9.76515377  9.77748131  9.90720338
   0.97571731  3.99377826  1.67189696
   3.90985787  0.97577528  1.67736594
   1.30860368  1.73696269  0.00030305
   3.42175250  3.38465621  0.00021237
   0.94841631  3.93023835  4.94900923
   3.92149576  0.95031803  4.95116456
   1.48150059  1.49966276  3.29125462
   3.39900034  3.40526259  3.31516406
   0.94850426  3.93057488  8.25470211
   3.92130347  0.95029966  8.25294532
   1.48396208  1.48667601  6.60193024
   3.39441556  3.39282722  6.60179229
   0.97572145  3.99386776 11.53166821
   3.90926237  0.97518287 11.52680413
   1.48106624  1.50024450  9.91230496
   3.39914881  3.40513352  9.88873353
   0.95865534  8.81840307  1.64964250
   3.92509889  5.82936255  1.64963917
   1.47910200  6.38363303  0.00029828
   3.40457012  8.26412018  0.00038347
   0.95233433  8.81068805  4.95512869
   3.93154010  5.83714048  4.95522583
   1.47474131  6.38797647  3.30729374
   3.40905124  8.25950959  3.30735630
   0.95241330  8.81084711  8.24847771
   3.93136156  5.83698445  8.24859712
   1.48902029  6.36496465  6.60188890
   3.39473867  8.28271579  6.60194543
   0.95852290  8.81833700 11.55408500
   3.92534102  5.82967094 11.55416778
   1.47463577  6.38824692  9.89656721
   3.40890514  8.25978238  9.89649007
   0.97427865 13.67253003  1.67702513
   3.90766650 10.65368315  1.67226005
   1.46199839 11.26348405  0.00031869
   3.57529843 12.91047506  0.00050718
   0.96259187 13.69771563  4.95099326
   3.93542748 10.71750651  4.94922996
   1.48485483 11.24271877  3.31539935
   3.40258293 13.14816257  3.29140156
   0.96260476 13.69768920  8.25292394
   3.93541059 10.71744052  8.25482089
   1.48948207 11.25515908  6.60188861
   3.39978531 13.16148751  6.60209421
   0.97504322 13.67333161 11.52701991
   3.90786743 10.65388398 11.53176764
   1.48471250 11.24278456  9.88871285
   3.40271111 13.14783204  9.91244975
   5.83784163  3.92921830  1.65473745
   8.80470585  0.94760109  1.64860915
   6.32338421  1.47970300  0.00036626
   8.26946326  3.37940623  0.00025868
   5.84197294  3.93028486  4.95129030
   8.81589581  0.95547844  4.95017754
   6.36646445  1.48359331  3.30828428
   8.27626901  3.38733248  3.29133831
   5.84193361  3.93024323  8.25246672
   8.81596199  0.95549887  8.25358854
   6.37221699  1.48897273  6.60188703
   8.28172645  3.39434080  6.60183344
   5.83783625  3.92920384 11.54909367
   8.80461099  0.94748004 11.55516585
   6.36618620  1.48356164  9.89555179
   8.27619957  3.38697962  9.91241669
   5.85292490  8.80806689  1.64754186
   8.81806525  5.82828717  1.64743881
   6.38254824  6.36915724  0.00035933
   8.29071792  8.28294833  0.00026887
   5.84789663  8.80710817  4.96157963
   8.81474620  5.82836212  4.94722851
   6.37595796  6.37464885  3.29862298
   8.28458400  8.28097016  3.30358959
   5.84807952  8.80720436  8.24246397
   8.81452504  5.82808605  8.25633124
   6.37857161  6.36340259  6.60188943
   8.28790770  8.27228621  6.60188478
   5.85290518  8.80800083 11.55641281
   8.81775625  5.82796669 11.55611281
   6.37581918  6.37474664  9.90507495
   8.28494408  8.28064651  9.90024578
   5.82476995 13.72082999  1.63849415
   8.80479436 10.73301161  1.65072091
   6.36442760 11.25336606  0.00043531
   8.27889829 13.16141181  0.00038707
   5.83483999 13.69386685  4.95461820
   8.81163018 10.72407839  4.95128099
   6.36399639 11.25896528  3.29779185
   8.27090326 13.16778472  3.29856654
   5.83505263 13.69393628  8.24952860
   8.81198354 10.72424303  8.25268131
   6.37319975 11.25338890  6.60213292
   8.27682016 13.16389210  6.60196617
   5.82460009 13.72075097 11.56562254
   8.80469253 10.73293511 11.55321551
   6.36424509 11.25890941  9.90621597
   8.27110138 13.16782340  9.90555447
  10.72861163  3.91508341  1.65038282
  13.70834759  0.92708010  1.63845615
  11.25447781  1.48586846  0.00012281
  13.16854446  3.39442980  0.00011597
  10.72154091  3.92380579  4.95110669
  13.69832971  0.95392532  4.95447202
  11.26195741  1.48005211  3.29824482
  13.16922169  3.38852624  3.29743813
  10.72122821  3.92355658  8.25236457
  13.69822105  0.95387182  8.24936828
  11.25637979  1.48397967  6.60171075
  13.16001954  3.39438454  6.60177472
  10.72844831  3.91495856 11.55314880
  13.70827790  0.92702735 11.56536290
  11.26202355  1.48013076  9.90525557
  13.16895436  3.38893268  9.90594984
  10.71530124  8.81986018  1.64758124
  13.68035144  5.83995456  1.64741727
  11.24238645  6.36527266  0.00022983
  13.15065770  8.27909465  0.00020221
  10.71882296  8.81981607  4.94751074
  13.68527365  5.84054320  4.96128561
  11.24878466  6.36715153  3.30346134
  13.15743622  8.27331554  3.29862244
  10.71873093  8.81975896  8.25633260
  13.68523973  5.84069280  8.24228452
  11.24544890  6.37562276  6.60182053
  13.15498041  8.28434024  6.60182613
  10.71530641  8.81985997 11.55632408
  13.68034281  5.84006268 11.55629921
  11.24872560  6.36689145  9.90017635
  13.15721376  8.27340719  9.90504706
  10.72820332 13.69983864  1.64880019
  13.69568445 10.71886792  1.65475458
  11.26394755 11.26838766  0.00025575
  13.20987860 13.16789412  0.00037884
  10.71722048 13.69256803  4.95015940
  13.69122540 10.71770196  4.95132087
  11.25722063 11.26059538  3.29153259
  13.16670524 13.16461524  3.30825555
  10.71730698 13.69256258  8.25364256
  13.69117435 10.71756953  8.25229254
  11.25112202 11.25413916  6.60192208
  13.16127090 13.15892988  6.60187722
  10.72863143 13.70017755 11.55496816
  13.69587878 10.71901495 11.54898526
  11.25736013 11.26066322  9.91235148
  13.16718463 13.16440204  9.89557762
   2.44296886 14.64917678  0.00169021
 


--------------------------------------------------------------------------------------------------------


 k-point  1 :   0.2500 0.2500 0.2500  plane waves:  119170
 k-point  2 :  -0.2500 0.2500 0.2500  plane waves:  119170
 k-point  3 :   0.2500-0.2500 0.2500  plane waves:  119170
 k-point  4 :  -0.2500-0.2500 0.2500  plane waves:  119170

 maximum and minimum number of plane-waves per node :      9968     9893

 maximum number of plane-waves:    119170
 maximum index in each direction: 
   IXMAX=   31   IYMAX=   31   IZMAX=   28
   IXMIN=  -31   IYMIN=  -31   IZMIN=  -28


 parallel 3D FFT for wavefunctions:
    minimum data exchange during FFTs selected (reduces bandwidth)
 parallel 3D FFT for charge:
    minimum data exchange during FFTs selected (reduces bandwidth)


 total amount of memory used by VASP MPI-rank0   501409. kBytes
=======================================================================

   base      :      30000. kBytes
   nonl-proj :      51625. kBytes
   fftplans  :      22373. kBytes
   grid      :      17829. kBytes
   one-center:        590. kBytes
   wavefun   :     378992. kBytes
 
     INWAV:  cpu time   67.8196: real time   67.9000
 Broyden mixing: mesh for mixing (old mesh)
   NGX = 63   NGY = 63   NGZ = 57
  (NGX  =192   NGY  =192   NGZ  =180)
  gives a total of 226233 points

 initial charge density was supplied:
 number of electron    1945.0000041 magnetization       1.0001108
 keeping initial charge density in first step


--------------------------------------------------------------------------------------------------------


 Maximum index for augmentation-charges         2066 (set IRDMAX)


--------------------------------------------------------------------------------------------------------


 First call to EWALD:  gamma=   0.125
 Maximum number of real-space cells 3x 3x 3
 Maximum number of reciprocal cells 3x 3x 3

    FEWALD:  cpu time    0.0149: real time    0.0149


--------------------------------------- Iteration      1(   1)  ---------------------------------------


    POTLOK:  cpu time    0.2166: real time    0.2435
    SETDIJ:  cpu time    4.8697: real time    4.8699
atom =   1  type =  1  l = 2
 
 onsite density matrix
 
spin component  1
 
  0.9697 -0.0009  0.0193  0.0002  0.0015
 -0.0009  0.9621 -0.0002  0.0171  0.0012
  0.0193 -0.0002  0.9586  0.0005  0.0006
  0.0002  0.0171  0.0005  0.9665  0.0008
  0.0015  0.0012  0.0006  0.0008  0.9475
 
spin component  2
 
  0.0457 -0.0009  0.0253  0.0001  0.0016
 -0.0009  0.0352 -0.0005  0.0215  0.0011
  0.0253 -0.0005  0.0322  0.0007  0.0013
  0.0001  0.0215  0.0007  0.0404  0.0012
  0.0016  0.0011  0.0013  0.0012  0.0140
 
 occupancies and eigenvectors
 
  o =  0.0127  v =  0.0000  0.0000  0.0000  0.0000  0.0000 -0.6064  0.0433  0.7920 -0.0518 -0.0211      0.0000  0.0000  0.0000  0.0000  0.0000  0.0000  0.0000  0.0000  0.0000  0.0000
  o =  0.0139  v =  0.0000  0.0000  0.0000  0.0000  0.0000 -0.0461 -0.0432 -0.0070 -0.0101  0.9979      0.0000  0.0000  0.0000  0.0000  0.0000  0.0000  0.0000  0.0000  0.0000  0.0000
  o =  0.0161  v =  0.0000  0.0000  0.0000  0.0000  0.0000 -0.0571 -0.7461  0.0395  0.6616 -0.0280      0.0000  0.0000  0.0000  0.0000  0.0000  0.0000  0.0000  0.0000  0.0000  0.0000
  o =  0.0595  v =  0.0000  0.0000  0.0000  0.0000  0.0000  0.0294  0.6613  0.0363  0.7477  0.0378      0.0000  0.0000  0.0000  0.0000  0.0000  0.0000  0.0000  0.0000  0.0000  0.0000
  o =  0.0653  v =  0.0000  0.0000  0.0000  0.0000  0.0000 -0.7912  0.0478 -0.6081  0.0203 -0.0385      0.0000  0.0000  0.0000  0.0000  0.0000  0.0000  0.0000  0.0000  0.0000  0.0000
  o =  0.9440  v = -0.6006 -0.0361  0.7888  0.0099  0.1251  0.0000  0.0000  0.0000  0.0000  0.0000      0.0000  0.0000  0.0000  0.0000  0.0000  0.0000  0.0000  0.0000  0.0000  0.0000
  o =  0.9469  v =  0.0228 -0.6542 -0.1003  0.5494  0.5095  0.0000  0.0000  0.0000  0.0000  0.0000      0.0000  0.0000  0.0000  0.0000  0.0000  0.0000  0.0000  0.0000  0.0000  0.0000
  o =  0.9476  v = -0.0360 -0.3670  0.0858  0.3679 -0.8493  0.0000  0.0000  0.0000  0.0000  0.0000      0.0000  0.0000  0.0000  0.0000  0.0000  0.0000  0.0000  0.0000  0.0000  0.0000
  o =  0.9816  v =  0.0430  0.6576  0.0465  0.7494  0.0434  0.0000  0.0000  0.0000  0.0000  0.0000      0.0000  0.0000  0.0000  0.0000  0.0000  0.0000  0.0000  0.0000  0.0000  0.0000
  o =  0.9843  v = -0.7973  0.0606 -0.5985  0.0320 -0.0390  0.0000  0.0000  0.0000  0.0000  0.0000      0.0000  0.0000  0.0000  0.0000  0.0000  0.0000  0.0000  0.0000  0.0000  0.0000
atom =   2  type =  1  l = 2
 
 onsite density matrix
 
spin component  1
 
  0.0430 -0.0000 -0.0229  0.0000 -0.0045
 -0.0000  0.0371  0.0000 -0.0216  0.0000
 -0.0229  0.0000  0.0337 -0.0000 -0.0010
  0.0000 -0.0216 -0.0000  0.0371 -0.0000
 -0.0045  0.0000 -0.0010 -0.0000  0.0197
 
spin component  2
 
  0.9679 -0.0000 -0.0190  0.0000 -0.0006
 -0.0000  0.9643  0.0000 -0.0170  0.0000
 -0.0190  0.0000  0.9543  0.0000  0.0081
  0.0000 -0.0170  0.0000  0.9636 -0.0000
 -0.0006  0.0000  0.0081 -0.0000  0.9392
 
 occupancies and eigenvectors
 
  o =  0.0130  v =  0.5761  0.0006  0.6609  0.0007  0.4809  0.0000  0.0000  0.0000  0.0000  0.0000      0.0000  0.0000  0.0000  0.0000  0.0000  0.0000  0.0000  0.0000  0.0000  0.0000
  o =  0.0154  v =  0.0004 -0.7074  0.0002 -0.7068  0.0012  0.0000  0.0000  0.0000  0.0000  0.0000      0.0000  0.0000  0.0000  0.0000  0.0000  0.0000  0.0000  0.0000  0.0000  0.0000
  o =  0.0215  v = -0.2571  0.0006 -0.4120  0.0006  0.8742  0.0000  0.0000  0.0000  0.0000  0.0000      0.0000  0.0000  0.0000  0.0000  0.0000  0.0000  0.0000  0.0000  0.0000  0.0000
  o =  0.0587  v =  0.0022  0.7068 -0.0017 -0.7074 -0.0001  0.0000  0.0000  0.0000  0.0000  0.0000      0.0000  0.0000  0.0000  0.0000  0.0000  0.0000  0.0000  0.0000  0.0000  0.0000
  o =  0.0619  v =  0.7759 -0.0019 -0.6272  0.0021 -0.0674  0.0000  0.0000  0.0000  0.0000  0.0000      0.0000  0.0000  0.0000  0.0000  0.0000  0.0000  0.0000  0.0000  0.0000  0.0000
  o =  0.9334  v =  0.0000  0.0000  0.0000  0.0000  0.0000 -0.2993  0.0003 -0.5686  0.0007  0.7663      0.0000  0.0000  0.0000  0.0000  0.0000  0.0000  0.0000  0.0000  0.0000  0.0000
  o =  0.9460  v =  0.0000  0.0000  0.0000  0.0000  0.0000  0.5202  0.0019  0.5760  0.0021  0.6306      0.0000  0.0000  0.0000  0.0000  0.0000  0.0000  0.0000  0.0000  0.0000  0.0000
  o =  0.9469  v =  0.0000  0.0000  0.0000  0.0000  0.0000  0.0013 -0.6991  0.0012 -0.7151  0.0023      0.0000  0.0000  0.0000  0.0000  0.0000  0.0000  0.0000  0.0000  0.0000  0.0000
  o =  0.9810  v =  0.0000  0.0000  0.0000  0.0000  0.0000  0.0038  0.7151 -0.0029 -0.6990 -0.0003      0.0000  0.0000  0.0000  0.0000  0.0000  0.0000  0.0000  0.0000  0.0000  0.0000
  o =  0.9819  v =  0.0000  0.0000  0.0000  0.0000  0.0000 -0.7999  0.0034  0.5873 -0.0034  0.1234      0.0000  0.0000  0.0000  0.0000  0.0000  0.0000  0.0000  0.0000  0.0000  0.0000
atom =   3  type =  1  l = 2
 
 onsite density matrix
 
spin component  1
 
  0.9701 -0.0002  0.0191 -0.0001  0.0001
 -0.0002  0.9644  0.0001  0.0172  0.0001
  0.0191  0.0001  0.9585  0.0001  0.0000
 -0.0001  0.0172  0.0001  0.9646  0.0000
  0.0001  0.0001  0.0000  0.0000  0.9477
 
spin component  2
 
  0.0458 -0.0002  0.0253 -0.0002  0.0001
 -0.0002  0.0376  0.0001  0.0217  0.0001
  0.0253  0.0001  0.0320  0.0001  0.0001
 -0.0002  0.0217  0.0001  0.0378  0.0001
  0.0001  0.0001  0.0001  0.0001  0.0138
 
 occupancies and eigenvectors
 
  o =  0.0126  v =  0.0000  0.0000  0.0000  0.0000  0.0000  0.6065 -0.0007 -0.7950  0.0096  0.0005      0.0000  0.0000  0.0000  0.0000  0.0000  0.0000  0.0000  0.0000  0.0000  0.0000
  o =  0.0138  v =  0.0000  0.0000  0.0000  0.0000  0.0000 -0.0021 -0.0163 -0.0008  0.0124  0.9998      0.0000  0.0000  0.0000  0.0000  0.0000  0.0000  0.0000  0.0000  0.0000  0.0000
  o =  0.0159  v =  0.0000  0.0000  0.0000  0.0000  0.0000  0.0052  0.7084 -0.0052 -0.7055  0.0203      0.0000  0.0000  0.0000  0.0000  0.0000  0.0000  0.0000  0.0000  0.0000  0.0000
  o =  0.0594  v =  0.0000  0.0000  0.0000  0.0000  0.0000  0.0187  0.7053  0.0223  0.7083  0.0028      0.0000  0.0000  0.0000  0.0000  0.0000  0.0000  0.0000  0.0000  0.0000  0.0000
  o =  0.0652  v =  0.0000  0.0000  0.0000  0.0000  0.0000 -0.7948  0.0208 -0.6062  0.0194 -0.0021      0.0000  0.0000  0.0000  0.0000  0.0000  0.0000  0.0000  0.0000  0.0000  0.0000
  o =  0.9443  v =  0.5957  0.0068 -0.8032  0.0036 -0.0015  0.0000  0.0000  0.0000  0.0000  0.0000      0.0000  0.0000  0.0000  0.0000  0.0000  0.0000  0.0000  0.0000  0.0000  0.0000
  o =  0.9473  v =  0.0005 -0.7067 -0.0026  0.7035  0.0749  0.0000  0.0000  0.0000  0.0000  0.0000      0.0000  0.0000  0.0000  0.0000  0.0000  0.0000  0.0000  0.0000  0.0000  0.0000
  o =  0.9477  v = -0.0009  0.0511 -0.0024 -0.0549  0.9972  0.0000  0.0000  0.0000  0.0000  0.0000      0.0000  0.0000  0.0000  0.0000  0.0000  0.0000  0.0000  0.0000  0.0000  0.0000
  o =  0.9816  v =  0.0264  0.7051  0.0288  0.7080  0.0029  0.0000  0.0000  0.0000  0.0000  0.0000      0.0000  0.0000  0.0000  0.0000  0.0000  0.0000  0.0000  0.0000  0.0000  0.0000
  o =  0.9843  v = -0.8028  0.0278 -0.5950  0.0265 -0.0021  0.0000  0.0000  0.0000  0.0000  0.0000      0.0000  0.0000  0.0000  0.0000  0.0000  0.0000  0.0000  0.0000  0.0000  0.0000
atom =   4  type =  1  l = 2
 
 onsite density matrix
 
spin component  1
 
  0.0462 -0.0004 -0.0254 -0.0001 -0.0002
 -0.0004  0.0379 -0.0004 -0.0219 -0.0001
 -0.0254 -0.0004  0.0321  0.0007  0.0002
 -0.0001 -0.0219  0.0007  0.0380  0.0002
 -0.0002 -0.0001  0.0002  0.0002  0.0139
 
spin component  2
 
  0.9699  0.0002 -0.0191 -0.0003 -0.0003
  0.0002  0.9638 -0.0003 -0.0168  0.0001
 -0.0191 -0.0003  0.9586  0.0005  0.0001
 -0.0003 -0.0168  0.0005  0.9645  0.0000
 -0.0003  0.0001  0.0001  0.0000  0.9477
 
 occupancies and eigenvectors
 
  o =  0.0127  v =  0.6051  0.0206  0.7955 -0.0023 -0.0228  0.0000  0.0000  0.0000  0.0000  0.0000      0.0000  0.0000  0.0000  0.0000  0.0000  0.0000  0.0000  0.0000  0.0000  0.0000
  o =  0.0139  v =  0.0172 -0.0100  0.0158 -0.0165  0.9995  0.0000  0.0000  0.0000  0.0000  0.0000      0.0000  0.0000  0.0000  0.0000  0.0000  0.0000  0.0000  0.0000  0.0000  0.0000
  o =  0.0161  v = -0.0015  0.7073 -0.0146  0.7065  0.0190  0.0000  0.0000  0.0000  0.0000  0.0000      0.0000  0.0000  0.0000  0.0000  0.0000  0.0000  0.0000  0.0000  0.0000  0.0000
  o =  0.0598  v =  0.0517 -0.7059 -0.0189  0.7062  0.0040  0.0000  0.0000  0.0000  0.0000  0.0000      0.0000  0.0000  0.0000  0.0000  0.0000  0.0000  0.0000  0.0000  0.0000  0.0000
  o =  0.0655  v = -0.7943 -0.0318  0.6052  0.0426  0.0045  0.0000  0.0000  0.0000  0.0000  0.0000      0.0000  0.0000  0.0000  0.0000  0.0000  0.0000  0.0000  0.0000  0.0000  0.0000
  o =  0.9443  v =  0.0000  0.0000  0.0000  0.0000  0.0000  0.5976 -0.0127  0.8013 -0.0226  0.0115      0.0000  0.0000  0.0000  0.0000  0.0000  0.0000  0.0000  0.0000  0.0000  0.0000
  o =  0.9473  v =  0.0000  0.0000  0.0000  0.0000  0.0000 -0.0170 -0.6923 -0.0210 -0.6766  0.2494      0.0000  0.0000  0.0000  0.0000  0.0000  0.0000  0.0000  0.0000  0.0000  0.0000
  o =  0.9477  v =  0.0000  0.0000  0.0000  0.0000  0.0000  0.0041  0.1763 -0.0091  0.1767  0.9683      0.0000  0.0000  0.0000  0.0000  0.0000  0.0000  0.0000  0.0000  0.0000  0.0000
  o =  0.9808  v =  0.0000  0.0000  0.0000  0.0000  0.0000  0.1564 -0.6873 -0.1077  0.7011 -0.0045      0.0000  0.0000  0.0000  0.0000  0.0000  0.0000  0.0000  0.0000  0.0000  0.0000
  o =  0.9843  v =  0.0000  0.0000  0.0000  0.0000  0.0000 -0.7862 -0.1305  0.5881  0.1378  0.0075      0.0000  0.0000  0.0000  0.0000  0.0000  0.0000  0.0000  0.0000  0.0000  0.0000
atom =   5  type =  1  l = 2
 
 onsite density matrix
 
spin component  1
 
  0.9701  0.0002  0.0191  0.0001  0.0001
  0.0002  0.9644 -0.0001  0.0172 -0.0001
  0.0191 -0.0001  0.9585 -0.0001  0.0000
  0.0001  0.0172 -0.0001  0.9646 -0.0001
  0.0001 -0.0001  0.0000 -0.0001  0.9477
 
spin component  2
 
  0.0458  0.0002  0.0253  0.0002  0.0001
  0.0002  0.0376 -0.0001  0.0217 -0.0001
  0.0253 -0.0001  0.0320 -0.0001  0.0001
  0.0002  0.0217 -0.0001  0.0378 -0.0001
  0.0001 -0.0001  0.0001 -0.0001  0.0138
 
 occupancies and eigenvectors
 
  o =  0.0127  v =  0.0000  0.0000  0.0000  0.0000  0.0000 -0.6065 -0.0006  0.7950  0.0096 -0.0006      0.0000  0.0000  0.0000  0.0000  0.0000  0.0000  0.0000  0.0000  0.0000  0.0000
  o =  0.0138  v =  0.0000  0.0000  0.0000  0.0000  0.0000 -0.0023  0.0161 -0.0009 -0.0120  0.9998      0.0000  0.0000  0.0000  0.0000  0.0000  0.0000  0.0000  0.0000  0.0000  0.0000
  o =  0.0159  v =  0.0000  0.0000  0.0000  0.0000  0.0000 -0.0053  0.7085  0.0050 -0.7054 -0.0199      0.0000  0.0000  0.0000  0.0000  0.0000  0.0000  0.0000  0.0000  0.0000  0.0000
  o =  0.0594  v =  0.0000  0.0000  0.0000  0.0000  0.0000  0.0182 -0.7052  0.0219 -0.7084  0.0029      0.0000  0.0000  0.0000  0.0000  0.0000  0.0000  0.0000  0.0000  0.0000  0.0000
  o =  0.0652  v =  0.0000  0.0000  0.0000  0.0000  0.0000 -0.7948 -0.0205 -0.6062 -0.0188 -0.0023      0.0000  0.0000  0.0000  0.0000  0.0000  0.0000  0.0000  0.0000  0.0000  0.0000
  o =  0.9443  v = -0.5957  0.0069  0.8032  0.0036  0.0016  0.0000  0.0000  0.0000  0.0000  0.0000      0.0000  0.0000  0.0000  0.0000  0.0000  0.0000  0.0000  0.0000  0.0000  0.0000
  o =  0.9473  v =  0.0003  0.7069 -0.0028 -0.7035  0.0734  0.0000  0.0000  0.0000  0.0000  0.0000      0.0000  0.0000  0.0000  0.0000  0.0000  0.0000  0.0000  0.0000  0.0000  0.0000
  o =  0.9477  v =  0.0011  0.0500  0.0025 -0.0538 -0.9973  0.0000  0.0000  0.0000  0.0000  0.0000      0.0000  0.0000  0.0000  0.0000  0.0000  0.0000  0.0000  0.0000  0.0000  0.0000
  o =  0.9817  v =  0.0257 -0.7050  0.0283 -0.7082  0.0030  0.0000  0.0000  0.0000  0.0000  0.0000      0.0000  0.0000  0.0000  0.0000  0.0000  0.0000  0.0000  0.0000  0.0000  0.0000
  o =  0.9843  v = -0.8028 -0.0273 -0.5951 -0.0257 -0.0023  0.0000  0.0000  0.0000  0.0000  0.0000      0.0000  0.0000  0.0000  0.0000  0.0000  0.0000  0.0000  0.0000  0.0000  0.0000
atom =   6  type =  1  l = 2
 
 onsite density matrix
 
spin component  1
 
  0.0460 -0.0000 -0.0254  0.0000 -0.0001
 -0.0000  0.0376 -0.0000 -0.0217  0.0000
 -0.0254 -0.0000  0.0320 -0.0000  0.0001
  0.0000 -0.0217 -0.0000  0.0378 -0.0000
 -0.0001  0.0000  0.0001 -0.0000  0.0138
 
spin component  2
 
  0.9701 -0.0000 -0.0192  0.0000 -0.0001
 -0.0000  0.9644 -0.0000 -0.0172  0.0000
 -0.0192 -0.0000  0.9585 -0.0000  0.0000
  0.0000 -0.0172 -0.0000  0.9646 -0.0000
 -0.0001  0.0000  0.0000 -0.0000  0.9477
 
 occupancies and eigenvectors
 
  o =  0.0127  v = -0.6062 -0.0000 -0.7953 -0.0000  0.0009  0.0000  0.0000  0.0000  0.0000  0.0000      0.0000  0.0000  0.0000  0.0000  0.0000  0.0000  0.0000  0.0000  0.0000  0.0000
  o =  0.0138  v = -0.0020 -0.0001  0.0004 -0.0002 -1.0000  0.0000  0.0000  0.0000  0.0000  0.0000      0.0000  0.0000  0.0000  0.0000  0.0000  0.0000  0.0000  0.0000  0.0000  0.0000
  o =  0.0160  v =  0.0000 -0.7087  0.0000 -0.7055  0.0002  0.0000  0.0000  0.0000  0.0000  0.0000      0.0000  0.0000  0.0000  0.0000  0.0000  0.0000  0.0000  0.0000  0.0000  0.0000
  o =  0.0595  v =  0.0003  0.7055 -0.0002 -0.7087  0.0000  0.0000  0.0000  0.0000  0.0000  0.0000      0.0000  0.0000  0.0000  0.0000  0.0000  0.0000  0.0000  0.0000  0.0000  0.0000
  o =  0.0653  v = -0.7953  0.0002  0.6062 -0.0003  0.0019  0.0000  0.0000  0.0000  0.0000  0.0000      0.0000  0.0000  0.0000  0.0000  0.0000  0.0000  0.0000  0.0000  0.0000  0.0000
  o =  0.9443  v =  0.0000  0.0000  0.0000  0.0000  0.0000  0.5958  0.0000  0.8032 -0.0000  0.0018      0.0000  0.0000  0.0000  0.0000  0.0000  0.0000  0.0000  0.0000  0.0000  0.0000
  o =  0.9473  v =  0.0000  0.0000  0.0000  0.0000  0.0000  0.0000 -0.7087 -0.0000 -0.7055 -0.0007      0.0000  0.0000  0.0000  0.0000  0.0000  0.0000  0.0000  0.0000  0.0000  0.0000
  o =  0.9477  v =  0.0000  0.0000  0.0000  0.0000  0.0000 -0.0005  0.0005  0.0026  0.0005 -1.0000      0.0000  0.0000  0.0000  0.0000  0.0000  0.0000  0.0000  0.0000  0.0000  0.0000
  o =  0.9817  v =  0.0000  0.0000  0.0000  0.0000  0.0000  0.0004  0.7055 -0.0003 -0.7087  0.0000      0.0000  0.0000  0.0000  0.0000  0.0000  0.0000  0.0000  0.0000  0.0000  0.0000
  o =  0.9844  v =  0.0000  0.0000  0.0000  0.0000  0.0000 -0.8032  0.0003  0.5958 -0.0003  0.0020      0.0000  0.0000  0.0000  0.0000  0.0000  0.0000  0.0000  0.0000  0.0000  0.0000
atom =   7  type =  1  l = 2
 
 onsite density matrix
 
spin component  1
 
  0.9697  0.0009  0.0193 -0.0002  0.0015
  0.0009  0.9621  0.0002  0.0171 -0.0011
  0.0193  0.0002  0.9586 -0.0005  0.0006
 -0.0002  0.0171 -0.0005  0.9665 -0.0008
  0.0015 -0.0011  0.0006 -0.0008  0.9475
 
spin component  2
 
  0.0457  0.0009  0.0253 -0.0001  0.0016
  0.0009  0.0352  0.0005  0.0215 -0.0011
  0.0253  0.0005  0.0322 -0.0007  0.0013
 -0.0001  0.0215 -0.0007  0.0404 -0.0012
  0.0016 -0.0011  0.0013 -0.0012  0.0140
 
 occupancies and eigenvectors
 
  o =  0.0127  v =  0.0000  0.0000  0.0000  0.0000  0.0000 -0.6064 -0.0431  0.7920  0.0515 -0.0211      0.0000  0.0000  0.0000  0.0000  0.0000  0.0000  0.0000  0.0000  0.0000  0.0000
  o =  0.0139  v =  0.0000  0.0000  0.0000  0.0000  0.0000 -0.0463  0.0432 -0.0071  0.0100  0.9979      0.0000  0.0000  0.0000  0.0000  0.0000  0.0000  0.0000  0.0000  0.0000  0.0000
  o =  0.0161  v =  0.0000  0.0000  0.0000  0.0000  0.0000 -0.0570  0.7462  0.0392 -0.6615 -0.0280      0.0000  0.0000  0.0000  0.0000  0.0000  0.0000  0.0000  0.0000  0.0000  0.0000
  o =  0.0595  v =  0.0000  0.0000  0.0000  0.0000  0.0000  0.0294 -0.6611  0.0362 -0.7479  0.0377      0.0000  0.0000  0.0000  0.0000  0.0000  0.0000  0.0000  0.0000  0.0000  0.0000
  o =  0.0653  v =  0.0000  0.0000  0.0000  0.0000  0.0000 -0.7912 -0.0478 -0.6081 -0.0202 -0.0388      0.0000  0.0000  0.0000  0.0000  0.0000  0.0000  0.0000  0.0000  0.0000  0.0000
  o =  0.9440  v = -0.6006  0.0361  0.7888 -0.0100  0.1249  0.0000  0.0000  0.0000  0.0000  0.0000      0.0000  0.0000  0.0000  0.0000  0.0000  0.0000  0.0000  0.0000  0.0000  0.0000
  o =  0.9469  v =  0.0225  0.6541 -0.1004 -0.5493  0.5097  0.0000  0.0000  0.0000  0.0000  0.0000      0.0000  0.0000  0.0000  0.0000  0.0000  0.0000  0.0000  0.0000  0.0000  0.0000
  o =  0.9476  v = -0.0357  0.3672  0.0858 -0.3679 -0.8492  0.0000  0.0000  0.0000  0.0000  0.0000      0.0000  0.0000  0.0000  0.0000  0.0000  0.0000  0.0000  0.0000  0.0000  0.0000
  o =  0.9816  v =  0.0430 -0.6575  0.0465 -0.7496  0.0433  0.0000  0.0000  0.0000  0.0000  0.0000      0.0000  0.0000  0.0000  0.0000  0.0000  0.0000  0.0000  0.0000  0.0000  0.0000
  o =  0.9843  v = -0.7973 -0.0606 -0.5984 -0.0319 -0.0393  0.0000  0.0000  0.0000  0.0000  0.0000      0.0000  0.0000  0.0000  0.0000  0.0000  0.0000  0.0000  0.0000  0.0000  0.0000
atom =   8  type =  1  l = 2
 
 onsite density matrix
 
spin component  1
 
  0.0462  0.0004 -0.0254  0.0001 -0.0002
  0.0004  0.0379  0.0004 -0.0219  0.0001
 -0.0254  0.0004  0.0321 -0.0007  0.0002
  0.0001 -0.0219 -0.0007  0.0380 -0.0002
 -0.0002  0.0001  0.0002 -0.0002  0.0139
 
spin component  2
 
  0.9699 -0.0002 -0.0191  0.0003 -0.0003
 -0.0002  0.9638  0.0003 -0.0168 -0.0002
 -0.0191  0.0003  0.9586 -0.0005  0.0002
  0.0003 -0.0168 -0.0005  0.9645 -0.0000
 -0.0003 -0.0002  0.0002 -0.0000  0.9477
 
 occupancies and eigenvectors
 
  o =  0.0127  v = -0.6051  0.0207 -0.7955 -0.0022  0.0230  0.0000  0.0000  0.0000  0.0000  0.0000      0.0000  0.0000  0.0000  0.0000  0.0000  0.0000  0.0000  0.0000  0.0000  0.0000
  o =  0.0139  v = -0.0177 -0.0108 -0.0157 -0.0170 -0.9995  0.0000  0.0000  0.0000  0.0000  0.0000      0.0000  0.0000  0.0000  0.0000  0.0000  0.0000  0.0000  0.0000  0.0000  0.0000
  o =  0.0161  v = -0.0017 -0.7074 -0.0146 -0.7064  0.0199  0.0000  0.0000  0.0000  0.0000  0.0000      0.0000  0.0000  0.0000  0.0000  0.0000  0.0000  0.0000  0.0000  0.0000  0.0000
  o =  0.0598  v =  0.0526  0.7057 -0.0196 -0.7063  0.0037  0.0000  0.0000  0.0000  0.0000  0.0000      0.0000  0.0000  0.0000  0.0000  0.0000  0.0000  0.0000  0.0000  0.0000  0.0000
  o =  0.0655  v = -0.7942  0.0327  0.6052 -0.0433  0.0049  0.0000  0.0000  0.0000  0.0000  0.0000      0.0000  0.0000  0.0000  0.0000  0.0000  0.0000  0.0000  0.0000  0.0000  0.0000
  o =  0.9443  v =  0.0000  0.0000  0.0000  0.0000  0.0000 -0.5977 -0.0128 -0.8013 -0.0226 -0.0112      0.0000  0.0000  0.0000  0.0000  0.0000  0.0000  0.0000  0.0000  0.0000  0.0000
  o =  0.9473  v =  0.0000  0.0000  0.0000  0.0000  0.0000  0.0167 -0.6922  0.0211 -0.6761 -0.2511      0.0000  0.0000  0.0000  0.0000  0.0000  0.0000  0.0000  0.0000  0.0000  0.0000
  o =  0.9477  v =  0.0000  0.0000  0.0000  0.0000  0.0000  0.0046 -0.1774 -0.0091 -0.1779  0.9679      0.0000  0.0000  0.0000  0.0000  0.0000  0.0000  0.0000  0.0000  0.0000  0.0000
  o =  0.9808  v =  0.0000  0.0000  0.0000  0.0000  0.0000  0.1571  0.6870 -0.1083 -0.7011 -0.0047      0.0000  0.0000  0.0000  0.0000  0.0000  0.0000  0.0000  0.0000  0.0000  0.0000
  o =  0.9843  v =  0.0000  0.0000  0.0000  0.0000  0.0000 -0.7860  0.1312  0.5880 -0.1383  0.0079      0.0000  0.0000  0.0000  0.0000  0.0000  0.0000  0.0000  0.0000  0.0000  0.0000
atom =   9  type =  1  l = 2
 
 onsite density matrix
 
spin component  1
 
  0.9699 -0.0000  0.0192 -0.0000  0.0003
 -0.0000  0.9640  0.0000  0.0171  0.0000
  0.0192  0.0000  0.9586  0.0000  0.0002
 -0.0000  0.0171  0.0000  0.9650  0.0000
  0.0003  0.0000  0.0002  0.0000  0.9476
 
spin component  2
 
  0.0455 -0.0000  0.0253 -0.0000  0.0004
 -0.0000  0.0370 -0.0000  0.0217  0.0000
  0.0253 -0.0000  0.0320  0.0000  0.0003
 -0.0000  0.0217  0.0000  0.0383  0.0000
  0.0004  0.0000  0.0003  0.0000  0.0137
 
 occupancies and eigenvectors
 
  o =  0.0126  v =  0.0000  0.0000  0.0000  0.0000  0.0000 -0.6093  0.0001  0.7929 -0.0001 -0.0011      0.0000  0.0000  0.0000  0.0000  0.0000  0.0000  0.0000  0.0000  0.0000  0.0000
  o =  0.0137  v =  0.0000  0.0000  0.0000  0.0000  0.0000 -0.0084 -0.0002 -0.0051  0.0001  1.0000      0.0000  0.0000  0.0000  0.0000  0.0000  0.0000  0.0000  0.0000  0.0000  0.0000
  o =  0.0159  v =  0.0000  0.0000  0.0000  0.0000  0.0000  0.0001  0.7175 -0.0001 -0.6966  0.0002      0.0000  0.0000  0.0000  0.0000  0.0000  0.0000  0.0000  0.0000  0.0000  0.0000
  o =  0.0594  v =  0.0000  0.0000  0.0000  0.0000  0.0000  0.0002  0.6966  0.0002  0.7175  0.0000      0.0000  0.0000  0.0000  0.0000  0.0000  0.0000  0.0000  0.0000  0.0000  0.0000
  o =  0.0650  v =  0.0000  0.0000  0.0000  0.0000  0.0000 -0.7929  0.0002 -0.6093  0.0002 -0.0098      0.0000  0.0000  0.0000  0.0000  0.0000  0.0000  0.0000  0.0000  0.0000  0.0000
  o =  0.9443  v =  0.5986  0.0000 -0.8010  0.0000 -0.0050  0.0000  0.0000  0.0000  0.0000  0.0000      0.0000  0.0000  0.0000  0.0000  0.0000  0.0000  0.0000  0.0000  0.0000  0.0000
  o =  0.9474  v =  0.0000  0.7174  0.0000 -0.6966 -0.0009  0.0000  0.0000  0.0000  0.0000  0.0000      0.0000  0.0000  0.0000  0.0000  0.0000  0.0000  0.0000  0.0000  0.0000  0.0000
  o =  0.9476  v = -0.0051  0.0006 -0.0101 -0.0007  0.9999  0.0000  0.0000  0.0000  0.0000  0.0000      0.0000  0.0000  0.0000  0.0000  0.0000  0.0000  0.0000  0.0000  0.0000  0.0000
  o =  0.9816  v =  0.0003  0.6966  0.0003  0.7174  0.0000  0.0000  0.0000  0.0000  0.0000  0.0000      0.0000  0.0000  0.0000  0.0000  0.0000  0.0000  0.0000  0.0000  0.0000  0.0000
  o =  0.9842  v = -0.8010  0.0003 -0.5985  0.0003 -0.0101  0.0000  0.0000  0.0000  0.0000  0.0000      0.0000  0.0000  0.0000  0.0000  0.0000  0.0000  0.0000  0.0000  0.0000  0.0000
atom =  10  type =  1  l = 2
 
 onsite density matrix
 
spin component  1
 
[...]
    1        0.167   6.151   4.953  11.271
    2        0.167   6.149   4.941  11.257
    3        0.166   6.150   4.953  11.270
    4        0.167   6.151   4.953  11.271
    5        0.166   6.150   4.953  11.270
    6        0.166   6.151   4.954  11.271
    7        0.167   6.151   4.953  11.271
    8        0.167   6.151   4.953  11.271
    9        0.166   6.150   4.953  11.269
   10        0.166   6.150   4.952  11.268
   11        0.167   6.151   4.954  11.273
   12        0.167   6.152   4.955  11.273
   13        0.167   6.151   4.954  11.273
   14        0.167   6.151   4.954  11.272
   15        0.166   6.150   4.953  11.269
   16        0.167   6.152   4.955  11.273
   17        0.167   6.151   4.953  11.271
   18        0.167   6.151   4.954  11.271
   19        0.166   6.150   4.953  11.270
   20        0.167   6.151   4.954  11.271
   21        0.166   6.150   4.953  11.270
   22        0.166   6.151   4.954  11.271
   23        0.167   6.151   4.953  11.271
   24        0.167   6.151   4.954  11.271
   25        0.166   6.150   4.952  11.269
   26        0.167   6.149   4.941  11.257
   27        0.166   6.151   4.953  11.271
   28        0.167   6.151   4.953  11.271
   29        0.166   6.151   4.953  11.271
   30        0.166   6.151   4.954  11.271
   31        0.166   6.150   4.952  11.269
   32        0.167   6.151   4.953  11.271
   33        0.167   6.151   4.954  11.271
   34        0.167   6.151   4.954  11.271
   35        0.167   6.151   4.954  11.271
   36        0.167   6.151   4.954  11.271
   37        0.167   6.151   4.954  11.271
   38        0.166   6.151   4.954  11.271
   39        0.166   6.151   4.954  11.271
   40        0.167   6.151   4.954  11.271
   41        0.166   6.150   4.952  11.268
   42        0.166   6.150   4.952  11.268
   43        0.166   6.151   4.953  11.270
   44        0.167   6.152   4.955  11.273
   45        0.166   6.151   4.953  11.270
   46        0.167   6.151   4.954  11.272
   47        0.166   6.150   4.952  11.268
   48        0.167   6.152   4.955  11.273
   49        0.166   6.150   4.952  11.268
   50        0.166   6.151   4.954  11.271
   51        0.166   6.151   4.953  11.270
   52        0.166   6.150   4.953  11.269
   53        0.166   6.151   4.953  11.270
   54        0.166   6.151   4.953  11.270
   55        0.166   6.150   4.952  11.268
   56        0.166   6.150   4.953  11.269
   57        0.166   6.151   4.954  11.271
   58        0.166   6.150   4.953  11.268
   59        0.167   6.151   4.954  11.271
   60        0.166   6.151   4.953  11.270
   61        0.167   6.151   4.954  11.271
   62        0.166   6.151   4.953  11.271
   63        0.167   6.151   4.954  11.271
   64        0.166   6.151   4.953  11.270
   65        0.166   6.150   4.953  11.269
   66        0.166   6.150   4.953  11.268
   67        0.166   6.151   4.953  11.271
   68        0.166   6.151   4.953  11.270
   69        0.166   6.151   4.953  11.271
   70        0.166   6.151   4.953  11.271
   71        0.166   6.150   4.953  11.269
   72        0.166   6.151   4.953  11.270
   73        1.726   4.369   0.000   6.095
   74        1.727   4.360   0.000   6.087
   75        1.730   4.352   0.000   6.082
   76        1.726   4.367   0.000   6.092
   77        1.726   4.366   0.000   6.092
   78        1.726   4.366   0.000   6.092
   79        1.726   4.366   0.000   6.091
   80        1.726   4.367   0.000   6.093
   81        1.726   4.366   0.000   6.092
   82        1.726   4.366   0.000   6.092
   83        1.726   4.366   0.000   6.092
   84        1.726   4.366   0.000   6.092
   85        1.726   4.369   0.000   6.095
   86        1.727   4.360   0.000   6.087
   87        1.726   4.366   0.000   6.091
   88        1.726   4.367   0.000   6.093
   89        1.726   4.366   0.000   6.092
   90        1.726   4.366   0.000   6.092
   91        1.726   4.367   0.000   6.092
   92        1.726   4.367   0.000   6.092
   93        1.726   4.366   0.000   6.092
   94        1.726   4.366   0.000   6.092
   95        1.726   4.367   0.000   6.092
   96        1.726   4.367   0.000   6.092
   97        1.726   4.366   0.000   6.092
   98        1.726   4.366   0.000   6.092
   99        1.726   4.366   0.000   6.092
  100        1.726   4.366   0.000   6.092
  101        1.726   4.366   0.000   6.092
  102        1.726   4.366   0.000   6.092
  103        1.726   4.367   0.000   6.092
  104        1.726   4.367   0.000   6.092
  105        1.727   4.360   0.000   6.087
  106        1.726   4.369   0.000   6.095
  107        1.726   4.367   0.000   6.093
  108        1.730   4.352   0.000   6.082
  109        1.726   4.366   0.000   6.092
  110        1.726   4.366   0.000   6.092
  111        1.726   4.367   0.000   6.093
  112        1.726   4.366   0.000   6.091
  113        1.726   4.366   0.000   6.092
  114        1.726   4.366   0.000   6.092
  115        1.726   4.366   0.000   6.092
  116        1.726   4.366   0.000   6.092
  117        1.727   4.360   0.000   6.087
  118        1.726   4.369   0.000   6.095
  119        1.726   4.367   0.000   6.093
  120        1.726   4.366   0.000   6.091
  121        1.726   4.366   0.000   6.092
  122        1.726   4.366   0.000   6.092
  123        1.726   4.363   0.000   6.089
  124        1.726   4.366   0.000   6.091
  125        1.726   4.366   0.000   6.092
  126        1.726   4.366   0.000   6.092
  127        1.726   4.367   0.000   6.092
  128        1.726   4.366   0.000   6.091
  129        1.726   4.366   0.000   6.092
  130        1.726   4.366   0.000   6.092
  131        1.726   4.366   0.000   6.092
  132        1.726   4.367   0.000   6.092
  133        1.726   4.366   0.000   6.092
  134        1.726   4.366   0.000   6.092
  135        1.726   4.367   0.000   6.092
  136        1.726   4.366   0.000   6.091
  137        1.726   4.366   0.000   6.092
  138        1.726   4.366   0.000   6.092
  139        1.726   4.366   0.000   6.092
  140        1.726   4.366   0.000   6.092
  141        1.726   4.367   0.000   6.093
  142        1.726   4.366   0.000   6.092
  143        1.726   4.366   0.000   6.092
  144        1.726   4.366   0.000   6.092
  145        1.726   4.367   0.000   6.093
  146        1.726   4.366   0.000   6.092
  147        1.726   4.366   0.000   6.092
  148        1.726   4.367   0.000   6.092
  149        1.726   4.366   0.000   6.092
  150        1.726   4.366   0.000   6.092
  151        1.726   4.366   0.000   6.092
  152        1.726   4.366   0.000   6.092
  153        1.726   4.365   0.000   6.091
  154        1.726   4.366   0.000   6.091
  155        1.726   4.366   0.000   6.092
  156        1.726   4.367   0.000   6.092
  157        1.726   4.367   0.000   6.092
  158        1.726   4.366   0.000   6.092
  159        1.726   4.366   0.000   6.091
  160        1.726   4.366   0.000   6.092
  161        1.726   4.367   0.000   6.092
  162        1.726   4.366   0.000   6.092
  163        1.726   4.366   0.000   6.092
  164        1.726   4.366   0.000   6.092
  165        1.726   4.365   0.000   6.091
  166        1.726   4.366   0.000   6.091
  167        1.726   4.366   0.000   6.091
  168        1.726   4.366   0.000   6.092
  169        1.726   4.366   0.000   6.091
  170        1.726   4.365   0.000   6.091
  171        1.726   4.367   0.000   6.092
  172        1.726   4.366   0.000   6.092
  173        1.726   4.366   0.000   6.092
  174        1.726   4.367   0.000   6.092
  175        1.726   4.366   0.000   6.092
  176        1.726   4.366   0.000   6.091
  177        1.726   4.366   0.000   6.092
  178        1.726   4.367   0.000   6.092
  179        1.726   4.366   0.000   6.092
  180        1.726   4.366   0.000   6.092
  181        1.726   4.366   0.000   6.091
  182        1.726   4.365   0.000   6.091
  183        1.726   4.366   0.000   6.092
  184        1.726   4.366   0.000   6.091
  185        1.726   4.366   0.000   6.092
  186        1.726   4.366   0.000   6.092
  187        1.726   4.366   0.000   6.092
  188        1.726   4.366   0.000   6.092
  189        1.726   4.366   0.000   6.092
  190        1.726   4.367   0.000   6.093
  191        1.726   4.366   0.000   6.092
  192        1.726   4.366   0.000   6.092
  193        1.726   4.366   0.000   6.092
  194        1.726   4.367   0.000   6.093
  195        1.726   4.367   0.000   6.092
  196        1.726   4.366   0.000   6.092
  197        1.726   4.366   0.000   6.092
  198        1.726   4.366   0.000   6.092
  199        1.726   4.366   0.000   6.092
  200        1.726   4.366   0.000   6.092
  201        1.726   4.366   0.000   6.092
  202        1.726   4.366   0.000   6.092
  203        1.726   4.366   0.000   6.091
  204        1.726   4.363   0.000   6.089
  205        1.726   4.366   0.000   6.092
  206        1.726   4.366   0.000   6.092
  207        1.726   4.366   0.000   6.091
  208        1.726   4.367   0.000   6.092
  209        1.726   4.366   0.000   6.092
  210        1.726   4.366   0.000   6.092
  211        1.726   4.367   0.000   6.092
  212        1.726   4.366   0.000   6.092
  213        1.726   4.366   0.000   6.092
  214        1.726   4.366   0.000   6.092
  215        1.726   4.366   0.000   6.091
  216        1.726   4.367   0.000   6.092
  217        0.395   0.004   0.000   0.399
--------------------------------------------------
tot        260.8851071.542 356.6141689.041
 


 magnetization (x)
 
# of ion       s       p       d       tot
------------------------------------------
    1        0.019   0.018   4.627   4.664
    2       -0.018  -0.018  -4.609  -4.644
    3        0.018   0.018   4.628   4.665
    4       -0.018  -0.018  -4.627  -4.663
    5        0.018   0.018   4.628   4.665
    6       -0.018  -0.018  -4.628  -4.665
    7        0.019   0.018   4.627   4.664
    8       -0.018  -0.018  -4.627  -4.663
    9        0.018   0.018   4.629   4.666
   10       -0.018  -0.018  -4.629  -4.666
   11        0.018   0.019   4.628   4.665
   12       -0.018  -0.019  -4.628  -4.665
   13        0.018   0.019   4.628   4.665
   14       -0.018  -0.019  -4.628  -4.665
   15        0.018   0.018   4.629   4.666
   16       -0.018  -0.019  -4.628  -4.665
   17        0.019   0.019   4.627   4.664
   18       -0.018  -0.019  -4.628  -4.665
   19        0.018   0.018   4.628   4.665
   20       -0.018  -0.019  -4.628  -4.665
   21        0.018   0.018   4.628   4.665
   22       -0.018  -0.018  -4.628  -4.665
   23        0.019   0.019   4.627   4.664
   24       -0.018  -0.019  -4.628  -4.665
   25        0.018   0.018   4.629   4.665
   26       -0.018  -0.018  -4.609  -4.644
   27        0.018   0.019   4.628   4.665
   28       -0.018  -0.018  -4.627  -4.663
   29        0.018   0.019   4.628   4.665
   30       -0.018  -0.018  -4.628  -4.665
   31        0.018   0.018   4.629   4.665
   32       -0.018  -0.018  -4.627  -4.663
   33        0.018   0.019   4.628   4.665
   34       -0.018  -0.019  -4.628  -4.665
   35        0.018   0.019   4.628   4.665
   36       -0.018  -0.019  -4.628  -4.665
   37        0.018   0.019   4.628   4.665
   38       -0.018  -0.018  -4.628  -4.665
   39        0.018   0.019   4.628   4.665
   40       -0.018  -0.019  -4.628  -4.665
   41        0.018   0.018   4.629   4.666
   42       -0.018  -0.018  -4.629  -4.666
   43        0.018   0.019   4.628   4.665
   44       -0.018  -0.019  -4.628  -4.665
   45        0.018   0.019   4.628   4.665
   46       -0.018  -0.019  -4.628  -4.665
   47        0.018   0.018   4.629   4.666
   48       -0.018  -0.019  -4.628  -4.665
   49        0.018   0.018   4.629   4.666
   50       -0.018  -0.019  -4.628  -4.665
   51        0.018   0.019   4.628   4.665
   52       -0.018  -0.018  -4.628  -4.665
   53        0.018   0.019   4.628   4.665
   54       -0.018  -0.019  -4.628  -4.665
   55        0.018   0.018   4.629   4.666
   56       -0.018  -0.018  -4.628  -4.665
   57        0.018   0.019   4.628   4.665
   58       -0.018  -0.018  -4.629  -4.665
   59        0.018   0.019   4.628   4.665
   60       -0.018  -0.018  -4.628  -4.665
   61        0.018   0.019   4.628   4.665
   62       -0.018  -0.019  -4.628  -4.665
   63        0.018   0.019   4.628   4.665
   64       -0.018  -0.018  -4.628  -4.665
   65        0.018   0.018   4.629   4.665
   66       -0.018  -0.018  -4.629  -4.665
   67        0.018   0.019   4.628   4.665
   68       -0.018  -0.018  -4.628  -4.665
   69        0.018   0.019   4.628   4.665
   70       -0.018  -0.019  -4.628  -4.665
   71        0.018   0.018   4.629   4.665
   72       -0.018  -0.018  -4.628  -4.665
   73       -0.002  -0.014   0.000  -0.016
   74       -0.001   0.002   0.000   0.002
   75        0.005   0.063   0.000   0.068
   76        0.002   0.016   0.000   0.018
   77       -0.002  -0.015   0.000  -0.017
   78       -0.002  -0.015   0.000  -0.017
   79        0.002   0.015   0.000   0.017
   80        0.002   0.016   0.000   0.018
   81       -0.002  -0.015   0.000  -0.017
   82       -0.002  -0.015   0.000  -0.017
   83        0.002   0.015   0.000   0.017
   84        0.002   0.015   0.000   0.017
   85       -0.002  -0.014   0.000  -0.016
   86       -0.001   0.002   0.000   0.002
   87        0.002   0.015   0.000   0.017
   88        0.002   0.016   0.000   0.018
   89       -0.002  -0.015   0.000  -0.017
   90       -0.002  -0.015   0.000  -0.017
   91        0.002   0.015   0.000   0.017
   92        0.002   0.015   0.000   0.017
   93       -0.002  -0.015   0.000  -0.017
   94       -0.002  -0.015   0.000  -0.017
   95        0.002   0.015   0.000   0.017
   96        0.002   0.015   0.000   0.017
   97       -0.002  -0.015   0.000  -0.017
   98       -0.002  -0.015   0.000  -0.017
   99        0.002   0.015   0.000   0.017
  100        0.002   0.015   0.000   0.017
  101       -0.002  -0.015   0.000  -0.017
  102       -0.002  -0.015   0.000  -0.017
  103        0.002   0.015   0.000   0.017
  104        0.002   0.015   0.000   0.017
  105       -0.001   0.002   0.000   0.002
  106       -0.002  -0.014   0.000  -0.016
  107        0.002   0.016   0.000   0.018
  108        0.005   0.063   0.000   0.068
  109       -0.002  -0.015   0.000  -0.017
  110       -0.002  -0.015   0.000  -0.017
  111        0.002   0.016   0.000   0.018
  112        0.002   0.015   0.000   0.017
  113       -0.002  -0.015   0.000  -0.017
  114       -0.002  -0.015   0.000  -0.017
  115        0.002   0.015   0.000   0.017
  116        0.002   0.015   0.000   0.017
  117       -0.001   0.002   0.000   0.002
  118       -0.002  -0.014   0.000  -0.016
  119        0.002   0.016   0.000   0.018
  120        0.002   0.015   0.000   0.017
  121       -0.002  -0.015   0.000  -0.017
  122       -0.002  -0.015   0.000  -0.017
  123        0.002   0.015   0.000   0.017
  124        0.002   0.015   0.000   0.017
  125       -0.002  -0.015   0.000  -0.017
  126       -0.002  -0.015   0.000  -0.017
  127        0.002   0.015   0.000   0.017
  128        0.002   0.015   0.000   0.017
  129       -0.002  -0.015   0.000  -0.017
  130       -0.002  -0.015   0.000  -0.017
  131        0.002   0.015   0.000   0.017
  132        0.002   0.015   0.000   0.017
  133       -0.002  -0.015   0.000  -0.017
  134       -0.002  -0.015   0.000  -0.017
  135        0.002   0.015   0.000   0.017
  136        0.002   0.015   0.000   0.017
  137       -0.002  -0.015   0.000  -0.017
  138       -0.002  -0.015   0.000  -0.017
  139        0.002   0.015   0.000   0.017
  140        0.002   0.015   0.000   0.017
  141       -0.002  -0.015   0.000  -0.017
  142       -0.002  -0.015   0.000  -0.017
  143        0.002   0.015   0.000   0.017
  144        0.002   0.015   0.000   0.017
  145       -0.002  -0.015   0.000  -0.017
  146       -0.002  -0.015   0.000  -0.017
  147        0.002   0.015   0.000   0.017
  148        0.002   0.015   0.000   0.017
  149       -0.002  -0.015   0.000  -0.017
  150       -0.002  -0.015   0.000  -0.017
  151        0.002   0.015   0.000   0.017
  152        0.002   0.015   0.000   0.017
  153       -0.002  -0.015   0.000  -0.017
  154       -0.002  -0.015   0.000  -0.017
  155        0.002   0.015   0.000   0.017
  156        0.002   0.015   0.000   0.017
  157       -0.002  -0.015   0.000  -0.017
  158       -0.002  -0.015   0.000  -0.017
  159        0.002   0.015   0.000   0.017
  160        0.002   0.015   0.000   0.017
  161       -0.002  -0.015   0.000  -0.017
  162       -0.002  -0.015   0.000  -0.017
  163        0.002   0.015   0.000   0.017
  164        0.002   0.015   0.000   0.017
  165       -0.002  -0.015   0.000  -0.017
  166       -0.002  -0.015   0.000  -0.017
  167        0.002   0.015   0.000   0.017
  168        0.002   0.015   0.000   0.017
  169       -0.002  -0.015   0.000  -0.017
  170       -0.002  -0.015   0.000  -0.017
  171        0.002   0.015   0.000   0.017
  172        0.002   0.015   0.000   0.017
  173       -0.002  -0.015   0.000  -0.017
  174       -0.002  -0.015   0.000  -0.017
  175        0.002   0.015   0.000   0.017
  176        0.002   0.015   0.000   0.017
  177       -0.002  -0.015   0.000  -0.017
  178       -0.002  -0.015   0.000  -0.017
  179        0.002   0.015   0.000   0.017
  180        0.002   0.015   0.000   0.017
  181       -0.002  -0.015   0.000  -0.017
  182       -0.002  -0.015   0.000  -0.017
  183        0.002   0.015   0.000   0.017
  184        0.002   0.015   0.000   0.017
  185       -0.002  -0.015   0.000  -0.017
  186       -0.002  -0.015   0.000  -0.017
  187        0.002   0.015   0.000   0.017
  188        0.002   0.015   0.000   0.017
  189       -0.002  -0.015   0.000  -0.017
  190       -0.002  -0.015   0.000  -0.017
  191        0.002   0.015   0.000   0.017
  192        0.002   0.015   0.000   0.017
  193       -0.002  -0.015   0.000  -0.017
  194       -0.002  -0.015   0.000  -0.017
  195        0.002   0.015   0.000   0.017
  196        0.002   0.015   0.000   0.017
  197       -0.002  -0.015   0.000  -0.017
  198       -0.002  -0.015   0.000  -0.017
  199        0.002   0.015   0.000   0.017
  200        0.002   0.015   0.000   0.017
  201       -0.002  -0.015   0.000  -0.017
  202       -0.002  -0.015   0.000  -0.017
  203        0.002   0.015   0.000   0.017
  204        0.002   0.015   0.000   0.017
  205       -0.002  -0.015   0.000  -0.017
  206       -0.002  -0.015   0.000  -0.017
  207        0.002   0.015   0.000   0.017
  208        0.002   0.015   0.000   0.017
  209       -0.002  -0.015   0.000  -0.017
  210       -0.002  -0.015   0.000  -0.017
  211        0.002   0.015   0.000   0.017
  212        0.002   0.015   0.000   0.017
  213       -0.002  -0.015   0.000  -0.017
  214       -0.002  -0.015   0.000  -0.017
  215        0.002   0.015   0.000   0.017
  216        0.002   0.015   0.000   0.017
  217        0.323   0.000   0.000   0.324
--------------------------------------------------
tot          0.340   0.177   0.045   0.562
 

 total amount of memory used by VASP MPI-rank0   501409. kBytes
=======================================================================

   base      :      30000. kBytes
   nonl-proj :      51625. kBytes
   fftplans  :      22373. kBytes
   grid      :      17829. kBytes
   one-center:        590. kBytes
   wavefun   :     378992. kBytes
 
  
  
 General timing and accounting informations for this job:
 ========================================================
  
                  Total CPU time used (sec):      998.741
                            User time (sec):      979.132
                          System time (sec):       19.609
                         Elapsed time (sec):     1104.684
  
                   Maximum memory used (kb):      720984.
                   Average memory used (kb):           0.
  
                          Minor page faults:       198508
                          Major page faults:           22
                 Voluntary context switches:        10200
