 vasp.5.4.4.18Apr17-6-g9f103f2a35 (build Apr 27 2017 11:13:10) complex          
  
 executed on           IFC91_ompi date 2020.05.13  12:24:58
 running on   12 total cores
 distrk:  each k-point on   12 cores,    1 groups
 distr:  one band on NCORES_PER_BAND=   1 cores,   12 groups


--------------------------------------------------------------------------------------------------------


 INCAR:
 POTCAR:    PAW_PBE Mn_pv 02Aug2007               
 POTCAR:    PAW_PBE F 08Apr2002                   

 ----------------------------------------------------------------------------- 
|                                                                             |
|           W    W    AA    RRRRR   N    N  II  N    N   GGGG   !!!           |
|           W    W   A  A   R    R  NN   N  II  NN   N  G    G  !!!           |
|           W    W  A    A  R    R  N N  N  II  N N  N  G       !!!           |
|           W WW W  AAAAAA  RRRRR   N  N N  II  N  N N  G  GGG   !            |
|           WW  WW  A    A  R   R   N   NN  II  N   NN  G    G                |
|           W    W  A    A  R    R  N    N  II  N    N   GGGG   !!!           |
|                                                                             |
|      For optimal performance we recommend to set                            |
|        NCORE= 4 - approx SQRT( number of cores)                             |
|      NCORE specifies how many cores store one orbital (NPAR=cpu/NCORE).     |
|      This setting can  greatly improve the performance of VASP for DFT.     |
|      The default,   NCORE=1            might be grossly inefficient         |
|      on modern multi-core architectures or massively parallel machines.     |
|      Do your own testing !!!!                                               |
|      Unfortunately you need to use the default for GW and RPA calculations. |
|      (for HF NCORE is supported but not extensively tested yet)             |
|                                                                             |
 ----------------------------------------------------------------------------- 

 POTCAR:    PAW_PBE Mn_pv 02Aug2007               
   VRHFIN =Mn: 3p4s3d                                                           
   LEXCH  = PE                                                                  
   EATOM  =  2025.2664 eV,  148.8529 Ry                                         
                                                                                
   TITEL  = PAW_PBE Mn_pv 02Aug2007                                             
   LULTRA =        F    use ultrasoft PP ?                                      
   IUNSCR =        1    unscreen: 0-lin 1-nonlin 2-no                           
   RPACOR =    2.080    partial core radius                                     
   POMASS =   54.938; ZVAL   =   13.000    mass and valenz                      
   RCORE  =    2.300    outmost cutoff radius                                   
   RWIGS  =    2.500; RWIGS  =    1.323    wigner-seitz radius (au A)           
   ENMAX  =  269.864; ENMIN  =  202.398 eV                                      
   ICORE  =        3    local potential                                         
   LCOR   =        T    correct aug charges                                     
   LPAW   =        T    paw PP                                                  
   EAUG   =  569.085                                                            
   DEXC   =    0.000                                                            
   RMAX   =    2.343    core radius for proj-oper                               
   RAUG   =    1.300    factor for augmentation sphere                          
   RDEP   =    2.338    radius for radial grids                                 
   RDEPT  =    1.798    core radius for aug-charge                              
                                                                                
   Atomic configuration                                                         
    8 entries                                                                   
     n  l   j            E        occ.                                          
     1  0  0.50     -6424.8287   2.0000                                         
     2  0  0.50      -739.1154   2.0000                                         
     2  1  1.50      -625.3949   6.0000                                         
     3  0  0.50       -81.6100   2.0000                                         
     3  1  1.50       -50.4667   6.0000                                         
     3  2  2.50        -3.3745   6.0000                                         
     4  0  0.50        -4.1331   1.0000                                         
     4  3  2.50        -1.3606   0.0000                                         
   Description                                                                  
     l       E           TYP  RCUT    TYP  RCUT                                 
     1    -50.4666628     23  2.000                                             
     1     -1.3605826     23  2.000                                             
     2     -3.3744729     23  2.300                                             
     2     -4.7350555     23  2.300                                             
     0     -4.1331431     23  2.300                                             
     0      7.6656591     23  2.300                                             
     3      9.5240782     23  2.300                                             
  local pseudopotential read in
  partial core-charges read in
  partial kinetic energy density read in
  atomic valenz-charges read in
  non local Contribution for L=           1  read in
    real space projection operators read in
  non local Contribution for L=           1  read in
    real space projection operators read in
  non local Contribution for L=           2  read in
    real space projection operators read in
  non local Contribution for L=           2  read in
    real space projection operators read in
  non local Contribution for L=           0  read in
    real space projection operators read in
  non local Contribution for L=           0  read in
    real space projection operators read in
    PAW grid and wavefunctions read in
 
   number of l-projection  operators is LMAX  =           6
   number of lm-projection operators is LMMAX =          18
 
 POTCAR:    PAW_PBE F 08Apr2002                   
   VRHFIN =F: s2p5                                                              
   LEXCH  = PE                                                                  
   EATOM  =   659.6475 eV,   48.4827 Ry                                         
                                                                                
   TITEL  = PAW_PBE F 08Apr2002                                                 
   LULTRA =        F    use ultrasoft PP ?                                      
   IUNSCR =        1    unscreen: 0-lin 1-nonlin 2-no                           
   RPACOR =    1.200    partial core radius                                     
   POMASS =   18.998; ZVAL   =    7.000    mass and valenz                      
   RCORE  =    1.520    outmost cutoff radius                                   
   RWIGS  =    1.500; RWIGS  =    0.794    wigner-seitz radius (au A)           
   ENMAX  =  400.000; ENMIN  =  300.000 eV                                      
   ICORE  =        2    local potential                                         
   LCOR   =        T    correct aug charges                                     
   LPAW   =        T    paw PP                                                  
   EAUG   =  613.614                                                            
   RMAX   =    1.555    core radius for proj-oper                               
   RAUG   =    1.300    factor for augmentation sphere                          
   RDEP   =    1.539    radius for radial grids                                 
   RDEPT  =    1.299    core radius for aug-charge                              
                                                                                
   Atomic configuration                                                         
    4 entries                                                                   
     n  l   j            E        occ.                                          
     1  0  0.50      -663.3661   2.0000                                         
     2  0  0.50       -29.8995   2.0000                                         
     2  1  0.50       -11.1114   5.0000                                         
     3  2  1.50       -10.8847   0.0000                                         
   Description                                                                  
     l       E           TYP  RCUT    TYP  RCUT                                 
     0    -29.8995018     23  1.200                                             
     0     -9.5240782     23  1.200                                             
     1    -11.1113914     23  1.520                                             
     1      1.3605826     23  1.520                                             
     2    -10.8846608      7  1.500                                             
  local pseudopotential read in
  partial core-charges read in
  partial kinetic energy density read in
  atomic valenz-charges read in
  non local Contribution for L=           0  read in
    real space projection operators read in
  non local Contribution for L=           0  read in
    real space projection operators read in
  non local Contribution for L=           1  read in
    real space projection operators read in
  non local Contribution for L=           1  read in
    real space projection operators read in
    PAW grid and wavefunctions read in
 
   number of l-projection  operators is LMAX  =           4
   number of lm-projection operators is LMMAX =           8
 

 ----------------------------------------------------------------------------- 
|                                                                             |
|  ADVICE TO THIS USER RUNNING 'VASP/VAMP'   (HEAR YOUR MASTER'S VOICE ...):  |
|                                                                             |
|      You enforced a specific xc-type in the INCAR file,                     |
|      a different type was found on the POTCAR file                          |
|          I HOPE YOU KNOW, WHAT YOU ARE  DOING                               |
|                                                                             |
 ----------------------------------------------------------------------------- 

  PAW_PBE Mn_pv 02Aug2007               :
 energy of atom  1       EATOM=-2025.2664
 kinetic energy error for atom=    0.0047 (will be added to EATOM!!)
  PAW_PBE F 08Apr2002                   :
 energy of atom  2       EATOM= -659.6475
 kinetic energy error for atom=    0.0256 (will be added to EATOM!!)
 
 
 POSCAR: Mn  F                                   
  positions in cartesian coordinates
  No initial velocities read in
 exchange correlation table for  LEXCH =       14
   RHO(1)=    0.500       N(1)  =     2000
   RHO(2)=  100.500       N(2)  =     4000
 


--------------------------------------------------------------------------------------------------------


 ion  position               nearest neighbor table
   1  0.500  0.500  0.500-   3 2.10   4 2.10   5 2.13   6 2.13   5 2.13   6 2.13
   2  0.000  0.000  0.000-   5 2.10   6 2.10   3 2.13   4 2.13   3 2.13   4 2.13
   3  0.195  0.805  0.500-   1 2.10   2 2.13   2 2.13
   4  0.805  0.195  0.500-   1 2.10   2 2.13   2 2.13
   5  0.305  0.305  0.000-   2 2.10   1 2.13   1 2.13
   6  0.695  0.695  0.000-   2 2.10   1 2.13   1 2.13
 
  LATTYP: Found a simple tetragonal cell.
 ALAT       =     4.8831441434
 C/A-ratio  =     0.6759574529
  
  Lattice vectors:
  
 A1 = (   4.8831441434,   0.0000000000,   0.0000000000)
 A2 = (   0.0000000000,   4.8831441434,   0.0000000000)
 A3 = (   0.0000000000,   0.0000000000,   3.3007976771)


Analysis of symmetry for initial positions (statically):
=====================================================================
 Subroutine PRICEL returns:
 Original cell was already a primitive cell.
 

 Routine SETGRP: Setting up the symmetry group for a 
 simple tetragonal supercell.


 Subroutine GETGRP returns: Found 16 space group operations
 (whereof  8 operations were pure point group operations)
 out of a pool of 16 trial point group operations.


The static configuration has the point symmetry D_2h.
 The point group associated with its full space group is D_4h.


Analysis of symmetry for dynamics (positions and initial velocities):
=====================================================================
 Subroutine PRICEL returns:
 Original cell was already a primitive cell.
 

 Routine SETGRP: Setting up the symmetry group for a 
 simple tetragonal supercell.


 Subroutine GETGRP returns: Found 16 space group operations
 (whereof  8 operations were pure point group operations)
 out of a pool of 16 trial point group operations.


The dynamic configuration has the point symmetry D_2h.
 The point group associated with its full space group is D_4h.


Analysis of structural, dynamic, and magnetic symmetry:
=====================================================================
 Subroutine PRICEL returns:
 Original cell was already a primitive cell.
 

 Routine SETGRP: Setting up the symmetry group for a 
 simple tetragonal supercell.


 Subroutine GETGRP returns: Found 16 space group operations
 (whereof  8 operations were pure point group operations)
 out of a pool of 16 trial point group operations.


The magnetic configuration has the point symmetry D_2h.
 The point group associated with its full space group is D_4h.


 Subroutine INISYM returns: Found 16 space group operations
 (whereof  8 operations are pure point group operations),
 and found     1 'primitive' translations

 
 
 KPOINTS: KPOINTS created by Atomic Simulation Env

Automatic generation of k-mesh.
Space group operators:
 irot       det(A)        alpha          n_x          n_y          n_z        tau_x        tau_y        tau_z
    1     1.000000     0.000001     1.000000     0.000000     0.000000     0.000000     0.000000     0.000000
    2    -1.000000     0.000001     1.000000     0.000000     0.000000     0.000000     0.000000     0.000000
    3     1.000000   179.999999     0.000000     0.000000     1.000000     0.000000     0.000000     0.000000
    4    -1.000000   179.999999     0.000000     0.000000     1.000000     0.000000     0.000000     0.000000
    5     1.000000   180.000000     0.707107     0.707107     0.000000     0.000000     0.000000     0.000000
    6    -1.000000   180.000000     0.707107     0.707107     0.000000     0.000000     0.000000     0.000000
    7     1.000000   180.000000     0.707107    -0.707107     0.000000     0.000000     0.000000     0.000000
    8    -1.000000   180.000000     0.707107    -0.707107     0.000000     0.000000     0.000000     0.000000
    9     1.000000    90.000000     0.000000     0.000000    -1.000000     0.500000     0.500000     0.500000
   10    -1.000000    90.000000     0.000000     0.000000    -1.000000     0.500000     0.500000     0.500000
   11     1.000000    90.000000     0.000000     0.000000     1.000000     0.500000     0.500000     0.500000
   12    -1.000000    90.000000     0.000000     0.000000     1.000000     0.500000     0.500000     0.500000
   13     1.000000   180.000000     0.000000     1.000000     0.000000     0.500000     0.500000     0.500000
   14    -1.000000   180.000000     0.000000     1.000000     0.000000     0.500000     0.500000     0.500000
   15     1.000000   180.000000     1.000000     0.000000     0.000000     0.500000     0.500000     0.500000
   16    -1.000000   180.000000     1.000000     0.000000     0.000000     0.500000     0.500000     0.500000
 
 Subroutine IBZKPT returns following result:
 ===========================================
 
 Found     30 irreducible k-points:
 
 Following reciprocal coordinates:
            Coordinates               Weight
  0.083333  0.083333  0.000000      4.000000
  0.250000  0.083333  0.000000      8.000000
  0.416667  0.083333  0.000000      8.000000
  0.250000  0.250000  0.000000      4.000000
  0.416667  0.250000  0.000000      8.000000
  0.416667  0.416667  0.000000      4.000000
  0.083333  0.083333  0.111111      8.000000
  0.250000  0.083333  0.111111     16.000000
  0.416667  0.083333  0.111111     16.000000
  0.250000  0.250000  0.111111      8.000000
  0.416667  0.250000  0.111111     16.000000
  0.416667  0.416667  0.111111      8.000000
  0.083333  0.083333  0.222222      8.000000
  0.250000  0.083333  0.222222     16.000000
  0.416667  0.083333  0.222222     16.000000
  0.250000  0.250000  0.222222      8.000000
  0.416667  0.250000  0.222222     16.000000
  0.416667  0.416667  0.222222      8.000000
  0.083333  0.083333  0.333333      8.000000
  0.250000  0.083333  0.333333     16.000000
  0.416667  0.083333  0.333333     16.000000
  0.250000  0.250000  0.333333      8.000000
  0.416667  0.250000  0.333333     16.000000
  0.416667  0.416667  0.333333      8.000000
  0.083333  0.083333  0.444444      8.000000
  0.250000  0.083333  0.444444     16.000000
  0.416667  0.083333  0.444444     16.000000
  0.250000  0.250000  0.444444      8.000000
  0.416667  0.250000  0.444444     16.000000
  0.416667  0.416667  0.444444      8.000000
 
 Following cartesian coordinates:
            Coordinates               Weight
  0.017066  0.017066  0.000000      4.000000
  0.051197  0.017066  0.000000      8.000000
  0.085328  0.017066  0.000000      8.000000
  0.051197  0.051197  0.000000      4.000000
  0.085328  0.051197  0.000000      8.000000
  0.085328  0.085328  0.000000      4.000000
  0.017066  0.017066  0.033662      8.000000
  0.051197  0.017066  0.033662     16.000000
  0.085328  0.017066  0.033662     16.000000
  0.051197  0.051197  0.033662      8.000000
  0.085328  0.051197  0.033662     16.000000
  0.085328  0.085328  0.033662      8.000000
  0.017066  0.017066  0.067324      8.000000
  0.051197  0.017066  0.067324     16.000000
  0.085328  0.017066  0.067324     16.000000
  0.051197  0.051197  0.067324      8.000000
  0.085328  0.051197  0.067324     16.000000
  0.085328  0.085328  0.067324      8.000000
  0.017066  0.017066  0.100986      8.000000
  0.051197  0.017066  0.100986     16.000000
  0.085328  0.017066  0.100986     16.000000
  0.051197  0.051197  0.100986      8.000000
  0.085328  0.051197  0.100986     16.000000
  0.085328  0.085328  0.100986      8.000000
  0.017066  0.017066  0.134648      8.000000
  0.051197  0.017066  0.134648     16.000000
  0.085328  0.017066  0.134648     16.000000
  0.051197  0.051197  0.134648      8.000000
  0.085328  0.051197  0.134648     16.000000
  0.085328  0.085328  0.134648      8.000000
 


--------------------------------------------------------------------------------------------------------




 Dimension of arrays:
   k-points           NKPTS =     30   k-points in BZ     NKDIM =     30   number of bands    NBANDS=     36
   number of dos      NEDOS =    301   number of ions     NIONS =      6
   non local maximal  LDIM  =      6   non local SUM 2l+1 LMDIM =     18
   total plane-waves  NPLWV =  18000
   max r-space proj   IRMAX =      1   max aug-charges    IRDMAX=  55706
   dimension x,y,z NGX =    30 NGY =   30 NGZ =   20
   dimension x,y,z NGXF=    60 NGYF=   60 NGZF=   40
   support grid    NGXF=   120 NGYF=  120 NGZF=   80
   ions per type =               2   4
   NGX,Y,Z   is equivalent  to a cutoff of  10.21, 10.21, 10.07 a.u.
   NGXF,Y,Z  is equivalent  to a cutoff of  20.43, 20.43, 20.15 a.u.

 SYSTEM =  unknown system                          
 POSCAR =  Mn  F                                   

 Startparameter for this run:
   NWRITE =      2    write-flag & timer
   PREC   = normal    normal or accurate (medium, high low for compatibility)
   ISTART =      0    job   : 0-new  1-cont  2-samecut
   ICHARG =      2    charge: 1-file 2-atom 10-const
   ISPIN  =      2    spin polarized calculation?
   LNONCOLLINEAR =      F non collinear calculations
   LSORBIT =      F    spin-orbit coupling
   INIWAV =      1    electr: 0-lowe 1-rand  2-diag
   LASPH  =      T    aspherical Exc in radial PAW
   METAGGA=      F    non-selfconsistent MetaGGA calc.

 Electronic Relaxation 1
   ENCUT  =  600.0 eV  44.10 Ry    6.64 a.u.   9.75  9.75  6.59*2*pi/ulx,y,z
   ENINI  =  600.0     initial cutoff
   ENAUG  =  613.6 eV  augmentation charge cutoff
   NELM   =     60;   NELMIN=  2; NELMDL= -5     # of ELM steps 
   EDIFF  = 0.1E-05   stopping-criterion for ELM
   LREAL  =      F    real-space projection
   NLSPLINE    = F    spline interpolate recip. space projectors
   LCOMPAT=      F    compatible to vasp.4.4
   GGA_COMPAT  = T    GGA compatible to vasp.4.4-vasp.4.6
   LMAXPAW     = -100 max onsite density
   LMAXMIX     =    4 max onsite mixed and CHGCAR
   VOSKOWN=      0    Vosko Wilk Nusair interpolation
   ROPT   =    0.00000   0.00000
 Ionic relaxation
   EDIFFG = 0.1E-04   stopping-criterion for IOM
   NSW    =      0    number of steps for IOM
   NBLOCK =      1;   KBLOCK =      1    inner block; outer block 
   IBRION =     -1    ionic relax: 0-MD 1-quasi-New 2-CG
   NFREE  =      0    steps in history (QN), initial steepest desc. (CG)
   ISIF   =      2    stress and relaxation
   IWAVPR =     10    prediction:  0-non 1-charg 2-wave 3-comb
   ISYM   =      2    0-nonsym 1-usesym 2-fastsym
   LCORR  =      T    Harris-Foulkes like correction to forces

   POTIM  = 0.5000    time-step for ionic-motion
   TEIN   =    0.0    initial temperature
   TEBEG  =    0.0;   TEEND  =   0.0 temperature during run
   SMASS  =  -3.00    Nose mass-parameter (am)
   estimated Nose-frequenzy (Omega)   =  0.10E-29 period in steps =****** mass=  -0.545E-27a.u.
   SCALEE = 1.0000    scale energy and forces
   NPACO  =    256;   APACO  = 16.0  distance and # of slots for P.C.
   PSTRESS=    0.0 pullay stress

  Mass of Ions in am
   POMASS =  54.94 19.00
  Ionic Valenz
   ZVAL   =  13.00  7.00
  Atomic Wigner-Seitz radii
   RWIGS  =  -1.00 -1.00
  virtual crystal weights 
   VCA    =   1.00  1.00
   NELECT =      54.0000    total number of electrons
   NUPDOWN=      -1.0000    fix difference up-down

 DOS related values:
   EMIN   =  10.00;   EMAX   =-10.00  energy-range for DOS
   EFERMI =   0.00
   ISMEAR =     0;   SIGMA  =   0.01  broadening in eV -4-tet -1-fermi 0-gaus

 Electronic relaxation 2 (details)
   IALGO  =     38    algorithm
   LDIAG  =      T    sub-space diagonalisation (order eigenvalues)
   LSUBROT=      F    optimize rotation matrix (better conditioning)
   TURBO    =      0    0=normal 1=particle mesh
   IRESTART =      0    0=no restart 2=restart with 2 vectors
   NREBOOT  =      0    no. of reboots
   NMIN     =      0    reboot dimension
   EREF     =   0.00    reference energy to select bands
   IMIX   =      4    mixing-type and parameters
     AMIX     =   0.40;   BMIX     =  1.00
     AMIX_MAG =   1.60;   BMIX_MAG =  1.00
     AMIN     =   0.10
     WC   =   100.;   INIMIX=   1;  MIXPRE=   1;  MAXMIX= -45

 Intra band minimization:
   WEIMIN = 0.0000     energy-eigenvalue tresh-hold
   EBREAK =  0.69E-08  absolut break condition
   DEPER  =   0.30     relativ break condition  

   TIME   =   0.40     timestep for ELM

  volume/ion in A,a.u.               =      13.12        88.52
  Fermi-wavevector in a.u.,A,eV,Ry     =   1.443888  2.728552 28.365585  2.084812
  Thomas-Fermi vector in A             =   2.562245
 
 Write flags
   LWAVE        =      T    write WAVECAR
   LDOWNSAMPLE  =      F    k-point downsampling of WAVECAR
   LCHARG       =      T    write CHGCAR
   LVTOT        =      F    write LOCPOT, total local potential
   LVHAR        =      F    write LOCPOT, Hartree potential only
   LELF         =      F    write electronic localiz. function (ELF)
   LORBIT       =     11    0 simple, 1 ext, 2 COOP (PROOUT), +10 PAW based schemes


 Dipole corrections
   LMONO  =      F    monopole corrections only (constant potential shift)
   LDIPOL =      F    correct potential (dipole corrections)
   IDIPOL =      0    1-x, 2-y, 3-z, 4-all directions 
   EPSILON=  1.0000000 bulk dielectric constant

 LDA+U is selected, type is set to LDAUTYPE =  2
   angular momentum for each species LDAUL =     2   -1
   U (eV)           for each species LDAUU =   4.0  0.0
   J (eV)           for each species LDAUJ =   0.0  0.0
 Exchange correlation treatment:
   GGA     =    PS    GGA type
   LEXCH   =    14    internal setting for exchange type
   VOSKOWN=      0    Vosko Wilk Nusair interpolation
   LHFCALC =     F    Hartree Fock is set to
   LHFONE  =     F    Hartree Fock one center treatment
   AEXX    =    0.0000 exact exchange contribution

 Linear response parameters
   LEPSILON=     F    determine dielectric tensor
   LRPA    =     F    only Hartree local field effects (RPA)
   LNABLA  =     F    use nabla operator in PAW spheres
   LVEL    =     F    velocity operator in full k-point grid
   LINTERFAST=   F  fast interpolation
   KINTER  =     0    interpolate to denser k-point grid
   CSHIFT  =0.1000    complex shift for real part using Kramers Kronig
   OMEGAMAX=  -1.0    maximum frequency
   DEG_THRESHOLD= 0.2000000E-02 threshold for treating states as degnerate
   RTIME   =   -0.100 relaxation time in fs
  (WPLASMAI=    0.000 imaginary part of plasma frequency in eV, 0.658/RTIME)
   DFIELD  = 0.0000000 0.0000000 0.0000000 field for delta impulse in time
 
 Orbital magnetization related:
   ORBITALMAG=     F  switch on orbital magnetization
   LCHIMAG   =     F  perturbation theory with respect to B field
   DQ        =  0.001000  dq finite difference perturbation B field
   LLRAUG    =     F  two centre corrections for induced B field



--------------------------------------------------------------------------------------------------------


 Static calculation
 charge density and potential will be updated during run
 spin polarized calculation
 Variant of blocked Davidson
 Davidson routine will perform the subspace rotation
 perform sub-space diagonalisation
    after iterative eigenvector-optimisation
 modified Broyden-mixing scheme, WC =      100.0
 initial mixing is a Kerker type mixing with AMIX =  0.4000 and BMIX =      1.0000
 Hartree-type preconditioning will be used
 using additional bands            9
 reciprocal scheme for non local part
 use partial core corrections
 calculate Harris-corrections to forces 
   (improved forces if not selfconsistent)
 use gradient corrections 
 use of overlap-Matrix (Vanderbilt PP)
 Gauss-broadening in eV      SIGMA  =   0.01


--------------------------------------------------------------------------------------------------------


  energy-cutoff  :      600.00
  volume of cell :       78.71
      direct lattice vectors                 reciprocal lattice vectors
     4.883144143  0.000000000  0.000000000     0.204786091  0.000000000  0.000000000
     0.000000000  4.883144143  0.000000000     0.000000000  0.204786091  0.000000000
     0.000000000  0.000000000  3.300797677     0.000000000  0.000000000  0.302957072

  length of vectors
     4.883144143  4.883144143  3.300797677     0.204786091  0.204786091  0.302957072


 
 k-points in units of 2pi/SCALE and weight: KPOINTS created by Atomic Simulation Env
   0.01706551  0.01706551  0.00000000       0.012
   0.05119652  0.01706551  0.00000000       0.025
   0.08532754  0.01706551  0.00000000       0.025
   0.05119652  0.05119652  0.00000000       0.012
   0.08532754  0.05119652  0.00000000       0.025
   0.08532754  0.08532754  0.00000000       0.012
   0.01706551  0.01706551  0.03366190       0.025
   0.05119652  0.01706551  0.03366190       0.049
   0.08532754  0.01706551  0.03366190       0.049
   0.05119652  0.05119652  0.03366190       0.025
   0.08532754  0.05119652  0.03366190       0.049
   0.08532754  0.08532754  0.03366190       0.025
   0.01706551  0.01706551  0.06732379       0.025
   0.05119652  0.01706551  0.06732379       0.049
   0.08532754  0.01706551  0.06732379       0.049
   0.05119652  0.05119652  0.06732379       0.025
   0.08532754  0.05119652  0.06732379       0.049
   0.08532754  0.08532754  0.06732379       0.025
   0.01706551  0.01706551  0.10098569       0.025
   0.05119652  0.01706551  0.10098569       0.049
   0.08532754  0.01706551  0.10098569       0.049
   0.05119652  0.05119652  0.10098569       0.025
   0.08532754  0.05119652  0.10098569       0.049
   0.08532754  0.08532754  0.10098569       0.025
   0.01706551  0.01706551  0.13464759       0.025
   0.05119652  0.01706551  0.13464759       0.049
   0.08532754  0.01706551  0.13464759       0.049
   0.05119652  0.05119652  0.13464759       0.025
   0.08532754  0.05119652  0.13464759       0.049
   0.08532754  0.08532754  0.13464759       0.025
 
 k-points in reciprocal lattice and weights: KPOINTS created by Atomic Simulation Env
   0.08333333  0.08333333  0.00000000       0.012
   0.25000000  0.08333333  0.00000000       0.025
   0.41666667  0.08333333  0.00000000       0.025
   0.25000000  0.25000000  0.00000000       0.012
   0.41666667  0.25000000  0.00000000       0.025
   0.41666667  0.41666667  0.00000000       0.012
   0.08333333  0.08333333  0.11111111       0.025
   0.25000000  0.08333333  0.11111111       0.049
   0.41666667  0.08333333  0.11111111       0.049
   0.25000000  0.25000000  0.11111111       0.025
   0.41666667  0.25000000  0.11111111       0.049
   0.41666667  0.41666667  0.11111111       0.025
   0.08333333  0.08333333  0.22222222       0.025
   0.25000000  0.08333333  0.22222222       0.049
   0.41666667  0.08333333  0.22222222       0.049
   0.25000000  0.25000000  0.22222222       0.025
   0.41666667  0.25000000  0.22222222       0.049
   0.41666667  0.41666667  0.22222222       0.025
   0.08333333  0.08333333  0.33333333       0.025
   0.25000000  0.08333333  0.33333333       0.049
   0.41666667  0.08333333  0.33333333       0.049
   0.25000000  0.25000000  0.33333333       0.025
   0.41666667  0.25000000  0.33333333       0.049
   0.41666667  0.41666667  0.33333333       0.025
   0.08333333  0.08333333  0.44444444       0.025
   0.25000000  0.08333333  0.44444444       0.049
   0.41666667  0.08333333  0.44444444       0.049
   0.25000000  0.25000000  0.44444444       0.025
   0.41666667  0.25000000  0.44444444       0.049
   0.41666667  0.41666667  0.44444444       0.025
 
 position of ions in fractional coordinates (direct lattice) 
   0.50000000  0.50000000  0.50000000
   0.00000000  0.00000000  0.00000000
   0.19544394  0.80455606  0.50000000
   0.80455606  0.19544394  0.50000000
   0.30455606  0.30455606  0.00000000
   0.69544394  0.69544394  0.00000000
 
 position of ions in cartesian coordinates  (Angst):
   2.44157207  2.44157207  1.65039884
   0.00000000  0.00000000  0.00000000
   0.95438093  3.92876321  1.65039884
   3.92876321  0.95438093  1.65039884
   1.48719114  1.48719114  0.00000000
   3.39595300  3.39595300  0.00000000
 


--------------------------------------------------------------------------------------------------------


 k-point  1 :   0.0833 0.0833 0.0000  plane waves:    2631
 k-point  2 :   0.2500 0.0833 0.0000  plane waves:    2631
 k-point  3 :   0.4167 0.0833 0.0000  plane waves:    2647
 k-point  4 :   0.2500 0.2500 0.0000  plane waves:    2618
 k-point  5 :   0.4167 0.2500 0.0000  plane waves:    2634
 k-point  6 :   0.4167 0.4167 0.0000  plane waves:    2624
 k-point  7 :   0.0833 0.0833 0.1111  plane waves:    2640
 k-point  8 :   0.2500 0.0833 0.1111  plane waves:    2635
 k-point  9 :   0.4167 0.0833 0.1111  plane waves:    2636
 k-point 10 :   0.2500 0.2500 0.1111  plane waves:    2629
 k-point 11 :   0.4167 0.2500 0.1111  plane waves:    2625
 k-point 12 :   0.4167 0.4167 0.1111  plane waves:    2642
 k-point 13 :   0.0833 0.0833 0.2222  plane waves:    2634
 k-point 14 :   0.2500 0.0833 0.2222  plane waves:    2626
 k-point 15 :   0.4167 0.0833 0.2222  plane waves:    2626
 k-point 16 :   0.2500 0.2500 0.2222  plane waves:    2629
 k-point 17 :   0.4167 0.2500 0.2222  plane waves:    2628
 k-point 18 :   0.4167 0.4167 0.2222  plane waves:    2633
 k-point 19 :   0.0833 0.0833 0.3333  plane waves:    2617
 k-point 20 :   0.2500 0.0833 0.3333  plane waves:    2618
 k-point 21 :   0.4167 0.0833 0.3333  plane waves:    2626
 k-point 22 :   0.2500 0.2500 0.3333  plane waves:    2625
 k-point 23 :   0.4167 0.2500 0.3333  plane waves:    2623
 k-point 24 :   0.4167 0.4167 0.3333  plane waves:    2630
 k-point 25 :   0.0833 0.0833 0.4444  plane waves:    2623
 k-point 26 :   0.2500 0.0833 0.4444  plane waves:    2619
 k-point 27 :   0.4167 0.0833 0.4444  plane waves:    2622
 k-point 28 :   0.2500 0.2500 0.4444  plane waves:    2605
 k-point 29 :   0.4167 0.2500 0.4444  plane waves:    2619
 k-point 30 :   0.4167 0.4167 0.4444  plane waves:    2609

 maximum and minimum number of plane-waves per node :      2647     2605

 maximum number of plane-waves:      2647
 maximum index in each direction: 
   IXMAX=    9   IYMAX=    9   IZMAX=    6
   IXMIN=  -10   IYMIN=  -10   IZMIN=   -7


 serial   3D FFT for wavefunctions
 parallel 3D FFT for charge:
    minimum data exchange during FFTs selected (reduces bandwidth)


 total amount of memory used by VASP MPI-rank0    65540. kBytes
=======================================================================

   base      :      30000. kBytes
   nonl-proj :      23167. kBytes
   fftplans  :       1875. kBytes
   grid      :       2467. kBytes
   one-center:        186. kBytes
   wavefun   :       7845. kBytes
 
     INWAV:  cpu time    0.0000: real time    0.0000
 Broyden mixing: mesh for mixing (old mesh)
   NGX = 19   NGY = 19   NGZ = 13
  (NGX  = 60   NGY  = 60   NGZ  = 40)
  gives a total of   4693 points

 initial charge density was supplied:
 charge density of overlapping atoms calculated
 number of electron      54.0000000 magnetization       0.0000000
 keeping initial charge density in first step


--------------------------------------------------------------------------------------------------------


 Maximum index for augmentation-charges         4263 (set IRDMAX)


--------------------------------------------------------------------------------------------------------


 First call to EWALD:  gamma=   0.414
 Maximum number of real-space cells 2x 2x 3
 Maximum number of reciprocal cells 3x 3x 2

    FEWALD:  cpu time    0.0010: real time    0.0010


--------------------------------------- Iteration      1(   1)  ---------------------------------------


    POTLOK:  cpu time    0.0176: real time    0.0176
    SETDIJ:  cpu time    0.6913: real time    0.6913
atom =   1  type =  1  l = 2
 
 onsite density matrix
 
spin component  1
 
  0.2835  0.0000  0.0000  0.0000  0.0000
  0.0000  0.2835  0.0000  0.0000  0.0000
  0.0000  0.0000  0.2835  0.0000  0.0000
  0.0000  0.0000  0.0000  0.2835  0.0000
  0.0000  0.0000  0.0000  0.0000  0.2835
 
spin component  2
 
  0.7694  0.0000  0.0000  0.0000  0.0000
  0.0000  0.7694  0.0000  0.0000  0.0000
  0.0000  0.0000  0.7694  0.0000  0.0000
  0.0000  0.0000  0.0000  0.7694  0.0000
  0.0000  0.0000  0.0000  0.0000  0.7694
 
 occupancies and eigenvectors
 
  o =  0.2835  v =  1.0000  0.0000  0.0000  0.0000  0.0000  0.0000  0.0000  0.0000  0.0000  0.0000      0.0000  0.0000  0.0000  0.0000  0.0000  0.0000  0.0000  0.0000  0.0000  0.0000
  o =  0.2835  v =  0.0000  1.0000  0.0000  0.0000  0.0000  0.0000  0.0000  0.0000  0.0000  0.0000      0.0000  0.0000  0.0000  0.0000  0.0000  0.0000  0.0000  0.0000  0.0000  0.0000
  o =  0.2835  v =  0.0000  0.0000  1.0000  0.0000  0.0000  0.0000  0.0000  0.0000  0.0000  0.0000      0.0000  0.0000  0.0000  0.0000  0.0000  0.0000  0.0000  0.0000  0.0000  0.0000
  o =  0.2835  v =  0.0000  0.0000  0.0000  1.0000  0.0000  0.0000  0.0000  0.0000  0.0000  0.0000      0.0000  0.0000  0.0000  0.0000  0.0000  0.0000  0.0000  0.0000  0.0000  0.0000
  o =  0.2835  v =  0.0000  0.0000  0.0000  0.0000  1.0000  0.0000  0.0000  0.0000  0.0000  0.0000      0.0000  0.0000  0.0000  0.0000  0.0000  0.0000  0.0000  0.0000  0.0000  0.0000
  o =  0.7694  v =  0.0000  0.0000  0.0000  0.0000  0.0000  1.0000  0.0000  0.0000  0.0000  0.0000      0.0000  0.0000  0.0000  0.0000  0.0000  0.0000  0.0000  0.0000  0.0000  0.0000
  o =  0.7694  v =  0.0000  0.0000  0.0000  0.0000  0.0000  0.0000  1.0000  0.0000  0.0000  0.0000      0.0000  0.0000  0.0000  0.0000  0.0000  0.0000  0.0000  0.0000  0.0000  0.0000
  o =  0.7694  v =  0.0000  0.0000  0.0000  0.0000  0.0000  0.0000  0.0000  1.0000  0.0000  0.0000      0.0000  0.0000  0.0000  0.0000  0.0000  0.0000  0.0000  0.0000  0.0000  0.0000
  o =  0.7694  v =  0.0000  0.0000  0.0000  0.0000  0.0000  0.0000  0.0000  0.0000  1.0000  0.0000      0.0000  0.0000  0.0000  0.0000  0.0000  0.0000  0.0000  0.0000  0.0000  0.0000
  o =  0.7694  v =  0.0000  0.0000  0.0000  0.0000  0.0000  0.0000  0.0000  0.0000  0.0000  1.0000      0.0000  0.0000  0.0000  0.0000  0.0000  0.0000  0.0000  0.0000  0.0000  0.0000
atom =   2  type =  1  l = 2
 
 onsite density matrix
 
spin component  1
 
  0.7694  0.0000  0.0000  0.0000  0.0000
  0.0000  0.7694  0.0000  0.0000  0.0000
  0.0000  0.0000  0.7694  0.0000  0.0000
  0.0000  0.0000  0.0000  0.7694  0.0000
  0.0000  0.0000  0.0000  0.0000  0.7694
 
spin component  2
 
  0.2835  0.0000  0.0000  0.0000  0.0000
  0.0000  0.2835  0.0000  0.0000  0.0000
  0.0000  0.0000  0.2835  0.0000  0.0000
  0.0000  0.0000  0.0000  0.2835  0.0000
  0.0000  0.0000  0.0000  0.0000  0.2835
 
 occupancies and eigenvectors
 
  o =  0.2835  v =  0.0000  0.0000  0.0000  0.0000  0.0000  1.0000  0.0000  0.0000  0.0000  0.0000      0.0000  0.0000  0.0000  0.0000  0.0000  0.0000  0.0000  0.0000  0.0000  0.0000
  o =  0.2835  v =  0.0000  0.0000  0.0000  0.0000  0.0000  0.0000  1.0000  0.0000  0.0000  0.0000      0.0000  0.0000  0.0000  0.0000  0.0000  0.0000  0.0000  0.0000  0.0000  0.0000
  o =  0.2835  v =  0.0000  0.0000  0.0000  0.0000  0.0000  0.0000  0.0000  1.0000  0.0000  0.0000      0.0000  0.0000  0.0000  0.0000  0.0000  0.0000  0.0000  0.0000  0.0000  0.0000
  o =  0.2835  v =  0.0000  0.0000  0.0000  0.0000  0.0000  0.0000  0.0000  0.0000  1.0000  0.0000      0.0000  0.0000  0.0000  0.0000  0.0000  0.0000  0.0000  0.0000  0.0000  0.0000
  o =  0.2835  v =  0.0000  0.0000  0.0000  0.0000  0.0000  0.0000  0.0000  0.0000  0.0000  1.0000      0.0000  0.0000  0.0000  0.0000  0.0000  0.0000  0.0000  0.0000  0.0000  0.0000
  o =  0.7694  v =  1.0000  0.0000  0.0000  0.0000  0.0000  0.0000  0.0000  0.0000  0.0000  0.0000      0.0000  0.0000  0.0000  0.0000  0.0000  0.0000  0.0000  0.0000  0.0000  0.0000
  o =  0.7694  v =  0.0000  1.0000  0.0000  0.0000  0.0000  0.0000  0.0000  0.0000  0.0000  0.0000      0.0000  0.0000  0.0000  0.0000  0.0000  0.0000  0.0000  0.0000  0.0000  0.0000
  o =  0.7694  v =  0.0000  0.0000  1.0000  0.0000  0.0000  0.0000  0.0000  0.0000  0.0000  0.0000      0.0000  0.0000  0.0000  0.0000  0.0000  0.0000  0.0000  0.0000  0.0000  0.0000
  o =  0.7694  v =  0.0000  0.0000  0.0000  1.0000  0.0000  0.0000  0.0000  0.0000  0.0000  0.0000      0.0000  0.0000  0.0000  0.0000  0.0000  0.0000  0.0000  0.0000  0.0000  0.0000
  o =  0.7694  v =  0.0000  0.0000  0.0000  0.0000  1.0000  0.0000  0.0000  0.0000  0.0000  0.0000      0.0000  0.0000  0.0000  0.0000  0.0000  0.0000  0.0000  0.0000  0.0000  0.0000
     EDDAV:  cpu time    1.0571: real time    1.0768
       DOS:  cpu time    0.0007: real time    0.0007
    --------------------------------------------
      LOOP:  cpu time    1.7667: real time    1.7864

 eigenvalue-minimisations  :  4320
 total energy-change (2. order) : 0.6772584E+03  (-0.3407957E+04)
 number of electron      54.0000000 magnetization       0.0000000
 augmentation part       54.0000000 magnetization       0.0000000

 Free energy of the ion-electron system (eV)
  ---------------------------------------------------
  alpha Z        PSCENC =       196.13658257
  Ewald energy   TEWEN  =     -4178.31221721
  -Hartree energ DENC   =     -2146.41896641
  -exchange      EXHF   =         0.00000000
  -V(xc)+E(xc)   XCENC  =       293.25934242
  PAW double counting   =      5439.83165491    -5546.16339751
  entropy T*S    EENTRO =        -0.00008778
  eigenvalues    EBANDS =       -58.72307617
  atomic energy  EATOM  =      6677.64854832
  Solvation  Ediel_sol  =         0.00000000
  ---------------------------------------------------
  free energy    TOTEN  =       677.25838313 eV

  energy without entropy =      677.25847092  energy(sigma->0) =      677.25842702


--------------------------------------------------------------------------------------------------------




--------------------------------------- Iteration      1(   2)  ---------------------------------------


     EDDAV:  cpu time    1.1721: real time    1.1721
       DOS:  cpu time    0.0003: real time    0.0003
    --------------------------------------------
      LOOP:  cpu time    1.1724: real time    1.1724

 eigenvalue-minimisations  :  5004
 total energy-change (2. order) :-0.6682329E+03  (-0.6483451E+03)
 number of electron      54.0000000 magnetization       0.0000000
 augmentation part       54.0000000 magnetization       0.0000000

 Free energy of the ion-electron system (eV)
  ---------------------------------------------------
  alpha Z        PSCENC =       196.13658257
  Ewald energy   TEWEN  =     -4178.31221721
  -Hartree energ DENC   =     -2146.41896641
  -exchange      EXHF   =         0.00000000
  -V(xc)+E(xc)   XCENC  =       293.25934242
  PAW double counting   =      5439.83165491    -5546.16339751
  entropy T*S    EENTRO =        -0.00000000
  eigenvalues    EBANDS =      -726.95607056
  atomic energy  EATOM  =      6677.64854832
  Solvation  Ediel_sol  =         0.00000000
  ---------------------------------------------------
  free energy    TOTEN  =         9.02547653 eV

  energy without entropy =        9.02547653  energy(sigma->0) =        9.02547653


--------------------------------------------------------------------------------------------------------




--------------------------------------- Iteration      1(   3)  ---------------------------------------


     EDDAV:  cpu time    1.2001: real time    1.2002
       DOS:  cpu time    0.0003: real time    0.0003
    --------------------------------------------
      LOOP:  cpu time    1.2004: real time    1.2005

 eigenvalue-minimisations  :  5088
 total energy-change (2. order) :-0.4847079E+02  (-0.4827804E+02)
 number of electron      54.0000000 magnetization       0.0000000
 augmentation part       54.0000000 magnetization       0.0000000

 Free energy of the ion-electron system (eV)
  ---------------------------------------------------
  alpha Z        PSCENC =       196.13658257
  Ewald energy   TEWEN  =     -4178.31221721
  -Hartree energ DENC   =     -2146.41896641
  -exchange      EXHF   =         0.00000000
  -V(xc)+E(xc)   XCENC  =       293.25934242
  PAW double counting   =      5439.83165491    -5546.16339751
  entropy T*S    EENTRO =        -0.00000000
  eigenvalues    EBANDS =      -775.42686546
  atomic energy  EATOM  =      6677.64854832
  Solvation  Ediel_sol  =         0.00000000
  ---------------------------------------------------
  free energy    TOTEN  =       -39.44531837 eV

  energy without entropy =      -39.44531837  energy(sigma->0) =      -39.44531837


--------------------------------------------------------------------------------------------------------




--------------------------------------- Iteration      1(   4)  ---------------------------------------


     EDDAV:  cpu time    1.1553: real time    1.1553
       DOS:  cpu time    0.0003: real time    0.0003
    --------------------------------------------
      LOOP:  cpu time    1.1556: real time    1.1556

 eigenvalue-minimisations  :  4872
 total energy-change (2. order) :-0.6529721E+00  (-0.6528295E+00)
 number of electron      54.0000000 magnetization       0.0000000
 augmentation part       54.0000000 magnetization       0.0000000

 Free energy of the ion-electron system (eV)
  ---------------------------------------------------
  alpha Z        PSCENC =       196.13658257
  Ewald energy   TEWEN  =     -4178.31221721
  -Hartree energ DENC   =     -2146.41896641
  -exchange      EXHF   =         0.00000000
  -V(xc)+E(xc)   XCENC  =       293.25934242
  PAW double counting   =      5439.83165491    -5546.16339751
  entropy T*S    EENTRO =        -0.00000000
  eigenvalues    EBANDS =      -776.07983755
  atomic energy  EATOM  =      6677.64854832
  Solvation  Ediel_sol  =         0.00000000
  ---------------------------------------------------
  free energy    TOTEN  =       -40.09829046 eV

  energy without entropy =      -40.09829046  energy(sigma->0) =      -40.09829046


--------------------------------------------------------------------------------------------------------




--------------------------------------- Iteration      1(   5)  ---------------------------------------


     EDDAV:  cpu time    1.2006: real time    1.2006
       DOS:  cpu time    0.0003: real time    0.0003
    CHARGE:  cpu time    0.0705: real time    0.0705
    MIXING:  cpu time    0.0007: real time    0.0007
    --------------------------------------------
      LOOP:  cpu time    1.2721: real time    1.2721

 eigenvalue-minimisations  :  5148
 total energy-change (2. order) :-0.1074417E-01  (-0.1074378E-01)
 number of electron      54.0000010 magnetization       0.0000000
 augmentation part       20.0573601 magnetization       0.0000000

 Broyden mixing:
  rms(total) = 0.22532E+01    rms(broyden)= 0.22531E+01
  rms(prec ) = 0.30230E+01
  weight for this iteration     100.00

 Free energy of the ion-electron system (eV)
  ---------------------------------------------------
  alpha Z        PSCENC =       196.13658257
  Ewald energy   TEWEN  =     -4178.31221721
  -Hartree energ DENC   =     -2146.41896641
  -exchange      EXHF   =         0.00000000
  -V(xc)+E(xc)   XCENC  =       293.25934242
  PAW double counting   =      5439.83165491    -5546.16339751
  entropy T*S    EENTRO =        -0.00000000
  eigenvalues    EBANDS =      -776.09058171
  atomic energy  EATOM  =      6677.64854832
  Solvation  Ediel_sol  =         0.00000000
  ---------------------------------------------------
  free energy    TOTEN  =       -40.10903463 eV

  energy without entropy =      -40.10903463  energy(sigma->0) =      -40.10903463


--------------------------------------------------------------------------------------------------------




--------------------------------------- Iteration      1(   6)  ---------------------------------------


    POTLOK:  cpu time    0.0157: real time    0.0157
    SETDIJ:  cpu time    0.6892: real time    0.6892
atom =   1  type =  1  l = 2
 
 onsite density matrix
 
spin component  1
 
 -0.0782  0.0000  0.0027  0.0000  0.0000
  0.0000 -0.0807  0.0000  0.0019  0.0000
  0.0027  0.0000 -0.0785  0.0000  0.0000
  0.0000  0.0019  0.0000 -0.0807  0.0000
  0.0000  0.0000  0.0000  0.0000 -0.0851
 
spin component  2
 
  1.1020  0.0000  0.0138  0.0000 -0.0000
  0.0000  1.0997  0.0000  0.0122  0.0000
  0.0138  0.0000  1.0934  0.0000  0.0000
  0.0000  0.0122  0.0000  1.0997  0.0000
 -0.0000  0.0000  0.0000  0.0000  1.0894
 
 occupancies and eigenvectors
 
  o = -0.0851  v =  0.0000  0.0000 -0.0000 -0.0000  1.0000  0.0000  0.0000  0.0000  0.0000  0.0000      0.0000  0.0000  0.0000  0.0000  0.0000  0.0000  0.0000  0.0000  0.0000  0.0000
  o = -0.0826  v = -0.0000  0.7071  0.0000 -0.7071 -0.0000  0.0000  0.0000  0.0000  0.0000  0.0000      0.0000  0.0000  0.0000  0.0000  0.0000  0.0000  0.0000  0.0000  0.0000  0.0000
  o = -0.0811  v =  0.6862  0.0000 -0.7274 -0.0000 -0.0000  0.0000  0.0000  0.0000  0.0000  0.0000      0.0000  0.0000  0.0000  0.0000  0.0000  0.0000  0.0000  0.0000  0.0000  0.0000
  o = -0.0788  v = -0.0000 -0.7071  0.0000 -0.7071  0.0000  0.0000  0.0000  0.0000  0.0000  0.0000      0.0000  0.0000  0.0000  0.0000  0.0000  0.0000  0.0000  0.0000  0.0000  0.0000
  o = -0.0756  v =  0.7274 -0.0000  0.6862 -0.0000  0.0000  0.0000  0.0000  0.0000  0.0000  0.0000      0.0000  0.0000  0.0000  0.0000  0.0000  0.0000  0.0000  0.0000  0.0000  0.0000
  o =  1.0833  v =  0.0000  0.0000  0.0000  0.0000  0.0000 -0.5926  0.0000  0.8055 -0.0000 -0.0000      0.0000  0.0000  0.0000  0.0000  0.0000  0.0000  0.0000  0.0000  0.0000  0.0000
  o =  1.0874  v =  0.0000  0.0000  0.0000  0.0000  0.0000 -0.0000 -0.7071  0.0000  0.7071 -0.0000      0.0000  0.0000  0.0000  0.0000  0.0000  0.0000  0.0000  0.0000  0.0000  0.0000
  o =  1.0894  v =  0.0000  0.0000  0.0000  0.0000  0.0000 -0.0000 -0.0000  0.0000  0.0000  1.0000      0.0000  0.0000  0.0000  0.0000  0.0000  0.0000  0.0000  0.0000  0.0000  0.0000
  o =  1.1119  v =  0.0000  0.0000  0.0000  0.0000  0.0000 -0.0000 -0.7071 -0.0000 -0.7071 -0.0000      0.0000  0.0000  0.0000  0.0000  0.0000  0.0000  0.0000  0.0000  0.0000  0.0000
  o =  1.1121  v =  0.0000  0.0000  0.0000  0.0000  0.0000 -0.8055  0.0000 -0.5926  0.0000 -0.0000      0.0000  0.0000  0.0000  0.0000  0.0000  0.0000  0.0000  0.0000  0.0000  0.0000
atom =   2  type =  1  l = 2
 
 onsite density matrix
 
spin component  1
 
  1.1020  0.0000 -0.0138  0.0000  0.0000
  0.0000  1.0997  0.0000 -0.0122  0.0000
 -0.0138  0.0000  1.0934  0.0000 -0.0000
  0.0000 -0.0122  0.0000  1.0997  0.0000
  0.0000  0.0000 -0.0000  0.0000  1.0894
 
spin component  2
 
 -0.0782  0.0000 -0.0027  0.0000 -0.0000
  0.0000 -0.0807  0.0000 -0.0019  0.0000
 -0.0027  0.0000 -0.0785  0.0000 -0.0000
  0.0000 -0.0019  0.0000 -0.0807  0.0000
 -0.0000  0.0000 -0.0000  0.0000 -0.0851
 
 occupancies and eigenvectors
 
  o = -0.0851  v =  0.0000  0.0000  0.0000  0.0000  0.0000  0.0000 -0.0000  0.0000 -0.0000  1.0000      0.0000  0.0000  0.0000  0.0000  0.0000  0.0000  0.0000  0.0000  0.0000  0.0000
  o = -0.0826  v =  0.0000  0.0000  0.0000  0.0000  0.0000  0.0000  0.7071  0.0000  0.7071  0.0000      0.0000  0.0000  0.0000  0.0000  0.0000  0.0000  0.0000  0.0000  0.0000  0.0000
  o = -0.0811  v =  0.0000  0.0000  0.0000  0.0000  0.0000  0.6862 -0.0000  0.7274 -0.0000 -0.0000      0.0000  0.0000  0.0000  0.0000  0.0000  0.0000  0.0000  0.0000  0.0000  0.0000
  o = -0.0788  v =  0.0000  0.0000  0.0000  0.0000  0.0000  0.0000 -0.7071  0.0000  0.7071 -0.0000      0.0000  0.0000  0.0000  0.0000  0.0000  0.0000  0.0000  0.0000  0.0000  0.0000
  o = -0.0756  v =  0.0000  0.0000  0.0000  0.0000  0.0000  0.7274  0.0000 -0.6862 -0.0000  0.0000      0.0000  0.0000  0.0000  0.0000  0.0000  0.0000  0.0000  0.0000  0.0000  0.0000
  o =  1.0833  v = -0.5926  0.0000 -0.8055  0.0000  0.0000  0.0000  0.0000  0.0000  0.0000  0.0000      0.0000  0.0000  0.0000  0.0000  0.0000  0.0000  0.0000  0.0000  0.0000  0.0000
  o =  1.0874  v =  0.0000 -0.7071  0.0000 -0.7071 -0.0000  0.0000  0.0000  0.0000  0.0000  0.0000      0.0000  0.0000  0.0000  0.0000  0.0000  0.0000  0.0000  0.0000  0.0000  0.0000
  o =  1.0894  v =  0.0000 -0.0000  0.0000  0.0000  1.0000  0.0000  0.0000  0.0000  0.0000  0.0000      0.0000  0.0000  0.0000  0.0000  0.0000  0.0000  0.0000  0.0000  0.0000  0.0000
  o =  1.1119  v =  0.0000  0.7071  0.0000 -0.7071  0.0000  0.0000  0.0000  0.0000  0.0000  0.0000      0.0000  0.0000  0.0000  0.0000  0.0000  0.0000  0.0000  0.0000  0.0000  0.0000
  o =  1.1121  v = -0.8055  0.0000  0.5926  0.0000 -0.0000  0.0000  0.0000  0.0000  0.0000  0.0000      0.0000  0.0000  0.0000  0.0000  0.0000  0.0000  0.0000  0.0000  0.0000  0.0000
     EDDAV:  cpu time    1.2323: real time    1.2323
       DOS:  cpu time    0.0003: real time    0.0003
    CHARGE:  cpu time    0.0684: real time    0.0684
    MIXING:  cpu time    0.0007: real time    0.0007
    --------------------------------------------
      LOOP:  cpu time    2.0067: real time    2.0067

 eigenvalue-minimisations  :  5364
 total energy-change (2. order) : 0.1889829E+01  (-0.1568332E+01)
 number of electron      54.0000009 magnetization      -0.0000000
 augmentation part       19.9257590 magnetization      -0.0000000

 Broyden mixing:
  rms(total) = 0.14284E+01    rms(broyden)= 0.14283E+01
  rms(prec ) = 0.14924E+01
  weight for this iteration     100.00

 eigenvalues of (default mixing * dielectric matrix)
  average eigenvalue GAMMA=   0.7887
  0.7887

 Free energy of the ion-electron system (eV)
  ---------------------------------------------------
  alpha Z        PSCENC =       196.13658257
  Ewald energy   TEWEN  =     -4178.31221721
  -Hartree energ DENC   =     -2166.71536306
  -exchange      EXHF   =         0.00000000
  -V(xc)+E(xc)   XCENC  =       293.71083667
  PAW double counting   =      5691.33347430    -5788.50985466
  entropy T*S    EENTRO =        -0.00000000
  eigenvalues    EBANDS =      -763.51121281
  atomic energy  EATOM  =      6677.64854832
  Solvation  Ediel_sol  =         0.00000000
  ---------------------------------------------------
  free energy    TOTEN  =       -38.21920589 eV

  energy without entropy =      -38.21920589  energy(sigma->0) =      -38.21920589


--------------------------------------------------------------------------------------------------------




--------------------------------------- Iteration      1(   7)  ---------------------------------------


    POTLOK:  cpu time    0.0154: real time    0.0154
    SETDIJ:  cpu time    0.6895: real time    0.6895
atom =   1  type =  1  l = 2
 
 onsite density matrix
 
spin component  1
 
  0.1155  0.0000  0.0189  0.0000 -0.0000
  0.0000  0.1097  0.0000  0.0161  0.0000
  0.0189  0.0000  0.1050  0.0000 -0.0000
  0.0000  0.0161  0.0000  0.1097  0.0000
 -0.0000  0.0000 -0.0000  0.0000  0.0927
 
spin component  2
 
  0.9013  0.0000  0.0067  0.0000  0.0000
  0.0000  0.8996  0.0000  0.0059  0.0000
  0.0067  0.0000  0.8978  0.0000  0.0000
  0.0000  0.0059  0.0000  0.8996  0.0000
  0.0000  0.0000  0.0000  0.0000  0.8935
 
 occupancies and eigenvectors
 
  o =  0.0906  v = -0.6045 -0.0000  0.7966  0.0000  0.0000  0.0000  0.0000  0.0000  0.0000  0.0000      0.0000  0.0000  0.0000  0.0000  0.0000  0.0000  0.0000  0.0000  0.0000  0.0000
  o =  0.0927  v = -0.0000  0.0000  0.0000  0.0000 -1.0000  0.0000  0.0000  0.0000  0.0000  0.0000      0.0000  0.0000  0.0000  0.0000  0.0000  0.0000  0.0000  0.0000  0.0000  0.0000
  o =  0.0935  v = -0.0000 -0.7071 -0.0000  0.7071 -0.0000  0.0000  0.0000  0.0000  0.0000  0.0000      0.0000  0.0000  0.0000  0.0000  0.0000  0.0000  0.0000  0.0000  0.0000  0.0000
  o =  0.1258  v =  0.0000  0.7071  0.0000  0.7071  0.0000  0.0000  0.0000  0.0000  0.0000  0.0000      0.0000  0.0000  0.0000  0.0000  0.0000  0.0000  0.0000  0.0000  0.0000  0.0000
  o =  0.1299  v = -0.7966  0.0000 -0.6045  0.0000  0.0000  0.0000  0.0000  0.0000  0.0000  0.0000      0.0000  0.0000  0.0000  0.0000  0.0000  0.0000  0.0000  0.0000  0.0000  0.0000
  o =  0.8926  v =  0.0000  0.0000  0.0000  0.0000  0.0000 -0.6126  0.0000  0.7904  0.0000 -0.0000      0.0000  0.0000  0.0000  0.0000  0.0000  0.0000  0.0000  0.0000  0.0000  0.0000
  o =  0.8935  v =  0.0000  0.0000  0.0000  0.0000  0.0000  0.0000  0.0000 -0.0000 -0.0000 -1.0000      0.0000  0.0000  0.0000  0.0000  0.0000  0.0000  0.0000  0.0000  0.0000  0.0000
  o =  0.8937  v =  0.0000  0.0000  0.0000  0.0000  0.0000  0.0000 -0.7071 -0.0000  0.7071 -0.0000      0.0000  0.0000  0.0000  0.0000  0.0000  0.0000  0.0000  0.0000  0.0000  0.0000
  o =  0.9055  v =  0.0000  0.0000  0.0000  0.0000  0.0000  0.0000 -0.7071 -0.0000 -0.7071 -0.0000      0.0000  0.0000  0.0000  0.0000  0.0000  0.0000  0.0000  0.0000  0.0000  0.0000
  o =  0.9065  v =  0.0000  0.0000  0.0000  0.0000  0.0000 -0.7904  0.0000 -0.6126  0.0000 -0.0000      0.0000  0.0000  0.0000  0.0000  0.0000  0.0000  0.0000  0.0000  0.0000  0.0000
atom =   2  type =  1  l = 2
 
 onsite density matrix
 
spin component  1
 
  0.9013  0.0000 -0.0067  0.0000 -0.0000
  0.0000  0.8996  0.0000 -0.0059  0.0000
 -0.0067  0.0000  0.8978  0.0000  0.0000
  0.0000 -0.0059  0.0000  0.8996  0.0000
 -0.0000  0.0000  0.0000  0.0000  0.8935
 
spin component  2
 
  0.1155  0.0000 -0.0189  0.0000  0.0000
  0.0000  0.1097  0.0000 -0.0161  0.0000
 -0.0189  0.0000  0.1050  0.0000 -0.0000
  0.0000 -0.0161  0.0000  0.1097  0.0000
  0.0000  0.0000 -0.0000  0.0000  0.0927
 
 occupancies and eigenvectors
 
  o =  0.0906  v =  0.0000  0.0000  0.0000  0.0000  0.0000 -0.6045  0.0000 -0.7966  0.0000 -0.0000      0.0000  0.0000  0.0000  0.0000  0.0000  0.0000  0.0000  0.0000  0.0000  0.0000
  o =  0.0927  v =  0.0000  0.0000  0.0000  0.0000  0.0000 -0.0000 -0.0000 -0.0000  0.0000  1.0000      0.0000  0.0000  0.0000  0.0000  0.0000  0.0000  0.0000  0.0000  0.0000  0.0000
  o =  0.0935  v =  0.0000  0.0000  0.0000  0.0000  0.0000  0.0000 -0.7071  0.0000 -0.7071 -0.0000      0.0000  0.0000  0.0000  0.0000  0.0000  0.0000  0.0000  0.0000  0.0000  0.0000
  o =  0.1258  v =  0.0000  0.0000  0.0000  0.0000  0.0000  0.0000  0.7071  0.0000 -0.7071  0.0000      0.0000  0.0000  0.0000  0.0000  0.0000  0.0000  0.0000  0.0000  0.0000  0.0000
  o =  0.1299  v =  0.0000  0.0000  0.0000  0.0000  0.0000 -0.7966  0.0000  0.6045  0.0000 -0.0000      0.0000  0.0000  0.0000  0.0000  0.0000  0.0000  0.0000  0.0000  0.0000  0.0000
  o =  0.8926  v = -0.6126  0.0000 -0.7904  0.0000 -0.0000  0.0000  0.0000  0.0000  0.0000  0.0000      0.0000  0.0000  0.0000  0.0000  0.0000  0.0000  0.0000  0.0000  0.0000  0.0000
  o =  0.8935  v =  0.0000 -0.0000  0.0000 -0.0000 -1.0000  0.0000  0.0000  0.0000  0.0000  0.0000      0.0000  0.0000  0.0000  0.0000  0.0000  0.0000  0.0000  0.0000  0.0000  0.0000
  o =  0.8937  v =  0.0000  0.7071  0.0000  0.7071 -0.0000  0.0000  0.0000  0.0000  0.0000  0.0000      0.0000  0.0000  0.0000  0.0000  0.0000  0.0000  0.0000  0.0000  0.0000  0.0000
  o =  0.9055  v =  0.0000 -0.7071 -0.0000  0.7071  0.0000  0.0000  0.0000  0.0000  0.0000  0.0000      0.0000  0.0000  0.0000  0.0000  0.0000  0.0000  0.0000  0.0000  0.0000  0.0000
  o =  0.9065  v = -0.7904  0.0000  0.6126  0.0000  0.0000  0.0000  0.0000  0.0000  0.0000  0.0000      0.0000  0.0000  0.0000  0.0000  0.0000  0.0000  0.0000  0.0000  0.0000  0.0000
     EDDAV:  cpu time    1.1914: real time    1.1914
       DOS:  cpu time    0.0003: real time    0.0003
    CHARGE:  cpu time    0.0683: real time    0.0683
    MIXING:  cpu time    0.0008: real time    0.0008
    --------------------------------------------
      LOOP:  cpu time    1.9656: real time    1.9656

 eigenvalue-minimisations  :  5124
 total energy-change (2. order) :-0.7194913E+00  (-0.1820978E+00)
 number of electron      54.0000009 magnetization      -0.0000000
 augmentation part       19.9220266 magnetization      -0.0000000

 Broyden mixing:
  rms(total) = 0.11258E+01    rms(broyden)= 0.11258E+01
  rms(prec ) = 0.11597E+01
  weight for this iteration     100.00

 eigenvalues of (default mixing * dielectric matrix)
  average eigenvalue GAMMA=   1.4016
  0.6955  2.1078

 Free energy of the ion-electron system (eV)
  ---------------------------------------------------
  alpha Z        PSCENC =       196.13658257
  Ewald energy   TEWEN  =     -4178.31221721
  -Hartree energ DENC   =     -2162.27352700
  -exchange      EXHF   =         0.00000000
  -V(xc)+E(xc)   XCENC  =       294.26108373
  PAW double counting   =      5912.92558509    -6019.88224514
  entropy T*S    EENTRO =        -0.00000000
  eigenvalues    EBANDS =      -759.44250751
  atomic energy  EATOM  =      6677.64854832
  Solvation  Ediel_sol  =         0.00000000
  ---------------------------------------------------
  free energy    TOTEN  =       -38.93869715 eV

  energy without entropy =      -38.93869715  energy(sigma->0) =      -38.93869715


--------------------------------------------------------------------------------------------------------




--------------------------------------- Iteration      1(   8)  ---------------------------------------


    POTLOK:  cpu time    0.0154: real time    0.0154
    SETDIJ:  cpu time    0.6885: real time    0.6886
atom =   1  type =  1  l = 2
 
 onsite density matrix
 
spin component  1
 
 -0.0150  0.0000  0.0196  0.0000  0.0000
  0.0000 -0.0213  0.0000  0.0160  0.0000
  0.0196  0.0000 -0.0244  0.0000  0.0000
  0.0000  0.0160  0.0000 -0.0213  0.0000
  0.0000  0.0000  0.0000  0.0000 -0.0403
 
spin component  2
 
  1.0310  0.0000  0.0172  0.0000 -0.0000
  0.0000  1.0262  0.0000  0.0158  0.0000
  0.0172  0.0000  1.0198  0.0000 -0.0000
  0.0000  0.0158  0.0000  1.0262  0.0000
 -0.0000  0.0000 -0.0000  0.0000  1.0117
 
 occupancies and eigenvectors
 
  o = -0.0403  v =  0.0000 -0.0000 -0.0000  0.0000  1.0000  0.0000  0.0000  0.0000  0.0000  0.0000      0.0000  0.0000  0.0000  0.0000  0.0000  0.0000  0.0000  0.0000  0.0000  0.0000
  o = -0.0399  v =  0.6196  0.0000 -0.7849  0.0000 -0.0000  0.0000  0.0000  0.0000  0.0000  0.0000      0.0000  0.0000  0.0000  0.0000  0.0000  0.0000  0.0000  0.0000  0.0000  0.0000
  o = -0.0373  v =  0.0000  0.7071  0.0000 -0.7071  0.0000  0.0000  0.0000  0.0000  0.0000  0.0000      0.0000  0.0000  0.0000  0.0000  0.0000  0.0000  0.0000  0.0000  0.0000  0.0000
  o = -0.0053  v =  0.0000  0.7071  0.0000  0.7071  0.0000  0.0000  0.0000  0.0000  0.0000  0.0000      0.0000  0.0000  0.0000  0.0000  0.0000  0.0000  0.0000  0.0000  0.0000  0.0000
  o =  0.0004  v = -0.7849  0.0000 -0.6196  0.0000 -0.0000  0.0000  0.0000  0.0000  0.0000  0.0000      0.0000  0.0000  0.0000  0.0000  0.0000  0.0000  0.0000  0.0000  0.0000  0.0000
  o =  1.0073  v =  0.0000  0.0000  0.0000  0.0000  0.0000 -0.5879 -0.0000  0.8089  0.0000  0.0000      0.0000  0.0000  0.0000  0.0000  0.0000  0.0000  0.0000  0.0000  0.0000  0.0000
  o =  1.0104  v =  0.0000  0.0000  0.0000  0.0000  0.0000 -0.0000  0.7071  0.0000 -0.7071 -0.0000      0.0000  0.0000  0.0000  0.0000  0.0000  0.0000  0.0000  0.0000  0.0000  0.0000
  o =  1.0117  v =  0.0000  0.0000  0.0000  0.0000  0.0000  0.0000  0.0000 -0.0000 -0.0000  1.0000      0.0000  0.0000  0.0000  0.0000  0.0000  0.0000  0.0000  0.0000  0.0000  0.0000
  o =  1.0420  v =  0.0000  0.0000  0.0000  0.0000  0.0000 -0.0000  0.7071 -0.0000  0.7071 -0.0000      0.0000  0.0000  0.0000  0.0000  0.0000  0.0000  0.0000  0.0000  0.0000  0.0000
  o =  1.0435  v =  0.0000  0.0000  0.0000  0.0000  0.0000 -0.8089 -0.0000 -0.5879 -0.0000  0.0000      0.0000  0.0000  0.0000  0.0000  0.0000  0.0000  0.0000  0.0000  0.0000  0.0000
atom =   2  type =  1  l = 2
 
 onsite density matrix
 
spin component  1
 
  1.0310  0.0000 -0.0172  0.0000  0.0000
  0.0000  1.0262  0.0000 -0.0158  0.0000
 -0.0172  0.0000  1.0198  0.0000 -0.0000
  0.0000 -0.0158  0.0000  1.0262  0.0000
  0.0000  0.0000 -0.0000  0.0000  1.0117
 
spin component  2
 
 -0.0150  0.0000 -0.0196  0.0000 -0.0000
  0.0000 -0.0213  0.0000 -0.0160  0.0000
 -0.0196  0.0000 -0.0244  0.0000 -0.0000
  0.0000 -0.0160  0.0000 -0.0213  0.0000
 -0.0000  0.0000 -0.0000  0.0000 -0.0403
 
 occupancies and eigenvectors
 
  o = -0.0403  v =  0.0000  0.0000  0.0000  0.0000  0.0000  0.0000  0.0000  0.0000  0.0000  1.0000      0.0000  0.0000  0.0000  0.0000  0.0000  0.0000  0.0000  0.0000  0.0000  0.0000
  o = -0.0399  v =  0.0000  0.0000  0.0000  0.0000  0.0000 -0.6196  0.0000 -0.7849  0.0000  0.0000      0.0000  0.0000  0.0000  0.0000  0.0000  0.0000  0.0000  0.0000  0.0000  0.0000
  o = -0.0373  v =  0.0000  0.0000  0.0000  0.0000  0.0000  0.0000 -0.7071  0.0000 -0.7071  0.0000      0.0000  0.0000  0.0000  0.0000  0.0000  0.0000  0.0000  0.0000  0.0000  0.0000
  o = -0.0053  v =  0.0000  0.0000  0.0000  0.0000  0.0000  0.0000 -0.7071  0.0000  0.7071  0.0000      0.0000  0.0000  0.0000  0.0000  0.0000  0.0000  0.0000  0.0000  0.0000  0.0000
  o =  0.0004  v =  0.0000  0.0000  0.0000  0.0000  0.0000  0.7849  0.0000 -0.6196  0.0000  0.0000      0.0000  0.0000  0.0000  0.0000  0.0000  0.0000  0.0000  0.0000  0.0000  0.0000
  o =  1.0073  v = -0.5879 -0.0000 -0.8089 -0.0000 -0.0000  0.0000  0.0000  0.0000  0.0000  0.0000      0.0000  0.0000  0.0000  0.0000  0.0000  0.0000  0.0000  0.0000  0.0000  0.0000
  o =  1.0104  v = -0.0000  0.7071 -0.0000  0.7071  0.0000  0.0000  0.0000  0.0000  0.0000  0.0000      0.0000  0.0000  0.0000  0.0000  0.0000  0.0000  0.0000  0.0000  0.0000  0.0000
  o =  1.0117  v = -0.0000 -0.0000 -0.0000 -0.0000  1.0000  0.0000  0.0000  0.0000  0.0000  0.0000      0.0000  0.0000  0.0000  0.0000  0.0000  0.0000  0.0000  0.0000  0.0000  0.0000
  o =  1.0420  v = -0.0000  0.7071  0.0000 -0.7071  0.0000  0.0000  0.0000  0.0000  0.0000  0.0000      0.0000  0.0000  0.0000  0.0000  0.0000  0.0000  0.0000  0.0000  0.0000  0.0000
  o =  1.0435  v = -0.8089 -0.0000  0.5879  0.0000 -0.0000  0.0000  0.0000  0.0000  0.0000  0.0000      0.0000  0.0000  0.0000  0.0000  0.0000  0.0000  0.0000  0.0000  0.0000  0.0000
     EDDAV:  cpu time    1.1710: real time    1.1711
       DOS:  cpu time    0.0003: real time    0.0003
    CHARGE:  cpu time    0.0684: real time    0.0684
    MIXING:  cpu time    0.0008: real time    0.0008
    --------------------------------------------
      LOOP:  cpu time    1.9444: real time    1.9445

 eigenvalue-minimisations  :  5016
 total energy-change (2. order) :-0.5730556E-01  (-0.4211458E-01)
 number of electron      54.0000009 magnetization       0.0000000
 augmentation part       19.9540238 magnetization       0.0000000

 Broyden mixing:
  rms(total) = 0.51980E+00    rms(broyden)= 0.51980E+00
  rms(prec ) = 0.54435E+00
  weight for this iteration     100.00

 eigenvalues of (default mixing * dielectric matrix)
  average eigenvalue GAMMA=   1.1913
  2.0792  0.8925  0.6024

 Free energy of the ion-electron system (eV)
  ---------------------------------------------------
  alpha Z        PSCENC =       196.13658257
  Ewald energy   TEWEN  =     -4178.31221721
  -Hartree energ DENC   =     -2157.55896197
  -exchange      EXHF   =         0.00000000
  -V(xc)+E(xc)   XCENC  =       293.76341498
  PAW double counting   =      6124.86675062    -6229.05215853
  entropy T*S    EENTRO =        -0.00000000
  eigenvalues    EBANDS =      -766.48796148
  atomic energy  EATOM  =      6677.64854832
  Solvation  Ediel_sol  =         0.00000000
  ---------------------------------------------------
  free energy    TOTEN  =       -38.99600271 eV

  energy without entropy =      -38.99600271  energy(sigma->0) =      -38.99600271


--------------------------------------------------------------------------------------------------------




--------------------------------------- Iteration      1(   9)  ---------------------------------------


    POTLOK:  cpu time    0.0155: real time    0.0155
    SETDIJ:  cpu time    0.6893: real time    0.6893
atom =   1  type =  1  l = 2
 
 onsite density matrix
 
spin component  1
 
  0.0384  0.0000  0.0233  0.0000  0.0000
  0.0000  0.0306  0.0000  0.0201  0.0000
  0.0233  0.0000  0.0255  0.0000 -0.0000
  0.0000  0.0201  0.0000  0.0306  0.0000
  0.0000  0.0000 -0.0000  0.0000  0.0085
 
spin component  2
 
  0.9756  0.0000  0.0213  0.0000  0.0000
  0.0000  0.9696  0.0000  0.0185  0.0000
  0.0213  0.0000  0.9633  0.0000 -0.0000
  0.0000  0.0185  0.0000  0.9696  0.0000
  0.0000  0.0000 -0.0000  0.0000  0.9510
 
 occupancies and eigenvectors
 
  o =  0.0078  v = -0.6057 -0.0000  0.7957  0.0000  0.0000  0.0000  0.0000  0.0000  0.0000  0.0000      0.0000  0.0000  0.0000  0.0000  0.0000  0.0000  0.0000  0.0000  0.0000  0.0000
  o =  0.0085  v = -0.0000  0.0000  0.0000  0.0000 -1.0000  0.0000  0.0000  0.0000  0.0000  0.0000      0.0000  0.0000  0.0000  0.0000  0.0000  0.0000  0.0000  0.0000  0.0000  0.0000
  o =  0.0105  v =  0.0000 -0.7071  0.0000  0.7071 -0.0000  0.0000  0.0000  0.0000  0.0000  0.0000      0.0000  0.0000  0.0000  0.0000  0.0000  0.0000  0.0000  0.0000  0.0000  0.0000
  o =  0.0507  v =  0.0000 -0.7071  0.0000 -0.7071 -0.0000  0.0000  0.0000  0.0000  0.0000  0.0000      0.0000  0.0000  0.0000  0.0000  0.0000  0.0000  0.0000  0.0000  0.0000  0.0000
  o =  0.0561  v = -0.7957 -0.0000 -0.6057  0.0000  0.0000  0.0000  0.0000  0.0000  0.0000  0.0000      0.0000  0.0000  0.0000  0.0000  0.0000  0.0000  0.0000  0.0000  0.0000  0.0000
  o =  0.9473  v =  0.0000  0.0000  0.0000  0.0000  0.0000 -0.6011  0.0000  0.7992  0.0000  0.0000      0.0000  0.0000  0.0000  0.0000  0.0000  0.0000  0.0000  0.0000  0.0000  0.0000
  o =  0.9510  v =  0.0000  0.0000  0.0000  0.0000  0.0000  0.0000  0.0000  0.0000 -0.0000 -1.0000      0.0000  0.0000  0.0000  0.0000  0.0000  0.0000  0.0000  0.0000  0.0000  0.0000
  o =  0.9511  v =  0.0000  0.0000  0.0000  0.0000  0.0000  0.0000 -0.7071  0.0000  0.7071 -0.0000      0.0000  0.0000  0.0000  0.0000  0.0000  0.0000  0.0000  0.0000  0.0000  0.0000
  o =  0.9882  v =  0.0000  0.0000  0.0000  0.0000  0.0000  0.0000  0.7071 -0.0000  0.7071  0.0000      0.0000  0.0000  0.0000  0.0000  0.0000  0.0000  0.0000  0.0000  0.0000  0.0000
  o =  0.9916  v =  0.0000  0.0000  0.0000  0.0000  0.0000 -0.7992  0.0000 -0.6011  0.0000 -0.0000      0.0000  0.0000  0.0000  0.0000  0.0000  0.0000  0.0000  0.0000  0.0000  0.0000
atom =   2  type =  1  l = 2
 
 onsite density matrix
 
spin component  1
 
  0.9756  0.0000 -0.0213  0.0000  0.0000
  0.0000  0.9696  0.0000 -0.0185  0.0000
 -0.0213  0.0000  0.9633  0.0000  0.0000
  0.0000 -0.0185  0.0000  0.9696  0.0000
  0.0000  0.0000  0.0000  0.0000  0.9510
 
spin component  2
 
  0.0384  0.0000 -0.0233  0.0000  0.0000
  0.0000  0.0306  0.0000 -0.0201  0.0000
 -0.0233  0.0000  0.0255  0.0000 -0.0000
  0.0000 -0.0201  0.0000  0.0306  0.0000
  0.0000  0.0000 -0.0000  0.0000  0.0085
 
 occupancies and eigenvectors
 
  o =  0.0078  v =  0.0000  0.0000  0.0000  0.0000  0.0000 -0.6057  0.0000 -0.7957  0.0000 -0.0000      0.0000  0.0000  0.0000  0.0000  0.0000  0.0000  0.0000  0.0000  0.0000  0.0000
  o =  0.0085  v =  0.0000  0.0000  0.0000  0.0000  0.0000 -0.0000 -0.0000 -0.0000  0.0000  1.0000      0.0000  0.0000  0.0000  0.0000  0.0000  0.0000  0.0000  0.0000  0.0000  0.0000
  o =  0.0105  v =  0.0000  0.0000  0.0000  0.0000  0.0000  0.0000 -0.7071  0.0000 -0.7071 -0.0000      0.0000  0.0000  0.0000  0.0000  0.0000  0.0000  0.0000  0.0000  0.0000  0.0000
  o =  0.0507  v =  0.0000  0.0000  0.0000  0.0000  0.0000  0.0000  0.7071  0.0000 -0.7071  0.0000      0.0000  0.0000  0.0000  0.0000  0.0000  0.0000  0.0000  0.0000  0.0000  0.0000
  o =  0.0561  v =  0.0000  0.0000  0.0000  0.0000  0.0000 -0.7957  0.0000  0.6057  0.0000 -0.0000      0.0000  0.0000  0.0000  0.0000  0.0000  0.0000  0.0000  0.0000  0.0000  0.0000
  o =  0.9473  v = -0.6011  0.0000 -0.7992  0.0000  0.0000  0.0000  0.0000  0.0000  0.0000  0.0000      0.0000  0.0000  0.0000  0.0000  0.0000  0.0000  0.0000  0.0000  0.0000  0.0000
  o =  0.9510  v =  0.0000  0.0000 -0.0000  0.0000 -1.0000  0.0000  0.0000  0.0000  0.0000  0.0000      0.0000  0.0000  0.0000  0.0000  0.0000  0.0000  0.0000  0.0000  0.0000  0.0000
  o =  0.9511  v =  0.0000 -0.7071 -0.0000 -0.7071 -0.0000  0.0000  0.0000  0.0000  0.0000  0.0000      0.0000  0.0000  0.0000  0.0000  0.0000  0.0000  0.0000  0.0000  0.0000  0.0000
  o =  0.9882  v =  0.0000  0.7071  0.0000 -0.7071  0.0000  0.0000  0.0000  0.0000  0.0000  0.0000      0.0000  0.0000  0.0000  0.0000  0.0000  0.0000  0.0000  0.0000  0.0000  0.0000
  o =  0.9916  v = -0.7992  0.0000  0.6011  0.0000 -0.0000  0.0000  0.0000  0.0000  0.0000  0.0000      0.0000  0.0000  0.0000  0.0000  0.0000  0.0000  0.0000  0.0000  0.0000  0.0000
     EDDAV:  cpu time    1.0787: real time    1.0787
       DOS:  cpu time    0.0003: real time    0.0003
    CHARGE:  cpu time    0.0684: real time    0.0684
    MIXING:  cpu time    0.0008: real time    0.0008
    --------------------------------------------
      LOOP:  cpu time    1.8531: real time    1.8531

 eigenvalue-minimisations  :  4524
 total energy-change (2. order) :-0.1646952E+00  (-0.4870356E-02)
 number of electron      54.0000009 magnetization       0.0000000
 augmentation part       19.9466247 magnetization       0.0000000

 Broyden mixing:
  rms(total) = 0.12745E+00    rms(broyden)= 0.12744E+00
  rms(prec ) = 0.14253E+00
  weight for this iteration     100.00

 eigenvalues of (default mixing * dielectric matrix)
  average eigenvalue GAMMA=   1.2247
  2.6187  0.8279  0.8279  0.6242

 Free energy of the ion-electron system (eV)
  ---------------------------------------------------
  alpha Z        PSCENC =       196.13658257
  Ewald energy   TEWEN  =     -4178.31221721
  -Hartree energ DENC   =     -2157.24998706
  -exchange      EXHF   =         0.00000000
  -V(xc)+E(xc)   XCENC  =       293.94951754
  PAW double counting   =      6278.63030595    -6386.57728394
  entropy T*S    EENTRO =        -0.00000000
  eigenvalues    EBANDS =      -763.38616409
  atomic energy  EATOM  =      6677.64854832
  Solvation  Ediel_sol  =         0.00000000
  ---------------------------------------------------
  free energy    TOTEN  =       -39.16069792 eV

  energy without entropy =      -39.16069792  energy(sigma->0) =      -39.16069792


--------------------------------------------------------------------------------------------------------




--------------------------------------- Iteration      1(  10)  ---------------------------------------


    POTLOK:  cpu time    0.0154: real time    0.0154
    SETDIJ:  cpu time    0.6894: real time    0.6894
atom =   1  type =  1  l = 2
 
 onsite density matrix
 
spin component  1
 
  0.0462  0.0000  0.0255  0.0000  0.0000
  0.0000  0.0380  0.0000  0.0217  0.0000
  0.0255  0.0000  0.0323  0.0000 -0.0000
  0.0000  0.0217  0.0000  0.0380  0.0000
  0.0000  0.0000 -0.0000  0.0000  0.0140
 
spin component  2
 
  0.9680  0.0000  0.0190  0.0000  0.0000
  0.0000  0.9625  0.0000  0.0169  0.0000
  0.0190  0.0000  0.9566  0.0000 -0.0000
  0.0000  0.0169  0.0000  0.9625  0.0000
  0.0000  0.0000 -0.0000  0.0000  0.9457
 
 occupancies and eigenvectors
 
  o =  0.0128  v = -0.6078 -0.0000  0.7941  0.0000  0.0000  0.0000  0.0000  0.0000  0.0000  0.0000      0.0000  0.0000  0.0000  0.0000  0.0000  0.0000  0.0000  0.0000  0.0000  0.0000
  o =  0.0140  v = -0.0000  0.0000  0.0000  0.0000 -1.0000  0.0000  0.0000  0.0000  0.0000  0.0000      0.0000  0.0000  0.0000  0.0000  0.0000  0.0000  0.0000  0.0000  0.0000  0.0000
  o =  0.0163  v =  0.0000 -0.7071  0.0000  0.7071 -0.0000  0.0000  0.0000  0.0000  0.0000  0.0000      0.0000  0.0000  0.0000  0.0000  0.0000  0.0000  0.0000  0.0000  0.0000  0.0000
  o =  0.0597  v =  0.0000 -0.7071  0.0000 -0.7071 -0.0000  0.0000  0.0000  0.0000  0.0000  0.0000      0.0000  0.0000  0.0000  0.0000  0.0000  0.0000  0.0000  0.0000  0.0000  0.0000
  o =  0.0657  v = -0.7941 -0.0000 -0.6078  0.0000  0.0000  0.0000  0.0000  0.0000  0.0000  0.0000      0.0000  0.0000  0.0000  0.0000  0.0000  0.0000  0.0000  0.0000  0.0000  0.0000
  o =  0.9424  v =  0.0000  0.0000  0.0000  0.0000  0.0000 -0.5971 -0.0000  0.8022  0.0000  0.0000      0.0000  0.0000  0.0000  0.0000  0.0000  0.0000  0.0000  0.0000  0.0000  0.0000
  o =  0.9455  v =  0.0000  0.0000  0.0000  0.0000  0.0000 -0.0000  0.7071  0.0000 -0.7071 -0.0000      0.0000  0.0000  0.0000  0.0000  0.0000  0.0000  0.0000  0.0000  0.0000  0.0000
  o =  0.9457  v =  0.0000  0.0000  0.0000  0.0000  0.0000 -0.0000 -0.0000  0.0000  0.0000 -1.0000      0.0000  0.0000  0.0000  0.0000  0.0000  0.0000  0.0000  0.0000  0.0000  0.0000
  o =  0.9794  v =  0.0000  0.0000  0.0000  0.0000  0.0000  0.0000  0.7071  0.0000  0.7071  0.0000      0.0000  0.0000  0.0000  0.0000  0.0000  0.0000  0.0000  0.0000  0.0000  0.0000
  o =  0.9821  v =  0.0000  0.0000  0.0000  0.0000  0.0000 -0.8022  0.0000 -0.5971  0.0000  0.0000      0.0000  0.0000  0.0000  0.0000  0.0000  0.0000  0.0000  0.0000  0.0000  0.0000
atom =   2  type =  1  l = 2
 
 onsite density matrix
 
spin component  1
 
  0.9680  0.0000 -0.0190  0.0000  0.0000
  0.0000  0.9625  0.0000 -0.0169  0.0000
 -0.0190  0.0000  0.9566  0.0000 -0.0000
  0.0000 -0.0169  0.0000  0.9625  0.0000
  0.0000  0.0000 -0.0000  0.0000  0.9457
 
spin component  2
 
  0.0462  0.0000 -0.0255  0.0000 -0.0000
  0.0000  0.0380  0.0000 -0.0217  0.0000
 -0.0255  0.0000  0.0323  0.0000  0.0000
  0.0000 -0.0217  0.0000  0.0380  0.0000
 -0.0000  0.0000  0.0000  0.0000  0.0140
 
 occupancies and eigenvectors
 
  o =  0.0128  v =  0.0000  0.0000  0.0000  0.0000  0.0000 -0.6078  0.0000 -0.7941  0.0000  0.0000      0.0000  0.0000  0.0000  0.0000  0.0000  0.0000  0.0000  0.0000  0.0000  0.0000
  o =  0.0140  v =  0.0000  0.0000  0.0000  0.0000  0.0000 -0.0000 -0.0000 -0.0000  0.0000 -1.0000      0.0000  0.0000  0.0000  0.0000  0.0000  0.0000  0.0000  0.0000  0.0000  0.0000
  o =  0.0163  v =  0.0000  0.0000  0.0000  0.0000  0.0000  0.0000  0.7071  0.0000  0.7071 -0.0000      0.0000  0.0000  0.0000  0.0000  0.0000  0.0000  0.0000  0.0000  0.0000  0.0000
  o =  0.0597  v =  0.0000  0.0000  0.0000  0.0000  0.0000  0.0000  0.7071  0.0000 -0.7071 -0.0000      0.0000  0.0000  0.0000  0.0000  0.0000  0.0000  0.0000  0.0000  0.0000  0.0000
  o =  0.0657  v =  0.0000  0.0000  0.0000  0.0000  0.0000 -0.7941  0.0000  0.6078  0.0000  0.0000      0.0000  0.0000  0.0000  0.0000  0.0000  0.0000  0.0000  0.0000  0.0000  0.0000
  o =  0.9424  v = -0.5971  0.0000 -0.8022  0.0000 -0.0000  0.0000  0.0000  0.0000  0.0000  0.0000      0.0000  0.0000  0.0000  0.0000  0.0000  0.0000  0.0000  0.0000  0.0000  0.0000
  o =  0.9455  v =  0.0000 -0.7071  0.0000 -0.7071 -0.0000  0.0000  0.0000  0.0000  0.0000  0.0000      0.0000  0.0000  0.0000  0.0000  0.0000  0.0000  0.0000  0.0000  0.0000  0.0000
  o =  0.9457  v = -0.0000 -0.0000 -0.0000  0.0000  1.0000  0.0000  0.0000  0.0000  0.0000  0.0000      0.0000  0.0000  0.0000  0.0000  0.0000  0.0000  0.0000  0.0000  0.0000  0.0000
  o =  0.9794  v =  0.0000  0.7071  0.0000 -0.7071  0.0000  0.0000  0.0000  0.0000  0.0000  0.0000      0.0000  0.0000  0.0000  0.0000  0.0000  0.0000  0.0000  0.0000  0.0000  0.0000
  o =  0.9821  v = -0.8022  0.0000  0.5971  0.0000 -0.0000  0.0000  0.0000  0.0000  0.0000  0.0000      0.0000  0.0000  0.0000  0.0000  0.0000  0.0000  0.0000  0.0000  0.0000  0.0000
     EDDAV:  cpu time    1.2208: real time    1.2208
       DOS:  cpu time    0.0003: real time    0.0003
    CHARGE:  cpu time    0.0684: real time    0.0684
    MIXING:  cpu time    0.0009: real time    0.0009
    --------------------------------------------
      LOOP:  cpu time    1.9952: real time    1.9952

 eigenvalue-minimisations  :  5280
 total energy-change (2. order) :-0.9480089E-03  (-0.1966672E-02)
 number of electron      54.0000009 magnetization      -0.0000000
 augmentation part       19.9449805 magnetization      -0.0000000

 Broyden mixing:
  rms(total) = 0.28135E-01    rms(broyden)= 0.28131E-01
  rms(prec ) = 0.31060E-01
  weight for this iteration     100.00

 eigenvalues of (default mixing * dielectric matrix)
  average eigenvalue GAMMA=   1.1578
  2.5207  0.9561  0.9561  0.7444  0.6118

 Free energy of the ion-electron system (eV)
  ---------------------------------------------------
  alpha Z        PSCENC =       196.13658257
  Ewald energy   TEWEN  =     -4178.31221721
  -Hartree energ DENC   =     -2158.03196857
  -exchange      EXHF   =         0.00000000
  -V(xc)+E(xc)   XCENC  =       294.06204225
  PAW double counting   =      6271.04016590    -6379.18875774
  entropy T*S    EENTRO =        -0.00000000
  eigenvalues    EBANDS =      -762.51604144
  atomic energy  EATOM  =      6677.64854832
  Solvation  Ediel_sol  =         0.00000000
  ---------------------------------------------------
  free energy    TOTEN  =       -39.16164593 eV

  energy without entropy =      -39.16164593  energy(sigma->0) =      -39.16164593


--------------------------------------------------------------------------------------------------------




[...]
     30       7.4189      0.00000
     31       7.8480      0.00000
     32       8.3493      0.00000
     33       9.4863      0.00000
     34      10.4161      0.00000
     35      10.8243      0.00000
     36      11.8725      0.00000

 k-point    28 :       0.2500    0.2500    0.4444
  band No.  band energies     occupation 
      1     -46.7072      1.00000
      2     -46.6694      1.00000
      3     -46.6521      1.00000
      4     -41.7261      1.00000
      5     -41.6944      1.00000
      6     -41.6703      1.00000
      7     -20.7577      1.00000
      8     -20.7037      1.00000
      9     -20.6697      1.00000
     10     -20.5635      1.00000
     11      -4.2492      1.00000
     12      -4.0271      1.00000
     13      -3.8252      1.00000
     14      -3.6215      1.00000
     15      -3.4013      1.00000
     16      -2.9693      1.00000
     17      -2.7386      1.00000
     18      -2.4434      1.00000
     19      -2.1976      1.00000
     20      -1.8873      1.00000
     21      -1.7397      1.00000
     22      -1.6183      1.00000
     23      -0.5157      1.00000
     24      -0.3060      1.00000
     25      -0.0011      1.00000
     26       0.5248      1.00000
     27       0.9968      1.00000
     28       7.1102      0.00000
     29       7.1554      0.00000
     30       7.3677      0.00000
     31       7.8918      0.00000
     32       8.3415      0.00000
     33       9.1088      0.00000
     34      10.6802      0.00000
     35      11.6068      0.00000
     36      11.9636      0.00000

 k-point    29 :       0.4167    0.2500    0.4444
  band No.  band energies     occupation 
      1     -46.7072      1.00000
      2     -46.6694      1.00000
      3     -46.6521      1.00000
      4     -41.7261      1.00000
      5     -41.6944      1.00000
      6     -41.6704      1.00000
      7     -20.7309      1.00000
      8     -20.7176      1.00000
      9     -20.6657      1.00000
     10     -20.5793      1.00000
     11      -4.2572      1.00000
     12      -4.0560      1.00000
     13      -3.9129      1.00000
     14      -3.6973      1.00000
     15      -3.3573      1.00000
     16      -3.0318      1.00000
     17      -2.6881      1.00000
     18      -2.5592      1.00000
     19      -2.0831      1.00000
     20      -1.8296      1.00000
     21      -1.6226      1.00000
     22      -1.5542      1.00000
     23      -0.5150      1.00000
     24      -0.3424      1.00000
     25      -0.0569      1.00000
     26       0.5512      1.00000
     27       1.1098      1.00000
     28       7.1199      0.00000
     29       7.1570      0.00000
     30       7.4233      0.00000
     31       7.8428      0.00000
     32       8.3006      0.00000
     33       9.5801      0.00000
     34      10.7315      0.00000
     35      11.0060      0.00000
     36      11.8743      0.00000

 k-point    30 :       0.4167    0.4167    0.4444
  band No.  band energies     occupation 
      1     -46.7072      1.00000
      2     -46.6694      1.00000
      3     -46.6521      1.00000
      4     -41.7261      1.00000
      5     -41.6944      1.00000
      6     -41.6704      1.00000
      7     -20.7382      1.00000
      8     -20.7180      1.00000
      9     -20.6596      1.00000
     10     -20.5751      1.00000
     11      -4.3835      1.00000
     12      -4.1564      1.00000
     13      -3.8282      1.00000
     14      -3.8073      1.00000
     15      -3.4650      1.00000
     16      -3.0586      1.00000
     17      -2.6242      1.00000
     18      -2.4265      1.00000
     19      -1.9656      1.00000
     20      -1.6914      1.00000
     21      -1.5718      1.00000
     22      -1.5386      1.00000
     23      -0.5156      1.00000
     24      -0.3427      1.00000
     25      -0.0840      1.00000
     26       0.6006      1.00000
     27       1.0956      1.00000
     28       7.1280      0.00000
     29       7.1726      0.00000
     30       7.4414      0.00000
     31       7.8197      0.00000
     32       8.1859      0.00000
     33       9.8671      0.00000
     34      11.1654      0.00000
     35      11.2025      0.00000
     36      11.2476      0.00000


--------------------------------------------------------------------------------------------------------


 soft charge-density along one line, spin component           1
         0         1         2         3         4         5         6         7         8         9
 total charge-density along one line
 
 soft charge-density along one line, spin component           2
         0         1         2         3         4         5         6         7         8         9
 total charge-density along one line
 
 pseudopotential strength for first ion, spin component:           1
-42.471  -0.000  -0.028   7.857   0.000   0.012   0.000   0.000
 -0.000 -42.443  -0.000   0.000   7.845   0.000  -0.000   0.000
 -0.028  -0.000 -42.471   0.012   0.000   7.857   0.000  -0.000
  7.857   0.000   0.012   5.260  -0.000  -0.002  -0.000  -0.000
  0.000   7.845   0.000  -0.000   5.262  -0.000   0.000  -0.000
  0.012   0.000   7.857  -0.002  -0.000   5.260  -0.000   0.000
  0.000  -0.000   0.000  -0.000   0.000  -0.000  -1.445  -0.000
  0.000   0.000  -0.000  -0.000  -0.000   0.000  -0.000  -1.403
 -0.000   0.000  -0.000   0.000  -0.000   0.000  -0.065   0.000
 -0.000   0.000   0.000   0.000  -0.000  -0.000  -0.000  -0.082
 -0.000   0.000   0.000   0.000  -0.000  -0.000  -0.000   0.000
  0.000  -0.000   0.000  -0.000   0.000  -0.000  -1.886  -0.000
  0.000   0.000  -0.000  -0.000  -0.000   0.000  -0.000  -1.844
 -0.000   0.000  -0.000   0.000  -0.000   0.000  -0.069   0.000
 -0.000   0.000   0.000   0.000  -0.000  -0.000  -0.000  -0.085
 -0.000   0.000   0.000   0.000  -0.000  -0.000  -0.000   0.000
 -0.000  -0.000  -0.000  -0.000  -0.000  -0.000   0.007   0.000
 -0.000  -0.000  -0.000  -0.000  -0.000  -0.000   0.013   0.000
 pseudopotential strength for first ion, spin component:           2
-45.812  -0.000  -0.020   9.388   0.000   0.007   0.000   0.000
 -0.000 -45.793  -0.000   0.000   9.382   0.000  -0.000   0.000
 -0.020  -0.000 -45.812   0.007   0.000   9.388   0.000  -0.000
  9.388   0.000   0.007   4.745  -0.000  -0.001  -0.000  -0.000
  0.000   9.382   0.000  -0.000   4.746  -0.000   0.000  -0.000
  0.007   0.000   9.388  -0.001  -0.000   4.745  -0.000   0.000
  0.000  -0.000   0.000  -0.000   0.000  -0.000  -7.736  -0.000
  0.000   0.000  -0.000  -0.000  -0.000   0.000  -0.000  -7.708
 -0.000   0.000  -0.000   0.000  -0.000   0.000  -0.045   0.000
 -0.000   0.000   0.000   0.000  -0.000  -0.000  -0.000  -0.065
 -0.000   0.000   0.000   0.000  -0.000  -0.000   0.000   0.000
  0.000  -0.000   0.000  -0.000   0.000  -0.000  -8.233  -0.000
  0.000   0.000  -0.000  -0.000  -0.000   0.000  -0.000  -8.204
 -0.000   0.000  -0.000   0.000  -0.000   0.000  -0.047   0.000
 -0.000   0.000   0.000   0.000  -0.000  -0.000  -0.000  -0.067
 -0.000   0.000   0.000   0.000  -0.000  -0.000   0.000   0.000
 -0.000  -0.000  -0.000  -0.000  -0.000  -0.000   0.003   0.000
 -0.000  -0.000  -0.000  -0.000  -0.000  -0.000   0.005   0.000
 total augmentation occupancy for first ion, spin component:           1
  1.998   0.000   0.000  -0.013   0.000   0.000   0.000   0.000   0.000   0.000   0.000   0.000   0.000   0.000   0.000   0.000
  0.000   1.998   0.000   0.000  -0.013   0.000   0.000   0.000   0.000   0.000   0.000   0.000   0.000   0.000   0.000   0.000
  0.000   0.000   1.998   0.000   0.000  -0.013   0.000   0.000   0.000   0.000   0.000   0.000   0.000   0.000   0.000   0.000
 -0.013   0.000   0.000   0.086   0.000  -0.008   0.000   0.000   0.000   0.000   0.000   0.000   0.000   0.000   0.000   0.000
  0.000  -0.013   0.000   0.000   0.098   0.000   0.000   0.000   0.000   0.000   0.000   0.000   0.000   0.000   0.000   0.000
  0.000   0.000  -0.013  -0.008   0.000   0.086   0.000   0.000   0.000   0.000   0.000   0.000   0.000   0.000   0.000   0.000
  0.000   0.000   0.000   0.000   0.000   0.000   7.616   0.000   2.906   0.000   0.000  -5.668   0.000  -2.744   0.000   0.000
  0.000   0.000   0.000   0.000   0.000   0.000   0.000   6.518   0.000   2.558   0.000   0.000  -4.624   0.000  -2.410   0.000
  0.000   0.000   0.000   0.000   0.000   0.000   2.906   0.000   5.894   0.000   0.000  -2.745   0.000  -4.059   0.000   0.000
  0.000   0.000   0.000   0.000   0.000   0.000   0.000   2.558   0.000   6.518   0.000   0.000  -2.410   0.000  -4.624   0.000
  0.000   0.000   0.000   0.000   0.000   0.000   0.000   0.000   0.000   0.000   3.843   0.000   0.000  -0.000   0.000  -2.081
  0.000   0.000   0.000   0.000   0.000   0.000  -5.668   0.000  -2.745   0.000   0.000   4.889   0.000   2.622   0.000   0.000
  0.000   0.000   0.000   0.000   0.000   0.000   0.000  -4.624   0.000  -2.410   0.000   0.000   3.887   0.000   2.296   0.000
  0.000   0.000   0.000   0.000   0.000   0.000  -2.744   0.000  -4.059   0.000   0.000   2.622   0.000   3.369   0.000  -0.000
  0.000   0.000   0.000   0.000   0.000   0.000   0.000  -2.410   0.000  -4.624   0.000   0.000   2.296   0.000   3.887   0.000
  0.000   0.000   0.000   0.000   0.000   0.000   0.000   0.000  -0.000   0.000  -2.081  -0.000   0.000  -0.000   0.000   1.442
  0.000   0.000   0.000   0.000   0.000   0.000   0.200   0.000  -0.214   0.000  -0.000  -0.231   0.000   0.230   0.000   0.000
  0.000   0.000   0.000   0.000   0.000   0.000   0.003   0.000   0.015   0.000   0.000   0.022   0.000  -0.030   0.000   0.000
 total augmentation occupancy for first ion, spin component:           2
  0.003   0.000  -0.000   0.011   0.000  -0.000   0.000   0.000   0.000   0.000   0.000   0.000   0.000   0.000   0.000   0.000
  0.000   0.003   0.000   0.000   0.012   0.000   0.000   0.000   0.000   0.000   0.000   0.000   0.000   0.000   0.000   0.000
 -0.000   0.000   0.003  -0.000   0.000   0.011   0.000   0.000   0.000   0.000   0.000   0.000   0.000   0.000   0.000   0.000
  0.011   0.000  -0.000  -0.011   0.000  -0.000   0.000   0.000   0.000   0.000   0.000   0.000   0.000   0.000   0.000   0.000
  0.000   0.012   0.000   0.000  -0.011   0.000   0.000   0.000   0.000   0.000   0.000   0.000   0.000   0.000   0.000   0.000
 -0.000   0.000   0.011  -0.000   0.000  -0.011   0.000   0.000   0.000   0.000   0.000   0.000   0.000   0.000   0.000   0.000
  0.000   0.000   0.000   0.000   0.000   0.000  -5.376   0.000  -1.636   0.000  -0.000   3.087   0.000   1.287   0.000   0.000
  0.000   0.000   0.000   0.000   0.000   0.000   0.000  -4.766   0.000  -1.455   0.000   0.000   2.594   0.000   1.146   0.000
  0.000   0.000   0.000   0.000   0.000   0.000  -1.636   0.000  -4.332   0.000   0.000   1.288   0.000   2.259   0.000   0.000
  0.000   0.000   0.000   0.000   0.000   0.000   0.000  -1.455   0.000  -4.766   0.000   0.000   1.146   0.000   2.594   0.000
  0.000   0.000   0.000   0.000   0.000   0.000  -0.000   0.000   0.000   0.000  -3.300   0.000   0.000   0.000   0.000   1.438
  0.000   0.000   0.000   0.000   0.000   0.000   3.087   0.000   1.288   0.000   0.000  -1.908   0.000  -0.945   0.000   0.000
  0.000   0.000   0.000   0.000   0.000   0.000   0.000   2.594   0.000   1.146   0.000   0.000  -1.530   0.000  -0.843   0.000
  0.000   0.000   0.000   0.000   0.000   0.000   1.287   0.000   2.259   0.000   0.000  -0.945   0.000  -1.291   0.000   0.000
  0.000   0.000   0.000   0.000   0.000   0.000   0.000   1.146   0.000   2.594   0.000   0.000  -0.843   0.000  -1.530   0.000
  0.000   0.000   0.000   0.000   0.000   0.000   0.000   0.000  -0.000   0.000   1.438  -0.000   0.000   0.000   0.000  -0.680
  0.000   0.000   0.000   0.000   0.000   0.000   0.024   0.000   0.008   0.000   0.000  -0.025   0.000   0.004   0.000   0.000
  0.000   0.000   0.000   0.000   0.000   0.000  -0.048   0.000   0.025   0.000  -0.000   0.029   0.000  -0.014   0.000  -0.000


------------------------ aborting loop because EDIFF is reached ----------------------------------------


 


 total charge     
 
# of ion       s       p       d       tot
------------------------------------------
    1        0.164   6.153   4.950  11.268
    2        0.169   6.148   4.956  11.273
    3        1.726   4.366   0.000   6.092
    4        1.726   4.366   0.000   6.092
    5        1.726   4.362   0.000   6.088
    6        1.726   4.362   0.000   6.088
--------------------------------------------------
tot          7.238  29.758   9.907  46.902
 


 magnetization (x)
 
# of ion       s       p       d       tot
------------------------------------------
    1       -0.018  -0.019  -4.629  -4.666
    2        0.018   0.018   4.627   4.663
    3        0.002   0.017   0.000   0.018
    4        0.002   0.017   0.000   0.018
    5       -0.002  -0.013   0.000  -0.015
    6       -0.002  -0.013   0.000  -0.015
--------------------------------------------------
tot         -0.001   0.006  -0.002   0.003
 
    CHARGE:  cpu time    0.0688: real time    0.0688
    FORLOC:  cpu time    0.0011: real time    0.0011
    FORNL :  cpu time    0.3738: real time    0.3739
    STRESS:  cpu time    1.0503: real time    1.0511
    FORCOR:  cpu time    0.0151: real time    0.0151
    FORHAR:  cpu time    0.0021: real time    0.0021
    MIXING:  cpu time    0.0007: real time    0.0007
    OFIELD:  cpu time    0.0000: real time    0.0000

  FORCE on cell =-STRESS in cart. coord.  units (eV):
  Direction    XX          YY          ZZ          XY          YZ          ZX
  --------------------------------------------------------------------------------------
  Alpha Z   196.13658   196.13658   196.13658
  Ewald   -1582.29950 -1582.29950 -1013.71634    -0.00000     0.00000     0.00000
  Hartree   591.40795   591.40795   975.81312    -0.00000    -0.00000    -0.00000
  E(xc)    -314.10048  -314.10048  -313.88095    -0.00000    -0.00000    -0.00000
  Local     161.05119   161.05119  -784.98738     0.00000    -0.00000     0.00000
  n-local  -242.36752  -242.73921  -241.50939     0.01994     0.10399     0.10740
  augment   265.56251   265.56251   265.04700     0.00000     0.00000     0.00000
  Kinetic   924.34762   925.26632   917.10268    -0.41671    -0.76740    -0.83522
  Fock        0.00000     0.00000     0.00000     0.00000     0.00000     0.00000
  -------------------------------------------------------------------------------------
  Total       0.01187     0.01187     0.00533    -0.00000     0.00000     0.00000
  in kB       0.24153     0.24153     0.10842    -0.00000     0.00000     0.00000
  external pressure =        0.20 kB  Pullay stress =        0.00 kB


 VOLUME and BASIS-vectors are now :
 -----------------------------------------------------------------------------
  energy-cutoff  :      600.00
  volume of cell :       78.71
      direct lattice vectors                 reciprocal lattice vectors
     4.883144143  0.000000000  0.000000000     0.204786091  0.000000000  0.000000000
     0.000000000  4.883144143  0.000000000     0.000000000  0.204786091  0.000000000
     0.000000000  0.000000000  3.300797677     0.000000000  0.000000000  0.302957072

  length of vectors
     4.883144143  4.883144143  3.300797677     0.204786091  0.204786091  0.302957072


 FORCES acting on ions
    electron-ion (+dipol)            ewald-force                    non-local-force                 convergence-correction
 -----------------------------------------------------------------------------------------------
   -.173E-11 0.658E-11 -.230E-13   0.853E-13 -.568E-13 0.114E-13   0.000E+00 0.000E+00 0.000E+00   -.156E-13 0.136E-14 0.668E-13
   -.320E-13 -.315E-14 0.405E-13   -.568E-13 -.142E-12 0.117E-13   0.000E+00 0.000E+00 0.000E+00   0.576E-13 -.158E-13 -.113E-12
   -.344E+02 0.344E+02 -.186E-11   0.358E+02 -.358E+02 -.818E-14   -.139E+01 0.139E+01 0.000E+00   -.258E-03 0.258E-03 -.446E-14
   0.344E+02 -.344E+02 0.956E-11   -.358E+02 0.358E+02 -.834E-14   0.139E+01 -.139E+01 0.000E+00   0.258E-03 -.258E-03 0.708E-13
   0.344E+02 0.344E+02 0.277E-07   -.358E+02 -.358E+02 -.565E-14   0.139E+01 0.139E+01 0.000E+00   0.258E-03 0.258E-03 -.214E-09
   -.344E+02 -.344E+02 -.277E-07   0.358E+02 0.358E+02 -.594E-14   -.139E+01 -.139E+01 0.000E+00   -.258E-03 -.258E-03 0.214E-09
 -----------------------------------------------------------------------------------------------
   -.166E-12 0.570E-11 0.339E-11   0.000E+00 -.711E-14 -.497E-14   0.000E+00 -.222E-15 0.000E+00   0.803E-13 -.481E-13 -.683E-13
 
 
 POSITION                                       TOTAL-FORCE (eV/Angst)
 -----------------------------------------------------------------------------------
      2.44157      2.44157      1.65040         0.000000      0.000000     -0.000000
      0.00000      0.00000      0.00000         0.000000      0.000000     -0.000000
      0.95438      3.92876      1.65040        -0.001920      0.001920     -0.000000
      3.92876      0.95438      1.65040         0.001920     -0.001920     -0.000000
      1.48719      1.48719      0.00000         0.001920      0.001920      0.000000
      3.39595      3.39595      0.00000        -0.001920     -0.001920     -0.000000
 -----------------------------------------------------------------------------------
    total drift:                               -0.000000      0.000000      0.000000


--------------------------------------------------------------------------------------------------------



  FREE ENERGIE OF THE ION-ELECTRON SYSTEM (eV)
  ---------------------------------------------------
  free  energy   TOTEN  =       -39.16211322 eV

  energy  without entropy=      -39.16211322  energy(sigma->0) =      -39.16211322
 


--------------------------------------------------------------------------------------------------------


    POTLOK:  cpu time    0.6954: real time    0.6954


--------------------------------------------------------------------------------------------------------


 writing wavefunctions
     LOOP+:  cpu time   29.0197: real time   29.0408
    4ORBIT:  cpu time    0.0000: real time    0.0000
 


 total charge     
 
# of ion       s       p       d       tot
------------------------------------------
    1        0.164   6.153   4.950  11.268
    2        0.169   6.148   4.956  11.273
    3        1.726   4.366   0.000   6.092
    4        1.726   4.366   0.000   6.092
    5        1.726   4.362   0.000   6.088
    6        1.726   4.362   0.000   6.088
--------------------------------------------------
tot          7.238  29.758   9.907  46.902
 


 magnetization (x)
 
# of ion       s       p       d       tot
------------------------------------------
    1       -0.018  -0.019  -4.629  -4.666
    2        0.018   0.018   4.627   4.663
    3        0.002   0.017   0.000   0.018
    4        0.002   0.017   0.000   0.018
    5       -0.002  -0.013   0.000  -0.015
    6       -0.002  -0.013   0.000  -0.015
--------------------------------------------------
tot         -0.001   0.006  -0.002   0.003
 

 total amount of memory used by VASP MPI-rank0    65540. kBytes
=======================================================================

   base      :      30000. kBytes
   nonl-proj :      23167. kBytes
   fftplans  :       1875. kBytes
   grid      :       2467. kBytes
   one-center:        186. kBytes
   wavefun   :       7845. kBytes
 
  
  
 General timing and accounting informations for this job:
 ========================================================
  
                  Total CPU time used (sec):       30.785
                            User time (sec):       22.532
                          System time (sec):        8.252
                         Elapsed time (sec):       30.856
  
                   Maximum memory used (kb):       77760.
                   Average memory used (kb):           0.
  
                          Minor page faults:        13967
                          Major page faults:            6
                 Voluntary context switches:          340
