 vasp.5.4.4.18Apr17-6-g9f103f2a35 (build Apr 27 2017 11:13:10) complex          
  
 executed on           IFC91_ompi date 2020.05.13  16:11:29
 running on   12 total cores
 distrk:  each k-point on   12 cores,    1 groups
 distr:  one band on NCORES_PER_BAND=   1 cores,   12 groups


--------------------------------------------------------------------------------------------------------


 INCAR:
 POTCAR:    PAW Mn_pv 02Aug2007                   
 POTCAR:    PAW F 31May2000                       

 ----------------------------------------------------------------------------- 
|                                                                             |
|           W    W    AA    RRRRR   N    N  II  N    N   GGGG   !!!           |
|           W    W   A  A   R    R  NN   N  II  NN   N  G    G  !!!           |
|           W    W  A    A  R    R  N N  N  II  N N  N  G       !!!           |
|           W WW W  AAAAAA  RRRRR   N  N N  II  N  N N  G  GGG   !            |
|           WW  WW  A    A  R   R   N   NN  II  N   NN  G    G                |
|           W    W  A    A  R    R  N    N  II  N    N   GGGG   !!!           |
|                                                                             |
|      For optimal performance we recommend to set                            |
|        NCORE= 4 - approx SQRT( number of cores)                             |
|      NCORE specifies how many cores store one orbital (NPAR=cpu/NCORE).     |
|      This setting can  greatly improve the performance of VASP for DFT.     |
|      The default,   NCORE=1            might be grossly inefficient         |
|      on modern multi-core architectures or massively parallel machines.     |
|      Do your own testing !!!!                                               |
|      Unfortunately you need to use the default for GW and RPA calculations. |
|      (for HF NCORE is supported but not extensively tested yet)             |
|                                                                             |
 ----------------------------------------------------------------------------- 

 POTCAR:    PAW Mn_pv 02Aug2007                   
   VRHFIN =Mn: 3p4s3d                                                           
   LEXCH  = CA                                                                  
   EATOM  =  2028.0466 eV,  149.0572 Ry                                         
                                                                                
   TITEL  = PAW Mn_pv 02Aug2007                                                 
   LULTRA =        F    use ultrasoft PP ?                                      
   IUNSCR =        1    unscreen: 0-lin 1-nonlin 2-no                           
   RPACOR =    2.080    partial core radius                                     
   POMASS =   54.938; ZVAL   =   13.000    mass and valenz                      
   RCORE  =    2.300    outmost cutoff radius                                   
   RWIGS  =    2.500; RWIGS  =    1.323    wigner-seitz radius (au A)           
   ENMAX  =  269.944; ENMIN  =  202.458 eV                                      
   ICORE  =        3    local potential                                         
   LCOR   =        T    correct aug charges                                     
   LPAW   =        T    paw PP                                                  
   EAUG   =  569.085                                                            
   DEXC   =    0.000                                                            
   RMAX   =    2.343    core radius for proj-oper                               
   RAUG   =    1.300    factor for augmentation sphere                          
   RDEP   =    2.338    radius for radial grids                                 
   RDEPT  =    1.798    core radius for aug-charge                              
                                                                                
   Atomic configuration                                                         
    8 entries                                                                   
     n  l   j            E        occ.                                          
     1  0  0.50     -6393.6057   2.0000                                         
     2  0  0.50      -735.9993   2.0000                                         
     2  1  1.50      -624.3417   6.0000                                         
     3  0  0.50       -80.9782   2.0000                                         
     3  1  1.50       -50.3144   6.0000                                         
     3  2  2.50        -3.6171   6.0000                                         
     4  0  0.50        -4.3304   1.0000                                         
     4  3  2.50        -1.3606   0.0000                                         
   Description                                                                  
     l       E           TYP  RCUT    TYP  RCUT                                 
     1    -50.3143634     23  2.000                                             
     1     -1.3605826     23  2.000                                             
     2     -3.6171470     23  2.300                                             
     2     -4.9777296     23  2.300                                             
     0     -4.3303688     23  2.300                                             
     0      7.3408788     23  2.300                                             
     3      9.5240782     23  2.300                                             
  local pseudopotential read in
  partial core-charges read in
  partial kinetic energy density read in
  atomic valenz-charges read in
  non local Contribution for L=           1  read in
    real space projection operators read in
  non local Contribution for L=           1  read in
    real space projection operators read in
  non local Contribution for L=           2  read in
    real space projection operators read in
  non local Contribution for L=           2  read in
    real space projection operators read in
  non local Contribution for L=           0  read in
    real space projection operators read in
  non local Contribution for L=           0  read in
    real space projection operators read in
    PAW grid and wavefunctions read in
 
   number of l-projection  operators is LMAX  =           6
   number of lm-projection operators is LMMAX =          18
 
 POTCAR:    PAW F 31May2000                       
   VRHFIN =F: s2p5                                                              
   LEXCH  = CA                                                                  
   EATOM  =   658.3685 eV,   48.3887 Ry                                         
                                                                                
   TITEL  = PAW F 31May2000                                                     
   LULTRA =        F    use ultrasoft PP ?                                      
   IUNSCR =        1    unscreen: 0-lin 1-nonlin 2-no                           
   RPACOR =    1.200    partial core radius                                     
   POMASS =   18.998; ZVAL   =    7.000    mass and valenz                      
   RCORE  =    1.520    outmost cutoff radius                                   
   RWIGS  =    1.500; RWIGS  =    0.794    wigner-seitz radius (au A)           
   ENMAX  =  400.000; ENMIN  =  300.000 eV                                      
   ICORE  =        2    local potential                                         
   LCOR   =        T    correct aug charges                                     
   LPAW   =        T    paw PP                                                  
   EAUG   =  613.614                                                            
   DEXC   =    0.000                                                            
   RMAX   =    1.555    core radius for proj-oper                               
   RAUG   =    1.300    factor for augmentation sphere                          
   RDEP   =    1.539    radius for radial grids                                 
   RDEPT  =    1.299    core radius for aug-charge                              
                                                                                
   Atomic configuration                                                         
    4 entries                                                                   
     n  l   j            E        occ.                                          
     1  0  0.50      -658.3386   2.0000                                         
     2  0  0.50       -29.6221   2.0000                                         
     2  1  0.50       -11.2952   5.0000                                         
     3  2  1.50       -12.2452   0.0000                                         
   Description                                                                  
     l       E           TYP  RCUT    TYP  RCUT                                 
     0    -29.6221019     23  1.200                                             
     0     -9.5240782     23  1.200                                             
     1    -11.2951545     23  1.520                                             
     1      1.3605826     23  1.520                                             
     2    -12.2452434      7  1.500                                             
  local pseudopotential read in
  partial core-charges read in
  partial kinetic energy density read in
  kinetic energy density of atom read in
  atomic valenz-charges read in
  non local Contribution for L=           0  read in
    real space projection operators read in
  non local Contribution for L=           0  read in
    real space projection operators read in
  non local Contribution for L=           1  read in
    real space projection operators read in
  non local Contribution for L=           1  read in
    real space projection operators read in
    PAW grid and wavefunctions read in
 
   number of l-projection  operators is LMAX  =           4
   number of lm-projection operators is LMMAX =           8
 
  PAW Mn_pv 02Aug2007                   :
 energy of atom  1       EATOM=-2028.0466
 kinetic energy error for atom=    0.0047 (will be added to EATOM!!)
  PAW F 31May2000                       :
 energy of atom  2       EATOM= -658.3685
 kinetic energy error for atom=    0.0252 (will be added to EATOM!!)
 
 
 POSCAR: Mn  F                                   
  positions in cartesian coordinates
  No initial velocities read in
 exchange correlation table for  LEXCH =        2
   RHO(1)=    0.500       N(1)  =     2000
   RHO(2)=  100.500       N(2)  =     4000
 


--------------------------------------------------------------------------------------------------------


 ion  position               nearest neighbor table
   1  0.500  0.500  0.500-   3 2.05   4 2.05   5 2.09   6 2.09   5 2.09   6 2.09
   2  0.000  0.000  0.000-   5 2.05   6 2.05   3 2.09   4 2.09   3 2.09   4 2.09
   3  0.197  0.803  0.500-   1 2.05   2 2.09   2 2.09
   4  0.803  0.197  0.500-   1 2.05   2 2.09   2 2.09
   5  0.303  0.303  0.000-   2 2.05   1 2.09   1 2.09
   6  0.697  0.697  0.000-   2 2.05   1 2.09   1 2.09
 

IMPORTANT INFORMATION: All symmetrisations will be switched off!
NOSYMM: (Re-)initialisation of all symmetry stuff for point group C_1.

 
 
 KPOINTS: KPOINTS created by Atomic Simulation Env

Automatic generation of k-mesh.
Space group operators:
 irot       det(A)        alpha          n_x          n_y          n_z        tau_x        tau_y        tau_z
    1     1.000000     0.000000     1.000000     0.000000     0.000000     0.000000     0.000000     0.000000
 
 Subroutine IBZKPT returns following result:
 ===========================================
 
 Found    446 irreducible k-points:
 
 Following reciprocal coordinates:
            Coordinates               Weight
  0.000000  0.000000  0.000000      1.000000
  0.111111  0.000000  0.000000      2.000000
  0.222222  0.000000  0.000000      2.000000
  0.333333  0.000000  0.000000      2.000000
  0.444444  0.000000  0.000000      2.000000
  0.000000  0.111111  0.000000      2.000000
  0.111111  0.111111  0.000000      2.000000
  0.222222  0.111111  0.000000      2.000000
  0.333333  0.111111  0.000000      2.000000
  0.444444  0.111111  0.000000      2.000000
 -0.444444  0.111111  0.000000      2.000000
 -0.333333  0.111111  0.000000      2.000000
 -0.222222  0.111111  0.000000      2.000000
 -0.111111  0.111111  0.000000      2.000000
  0.000000  0.222222  0.000000      2.000000
  0.111111  0.222222  0.000000      2.000000
  0.222222  0.222222  0.000000      2.000000
  0.333333  0.222222  0.000000      2.000000
  0.444444  0.222222  0.000000      2.000000
 -0.444444  0.222222  0.000000      2.000000
 -0.333333  0.222222  0.000000      2.000000
 -0.222222  0.222222  0.000000      2.000000
 -0.111111  0.222222  0.000000      2.000000
  0.000000  0.333333  0.000000      2.000000
  0.111111  0.333333  0.000000      2.000000
  0.222222  0.333333  0.000000      2.000000
  0.333333  0.333333  0.000000      2.000000
  0.444444  0.333333  0.000000      2.000000
 -0.444444  0.333333  0.000000      2.000000
 -0.333333  0.333333  0.000000      2.000000
 -0.222222  0.333333  0.000000      2.000000
 -0.111111  0.333333  0.000000      2.000000
  0.000000  0.444444  0.000000      2.000000
  0.111111  0.444444  0.000000      2.000000
  0.222222  0.444444  0.000000      2.000000
  0.333333  0.444444  0.000000      2.000000
  0.444444  0.444444  0.000000      2.000000
 -0.444444  0.444444  0.000000      2.000000
 -0.333333  0.444444  0.000000      2.000000
 -0.222222  0.444444  0.000000      2.000000
 -0.111111  0.444444  0.000000      2.000000
  0.000000  0.000000  0.090909      2.000000
  0.111111  0.000000  0.090909      2.000000
  0.222222  0.000000  0.090909      2.000000
  0.333333  0.000000  0.090909      2.000000
  0.444444  0.000000  0.090909      2.000000
 -0.444444  0.000000  0.090909      2.000000
 -0.333333  0.000000  0.090909      2.000000
 -0.222222  0.000000  0.090909      2.000000
 -0.111111  0.000000  0.090909      2.000000
  0.000000  0.111111  0.090909      2.000000
  0.111111  0.111111  0.090909      2.000000
  0.222222  0.111111  0.090909      2.000000
  0.333333  0.111111  0.090909      2.000000
  0.444444  0.111111  0.090909      2.000000
 -0.444444  0.111111  0.090909      2.000000
 -0.333333  0.111111  0.090909      2.000000
 -0.222222  0.111111  0.090909      2.000000
 -0.111111  0.111111  0.090909      2.000000
  0.000000  0.222222  0.090909      2.000000
  0.111111  0.222222  0.090909      2.000000
  0.222222  0.222222  0.090909      2.000000
  0.333333  0.222222  0.090909      2.000000
  0.444444  0.222222  0.090909      2.000000
 -0.444444  0.222222  0.090909      2.000000
 -0.333333  0.222222  0.090909      2.000000
 -0.222222  0.222222  0.090909      2.000000
 -0.111111  0.222222  0.090909      2.000000
  0.000000  0.333333  0.090909      2.000000
  0.111111  0.333333  0.090909      2.000000
  0.222222  0.333333  0.090909      2.000000
  0.333333  0.333333  0.090909      2.000000
  0.444444  0.333333  0.090909      2.000000
 -0.444444  0.333333  0.090909      2.000000
 -0.333333  0.333333  0.090909      2.000000
 -0.222222  0.333333  0.090909      2.000000
 -0.111111  0.333333  0.090909      2.000000
  0.000000  0.444444  0.090909      2.000000
  0.111111  0.444444  0.090909      2.000000
  0.222222  0.444444  0.090909      2.000000
  0.333333  0.444444  0.090909      2.000000
  0.444444  0.444444  0.090909      2.000000
 -0.444444  0.444444  0.090909      2.000000
 -0.333333  0.444444  0.090909      2.000000
 -0.222222  0.444444  0.090909      2.000000
 -0.111111  0.444444  0.090909      2.000000
  0.000000 -0.444444  0.090909      2.000000
  0.111111 -0.444444  0.090909      2.000000
  0.222222 -0.444444  0.090909      2.000000
  0.333333 -0.444444  0.090909      2.000000
  0.444444 -0.444444  0.090909      2.000000
 -0.444444 -0.444444  0.090909      2.000000
 -0.333333 -0.444444  0.090909      2.000000
 -0.222222 -0.444444  0.090909      2.000000
 -0.111111 -0.444444  0.090909      2.000000
  0.000000 -0.333333  0.090909      2.000000
  0.111111 -0.333333  0.090909      2.000000
  0.222222 -0.333333  0.090909      2.000000
  0.333333 -0.333333  0.090909      2.000000
  0.444444 -0.333333  0.090909      2.000000
 -0.444444 -0.333333  0.090909      2.000000
 -0.333333 -0.333333  0.090909      2.000000
 -0.222222 -0.333333  0.090909      2.000000
 -0.111111 -0.333333  0.090909      2.000000
  0.000000 -0.222222  0.090909      2.000000
  0.111111 -0.222222  0.090909      2.000000
  0.222222 -0.222222  0.090909      2.000000
  0.333333 -0.222222  0.090909      2.000000
  0.444444 -0.222222  0.090909      2.000000
 -0.444444 -0.222222  0.090909      2.000000
 -0.333333 -0.222222  0.090909      2.000000
 -0.222222 -0.222222  0.090909      2.000000
 -0.111111 -0.222222  0.090909      2.000000
  0.000000 -0.111111  0.090909      2.000000
  0.111111 -0.111111  0.090909      2.000000
  0.222222 -0.111111  0.090909      2.000000
  0.333333 -0.111111  0.090909      2.000000
  0.444444 -0.111111  0.090909      2.000000
 -0.444444 -0.111111  0.090909      2.000000
 -0.333333 -0.111111  0.090909      2.000000
 -0.222222 -0.111111  0.090909      2.000000
 -0.111111 -0.111111  0.090909      2.000000
  0.000000  0.000000  0.181818      2.000000
  0.111111  0.000000  0.181818      2.000000
  0.222222  0.000000  0.181818      2.000000
  0.333333  0.000000  0.181818      2.000000
  0.444444  0.000000  0.181818      2.000000
 -0.444444  0.000000  0.181818      2.000000
 -0.333333  0.000000  0.181818      2.000000
 -0.222222  0.000000  0.181818      2.000000
 -0.111111  0.000000  0.181818      2.000000
  0.000000  0.111111  0.181818      2.000000
  0.111111  0.111111  0.181818      2.000000
  0.222222  0.111111  0.181818      2.000000
  0.333333  0.111111  0.181818      2.000000
  0.444444  0.111111  0.181818      2.000000
 -0.444444  0.111111  0.181818      2.000000
 -0.333333  0.111111  0.181818      2.000000
 -0.222222  0.111111  0.181818      2.000000
 -0.111111  0.111111  0.181818      2.000000
  0.000000  0.222222  0.181818      2.000000
  0.111111  0.222222  0.181818      2.000000
  0.222222  0.222222  0.181818      2.000000
  0.333333  0.222222  0.181818      2.000000
  0.444444  0.222222  0.181818      2.000000
 -0.444444  0.222222  0.181818      2.000000
 -0.333333  0.222222  0.181818      2.000000
 -0.222222  0.222222  0.181818      2.000000
 -0.111111  0.222222  0.181818      2.000000
  0.000000  0.333333  0.181818      2.000000
  0.111111  0.333333  0.181818      2.000000
  0.222222  0.333333  0.181818      2.000000
  0.333333  0.333333  0.181818      2.000000
  0.444444  0.333333  0.181818      2.000000
 -0.444444  0.333333  0.181818      2.000000
 -0.333333  0.333333  0.181818      2.000000
 -0.222222  0.333333  0.181818      2.000000
 -0.111111  0.333333  0.181818      2.000000
  0.000000  0.444444  0.181818      2.000000
  0.111111  0.444444  0.181818      2.000000
  0.222222  0.444444  0.181818      2.000000
  0.333333  0.444444  0.181818      2.000000
  0.444444  0.444444  0.181818      2.000000
 -0.444444  0.444444  0.181818      2.000000
 -0.333333  0.444444  0.181818      2.000000
 -0.222222  0.444444  0.181818      2.000000
 -0.111111  0.444444  0.181818      2.000000
  0.000000 -0.444444  0.181818      2.000000
  0.111111 -0.444444  0.181818      2.000000
  0.222222 -0.444444  0.181818      2.000000
  0.333333 -0.444444  0.181818      2.000000
  0.444444 -0.444444  0.181818      2.000000
 -0.444444 -0.444444  0.181818      2.000000
 -0.333333 -0.444444  0.181818      2.000000
 -0.222222 -0.444444  0.181818      2.000000
 -0.111111 -0.444444  0.181818      2.000000
  0.000000 -0.333333  0.181818      2.000000
  0.111111 -0.333333  0.181818      2.000000
  0.222222 -0.333333  0.181818      2.000000
  0.333333 -0.333333  0.181818      2.000000
  0.444444 -0.333333  0.181818      2.000000
 -0.444444 -0.333333  0.181818      2.000000
 -0.333333 -0.333333  0.181818      2.000000
 -0.222222 -0.333333  0.181818      2.000000
 -0.111111 -0.333333  0.181818      2.000000
  0.000000 -0.222222  0.181818      2.000000
  0.111111 -0.222222  0.181818      2.000000
  0.222222 -0.222222  0.181818      2.000000
  0.333333 -0.222222  0.181818      2.000000
  0.444444 -0.222222  0.181818      2.000000
 -0.444444 -0.222222  0.181818      2.000000
 -0.333333 -0.222222  0.181818      2.000000
 -0.222222 -0.222222  0.181818      2.000000
 -0.111111 -0.222222  0.181818      2.000000
  0.000000 -0.111111  0.181818      2.000000
  0.111111 -0.111111  0.181818      2.000000
  0.222222 -0.111111  0.181818      2.000000
  0.333333 -0.111111  0.181818      2.000000
  0.444444 -0.111111  0.181818      2.000000
 -0.444444 -0.111111  0.181818      2.000000
 -0.333333 -0.111111  0.181818      2.000000
 -0.222222 -0.111111  0.181818      2.000000
 -0.111111 -0.111111  0.181818      2.000000
  0.000000  0.000000  0.272727      2.000000
  0.111111  0.000000  0.272727      2.000000
  0.222222  0.000000  0.272727      2.000000
  0.333333  0.000000  0.272727      2.000000
  0.444444  0.000000  0.272727      2.000000
 -0.444444  0.000000  0.272727      2.000000
 -0.333333  0.000000  0.272727      2.000000
 -0.222222  0.000000  0.272727      2.000000
 -0.111111  0.000000  0.272727      2.000000
  0.000000  0.111111  0.272727      2.000000
  0.111111  0.111111  0.272727      2.000000
  0.222222  0.111111  0.272727      2.000000
  0.333333  0.111111  0.272727      2.000000
  0.444444  0.111111  0.272727      2.000000
 -0.444444  0.111111  0.272727      2.000000
 -0.333333  0.111111  0.272727      2.000000
 -0.222222  0.111111  0.272727      2.000000
 -0.111111  0.111111  0.272727      2.000000
  0.000000  0.222222  0.272727      2.000000
  0.111111  0.222222  0.272727      2.000000
  0.222222  0.222222  0.272727      2.000000
  0.333333  0.222222  0.272727      2.000000
  0.444444  0.222222  0.272727      2.000000
 -0.444444  0.222222  0.272727      2.000000
 -0.333333  0.222222  0.272727      2.000000
 -0.222222  0.222222  0.272727      2.000000
 -0.111111  0.222222  0.272727      2.000000
  0.000000  0.333333  0.272727      2.000000
  0.111111  0.333333  0.272727      2.000000
  0.222222  0.333333  0.272727      2.000000
  0.333333  0.333333  0.272727      2.000000
  0.444444  0.333333  0.272727      2.000000
 -0.444444  0.333333  0.272727      2.000000
 -0.333333  0.333333  0.272727      2.000000
 -0.222222  0.333333  0.272727      2.000000
 -0.111111  0.333333  0.272727      2.000000
  0.000000  0.444444  0.272727      2.000000
  0.111111  0.444444  0.272727      2.000000
  0.222222  0.444444  0.272727      2.000000
  0.333333  0.444444  0.272727      2.000000
  0.444444  0.444444  0.272727      2.000000
 -0.444444  0.444444  0.272727      2.000000
 -0.333333  0.444444  0.272727      2.000000
 -0.222222  0.444444  0.272727      2.000000
 -0.111111  0.444444  0.272727      2.000000
  0.000000 -0.444444  0.272727      2.000000
  0.111111 -0.444444  0.272727      2.000000
  0.222222 -0.444444  0.272727      2.000000
  0.333333 -0.444444  0.272727      2.000000
  0.444444 -0.444444  0.272727      2.000000
 -0.444444 -0.444444  0.272727      2.000000
 -0.333333 -0.444444  0.272727      2.000000
 -0.222222 -0.444444  0.272727      2.000000
 -0.111111 -0.444444  0.272727      2.000000
  0.000000 -0.333333  0.272727      2.000000
  0.111111 -0.333333  0.272727      2.000000
  0.222222 -0.333333  0.272727      2.000000
  0.333333 -0.333333  0.272727      2.000000
  0.444444 -0.333333  0.272727      2.000000
 -0.444444 -0.333333  0.272727      2.000000
 -0.333333 -0.333333  0.272727      2.000000
 -0.222222 -0.333333  0.272727      2.000000
 -0.111111 -0.333333  0.272727      2.000000
  0.000000 -0.222222  0.272727      2.000000
  0.111111 -0.222222  0.272727      2.000000
  0.222222 -0.222222  0.272727      2.000000
  0.333333 -0.222222  0.272727      2.000000
  0.444444 -0.222222  0.272727      2.000000
 -0.444444 -0.222222  0.272727      2.000000
 -0.333333 -0.222222  0.272727      2.000000
 -0.222222 -0.222222  0.272727      2.000000
 -0.111111 -0.222222  0.272727      2.000000
  0.000000 -0.111111  0.272727      2.000000
  0.111111 -0.111111  0.272727      2.000000
  0.222222 -0.111111  0.272727      2.000000
  0.333333 -0.111111  0.272727      2.000000
  0.444444 -0.111111  0.272727      2.000000
 -0.444444 -0.111111  0.272727      2.000000
 -0.333333 -0.111111  0.272727      2.000000
 -0.222222 -0.111111  0.272727      2.000000
 -0.111111 -0.111111  0.272727      2.000000
  0.000000  0.000000  0.363636      2.000000
  0.111111  0.000000  0.363636      2.000000
  0.222222  0.000000  0.363636      2.000000
  0.333333  0.000000  0.363636      2.000000
  0.444444  0.000000  0.363636      2.000000
 -0.444444  0.000000  0.363636      2.000000
 -0.333333  0.000000  0.363636      2.000000
 -0.222222  0.000000  0.363636      2.000000
 -0.111111  0.000000  0.363636      2.000000
  0.000000  0.111111  0.363636      2.000000
  0.111111  0.111111  0.363636      2.000000
  0.222222  0.111111  0.363636      2.000000
  0.333333  0.111111  0.363636      2.000000
  0.444444  0.111111  0.363636      2.000000
 -0.444444  0.111111  0.363636      2.000000
 -0.333333  0.111111  0.363636      2.000000
 -0.222222  0.111111  0.363636      2.000000
 -0.111111  0.111111  0.363636      2.000000
  0.000000  0.222222  0.363636      2.000000
  0.111111  0.222222  0.363636      2.000000
  0.222222  0.222222  0.363636      2.000000
  0.333333  0.222222  0.363636      2.000000
  0.444444  0.222222  0.363636      2.000000
 -0.444444  0.222222  0.363636      2.000000
 -0.333333  0.222222  0.363636      2.000000
 -0.222222  0.222222  0.363636      2.000000
 -0.111111  0.222222  0.363636      2.000000
  0.000000  0.333333  0.363636      2.000000
  0.111111  0.333333  0.363636      2.000000
  0.222222  0.333333  0.363636      2.000000
  0.333333  0.333333  0.363636      2.000000
  0.444444  0.333333  0.363636      2.000000
 -0.444444  0.333333  0.363636      2.000000
 -0.333333  0.333333  0.363636      2.000000
 -0.222222  0.333333  0.363636      2.000000
 -0.111111  0.333333  0.363636      2.000000
  0.000000  0.444444  0.363636      2.000000
  0.111111  0.444444  0.363636      2.000000
  0.222222  0.444444  0.363636      2.000000
  0.333333  0.444444  0.363636      2.000000
  0.444444  0.444444  0.363636      2.000000
 -0.444444  0.444444  0.363636      2.000000
 -0.333333  0.444444  0.363636      2.000000
 -0.222222  0.444444  0.363636      2.000000
 -0.111111  0.444444  0.363636      2.000000
  0.000000 -0.444444  0.363636      2.000000
  0.111111 -0.444444  0.363636      2.000000
  0.222222 -0.444444  0.363636      2.000000
  0.333333 -0.444444  0.363636      2.000000
  0.444444 -0.444444  0.363636      2.000000
 -0.444444 -0.444444  0.363636      2.000000
 -0.333333 -0.444444  0.363636      2.000000
 -0.222222 -0.444444  0.363636      2.000000
 -0.111111 -0.444444  0.363636      2.000000
  0.000000 -0.333333  0.363636      2.000000
  0.111111 -0.333333  0.363636      2.000000
  0.222222 -0.333333  0.363636      2.000000
  0.333333 -0.333333  0.363636      2.000000
  0.444444 -0.333333  0.363636      2.000000
 -0.444444 -0.333333  0.363636      2.000000
 -0.333333 -0.333333  0.363636      2.000000
 -0.222222 -0.333333  0.363636      2.000000
 -0.111111 -0.333333  0.363636      2.000000
  0.000000 -0.222222  0.363636      2.000000
  0.111111 -0.222222  0.363636      2.000000
  0.222222 -0.222222  0.363636      2.000000
  0.333333 -0.222222  0.363636      2.000000
  0.444444 -0.222222  0.363636      2.000000
 -0.444444 -0.222222  0.363636      2.000000
 -0.333333 -0.222222  0.363636      2.000000
 -0.222222 -0.222222  0.363636      2.000000
 -0.111111 -0.222222  0.363636      2.000000
  0.000000 -0.111111  0.363636      2.000000
  0.111111 -0.111111  0.363636      2.000000
  0.222222 -0.111111  0.363636      2.000000
  0.333333 -0.111111  0.363636      2.000000
  0.444444 -0.111111  0.363636      2.000000
 -0.444444 -0.111111  0.363636      2.000000
 -0.333333 -0.111111  0.363636      2.000000
 -0.222222 -0.111111  0.363636      2.000000
 -0.111111 -0.111111  0.363636      2.000000
  0.000000  0.000000  0.454545      2.000000
  0.111111  0.000000  0.454545      2.000000
  0.222222  0.000000  0.454545      2.000000
  0.333333  0.000000  0.454545      2.000000
  0.444444  0.000000  0.454545      2.000000
 -0.444444  0.000000  0.454545      2.000000
 -0.333333  0.000000  0.454545      2.000000
 -0.222222  0.000000  0.454545      2.000000
 -0.111111  0.000000  0.454545      2.000000
  0.000000  0.111111  0.454545      2.000000
  0.111111  0.111111  0.454545      2.000000
  0.222222  0.111111  0.454545      2.000000
  0.333333  0.111111  0.454545      2.000000
  0.444444  0.111111  0.454545      2.000000
 -0.444444  0.111111  0.454545      2.000000
 -0.333333  0.111111  0.454545      2.000000
 -0.222222  0.111111  0.454545      2.000000
 -0.111111  0.111111  0.454545      2.000000
  0.000000  0.222222  0.454545      2.000000
  0.111111  0.222222  0.454545      2.000000
  0.222222  0.222222  0.454545      2.000000
  0.333333  0.222222  0.454545      2.000000
  0.444444  0.222222  0.454545      2.000000
 -0.444444  0.222222  0.454545      2.000000
 -0.333333  0.222222  0.454545      2.000000
 -0.222222  0.222222  0.454545      2.000000
 -0.111111  0.222222  0.454545      2.000000
  0.000000  0.333333  0.454545      2.000000
  0.111111  0.333333  0.454545      2.000000
  0.222222  0.333333  0.454545      2.000000
  0.333333  0.333333  0.454545      2.000000
  0.444444  0.333333  0.454545      2.000000
 -0.444444  0.333333  0.454545      2.000000
 -0.333333  0.333333  0.454545      2.000000
 -0.222222  0.333333  0.454545      2.000000
 -0.111111  0.333333  0.454545      2.000000
  0.000000  0.444444  0.454545      2.000000
  0.111111  0.444444  0.454545      2.000000
  0.222222  0.444444  0.454545      2.000000
  0.333333  0.444444  0.454545      2.000000
  0.444444  0.444444  0.454545      2.000000
 -0.444444  0.444444  0.454545      2.000000
 -0.333333  0.444444  0.454545      2.000000
 -0.222222  0.444444  0.454545      2.000000
 -0.111111  0.444444  0.454545      2.000000
  0.000000 -0.444444  0.454545      2.000000
  0.111111 -0.444444  0.454545      2.000000
  0.222222 -0.444444  0.454545      2.000000
  0.333333 -0.444444  0.454545      2.000000
  0.444444 -0.444444  0.454545      2.000000
 -0.444444 -0.444444  0.454545      2.000000
 -0.333333 -0.444444  0.454545      2.000000
 -0.222222 -0.444444  0.454545      2.000000
 -0.111111 -0.444444  0.454545      2.000000
  0.000000 -0.333333  0.454545      2.000000
  0.111111 -0.333333  0.454545      2.000000
  0.222222 -0.333333  0.454545      2.000000
  0.333333 -0.333333  0.454545      2.000000
  0.444444 -0.333333  0.454545      2.000000
 -0.444444 -0.333333  0.454545      2.000000
 -0.333333 -0.333333  0.454545      2.000000
 -0.222222 -0.333333  0.454545      2.000000
 -0.111111 -0.333333  0.454545      2.000000
  0.000000 -0.222222  0.454545      2.000000
  0.111111 -0.222222  0.454545      2.000000
  0.222222 -0.222222  0.454545      2.000000
  0.333333 -0.222222  0.454545      2.000000
  0.444444 -0.222222  0.454545      2.000000
 -0.444444 -0.222222  0.454545      2.000000
 -0.333333 -0.222222  0.454545      2.000000
 -0.222222 -0.222222  0.454545      2.000000
 -0.111111 -0.222222  0.454545      2.000000
  0.000000 -0.111111  0.454545      2.000000
  0.111111 -0.111111  0.454545      2.000000
  0.222222 -0.111111  0.454545      2.000000
  0.333333 -0.111111  0.454545      2.000000
  0.444444 -0.111111  0.454545      2.000000
 -0.444444 -0.111111  0.454545      2.000000
 -0.333333 -0.111111  0.454545      2.000000
 -0.222222 -0.111111  0.454545      2.000000
 -0.111111 -0.111111  0.454545      2.000000
 
 Following cartesian coordinates:
            Coordinates               Weight
  0.000000  0.000000  0.000000      1.000000
  0.023241  0.000000  0.000000      2.000000
  0.046482  0.000000  0.000000      2.000000
  0.069723  0.000000  0.000000      2.000000
  0.092964  0.000000  0.000000      2.000000
  0.000000  0.023241  0.000000      2.000000
  0.023241  0.023241  0.000000      2.000000
  0.046482  0.023241  0.000000      2.000000
  0.069723  0.023241  0.000000      2.000000
  0.092964  0.023241  0.000000      2.000000
 -0.092964  0.023241  0.000000      2.000000
 -0.069723  0.023241  0.000000      2.000000
 -0.046482  0.023241  0.000000      2.000000
 -0.023241  0.023241  0.000000      2.000000
  0.000000  0.046482  0.000000      2.000000
  0.023241  0.046482  0.000000      2.000000
  0.046482  0.046482  0.000000      2.000000
  0.069723  0.046482  0.000000      2.000000
  0.092964  0.046482  0.000000      2.000000
 -0.092964  0.046482  0.000000      2.000000
 -0.069723  0.046482  0.000000      2.000000
 -0.046482  0.046482  0.000000      2.000000
 -0.023241  0.046482  0.000000      2.000000
  0.000000  0.069723  0.000000      2.000000
  0.023241  0.069723  0.000000      2.000000
  0.046482  0.069723  0.000000      2.000000
  0.069723  0.069723  0.000000      2.000000
  0.092964  0.069723  0.000000      2.000000
 -0.092964  0.069723  0.000000      2.000000
 -0.069723  0.069723  0.000000      2.000000
 -0.046482  0.069723  0.000000      2.000000
 -0.023241  0.069723  0.000000      2.000000
  0.000000  0.092964  0.000000      2.000000
  0.023241  0.092964  0.000000      2.000000
  0.046482  0.092964  0.000000      2.000000
  0.069723  0.092964  0.000000      2.000000
  0.092964  0.092964  0.000000      2.000000
 -0.092964  0.092964  0.000000      2.000000
 -0.069723  0.092964  0.000000      2.000000
 -0.046482  0.092964  0.000000      2.000000
 -0.023241  0.092964  0.000000      2.000000
  0.000000  0.000000  0.028078      2.000000
  0.023241  0.000000  0.028078      2.000000
  0.046482  0.000000  0.028078      2.000000
  0.069723  0.000000  0.028078      2.000000
  0.092964  0.000000  0.028078      2.000000
 -0.092964  0.000000  0.028078      2.000000
 -0.069723  0.000000  0.028078      2.000000
 -0.046482  0.000000  0.028078      2.000000
 -0.023241  0.000000  0.028078      2.000000
  0.000000  0.023241  0.028078      2.000000
  0.023241  0.023241  0.028078      2.000000
  0.046482  0.023241  0.028078      2.000000
  0.069723  0.023241  0.028078      2.000000
  0.092964  0.023241  0.028078      2.000000
 -0.092964  0.023241  0.028078      2.000000
 -0.069723  0.023241  0.028078      2.000000
 -0.046482  0.023241  0.028078      2.000000
 -0.023241  0.023241  0.028078      2.000000
  0.000000  0.046482  0.028078      2.000000
  0.023241  0.046482  0.028078      2.000000
  0.046482  0.046482  0.028078      2.000000
  0.069723  0.046482  0.028078      2.000000
  0.092964  0.046482  0.028078      2.000000
 -0.092964  0.046482  0.028078      2.000000
 -0.069723  0.046482  0.028078      2.000000
 -0.046482  0.046482  0.028078      2.000000
 -0.023241  0.046482  0.028078      2.000000
  0.000000  0.069723  0.028078      2.000000
  0.023241  0.069723  0.028078      2.000000
  0.046482  0.069723  0.028078      2.000000
  0.069723  0.069723  0.028078      2.000000
  0.092964  0.069723  0.028078      2.000000
 -0.092964  0.069723  0.028078      2.000000
 -0.069723  0.069723  0.028078      2.000000
 -0.046482  0.069723  0.028078      2.000000
 -0.023241  0.069723  0.028078      2.000000
  0.000000  0.092964  0.028078      2.000000
  0.023241  0.092964  0.028078      2.000000
  0.046482  0.092964  0.028078      2.000000
  0.069723  0.092964  0.028078      2.000000
  0.092964  0.092964  0.028078      2.000000
 -0.092964  0.092964  0.028078      2.000000
 -0.069723  0.092964  0.028078      2.000000
 -0.046482  0.092964  0.028078      2.000000
 -0.023241  0.092964  0.028078      2.000000
  0.000000 -0.092964  0.028078      2.000000
  0.023241 -0.092964  0.028078      2.000000
  0.046482 -0.092964  0.028078      2.000000
  0.069723 -0.092964  0.028078      2.000000
  0.092964 -0.092964  0.028078      2.000000
 -0.092964 -0.092964  0.028078      2.000000
 -0.069723 -0.092964  0.028078      2.000000
 -0.046482 -0.092964  0.028078      2.000000
 -0.023241 -0.092964  0.028078      2.000000
  0.000000 -0.069723  0.028078      2.000000
  0.023241 -0.069723  0.028078      2.000000
  0.046482 -0.069723  0.028078      2.000000
  0.069723 -0.069723  0.028078      2.000000
  0.092964 -0.069723  0.028078      2.000000
 -0.092964 -0.069723  0.028078      2.000000
 -0.069723 -0.069723  0.028078      2.000000
 -0.046482 -0.069723  0.028078      2.000000
 -0.023241 -0.069723  0.028078      2.000000
  0.000000 -0.046482  0.028078      2.000000
  0.023241 -0.046482  0.028078      2.000000
  0.046482 -0.046482  0.028078      2.000000
  0.069723 -0.046482  0.028078      2.000000
  0.092964 -0.046482  0.028078      2.000000
 -0.092964 -0.046482  0.028078      2.000000
 -0.069723 -0.046482  0.028078      2.000000
 -0.046482 -0.046482  0.028078      2.000000
 -0.023241 -0.046482  0.028078      2.000000
  0.000000 -0.023241  0.028078      2.000000
  0.023241 -0.023241  0.028078      2.000000
  0.046482 -0.023241  0.028078      2.000000
  0.069723 -0.023241  0.028078      2.000000
  0.092964 -0.023241  0.028078      2.000000
 -0.092964 -0.023241  0.028078      2.000000
 -0.069723 -0.023241  0.028078      2.000000
 -0.046482 -0.023241  0.028078      2.000000
 -0.023241 -0.023241  0.028078      2.000000
  0.000000  0.000000  0.056156      2.000000
  0.023241  0.000000  0.056156      2.000000
  0.046482  0.000000  0.056156      2.000000
  0.069723  0.000000  0.056156      2.000000
  0.092964  0.000000  0.056156      2.000000
 -0.092964  0.000000  0.056156      2.000000
 -0.069723  0.000000  0.056156      2.000000
 -0.046482  0.000000  0.056156      2.000000
 -0.023241  0.000000  0.056156      2.000000
  0.000000  0.023241  0.056156      2.000000
  0.023241  0.023241  0.056156      2.000000
  0.046482  0.023241  0.056156      2.000000
  0.069723  0.023241  0.056156      2.000000
  0.092964  0.023241  0.056156      2.000000
 -0.092964  0.023241  0.056156      2.000000
 -0.069723  0.023241  0.056156      2.000000
 -0.046482  0.023241  0.056156      2.000000
 -0.023241  0.023241  0.056156      2.000000
  0.000000  0.046482  0.056156      2.000000
  0.023241  0.046482  0.056156      2.000000
  0.046482  0.046482  0.056156      2.000000
  0.069723  0.046482  0.056156      2.000000
  0.092964  0.046482  0.056156      2.000000
 -0.092964  0.046482  0.056156      2.000000
 -0.069723  0.046482  0.056156      2.000000
 -0.046482  0.046482  0.056156      2.000000
 -0.023241  0.046482  0.056156      2.000000
  0.000000  0.069723  0.056156      2.000000
  0.023241  0.069723  0.056156      2.000000
  0.046482  0.069723  0.056156      2.000000
  0.069723  0.069723  0.056156      2.000000
  0.092964  0.069723  0.056156      2.000000
 -0.092964  0.069723  0.056156      2.000000
 -0.069723  0.069723  0.056156      2.000000
 -0.046482  0.069723  0.056156      2.000000
 -0.023241  0.069723  0.056156      2.000000
  0.000000  0.092964  0.056156      2.000000
  0.023241  0.092964  0.056156      2.000000
  0.046482  0.092964  0.056156      2.000000
  0.069723  0.092964  0.056156      2.000000
  0.092964  0.092964  0.056156      2.000000
 -0.092964  0.092964  0.056156      2.000000
 -0.069723  0.092964  0.056156      2.000000
 -0.046482  0.092964  0.056156      2.000000
 -0.023241  0.092964  0.056156      2.000000
  0.000000 -0.092964  0.056156      2.000000
  0.023241 -0.092964  0.056156      2.000000
  0.046482 -0.092964  0.056156      2.000000
  0.069723 -0.092964  0.056156      2.000000
  0.092964 -0.092964  0.056156      2.000000
 -0.092964 -0.092964  0.056156      2.000000
 -0.069723 -0.092964  0.056156      2.000000
 -0.046482 -0.092964  0.056156      2.000000
 -0.023241 -0.092964  0.056156      2.000000
  0.000000 -0.069723  0.056156      2.000000
  0.023241 -0.069723  0.056156      2.000000
  0.046482 -0.069723  0.056156      2.000000
  0.069723 -0.069723  0.056156      2.000000
  0.092964 -0.069723  0.056156      2.000000
 -0.092964 -0.069723  0.056156      2.000000
 -0.069723 -0.069723  0.056156      2.000000
 -0.046482 -0.069723  0.056156      2.000000
 -0.023241 -0.069723  0.056156      2.000000
  0.000000 -0.046482  0.056156      2.000000
  0.023241 -0.046482  0.056156      2.000000
  0.046482 -0.046482  0.056156      2.000000
  0.069723 -0.046482  0.056156      2.000000
  0.092964 -0.046482  0.056156      2.000000
 -0.092964 -0.046482  0.056156      2.000000
 -0.069723 -0.046482  0.056156      2.000000
 -0.046482 -0.046482  0.056156      2.000000
 -0.023241 -0.046482  0.056156      2.000000
  0.000000 -0.023241  0.056156      2.000000
  0.023241 -0.023241  0.056156      2.000000
  0.046482 -0.023241  0.056156      2.000000
  0.069723 -0.023241  0.056156      2.000000
  0.092964 -0.023241  0.056156      2.000000
 -0.092964 -0.023241  0.056156      2.000000
 -0.069723 -0.023241  0.056156      2.000000
 -0.046482 -0.023241  0.056156      2.000000
 -0.023241 -0.023241  0.056156      2.000000
  0.000000  0.000000  0.084234      2.000000
  0.023241  0.000000  0.084234      2.000000
  0.046482  0.000000  0.084234      2.000000
  0.069723  0.000000  0.084234      2.000000
  0.092964  0.000000  0.084234      2.000000
 -0.092964  0.000000  0.084234      2.000000
 -0.069723  0.000000  0.084234      2.000000
 -0.046482  0.000000  0.084234      2.000000
 -0.023241  0.000000  0.084234      2.000000
  0.000000  0.023241  0.084234      2.000000
  0.023241  0.023241  0.084234      2.000000
  0.046482  0.023241  0.084234      2.000000
  0.069723  0.023241  0.084234      2.000000
  0.092964  0.023241  0.084234      2.000000
 -0.092964  0.023241  0.084234      2.000000
 -0.069723  0.023241  0.084234      2.000000
 -0.046482  0.023241  0.084234      2.000000
 -0.023241  0.023241  0.084234      2.000000
  0.000000  0.046482  0.084234      2.000000
  0.023241  0.046482  0.084234      2.000000
  0.046482  0.046482  0.084234      2.000000
  0.069723  0.046482  0.084234      2.000000
  0.092964  0.046482  0.084234      2.000000
 -0.092964  0.046482  0.084234      2.000000
 -0.069723  0.046482  0.084234      2.000000
 -0.046482  0.046482  0.084234      2.000000
 -0.023241  0.046482  0.084234      2.000000
  0.000000  0.069723  0.084234      2.000000
  0.023241  0.069723  0.084234      2.000000
  0.046482  0.069723  0.084234      2.000000
  0.069723  0.069723  0.084234      2.000000
  0.092964  0.069723  0.084234      2.000000
 -0.092964  0.069723  0.084234      2.000000
 -0.069723  0.069723  0.084234      2.000000
 -0.046482  0.069723  0.084234      2.000000
 -0.023241  0.069723  0.084234      2.000000
  0.000000  0.092964  0.084234      2.000000
  0.023241  0.092964  0.084234      2.000000
  0.046482  0.092964  0.084234      2.000000
  0.069723  0.092964  0.084234      2.000000
  0.092964  0.092964  0.084234      2.000000
 -0.092964  0.092964  0.084234      2.000000
 -0.069723  0.092964  0.084234      2.000000
 -0.046482  0.092964  0.084234      2.000000
 -0.023241  0.092964  0.084234      2.000000
  0.000000 -0.092964  0.084234      2.000000
  0.023241 -0.092964  0.084234      2.000000
  0.046482 -0.092964  0.084234      2.000000
  0.069723 -0.092964  0.084234      2.000000
  0.092964 -0.092964  0.084234      2.000000
 -0.092964 -0.092964  0.084234      2.000000
 -0.069723 -0.092964  0.084234      2.000000
 -0.046482 -0.092964  0.084234      2.000000
 -0.023241 -0.092964  0.084234      2.000000
  0.000000 -0.069723  0.084234      2.000000
  0.023241 -0.069723  0.084234      2.000000
  0.046482 -0.069723  0.084234      2.000000
  0.069723 -0.069723  0.084234      2.000000
  0.092964 -0.069723  0.084234      2.000000
 -0.092964 -0.069723  0.084234      2.000000
 -0.069723 -0.069723  0.084234      2.000000
 -0.046482 -0.069723  0.084234      2.000000
 -0.023241 -0.069723  0.084234      2.000000
  0.000000 -0.046482  0.084234      2.000000
  0.023241 -0.046482  0.084234      2.000000
  0.046482 -0.046482  0.084234      2.000000
  0.069723 -0.046482  0.084234      2.000000
  0.092964 -0.046482  0.084234      2.000000
 -0.092964 -0.046482  0.084234      2.000000
 -0.069723 -0.046482  0.084234      2.000000
 -0.046482 -0.046482  0.084234      2.000000
 -0.023241 -0.046482  0.084234      2.000000
  0.000000 -0.023241  0.084234      2.000000
  0.023241 -0.023241  0.084234      2.000000
  0.046482 -0.023241  0.084234      2.000000
  0.069723 -0.023241  0.084234      2.000000
  0.092964 -0.023241  0.084234      2.000000
 -0.092964 -0.023241  0.084234      2.000000
 -0.069723 -0.023241  0.084234      2.000000
 -0.046482 -0.023241  0.084234      2.000000
 -0.023241 -0.023241  0.084234      2.000000
  0.000000  0.000000  0.112312      2.000000
  0.023241  0.000000  0.112312      2.000000
  0.046482  0.000000  0.112312      2.000000
  0.069723  0.000000  0.112312      2.000000
  0.092964  0.000000  0.112312      2.000000
 -0.092964  0.000000  0.112312      2.000000
 -0.069723  0.000000  0.112312      2.000000
 -0.046482  0.000000  0.112312      2.000000
 -0.023241  0.000000  0.112312      2.000000
  0.000000  0.023241  0.112312      2.000000
  0.023241  0.023241  0.112312      2.000000
  0.046482  0.023241  0.112312      2.000000
  0.069723  0.023241  0.112312      2.000000
  0.092964  0.023241  0.112312      2.000000
 -0.092964  0.023241  0.112312      2.000000
 -0.069723  0.023241  0.112312      2.000000
 -0.046482  0.023241  0.112312      2.000000
 -0.023241  0.023241  0.112312      2.000000
  0.000000  0.046482  0.112312      2.000000
  0.023241  0.046482  0.112312      2.000000
  0.046482  0.046482  0.112312      2.000000
  0.069723  0.046482  0.112312      2.000000
  0.092964  0.046482  0.112312      2.000000
 -0.092964  0.046482  0.112312      2.000000
 -0.069723  0.046482  0.112312      2.000000
 -0.046482  0.046482  0.112312      2.000000
 -0.023241  0.046482  0.112312      2.000000
  0.000000  0.069723  0.112312      2.000000
  0.023241  0.069723  0.112312      2.000000
  0.046482  0.069723  0.112312      2.000000
  0.069723  0.069723  0.112312      2.000000
  0.092964  0.069723  0.112312      2.000000
 -0.092964  0.069723  0.112312      2.000000
 -0.069723  0.069723  0.112312      2.000000
 -0.046482  0.069723  0.112312      2.000000
 -0.023241  0.069723  0.112312      2.000000
  0.000000  0.092964  0.112312      2.000000
  0.023241  0.092964  0.112312      2.000000
  0.046482  0.092964  0.112312      2.000000
  0.069723  0.092964  0.112312      2.000000
  0.092964  0.092964  0.112312      2.000000
 -0.092964  0.092964  0.112312      2.000000
 -0.069723  0.092964  0.112312      2.000000
 -0.046482  0.092964  0.112312      2.000000
 -0.023241  0.092964  0.112312      2.000000
  0.000000 -0.092964  0.112312      2.000000
  0.023241 -0.092964  0.112312      2.000000
  0.046482 -0.092964  0.112312      2.000000
  0.069723 -0.092964  0.112312      2.000000
  0.092964 -0.092964  0.112312      2.000000
 -0.092964 -0.092964  0.112312      2.000000
 -0.069723 -0.092964  0.112312      2.000000
 -0.046482 -0.092964  0.112312      2.000000
 -0.023241 -0.092964  0.112312      2.000000
  0.000000 -0.069723  0.112312      2.000000
  0.023241 -0.069723  0.112312      2.000000
  0.046482 -0.069723  0.112312      2.000000
  0.069723 -0.069723  0.112312      2.000000
  0.092964 -0.069723  0.112312      2.000000
 -0.092964 -0.069723  0.112312      2.000000
 -0.069723 -0.069723  0.112312      2.000000
 -0.046482 -0.069723  0.112312      2.000000
 -0.023241 -0.069723  0.112312      2.000000
  0.000000 -0.046482  0.112312      2.000000
  0.023241 -0.046482  0.112312      2.000000
  0.046482 -0.046482  0.112312      2.000000
  0.069723 -0.046482  0.112312      2.000000
  0.092964 -0.046482  0.112312      2.000000
 -0.092964 -0.046482  0.112312      2.000000
 -0.069723 -0.046482  0.112312      2.000000
 -0.046482 -0.046482  0.112312      2.000000
 -0.023241 -0.046482  0.112312      2.000000
  0.000000 -0.023241  0.112312      2.000000
  0.023241 -0.023241  0.112312      2.000000
  0.046482 -0.023241  0.112312      2.000000
  0.069723 -0.023241  0.112312      2.000000
  0.092964 -0.023241  0.112312      2.000000
 -0.092964 -0.023241  0.112312      2.000000
 -0.069723 -0.023241  0.112312      2.000000
 -0.046482 -0.023241  0.112312      2.000000
 -0.023241 -0.023241  0.112312      2.000000
  0.000000  0.000000  0.140390      2.000000
  0.023241  0.000000  0.140390      2.000000
  0.046482  0.000000  0.140390      2.000000
  0.069723  0.000000  0.140390      2.000000
  0.092964  0.000000  0.140390      2.000000
 -0.092964  0.000000  0.140390      2.000000
 -0.069723  0.000000  0.140390      2.000000
 -0.046482  0.000000  0.140390      2.000000
 -0.023241  0.000000  0.140390      2.000000
  0.000000  0.023241  0.140390      2.000000
  0.023241  0.023241  0.140390      2.000000
  0.046482  0.023241  0.140390      2.000000
  0.069723  0.023241  0.140390      2.000000
  0.092964  0.023241  0.140390      2.000000
 -0.092964  0.023241  0.140390      2.000000
 -0.069723  0.023241  0.140390      2.000000
 -0.046482  0.023241  0.140390      2.000000
 -0.023241  0.023241  0.140390      2.000000
  0.000000  0.046482  0.140390      2.000000
  0.023241  0.046482  0.140390      2.000000
  0.046482  0.046482  0.140390      2.000000
  0.069723  0.046482  0.140390      2.000000
  0.092964  0.046482  0.140390      2.000000
 -0.092964  0.046482  0.140390      2.000000
 -0.069723  0.046482  0.140390      2.000000
 -0.046482  0.046482  0.140390      2.000000
 -0.023241  0.046482  0.140390      2.000000
  0.000000  0.069723  0.140390      2.000000
  0.023241  0.069723  0.140390      2.000000
  0.046482  0.069723  0.140390      2.000000
  0.069723  0.069723  0.140390      2.000000
  0.092964  0.069723  0.140390      2.000000
 -0.092964  0.069723  0.140390      2.000000
 -0.069723  0.069723  0.140390      2.000000
 -0.046482  0.069723  0.140390      2.000000
 -0.023241  0.069723  0.140390      2.000000
  0.000000  0.092964  0.140390      2.000000
  0.023241  0.092964  0.140390      2.000000
  0.046482  0.092964  0.140390      2.000000
  0.069723  0.092964  0.140390      2.000000
  0.092964  0.092964  0.140390      2.000000
 -0.092964  0.092964  0.140390      2.000000
 -0.069723  0.092964  0.140390      2.000000
 -0.046482  0.092964  0.140390      2.000000
 -0.023241  0.092964  0.140390      2.000000
  0.000000 -0.092964  0.140390      2.000000
  0.023241 -0.092964  0.140390      2.000000
  0.046482 -0.092964  0.140390      2.000000
  0.069723 -0.092964  0.140390      2.000000
  0.092964 -0.092964  0.140390      2.000000
 -0.092964 -0.092964  0.140390      2.000000
 -0.069723 -0.092964  0.140390      2.000000
 -0.046482 -0.092964  0.140390      2.000000
 -0.023241 -0.092964  0.140390      2.000000
  0.000000 -0.069723  0.140390      2.000000
  0.023241 -0.069723  0.140390      2.000000
  0.046482 -0.069723  0.140390      2.000000
  0.069723 -0.069723  0.140390      2.000000
  0.092964 -0.069723  0.140390      2.000000
 -0.092964 -0.069723  0.140390      2.000000
 -0.069723 -0.069723  0.140390      2.000000
 -0.046482 -0.069723  0.140390      2.000000
 -0.023241 -0.069723  0.140390      2.000000
  0.000000 -0.046482  0.140390      2.000000
  0.023241 -0.046482  0.140390      2.000000
  0.046482 -0.046482  0.140390      2.000000
  0.069723 -0.046482  0.140390      2.000000
  0.092964 -0.046482  0.140390      2.000000
 -0.092964 -0.046482  0.140390      2.000000
 -0.069723 -0.046482  0.140390      2.000000
 -0.046482 -0.046482  0.140390      2.000000
 -0.023241 -0.046482  0.140390      2.000000
  0.000000 -0.023241  0.140390      2.000000
  0.023241 -0.023241  0.140390      2.000000
  0.046482 -0.023241  0.140390      2.000000
  0.069723 -0.023241  0.140390      2.000000
  0.092964 -0.023241  0.140390      2.000000
 -0.092964 -0.023241  0.140390      2.000000
 -0.069723 -0.023241  0.140390      2.000000
 -0.046482 -0.023241  0.140390      2.000000
 -0.023241 -0.023241  0.140390      2.000000
 
 TETIRR: Found   2670 inequivalent tetrahedra from     5346


--------------------------------------------------------------------------------------------------------




 Dimension of arrays:
   k-points           NKPTS =    446   k-points in BZ     NKDIM =    446   number of bands    NBANDS=     36
   number of dos      NEDOS =   3001   number of ions     NIONS =      6
   non local maximal  LDIM  =      6   non local SUM 2l+1 LMDIM =     18
   total plane-waves  NPLWV =  18000
   max r-space proj   IRMAX =      1   max aug-charges    IRDMAX=  59236
   dimension x,y,z NGX =    30 NGY =   30 NGZ =   20
   dimension x,y,z NGXF=    60 NGYF=   60 NGZF=   40
   support grid    NGXF=   120 NGYF=  120 NGZF=   80
   ions per type =               2   4
   NGX,Y,Z   is equivalent  to a cutoff of  10.43, 10.43, 10.27 a.u.
   NGXF,Y,Z  is equivalent  to a cutoff of  20.86, 20.86, 20.54 a.u.

 SYSTEM =  unknown system                          
 POSCAR =  Mn  F                                   

 Startparameter for this run:
   NWRITE =      2    write-flag & timer
   PREC   = normal    normal or accurate (medium, high low for compatibility)
   ISTART =      1    job   : 0-new  1-cont  2-samecut
   ICHARG =      0    charge: 1-file 2-atom 10-const
   ISPIN  =      2    spin polarized calculation?
   LNONCOLLINEAR =      F non collinear calculations
   LSORBIT =      F    spin-orbit coupling
   INIWAV =      1    electr: 0-lowe 1-rand  2-diag
   LASPH  =      T    aspherical Exc in radial PAW
   METAGGA=      F    non-selfconsistent MetaGGA calc.

 Electronic Relaxation 1
   ENCUT  =  600.0 eV  44.10 Ry    6.64 a.u.   9.55  9.55  6.47*2*pi/ulx,y,z
   ENINI  =  600.0     initial cutoff
   ENAUG  =  613.6 eV  augmentation charge cutoff
   NELM   =     60;   NELMIN=  2; NELMDL=  0     # of ELM steps 
   EDIFF  = 0.1E-05   stopping-criterion for ELM
   LREAL  =      F    real-space projection
   NLSPLINE    = F    spline interpolate recip. space projectors
   LCOMPAT=      F    compatible to vasp.4.4
   GGA_COMPAT  = T    GGA compatible to vasp.4.4-vasp.4.6
   LMAXPAW     = -100 max onsite density
   LMAXMIX     =    4 max onsite mixed and CHGCAR
   VOSKOWN=      0    Vosko Wilk Nusair interpolation
   ROPT   =    0.00000   0.00000
 Ionic relaxation
   EDIFFG = 0.1E-04   stopping-criterion for IOM
   NSW    =      0    number of steps for IOM
   NBLOCK =      1;   KBLOCK =      1    inner block; outer block 
   IBRION =     -1    ionic relax: 0-MD 1-quasi-New 2-CG
   NFREE  =      0    steps in history (QN), initial steepest desc. (CG)
   ISIF   =      2    stress and relaxation
   IWAVPR =     10    prediction:  0-non 1-charg 2-wave 3-comb
   ISYM   =      0    0-nonsym 1-usesym 2-fastsym
   LCORR  =      T    Harris-Foulkes like correction to forces

   POTIM  = 0.5000    time-step for ionic-motion
   TEIN   =    0.0    initial temperature
   TEBEG  =    0.0;   TEEND  =   0.0 temperature during run
   SMASS  =  -3.00    Nose mass-parameter (am)
   estimated Nose-frequenzy (Omega)   =  0.10E-29 period in steps =****** mass=  -0.522E-27a.u.
   SCALEE = 1.0000    scale energy and forces
   NPACO  =    256;   APACO  = 16.0  distance and # of slots for P.C.
   PSTRESS=    0.0 pullay stress

  Mass of Ions in am
   POMASS =  54.94 19.00
  Ionic Valenz
   ZVAL   =  13.00  7.00
  Atomic Wigner-Seitz radii
   RWIGS  =  -1.00 -1.00
  virtual crystal weights 
   VCA    =   1.00  1.00
   NELECT =      54.0000    total number of electrons
   NUPDOWN=      -1.0000    fix difference up-down

 DOS related values:
   EMIN   =  10.00;   EMAX   =-10.00  energy-range for DOS
   EFERMI =   0.00
   ISMEAR =    -5;   SIGMA  =   0.20  broadening in eV -4-tet -1-fermi 0-gaus

 Electronic relaxation 2 (details)
   IALGO  =     38    algorithm
   LDIAG  =      T    sub-space diagonalisation (order eigenvalues)
   LSUBROT=      F    optimize rotation matrix (better conditioning)
   TURBO    =      0    0=normal 1=particle mesh
   IRESTART =      0    0=no restart 2=restart with 2 vectors
   NREBOOT  =      0    no. of reboots
   NMIN     =      0    reboot dimension
   EREF     =   0.00    reference energy to select bands
   IMIX   =      4    mixing-type and parameters
     AMIX     =   0.40;   BMIX     =  1.00
     AMIX_MAG =   1.60;   BMIX_MAG =  1.00
     AMIN     =   0.10
     WC   =   100.;   INIMIX=   1;  MIXPRE=   1;  MAXMIX= -45

 Intra band minimization:
   WEIMIN = 0.0000     energy-eigenvalue tresh-hold
   EBREAK =  0.69E-08  absolut break condition
   DEPER  =   0.30     relativ break condition  

   TIME   =   0.40     timestep for ELM

  volume/ion in A,a.u.               =      12.33        83.23
  Fermi-wavevector in a.u.,A,eV,Ry     =   1.473865  2.785201 29.555629  2.172277
  Thomas-Fermi vector in A             =   2.588706
 
 Write flags
   LWAVE        =      T    write WAVECAR
   LDOWNSAMPLE  =      F    k-point downsampling of WAVECAR
   LCHARG       =      T    write CHGCAR
   LVTOT        =      F    write LOCPOT, total local potential
   LVHAR        =      F    write LOCPOT, Hartree potential only
   LELF         =      F    write electronic localiz. function (ELF)
   LORBIT       =     11    0 simple, 1 ext, 2 COOP (PROOUT), +10 PAW based schemes


 Dipole corrections
   LMONO  =      F    monopole corrections only (constant potential shift)
   LDIPOL =      F    correct potential (dipole corrections)
   IDIPOL =      0    1-x, 2-y, 3-z, 4-all directions 
   EPSILON=  1.0000000 bulk dielectric constant

 LDA+U is selected, type is set to LDAUTYPE =  2
   angular momentum for each species LDAUL =     2   -1
   U (eV)           for each species LDAUU =   2.0  0.0
   J (eV)           for each species LDAUJ =   0.0  0.0
 Exchange correlation treatment:
   GGA     =    --    GGA type
   LEXCH   =     2    internal setting for exchange type
   VOSKOWN=      0    Vosko Wilk Nusair interpolation
   LHFCALC =     F    Hartree Fock is set to
   LHFONE  =     F    Hartree Fock one center treatment
   AEXX    =    0.0000 exact exchange contribution

 Linear response parameters
   LEPSILON=     F    determine dielectric tensor
   LRPA    =     F    only Hartree local field effects (RPA)
   LNABLA  =     F    use nabla operator in PAW spheres
   LVEL    =     F    velocity operator in full k-point grid
   LINTERFAST=   F  fast interpolation
   KINTER  =     0    interpolate to denser k-point grid
   CSHIFT  =0.1000    complex shift for real part using Kramers Kronig
   OMEGAMAX=  -1.0    maximum frequency
   DEG_THRESHOLD= 0.2000000E-02 threshold for treating states as degnerate
   RTIME   =   -0.100 relaxation time in fs
  (WPLASMAI=    0.000 imaginary part of plasma frequency in eV, 0.658/RTIME)
   DFIELD  = 0.0000000 0.0000000 0.0000000 field for delta impulse in time
 
 Orbital magnetization related:
   ORBITALMAG=     F  switch on orbital magnetization
   LCHIMAG   =     F  perturbation theory with respect to B field
   DQ        =  0.001000  dq finite difference perturbation B field
   LLRAUG    =     F  two centre corrections for induced B field



--------------------------------------------------------------------------------------------------------


 Static calculation
 charge density and potential will be updated during run
 spin polarized calculation
 Variant of blocked Davidson
 Davidson routine will perform the subspace rotation
 perform sub-space diagonalisation
    after iterative eigenvector-optimisation
 modified Broyden-mixing scheme, WC =      100.0
 initial mixing is a Kerker type mixing with AMIX =  0.4000 and BMIX =      1.0000
 Hartree-type preconditioning will be used
 using additional bands            9
 reciprocal scheme for non local part
 use partial core corrections
 calculate Harris-corrections to forces 
   (improved forces if not selfconsistent)
 use of overlap-Matrix (Vanderbilt PP)
 Fermi weights with tetrahedron method with Bloechl corrections


--------------------------------------------------------------------------------------------------------


  energy-cutoff  :      600.00
  volume of cell :       74.00
      direct lattice vectors                 reciprocal lattice vectors
     4.780815773  0.000000000  0.000000000     0.209169323  0.000000000  0.000000000
     0.000000000  4.780815773  0.000000000     0.000000000  0.209169323  0.000000000
     0.000000000  0.000000000  3.237734972     0.000000000  0.000000000  0.308857893

  length of vectors
     4.780815773  4.780815773  3.237734972     0.209169323  0.209169323  0.308857893


 
 old parameters found on file WAVECAR:
  energy-cutoff  :      600.00
  volume of cell :       74.00
      direct lattice vectors                 reciprocal lattice vectors
     4.780815773  0.000000000  0.000000000     0.209169323  0.000000000  0.000000000
     0.000000000  4.780815773  0.000000000     0.000000000  0.209169323  0.000000000
     0.000000000  0.000000000  3.237734972     0.000000000  0.000000000  0.308857893

  length of vectors

 
 k-points in units of 2pi/SCALE and weight: KPOINTS created by Atomic Simulation Env
   0.00000000  0.00000000  0.00000000       0.001
   0.02324104  0.00000000  0.00000000       0.002
   0.04648207  0.00000000  0.00000000       0.002
   0.06972311  0.00000000  0.00000000       0.002
   0.09296414  0.00000000  0.00000000       0.002
   0.00000000  0.02324104  0.00000000       0.002
   0.02324104  0.02324104  0.00000000       0.002
   0.04648207  0.02324104  0.00000000       0.002
   0.06972311  0.02324104  0.00000000       0.002
   0.09296414  0.02324104  0.00000000       0.002
  -0.09296414  0.02324104  0.00000000       0.002
  -0.06972311  0.02324104  0.00000000       0.002
  -0.04648207  0.02324104  0.00000000       0.002
  -0.02324104  0.02324104  0.00000000       0.002
   0.00000000  0.04648207  0.00000000       0.002
   0.02324104  0.04648207  0.00000000       0.002
   0.04648207  0.04648207  0.00000000       0.002
   0.06972311  0.04648207  0.00000000       0.002
   0.09296414  0.04648207  0.00000000       0.002
  -0.09296414  0.04648207  0.00000000       0.002
  -0.06972311  0.04648207  0.00000000       0.002
  -0.04648207  0.04648207  0.00000000       0.002
  -0.02324104  0.04648207  0.00000000       0.002
   0.00000000  0.06972311  0.00000000       0.002
   0.02324104  0.06972311  0.00000000       0.002
   0.04648207  0.06972311  0.00000000       0.002
   0.06972311  0.06972311  0.00000000       0.002
   0.09296414  0.06972311  0.00000000       0.002
  -0.09296414  0.06972311  0.00000000       0.002
  -0.06972311  0.06972311  0.00000000       0.002
  -0.04648207  0.06972311  0.00000000       0.002
  -0.02324104  0.06972311  0.00000000       0.002
   0.00000000  0.09296414  0.00000000       0.002
   0.02324104  0.09296414  0.00000000       0.002
   0.04648207  0.09296414  0.00000000       0.002
   0.06972311  0.09296414  0.00000000       0.002
   0.09296414  0.09296414  0.00000000       0.002
  -0.09296414  0.09296414  0.00000000       0.002
  -0.06972311  0.09296414  0.00000000       0.002
  -0.04648207  0.09296414  0.00000000       0.002
  -0.02324104  0.09296414  0.00000000       0.002
   0.00000000  0.00000000  0.02807799       0.002
   0.02324104  0.00000000  0.02807799       0.002
   0.04648207  0.00000000  0.02807799       0.002
   0.06972311  0.00000000  0.02807799       0.002
   0.09296414  0.00000000  0.02807799       0.002
  -0.09296414  0.00000000  0.02807799       0.002
  -0.06972311  0.00000000  0.02807799       0.002
  -0.04648207  0.00000000  0.02807799       0.002
  -0.02324104  0.00000000  0.02807799       0.002
   0.00000000  0.02324104  0.02807799       0.002
   0.02324104  0.02324104  0.02807799       0.002
   0.04648207  0.02324104  0.02807799       0.002
   0.06972311  0.02324104  0.02807799       0.002
   0.09296414  0.02324104  0.02807799       0.002
  -0.09296414  0.02324104  0.02807799       0.002
  -0.06972311  0.02324104  0.02807799       0.002
  -0.04648207  0.02324104  0.02807799       0.002
  -0.02324104  0.02324104  0.02807799       0.002
   0.00000000  0.04648207  0.02807799       0.002
   0.02324104  0.04648207  0.02807799       0.002
   0.04648207  0.04648207  0.02807799       0.002
   0.06972311  0.04648207  0.02807799       0.002
   0.09296414  0.04648207  0.02807799       0.002
  -0.09296414  0.04648207  0.02807799       0.002
  -0.06972311  0.04648207  0.02807799       0.002
  -0.04648207  0.04648207  0.02807799       0.002
  -0.02324104  0.04648207  0.02807799       0.002
   0.00000000  0.06972311  0.02807799       0.002
   0.02324104  0.06972311  0.02807799       0.002
   0.04648207  0.06972311  0.02807799       0.002
   0.06972311  0.06972311  0.02807799       0.002
   0.09296414  0.06972311  0.02807799       0.002
  -0.09296414  0.06972311  0.02807799       0.002
  -0.06972311  0.06972311  0.02807799       0.002
  -0.04648207  0.06972311  0.02807799       0.002
  -0.02324104  0.06972311  0.02807799       0.002
   0.00000000  0.09296414  0.02807799       0.002
   0.02324104  0.09296414  0.02807799       0.002
   0.04648207  0.09296414  0.02807799       0.002
   0.06972311  0.09296414  0.02807799       0.002
   0.09296414  0.09296414  0.02807799       0.002
  -0.09296414  0.09296414  0.02807799       0.002
  -0.06972311  0.09296414  0.02807799       0.002
  -0.04648207  0.09296414  0.02807799       0.002
  -0.02324104  0.09296414  0.02807799       0.002
   0.00000000 -0.09296414  0.02807799       0.002
   0.02324104 -0.09296414  0.02807799       0.002
   0.04648207 -0.09296414  0.02807799       0.002
   0.06972311 -0.09296414  0.02807799       0.002
   0.09296414 -0.09296414  0.02807799       0.002
  -0.09296414 -0.09296414  0.02807799       0.002
  -0.06972311 -0.09296414  0.02807799       0.002
  -0.04648207 -0.09296414  0.02807799       0.002
  -0.02324104 -0.09296414  0.02807799       0.002
   0.00000000 -0.06972311  0.02807799       0.002
   0.02324104 -0.06972311  0.02807799       0.002
   0.04648207 -0.06972311  0.02807799       0.002
   0.06972311 -0.06972311  0.02807799       0.002
   0.09296414 -0.06972311  0.02807799       0.002
  -0.09296414 -0.06972311  0.02807799       0.002
  -0.06972311 -0.06972311  0.02807799       0.002
  -0.04648207 -0.06972311  0.02807799       0.002
  -0.02324104 -0.06972311  0.02807799       0.002
   0.00000000 -0.04648207  0.02807799       0.002
   0.02324104 -0.04648207  0.02807799       0.002
   0.04648207 -0.04648207  0.02807799       0.002
   0.06972311 -0.04648207  0.02807799       0.002
   0.09296414 -0.04648207  0.02807799       0.002
  -0.09296414 -0.04648207  0.02807799       0.002
  -0.06972311 -0.04648207  0.02807799       0.002
  -0.04648207 -0.04648207  0.02807799       0.002
  -0.02324104 -0.04648207  0.02807799       0.002
   0.00000000 -0.02324104  0.02807799       0.002
   0.02324104 -0.02324104  0.02807799       0.002
   0.04648207 -0.02324104  0.02807799       0.002
   0.06972311 -0.02324104  0.02807799       0.002
   0.09296414 -0.02324104  0.02807799       0.002
  -0.09296414 -0.02324104  0.02807799       0.002
  -0.06972311 -0.02324104  0.02807799       0.002
  -0.04648207 -0.02324104  0.02807799       0.002
  -0.02324104 -0.02324104  0.02807799       0.002
   0.00000000  0.00000000  0.05615598       0.002
   0.02324104  0.00000000  0.05615598       0.002
   0.04648207  0.00000000  0.05615598       0.002
   0.06972311  0.00000000  0.05615598       0.002
   0.09296414  0.00000000  0.05615598       0.002
  -0.09296414  0.00000000  0.05615598       0.002
  -0.06972311  0.00000000  0.05615598       0.002
  -0.04648207  0.00000000  0.05615598       0.002
  -0.02324104  0.00000000  0.05615598       0.002
   0.00000000  0.02324104  0.05615598       0.002
   0.02324104  0.02324104  0.05615598       0.002
   0.04648207  0.02324104  0.05615598       0.002
   0.06972311  0.02324104  0.05615598       0.002
   0.09296414  0.02324104  0.05615598       0.002
  -0.09296414  0.02324104  0.05615598       0.002
  -0.06972311  0.02324104  0.05615598       0.002
  -0.04648207  0.02324104  0.05615598       0.002
  -0.02324104  0.02324104  0.05615598       0.002
   0.00000000  0.04648207  0.05615598       0.002
   0.02324104  0.04648207  0.05615598       0.002
   0.04648207  0.04648207  0.05615598       0.002
   0.06972311  0.04648207  0.05615598       0.002
   0.09296414  0.04648207  0.05615598       0.002
  -0.09296414  0.04648207  0.05615598       0.002
  -0.06972311  0.04648207  0.05615598       0.002
  -0.04648207  0.04648207  0.05615598       0.002
  -0.02324104  0.04648207  0.05615598       0.002
   0.00000000  0.06972311  0.05615598       0.002
   0.02324104  0.06972311  0.05615598       0.002
   0.04648207  0.06972311  0.05615598       0.002
   0.06972311  0.06972311  0.05615598       0.002
   0.09296414  0.06972311  0.05615598       0.002
  -0.09296414  0.06972311  0.05615598       0.002
  -0.06972311  0.06972311  0.05615598       0.002
  -0.04648207  0.06972311  0.05615598       0.002
  -0.02324104  0.06972311  0.05615598       0.002
   0.00000000  0.09296414  0.05615598       0.002
   0.02324104  0.09296414  0.05615598       0.002
   0.04648207  0.09296414  0.05615598       0.002
   0.06972311  0.09296414  0.05615598       0.002
   0.09296414  0.09296414  0.05615598       0.002
  -0.09296414  0.09296414  0.05615598       0.002
  -0.06972311  0.09296414  0.05615598       0.002
  -0.04648207  0.09296414  0.05615598       0.002
  -0.02324104  0.09296414  0.05615598       0.002
   0.00000000 -0.09296414  0.05615598       0.002
   0.02324104 -0.09296414  0.05615598       0.002
   0.04648207 -0.09296414  0.05615598       0.002
   0.06972311 -0.09296414  0.05615598       0.002
   0.09296414 -0.09296414  0.05615598       0.002
  -0.09296414 -0.09296414  0.05615598       0.002
  -0.06972311 -0.09296414  0.05615598       0.002
  -0.04648207 -0.09296414  0.05615598       0.002
  -0.02324104 -0.09296414  0.05615598       0.002
   0.00000000 -0.06972311  0.05615598       0.002
   0.02324104 -0.06972311  0.05615598       0.002
   0.04648207 -0.06972311  0.05615598       0.002
   0.06972311 -0.06972311  0.05615598       0.002
   0.09296414 -0.06972311  0.05615598       0.002
  -0.09296414 -0.06972311  0.05615598       0.002
  -0.06972311 -0.06972311  0.05615598       0.002
  -0.04648207 -0.06972311  0.05615598       0.002
  -0.02324104 -0.06972311  0.05615598       0.002
   0.00000000 -0.04648207  0.05615598       0.002
   0.02324104 -0.04648207  0.05615598       0.002
   0.04648207 -0.04648207  0.05615598       0.002
   0.06972311 -0.04648207  0.05615598       0.002
   0.09296414 -0.04648207  0.05615598       0.002
  -0.09296414 -0.04648207  0.05615598       0.002
  -0.06972311 -0.04648207  0.05615598       0.002
  -0.04648207 -0.04648207  0.05615598       0.002
  -0.02324104 -0.04648207  0.05615598       0.002
   0.00000000 -0.02324104  0.05615598       0.002
   0.02324104 -0.02324104  0.05615598       0.002
   0.04648207 -0.02324104  0.05615598       0.002
   0.06972311 -0.02324104  0.05615598       0.002
   0.09296414 -0.02324104  0.05615598       0.002
  -0.09296414 -0.02324104  0.05615598       0.002
  -0.06972311 -0.02324104  0.05615598       0.002
  -0.04648207 -0.02324104  0.05615598       0.002
  -0.02324104 -0.02324104  0.05615598       0.002
   0.00000000  0.00000000  0.08423397       0.002
   0.02324104  0.00000000  0.08423397       0.002
   0.04648207  0.00000000  0.08423397       0.002
   0.06972311  0.00000000  0.08423397       0.002
   0.09296414  0.00000000  0.08423397       0.002
  -0.09296414  0.00000000  0.08423397       0.002
  -0.06972311  0.00000000  0.08423397       0.002
  -0.04648207  0.00000000  0.08423397       0.002
  -0.02324104  0.00000000  0.08423397       0.002
   0.00000000  0.02324104  0.08423397       0.002
   0.02324104  0.02324104  0.08423397       0.002
   0.04648207  0.02324104  0.08423397       0.002
   0.06972311  0.02324104  0.08423397       0.002
   0.09296414  0.02324104  0.08423397       0.002
  -0.09296414  0.02324104  0.08423397       0.002
  -0.06972311  0.02324104  0.08423397       0.002
  -0.04648207  0.02324104  0.08423397       0.002
  -0.02324104  0.02324104  0.08423397       0.002
   0.00000000  0.04648207  0.08423397       0.002
   0.02324104  0.04648207  0.08423397       0.002
   0.04648207  0.04648207  0.08423397       0.002
   0.06972311  0.04648207  0.08423397       0.002
   0.09296414  0.04648207  0.08423397       0.002
  -0.09296414  0.04648207  0.08423397       0.002
  -0.06972311  0.04648207  0.08423397       0.002
  -0.04648207  0.04648207  0.08423397       0.002
  -0.02324104  0.04648207  0.08423397       0.002
   0.00000000  0.06972311  0.08423397       0.002
   0.02324104  0.06972311  0.08423397       0.002
   0.04648207  0.06972311  0.08423397       0.002
   0.06972311  0.06972311  0.08423397       0.002
   0.09296414  0.06972311  0.08423397       0.002
  -0.09296414  0.06972311  0.08423397       0.002
  -0.06972311  0.06972311  0.08423397       0.002
  -0.04648207  0.06972311  0.08423397       0.002
  -0.02324104  0.06972311  0.08423397       0.002
   0.00000000  0.09296414  0.08423397       0.002
   0.02324104  0.09296414  0.08423397       0.002
   0.04648207  0.09296414  0.08423397       0.002
   0.06972311  0.09296414  0.08423397       0.002
   0.09296414  0.09296414  0.08423397       0.002
  -0.09296414  0.09296414  0.08423397       0.002
  -0.06972311  0.09296414  0.08423397       0.002
  -0.04648207  0.09296414  0.08423397       0.002
  -0.02324104  0.09296414  0.08423397       0.002
   0.00000000 -0.09296414  0.08423397       0.002
   0.02324104 -0.09296414  0.08423397       0.002
   0.04648207 -0.09296414  0.08423397       0.002
   0.06972311 -0.09296414  0.08423397       0.002
   0.09296414 -0.09296414  0.08423397       0.002
  -0.09296414 -0.09296414  0.08423397       0.002
  -0.06972311 -0.09296414  0.08423397       0.002
  -0.04648207 -0.09296414  0.08423397       0.002
  -0.02324104 -0.09296414  0.08423397       0.002
   0.00000000 -0.06972311  0.08423397       0.002
   0.02324104 -0.06972311  0.08423397       0.002
   0.04648207 -0.06972311  0.08423397       0.002
   0.06972311 -0.06972311  0.08423397       0.002
   0.09296414 -0.06972311  0.08423397       0.002
  -0.09296414 -0.06972311  0.08423397       0.002
  -0.06972311 -0.06972311  0.08423397       0.002
  -0.04648207 -0.06972311  0.08423397       0.002
  -0.02324104 -0.06972311  0.08423397       0.002
   0.00000000 -0.04648207  0.08423397       0.002
   0.02324104 -0.04648207  0.08423397       0.002
   0.04648207 -0.04648207  0.08423397       0.002
   0.06972311 -0.04648207  0.08423397       0.002
   0.09296414 -0.04648207  0.08423397       0.002
  -0.09296414 -0.04648207  0.08423397       0.002
  -0.06972311 -0.04648207  0.08423397       0.002
  -0.04648207 -0.04648207  0.08423397       0.002
  -0.02324104 -0.04648207  0.08423397       0.002
   0.00000000 -0.02324104  0.08423397       0.002
   0.02324104 -0.02324104  0.08423397       0.002
   0.04648207 -0.02324104  0.08423397       0.002
   0.06972311 -0.02324104  0.08423397       0.002
   0.09296414 -0.02324104  0.08423397       0.002
  -0.09296414 -0.02324104  0.08423397       0.002
  -0.06972311 -0.02324104  0.08423397       0.002
  -0.04648207 -0.02324104  0.08423397       0.002
  -0.02324104 -0.02324104  0.08423397       0.002
   0.00000000  0.00000000  0.11231196       0.002
   0.02324104  0.00000000  0.11231196       0.002
   0.04648207  0.00000000  0.11231196       0.002
   0.06972311  0.00000000  0.11231196       0.002
   0.09296414  0.00000000  0.11231196       0.002
  -0.09296414  0.00000000  0.11231196       0.002
  -0.06972311  0.00000000  0.11231196       0.002
  -0.04648207  0.00000000  0.11231196       0.002
  -0.02324104  0.00000000  0.11231196       0.002
   0.00000000  0.02324104  0.11231196       0.002
   0.02324104  0.02324104  0.11231196       0.002
   0.04648207  0.02324104  0.11231196       0.002
   0.06972311  0.02324104  0.11231196       0.002
   0.09296414  0.02324104  0.11231196       0.002
  -0.09296414  0.02324104  0.11231196       0.002
  -0.06972311  0.02324104  0.11231196       0.002
  -0.04648207  0.02324104  0.11231196       0.002
  -0.02324104  0.02324104  0.11231196       0.002
   0.00000000  0.04648207  0.11231196       0.002
   0.02324104  0.04648207  0.11231196       0.002
   0.04648207  0.04648207  0.11231196       0.002
   0.06972311  0.04648207  0.11231196       0.002
   0.09296414  0.04648207  0.11231196       0.002
  -0.09296414  0.04648207  0.11231196       0.002
  -0.06972311  0.04648207  0.11231196       0.002
  -0.04648207  0.04648207  0.11231196       0.002
  -0.02324104  0.04648207  0.11231196       0.002
   0.00000000  0.06972311  0.11231196       0.002
   0.02324104  0.06972311  0.11231196       0.002
   0.04648207  0.06972311  0.11231196       0.002
   0.06972311  0.06972311  0.11231196       0.002
   0.09296414  0.06972311  0.11231196       0.002
  -0.09296414  0.06972311  0.11231196       0.002
  -0.06972311  0.06972311  0.11231196       0.002
  -0.04648207  0.06972311  0.11231196       0.002
  -0.02324104  0.06972311  0.11231196       0.002
   0.00000000  0.09296414  0.11231196       0.002
   0.02324104  0.09296414  0.11231196       0.002
   0.04648207  0.09296414  0.11231196       0.002
   0.06972311  0.09296414  0.11231196       0.002
   0.09296414  0.09296414  0.11231196       0.002
  -0.09296414  0.09296414  0.11231196       0.002
  -0.06972311  0.09296414  0.11231196       0.002
  -0.04648207  0.09296414  0.11231196       0.002
  -0.02324104  0.09296414  0.11231196       0.002
   0.00000000 -0.09296414  0.11231196       0.002
   0.02324104 -0.09296414  0.11231196       0.002
   0.04648207 -0.09296414  0.11231196       0.002
   0.06972311 -0.09296414  0.11231196       0.002
   0.09296414 -0.09296414  0.11231196       0.002
  -0.09296414 -0.09296414  0.11231196       0.002
  -0.06972311 -0.09296414  0.11231196       0.002
  -0.04648207 -0.09296414  0.11231196       0.002
  -0.02324104 -0.09296414  0.11231196       0.002
   0.00000000 -0.06972311  0.11231196       0.002
   0.02324104 -0.06972311  0.11231196       0.002
   0.04648207 -0.06972311  0.11231196       0.002
   0.06972311 -0.06972311  0.11231196       0.002
   0.09296414 -0.06972311  0.11231196       0.002
  -0.09296414 -0.06972311  0.11231196       0.002
  -0.06972311 -0.06972311  0.11231196       0.002
  -0.04648207 -0.06972311  0.11231196       0.002
  -0.02324104 -0.06972311  0.11231196       0.002
   0.00000000 -0.04648207  0.11231196       0.002
   0.02324104 -0.04648207  0.11231196       0.002
   0.04648207 -0.04648207  0.11231196       0.002
   0.06972311 -0.04648207  0.11231196       0.002
   0.09296414 -0.04648207  0.11231196       0.002
  -0.09296414 -0.04648207  0.11231196       0.002
  -0.06972311 -0.04648207  0.11231196       0.002
  -0.04648207 -0.04648207  0.11231196       0.002
  -0.02324104 -0.04648207  0.11231196       0.002
   0.00000000 -0.02324104  0.11231196       0.002
   0.02324104 -0.02324104  0.11231196       0.002
   0.04648207 -0.02324104  0.11231196       0.002
   0.06972311 -0.02324104  0.11231196       0.002
   0.09296414 -0.02324104  0.11231196       0.002
  -0.09296414 -0.02324104  0.11231196       0.002
  -0.06972311 -0.02324104  0.11231196       0.002
  -0.04648207 -0.02324104  0.11231196       0.002
  -0.02324104 -0.02324104  0.11231196       0.002
   0.00000000  0.00000000  0.14038995       0.002
   0.02324104  0.00000000  0.14038995       0.002
   0.04648207  0.00000000  0.14038995       0.002
   0.06972311  0.00000000  0.14038995       0.002
   0.09296414  0.00000000  0.14038995       0.002
  -0.09296414  0.00000000  0.14038995       0.002
  -0.06972311  0.00000000  0.14038995       0.002
  -0.04648207  0.00000000  0.14038995       0.002
  -0.02324104  0.00000000  0.14038995       0.002
   0.00000000  0.02324104  0.14038995       0.002
   0.02324104  0.02324104  0.14038995       0.002
[...]
     33      10.1834      0.00000
     34      10.7465      0.00000
     35      11.3363      0.00000
     36      12.0856      0.00000

 k-point   444 :      -0.3333   -0.1111    0.4545
  band No.  band energies     occupation 
      1     -45.8525      1.00000
      2     -45.8213      1.00000
      3     -45.7919      1.00000
      4     -41.3212      1.00000
      5     -41.3052      1.00000
      6     -41.2660      1.00000
      7     -20.5013      1.00000
      8     -20.4342      1.00000
      9     -20.4138      1.00000
     10     -20.3076      1.00000
     11      -4.2060      1.00000
     12      -3.9572      1.00000
     13      -3.9221      1.00000
     14      -3.6173      1.00000
     15      -3.2952      1.00000
     16      -3.0028      1.00000
     17      -2.8076      1.00000
     18      -2.6761      1.00000
     19      -2.1009      1.00000
     20      -1.8912      1.00000
     21      -1.7195      1.00000
     22      -1.6298      1.00000
     23       0.9291      1.00000
     24       0.9702      1.00000
     25       1.2338      1.00000
     26       1.8945      1.00000
     27       2.4524      1.00000
     28       6.3024      0.00000
     29       6.3293      0.00000
     30       6.5492      0.00000
     31       7.2771      0.00000
     32       7.7738      0.00000
     33       9.7729      0.00000
     34      10.8740      0.00000
     35      11.6452      0.00000
     36      12.5274      0.00000

 k-point   445 :      -0.2222   -0.1111    0.4545
  band No.  band energies     occupation 
      1     -45.8525      1.00000
      2     -45.8213      1.00000
      3     -45.7919      1.00000
      4     -41.3211      1.00000
      5     -41.3052      1.00000
      6     -41.2659      1.00000
      7     -20.5307      1.00000
      8     -20.4441      1.00000
      9     -20.3944      1.00000
     10     -20.2882      1.00000
     11      -4.1666      1.00000
     12      -4.0077      1.00000
     13      -3.7400      1.00000
     14      -3.6152      1.00000
     15      -3.3626      1.00000
     16      -3.0090      1.00000
     17      -2.7876      1.00000
     18      -2.5705      1.00000
     19      -2.1927      1.00000
     20      -1.8965      1.00000
     21      -1.8089      1.00000
     22      -1.7464      1.00000
     23       0.9340      1.00000
     24       1.0000      1.00000
     25       1.2807      1.00000
     26       1.9200      1.00000
     27       2.3671      1.00000
     28       6.3122      0.00000
     29       6.3317      0.00000
     30       6.5138      0.00000
     31       7.2905      0.00000
     32       7.6837      0.00000
     33       9.4955      0.00000
     34      10.7509      0.00000
     35      12.3080      0.00000
     36      13.0298      0.00000

 k-point   446 :      -0.1111   -0.1111    0.4545
  band No.  band energies     occupation 
      1     -45.8525      1.00000
      2     -45.8213      1.00000
      3     -45.7918      1.00000
      4     -41.3211      1.00000
      5     -41.3052      1.00000
      6     -41.2659      1.00000
      7     -20.5513      1.00000
      8     -20.4525      1.00000
      9     -20.3754      1.00000
     10     -20.2786      1.00000
     11      -4.1349      1.00000
     12      -3.9779      1.00000
     13      -3.6795      1.00000
     14      -3.5434      1.00000
     15      -3.3419      1.00000
     16      -3.0666      1.00000
     17      -2.8000      1.00000
     18      -2.5262      1.00000
     19      -2.3050      1.00000
     20      -1.9161      1.00000
     21      -1.8743      1.00000
     22      -1.8174      1.00000
     23       0.9295      1.00000
     24       1.0247      1.00000
     25       1.3169      1.00000
     26       1.9589      1.00000
     27       2.3179      1.00000
     28       6.3183      0.00000
     29       6.3398      0.00000
     30       6.4849      0.00000
     31       7.3032      0.00000
     32       7.5701      0.00000
     33       9.3491      0.00000
     34      10.6607      0.00000
     35      12.8805      0.00000
     36      13.2101      0.00000


--------------------------------------------------------------------------------------------------------


 soft charge-density along one line, spin component           1
         0         1         2         3         4         5         6         7         8         9
 total charge-density along one line
 
 soft charge-density along one line, spin component           2
         0         1         2         3         4         5         6         7         8         9
 total charge-density along one line
 
 pseudopotential strength for first ion, spin component:           1
-41.853  -0.000  -0.033   7.882  -0.000   0.013   0.000  -0.000
 -0.000 -41.828  -0.000  -0.000   7.872   0.000  -0.000  -0.000
 -0.033  -0.000 -41.853   0.013   0.000   7.882  -0.000  -0.000
  7.882  -0.000   0.013   5.350  -0.000  -0.005  -0.000  -0.000
 -0.000   7.872   0.000  -0.000   5.355  -0.000  -0.000  -0.000
  0.013   0.000   7.882  -0.005  -0.000   5.350  -0.000  -0.000
  0.000  -0.000  -0.000  -0.000  -0.000  -0.000  -2.148  -0.000
 -0.000  -0.000  -0.000  -0.000  -0.000  -0.000  -0.000  -2.117
  0.000   0.000  -0.000   0.000   0.000  -0.000  -0.031  -0.000
 -0.000  -0.000  -0.000  -0.000  -0.000  -0.000  -0.000  -0.054
  0.000   0.000  -0.000   0.000  -0.000   0.000   0.000  -0.000
  0.000  -0.000  -0.000  -0.000  -0.000  -0.000  -2.615  -0.000
 -0.000  -0.000  -0.000  -0.000  -0.000  -0.000  -0.000  -2.584
  0.000   0.000  -0.000   0.000   0.000  -0.000  -0.033  -0.000
 -0.000  -0.000  -0.000  -0.000  -0.000  -0.000  -0.000  -0.055
  0.000   0.000  -0.000   0.000  -0.000   0.000   0.000  -0.000
 -0.000   0.000   0.000  -0.000   0.000   0.000   0.007  -0.000
 -0.000   0.000   0.000  -0.000   0.000   0.000   0.013  -0.000
 pseudopotential strength for first ion, spin component:           2
-44.886   0.000  -0.026   9.351  -0.000   0.009   0.000  -0.000
  0.000 -44.867   0.000  -0.000   9.344  -0.000  -0.000  -0.000
 -0.026   0.000 -44.886   0.009  -0.000   9.351  -0.000  -0.000
  9.351  -0.000   0.009   4.862   0.000  -0.003   0.000  -0.000
 -0.000   9.344  -0.000   0.000   4.864   0.000  -0.000  -0.000
  0.009  -0.000   9.351  -0.003   0.000   4.862  -0.000  -0.000
  0.000  -0.000  -0.000   0.000  -0.000  -0.000  -6.476   0.000
 -0.000  -0.000  -0.000  -0.000  -0.000  -0.000   0.000  -6.457
  0.000   0.000  -0.000   0.000   0.000  -0.000  -0.011   0.000
 -0.000  -0.000  -0.000  -0.000  -0.000  -0.000   0.000  -0.040
  0.000   0.000  -0.000   0.000  -0.000  -0.000   0.000   0.000
  0.000  -0.000  -0.000   0.000  -0.000  -0.000  -6.945   0.000
 -0.000  -0.000  -0.000  -0.000  -0.000  -0.000   0.000  -6.927
  0.000   0.000  -0.000   0.000   0.000  -0.000  -0.012   0.000
 -0.000  -0.000  -0.000  -0.000  -0.000  -0.000   0.000  -0.041
  0.000   0.000  -0.000   0.000  -0.000  -0.000   0.000   0.000
 -0.000   0.000   0.000  -0.000   0.000   0.000   0.004  -0.000
 -0.000   0.000   0.000  -0.000   0.000   0.000   0.008  -0.000
 total augmentation occupancy for first ion, spin component:           1
  1.998   0.000  -0.000  -0.014   0.000   0.000  -0.000   0.000   0.000  -0.000   0.000   0.000  -0.000  -0.000   0.000  -0.000
  0.000   1.998   0.000   0.000  -0.013   0.000   0.000  -0.000  -0.000   0.000   0.000  -0.000   0.000   0.000   0.000  -0.000
 -0.000   0.000   1.998   0.000   0.000  -0.014  -0.000  -0.000   0.000   0.000   0.000   0.000   0.000   0.000  -0.000  -0.000
 -0.014   0.000   0.000   0.098   0.000  -0.011  -0.000  -0.000  -0.000  -0.000  -0.000   0.000   0.000   0.000   0.000   0.000
  0.000  -0.013   0.000   0.000   0.108   0.000  -0.000   0.000  -0.000   0.000  -0.000   0.000  -0.000   0.000  -0.000   0.000
  0.000   0.000  -0.014  -0.011   0.000   0.098   0.000   0.000   0.000  -0.000   0.000  -0.000  -0.000  -0.000   0.000  -0.000
 -0.000   0.000  -0.000  -0.000  -0.000   0.000   8.312  -0.000   3.364  -0.000   0.000  -6.421   0.000  -3.198   0.000  -0.000
  0.000  -0.000  -0.000  -0.000   0.000   0.000  -0.000   6.872  -0.000   2.860   0.000   0.000  -5.041   0.000  -2.701  -0.000
  0.000  -0.000   0.000  -0.000  -0.000   0.000   3.364  -0.000   6.196  -0.000   0.000  -3.200   0.000  -4.433   0.000  -0.000
 -0.000   0.000   0.000  -0.000   0.000  -0.000  -0.000   2.860  -0.000   6.872  -0.000   0.000  -2.701   0.000  -5.041   0.000
  0.000   0.000   0.000  -0.000  -0.000   0.000   0.000   0.000   0.000  -0.000   3.909  -0.000  -0.000  -0.000   0.000  -2.210
  0.000  -0.000   0.000   0.000   0.000  -0.000  -6.421   0.000  -3.200   0.000  -0.000   5.703  -0.000   3.083  -0.000   0.000
 -0.000   0.000   0.000   0.000  -0.000  -0.000   0.000  -5.041   0.000  -2.701  -0.000  -0.000   4.370  -0.000   2.584   0.000
 -0.000   0.000   0.000   0.000   0.000  -0.000  -3.198   0.000  -4.433   0.000  -0.000   3.083  -0.000   3.813  -0.000   0.000
  0.000   0.000  -0.000   0.000  -0.000   0.000   0.000  -2.701   0.000  -5.041   0.000  -0.000   2.584  -0.000   4.370  -0.000
 -0.000  -0.000  -0.000   0.000   0.000  -0.000  -0.000  -0.000  -0.000   0.000  -2.210   0.000   0.000   0.000  -0.000   1.629
 -0.000   0.000   0.000  -0.000   0.000   0.000   0.288  -0.000  -0.209  -0.000  -0.000  -0.323   0.000   0.219   0.000   0.000
  0.000  -0.000  -0.000   0.000  -0.000  -0.000  -0.006   0.000   0.025   0.000   0.000   0.036  -0.000  -0.036  -0.000  -0.000
 total augmentation occupancy for first ion, spin component:           2
  0.004  -0.000  -0.000   0.016   0.000  -0.000  -0.000   0.000   0.000   0.000  -0.000   0.000  -0.000  -0.000  -0.000  -0.000
 -0.000   0.004  -0.000   0.000   0.017   0.000   0.000   0.000   0.000   0.000  -0.000  -0.000  -0.000  -0.000  -0.000   0.000
 -0.000  -0.000   0.004  -0.000  -0.000   0.016  -0.000  -0.000   0.000   0.000   0.000   0.000   0.000  -0.000  -0.000  -0.000
  0.016   0.000  -0.000  -0.009   0.000  -0.001   0.000   0.000   0.000   0.000   0.000  -0.000  -0.000  -0.000  -0.000  -0.000
  0.000   0.017  -0.000   0.000  -0.008   0.000   0.000  -0.000   0.000  -0.000  -0.000   0.000   0.000  -0.000   0.000   0.000
 -0.000   0.000   0.016  -0.001   0.000  -0.009  -0.000   0.000  -0.000   0.000  -0.000   0.000  -0.000   0.000  -0.000   0.000
 -0.000   0.000  -0.000   0.000   0.000  -0.000  -5.452   0.000  -1.766   0.000  -0.000   3.105  -0.000   1.357  -0.000   0.000
  0.000   0.000  -0.000   0.000  -0.000   0.000   0.000  -4.704   0.000  -1.543  -0.000  -0.000   2.507  -0.000   1.186   0.000
  0.000   0.000   0.000   0.000   0.000  -0.000  -1.766   0.000  -4.243   0.000  -0.000   1.357  -0.000   2.163  -0.000   0.000
  0.000   0.000   0.000   0.000  -0.000   0.000   0.000  -1.543   0.000  -4.704   0.000  -0.000   1.186  -0.000   2.507  -0.000
 -0.000  -0.000   0.000   0.000  -0.000  -0.000  -0.000  -0.000  -0.000   0.000  -3.187   0.000   0.000   0.000  -0.000   1.342
  0.000  -0.000   0.000  -0.000   0.000   0.000   3.105  -0.000   1.357  -0.000   0.000  -1.844   0.000  -0.950   0.000  -0.000
 -0.000  -0.000   0.000  -0.000   0.000  -0.000  -0.000   2.507  -0.000   1.186   0.000   0.000  -1.395   0.000  -0.833  -0.000
 -0.000  -0.000  -0.000  -0.000  -0.000   0.000   1.357  -0.000   2.163  -0.000   0.000  -0.950   0.000  -1.163   0.000  -0.000
 -0.000  -0.000  -0.000  -0.000   0.000  -0.000  -0.000   1.186  -0.000   2.507  -0.000   0.000  -0.833   0.000  -1.395   0.000
 -0.000   0.000  -0.000  -0.000   0.000   0.000   0.000   0.000   0.000  -0.000   1.342  -0.000  -0.000  -0.000   0.000  -0.584
 -0.000   0.000   0.000  -0.000  -0.000  -0.000   0.012   0.000   0.013   0.000   0.000  -0.024  -0.000   0.006  -0.000  -0.000
  0.000  -0.000  -0.000   0.000   0.000  -0.000  -0.055  -0.000   0.012  -0.000  -0.000   0.033   0.000  -0.005   0.000   0.000


------------------------ aborting loop because EDIFF is reached ----------------------------------------


 


 total charge     
 
# of ion       s       p       d       tot
------------------------------------------
    1        0.182   6.172   4.992  11.346
    2        0.182   6.172   4.992  11.346
    3        1.722   4.357   0.000   6.079
    4        1.722   4.357   0.000   6.079
    5        1.722   4.357   0.000   6.079
    6        1.722   4.357   0.000   6.079
--------------------------------------------------
tot          7.253  29.771   9.983  47.007
 


 magnetization (x)
 
# of ion       s       p       d       tot
------------------------------------------
    1       -0.014  -0.013  -4.526  -4.553
    2        0.014   0.013   4.526   4.553
    3        0.002   0.024   0.000   0.026
    4        0.002   0.024   0.000   0.026
    5       -0.002  -0.024   0.000  -0.026
    6       -0.002  -0.024   0.000  -0.026
--------------------------------------------------
tot         -0.000  -0.000   0.000   0.000
 
    CHARGE:  cpu time    0.7044: real time    0.7044
    FORLOC:  cpu time    0.0008: real time    0.0008
    FORNL :  cpu time    4.1165: real time    4.1166
    STRESS:  cpu time   10.9371: real time   10.9372
    FORCOR:  cpu time    0.0041: real time    0.0041
    FORHAR:  cpu time    0.0021: real time    0.0021
    MIXING:  cpu time    0.0007: real time    0.0007
    OFIELD:  cpu time    0.0000: real time    0.0000

  FORCE on cell =-STRESS in cart. coord.  units (eV):
  Direction    XX          YY          ZZ          XY          YZ          ZX
  --------------------------------------------------------------------------------------
  Alpha Z   205.88319   205.88319   205.88319
  Ewald   -1607.70851 -1607.70851 -1051.82577     0.00000     0.00000    -0.00000
  Hartree   574.49672   574.49672   947.63138    -0.00044    -0.00000    -0.00000
  E(xc)    -309.37112  -309.37112  -309.41432    -0.00000    -0.00000    -0.00000
  Local     185.96678   185.96679  -736.01563     0.00050    -0.00003    -0.00004
  n-local  -238.10473  -238.10472  -237.22428    -0.00001    -0.00004    -0.00005
  augment   267.02261   267.02260   266.46282     0.00012     0.00009     0.00011
  Kinetic   921.84336   921.84336   914.48817    -0.00006    -0.00000    -0.00001
  Fock        0.00000     0.00000     0.00000     0.00000     0.00000     0.00000
  -------------------------------------------------------------------------------------
  Total       0.02831     0.02831    -0.01444     0.00012     0.00001     0.00001
  in kB       0.61283     0.61299    -0.31266     0.00253     0.00022     0.00014
  external pressure =        0.30 kB  Pullay stress =        0.00 kB


 VOLUME and BASIS-vectors are now :
 -----------------------------------------------------------------------------
  energy-cutoff  :      600.00
  volume of cell :       74.00
      direct lattice vectors                 reciprocal lattice vectors
     4.780815773  0.000000000  0.000000000     0.209169323  0.000000000  0.000000000
     0.000000000  4.780815773  0.000000000     0.000000000  0.209169323  0.000000000
     0.000000000  0.000000000  3.237734972     0.000000000  0.000000000  0.308857893

  length of vectors
     4.780815773  4.780815773  3.237734972     0.209169323  0.209169323  0.308857893


 FORCES acting on ions
    electron-ion (+dipol)            ewald-force                    non-local-force                 convergence-correction
 -----------------------------------------------------------------------------------------------
   -.820E-07 0.123E-05 -.458E-09   -.171E-12 -.114E-12 -.238E-13   0.985E-07 -.124E-05 0.418E-08   -.538E-09 0.131E-07 -.353E-09
   -.818E-07 -.123E-05 0.618E-09   -.568E-13 0.199E-12 -.262E-13   0.944E-07 0.124E-05 -.122E-09   0.396E-09 -.131E-07 -.118E-08
   -.326E+02 0.326E+02 0.549E-05   0.338E+02 -.338E+02 0.163E-13   -.117E+01 0.117E+01 0.577E-05   -.486E-03 0.496E-03 -.106E-04
   0.326E+02 -.326E+02 -.549E-05   -.338E+02 0.338E+02 0.164E-13   0.117E+01 -.117E+01 -.576E-05   0.486E-03 -.496E-03 0.106E-04
   0.326E+02 0.326E+02 -.107E-03   -.338E+02 -.338E+02 0.997E-14   0.117E+01 0.117E+01 -.123E-03   -.255E-03 -.247E-03 0.212E-03
   -.326E+02 -.326E+02 0.107E-03   0.338E+02 0.338E+02 0.100E-13   -.117E+01 -.117E+01 0.123E-03   0.255E-03 0.247E-03 -.212E-03
 -----------------------------------------------------------------------------------------------
   -.960E-07 -.190E-09 0.840E-09   0.000E+00 -.711E-14 0.263E-14   0.912E-07 0.611E-08 0.448E-08   0.328E-08 -.122E-08 -.274E-08
 
 
 POSITION                                       TOTAL-FORCE (eV/Angst)
 -----------------------------------------------------------------------------------
      2.39041      2.39041      1.61887         0.000000      0.000000      0.000000
      0.00000      0.00000      0.00000         0.000000     -0.000000     -0.000000
      0.93953      3.84129      1.61887        -0.001771      0.001770      0.000001
      3.84129      0.93953      1.61887         0.001771     -0.001770     -0.000001
      1.45088      1.45088      0.00000         0.001788      0.001787     -0.000017
      3.32994      3.32994      0.00000        -0.001788     -0.001787      0.000017
 -----------------------------------------------------------------------------------
    total drift:                               -0.000000      0.000000      0.000000


--------------------------------------------------------------------------------------------------------



  FREE ENERGIE OF THE ION-ELECTRON SYSTEM (eV)
  ---------------------------------------------------
  free  energy   TOTEN  =       -40.97402160 eV

  energy  without entropy=      -40.97402160  energy(sigma->0) =      -40.97402160
 


--------------------------------------------------------------------------------------------------------


    POTLOK:  cpu time    0.2348: real time    0.2348


--------------------------------------------------------------------------------------------------------


 writing wavefunctions
     LOOP+:  cpu time  227.5115: real time  227.6145
    4ORBIT:  cpu time    0.0000: real time    0.0000
 


 total charge     
 
# of ion       s       p       d       tot
------------------------------------------
    1        0.182   6.172   4.992  11.346
    2        0.182   6.172   4.992  11.346
    3        1.722   4.357   0.000   6.079
    4        1.722   4.357   0.000   6.079
    5        1.722   4.357   0.000   6.079
    6        1.722   4.357   0.000   6.079
--------------------------------------------------
tot          7.253  29.771   9.983  47.007
 


 magnetization (x)
 
# of ion       s       p       d       tot
------------------------------------------
    1       -0.014  -0.013  -4.526  -4.553
    2        0.014   0.013   4.526   4.553
    3        0.002   0.024   0.000   0.026
    4        0.002   0.024   0.000   0.026
    5       -0.002  -0.024   0.000  -0.026
    6       -0.002  -0.024   0.000  -0.026
--------------------------------------------------
tot         -0.000  -0.000   0.000   0.000
 
 BZINTS: Fermi energy:  2.597238; 54.000000 electrons
         Band energy:-739.053062;  BLOECHL correction:  0.000000

 total amount of memory used by VASP MPI-rank0   465324. kBytes
=======================================================================

   base      :      30000. kBytes
   nonl-proj :     320845. kBytes
   fftplans  :       1875. kBytes
   grid      :       2467. kBytes
   one-center:        186. kBytes
   wavefun   :     109951. kBytes
 
  
  
 General timing and accounting informations for this job:
 ========================================================
  
                  Total CPU time used (sec):      237.276
                            User time (sec):      213.042
                          System time (sec):       24.234
                         Elapsed time (sec):      238.630
  
                   Maximum memory used (kb):      435476.
                   Average memory used (kb):           0.
  
                          Minor page faults:       106512
                          Major page faults:            8
                 Voluntary context switches:          222
