       N       E                     dE             d eps       ncg     rms          rms(c)
DAV:   1     0.930351062861E+03    0.93035E+03   -0.34301E+04  1308   0.178E+03
DAV:   2     0.398033853407E+03   -0.53232E+03   -0.50876E+03  1512   0.482E+02
DAV:   3     0.366744741320E+03   -0.31289E+02   -0.31092E+02  1452   0.127E+02
DAV:   4     0.366391986782E+03   -0.35275E+00   -0.35257E+00  1524   0.146E+01
DAV:   5     0.366385660781E+03   -0.63260E-02   -0.63256E-02  1512   0.176E+00    0.588E+01
DAV:   6    -0.691681700166E+02   -0.43555E+03   -0.26694E+02  1572   0.208E+02    0.625E+01
DAV:   7    -0.715031951365E+02   -0.23350E+01   -0.47775E+01  1356   0.434E+01    0.170E+01
DAV:   8    -0.686223497440E+02    0.28808E+01   -0.70048E+00  1560   0.217E+01    0.650E+00
DAV:   9    -0.681620320643E+02    0.46032E+00   -0.48893E+00  1500   0.188E+01    0.815E+00
DAV:  10    -0.681145612692E+02    0.47471E-01   -0.42270E-01  1416   0.536E+00    0.598E+00
DAV:  11    -0.680733775173E+02    0.41184E-01   -0.11140E+00  1560   0.792E+00    0.195E+00
DAV:  12    -0.680370957053E+02    0.36282E-01   -0.10031E-01  1584   0.318E+00    0.119E+00
DAV:  13    -0.680298665572E+02    0.72291E-02   -0.66834E-02  1488   0.150E+00    0.103E+00
DAV:  14    -0.680253893588E+02    0.44772E-02   -0.49395E-02  1296   0.238E+00    0.394E-01
DAV:  15    -0.680260921627E+02   -0.70280E-03   -0.37125E-03  1476   0.459E-01    0.382E-01
DAV:  16    -0.680253385837E+02    0.75358E-03   -0.35083E-03  1404   0.381E-01    0.125E-01
DAV:  17    -0.680253510674E+02   -0.12484E-04   -0.24938E-03  1404   0.364E-01    0.993E-02
DAV:  18    -0.680251166051E+02    0.23446E-03   -0.19479E-04  1380   0.997E-02    0.303E-02
DAV:  19    -0.680251049755E+02    0.11630E-04   -0.10255E-04  1452   0.691E-02    0.649E-03
DAV:  20    -0.680251287515E+02   -0.23776E-04   -0.70306E-06  1488   0.159E-02    0.896E-03
DAV:  21    -0.680251311355E+02   -0.23840E-05   -0.21586E-06   780   0.104E-02    0.419E-03
DAV:  22    -0.680251290336E+02    0.21019E-05   -0.13913E-06   732   0.761E-03    0.126E-03
DAV:  23    -0.680251327115E+02   -0.36779E-05   -0.22946E-07   648   0.351E-03    0.116E-03
DAV:  24    -0.680251318905E+02    0.82099E-06   -0.26539E-08   648   0.116E-03
   1 F= -.68025132E+02 E0= -.68025132E+02  d E =0.000000E+00  mag=    -0.0000
