 vasp.5.4.4.18Apr17-6-g9f103f2a35 (build Apr 27 2017 11:13:10) complex          
  
 executed on           IFC91_ompi date 2020.05.13  11:39:42
 running on   12 total cores
 distrk:  each k-point on   12 cores,    1 groups
 distr:  one band on NCORES_PER_BAND=   1 cores,   12 groups


--------------------------------------------------------------------------------------------------------


 INCAR:
 POTCAR:    PAW_PBE Mn_pv 02Aug2007               
 POTCAR:    PAW_PBE F 08Apr2002                   

 ----------------------------------------------------------------------------- 
|                                                                             |
|           W    W    AA    RRRRR   N    N  II  N    N   GGGG   !!!           |
|           W    W   A  A   R    R  NN   N  II  NN   N  G    G  !!!           |
|           W    W  A    A  R    R  N N  N  II  N N  N  G       !!!           |
|           W WW W  AAAAAA  RRRRR   N  N N  II  N  N N  G  GGG   !            |
|           WW  WW  A    A  R   R   N   NN  II  N   NN  G    G                |
|           W    W  A    A  R    R  N    N  II  N    N   GGGG   !!!           |
|                                                                             |
|      For optimal performance we recommend to set                            |
|        NCORE= 4 - approx SQRT( number of cores)                             |
|      NCORE specifies how many cores store one orbital (NPAR=cpu/NCORE).     |
|      This setting can  greatly improve the performance of VASP for DFT.     |
|      The default,   NCORE=1            might be grossly inefficient         |
|      on modern multi-core architectures or massively parallel machines.     |
|      Do your own testing !!!!                                               |
|      Unfortunately you need to use the default for GW and RPA calculations. |
|      (for HF NCORE is supported but not extensively tested yet)             |
|                                                                             |
 ----------------------------------------------------------------------------- 

 POTCAR:    PAW_PBE Mn_pv 02Aug2007               
   VRHFIN =Mn: 3p4s3d                                                           
   LEXCH  = PE                                                                  
   EATOM  =  2025.2664 eV,  148.8529 Ry                                         
                                                                                
   TITEL  = PAW_PBE Mn_pv 02Aug2007                                             
   LULTRA =        F    use ultrasoft PP ?                                      
   IUNSCR =        1    unscreen: 0-lin 1-nonlin 2-no                           
   RPACOR =    2.080    partial core radius                                     
   POMASS =   54.938; ZVAL   =   13.000    mass and valenz                      
   RCORE  =    2.300    outmost cutoff radius                                   
   RWIGS  =    2.500; RWIGS  =    1.323    wigner-seitz radius (au A)           
   ENMAX  =  269.864; ENMIN  =  202.398 eV                                      
   ICORE  =        3    local potential                                         
   LCOR   =        T    correct aug charges                                     
   LPAW   =        T    paw PP                                                  
   EAUG   =  569.085                                                            
   DEXC   =    0.000                                                            
   RMAX   =    2.343    core radius for proj-oper                               
   RAUG   =    1.300    factor for augmentation sphere                          
   RDEP   =    2.338    radius for radial grids                                 
   RDEPT  =    1.798    core radius for aug-charge                              
                                                                                
   Atomic configuration                                                         
    8 entries                                                                   
     n  l   j            E        occ.                                          
     1  0  0.50     -6424.8287   2.0000                                         
     2  0  0.50      -739.1154   2.0000                                         
     2  1  1.50      -625.3949   6.0000                                         
     3  0  0.50       -81.6100   2.0000                                         
     3  1  1.50       -50.4667   6.0000                                         
     3  2  2.50        -3.3745   6.0000                                         
     4  0  0.50        -4.1331   1.0000                                         
     4  3  2.50        -1.3606   0.0000                                         
   Description                                                                  
     l       E           TYP  RCUT    TYP  RCUT                                 
     1    -50.4666628     23  2.000                                             
     1     -1.3605826     23  2.000                                             
     2     -3.3744729     23  2.300                                             
     2     -4.7350555     23  2.300                                             
     0     -4.1331431     23  2.300                                             
     0      7.6656591     23  2.300                                             
     3      9.5240782     23  2.300                                             
  local pseudopotential read in
  partial core-charges read in
  partial kinetic energy density read in
  atomic valenz-charges read in
  non local Contribution for L=           1  read in
    real space projection operators read in
  non local Contribution for L=           1  read in
    real space projection operators read in
  non local Contribution for L=           2  read in
    real space projection operators read in
  non local Contribution for L=           2  read in
    real space projection operators read in
  non local Contribution for L=           0  read in
    real space projection operators read in
  non local Contribution for L=           0  read in
    real space projection operators read in
    PAW grid and wavefunctions read in
 
   number of l-projection  operators is LMAX  =           6
   number of lm-projection operators is LMMAX =          18
 
 POTCAR:    PAW_PBE F 08Apr2002                   
   VRHFIN =F: s2p5                                                              
   LEXCH  = PE                                                                  
   EATOM  =   659.6475 eV,   48.4827 Ry                                         
                                                                                
   TITEL  = PAW_PBE F 08Apr2002                                                 
   LULTRA =        F    use ultrasoft PP ?                                      
   IUNSCR =        1    unscreen: 0-lin 1-nonlin 2-no                           
   RPACOR =    1.200    partial core radius                                     
   POMASS =   18.998; ZVAL   =    7.000    mass and valenz                      
   RCORE  =    1.520    outmost cutoff radius                                   
   RWIGS  =    1.500; RWIGS  =    0.794    wigner-seitz radius (au A)           
   ENMAX  =  400.000; ENMIN  =  300.000 eV                                      
   ICORE  =        2    local potential                                         
   LCOR   =        T    correct aug charges                                     
   LPAW   =        T    paw PP                                                  
   EAUG   =  613.614                                                            
   RMAX   =    1.555    core radius for proj-oper                               
   RAUG   =    1.300    factor for augmentation sphere                          
   RDEP   =    1.539    radius for radial grids                                 
   RDEPT  =    1.299    core radius for aug-charge                              
                                                                                
   Atomic configuration                                                         
    4 entries                                                                   
     n  l   j            E        occ.                                          
     1  0  0.50      -663.3661   2.0000                                         
     2  0  0.50       -29.8995   2.0000                                         
     2  1  0.50       -11.1114   5.0000                                         
     3  2  1.50       -10.8847   0.0000                                         
   Description                                                                  
     l       E           TYP  RCUT    TYP  RCUT                                 
     0    -29.8995018     23  1.200                                             
     0     -9.5240782     23  1.200                                             
     1    -11.1113914     23  1.520                                             
     1      1.3605826     23  1.520                                             
     2    -10.8846608      7  1.500                                             
  local pseudopotential read in
  partial core-charges read in
  partial kinetic energy density read in
  atomic valenz-charges read in
  non local Contribution for L=           0  read in
    real space projection operators read in
  non local Contribution for L=           0  read in
    real space projection operators read in
  non local Contribution for L=           1  read in
    real space projection operators read in
  non local Contribution for L=           1  read in
    real space projection operators read in
    PAW grid and wavefunctions read in
 
   number of l-projection  operators is LMAX  =           4
   number of lm-projection operators is LMMAX =           8
 
  PAW_PBE Mn_pv 02Aug2007               :
 energy of atom  1       EATOM=-2025.2664
 kinetic energy error for atom=    0.0062 (will be added to EATOM!!)
  PAW_PBE F 08Apr2002                   :
 energy of atom  2       EATOM= -659.6475
 kinetic energy error for atom=    0.0354 (will be added to EATOM!!)
 
 
 POSCAR: Mn  F                                   
  positions in cartesian coordinates
  No initial velocities read in

 METAGGA = SCAN     LMAXTAU =  6    LMIXTAU =  F

 exchange correlation table for  LEXCH =        8
   RHO(1)=    0.500       N(1)  =     2000
   RHO(2)=  100.500       N(2)  =     4000
 


--------------------------------------------------------------------------------------------------------


 ion  position               nearest neighbor table
   1  0.500  0.500  0.500-   3 2.08   4 2.08   5 2.12   6 2.12   5 2.12   6 2.12
   2  0.000  0.000  0.000-   5 2.08   6 2.08   3 2.12   4 2.12   3 2.12   4 2.12
   3  0.196  0.804  0.500-   1 2.08   2 2.12   2 2.12
   4  0.804  0.196  0.500-   1 2.08   2 2.12   2 2.12
   5  0.304  0.304  0.000-   2 2.08   1 2.12   1 2.12
   6  0.696  0.696  0.000-   2 2.08   1 2.12   1 2.12
 
  LATTYP: Found a simple tetragonal cell.
 ALAT       =     4.8487207946
 C/A-ratio  =     0.6777192300
  
  Lattice vectors:
  
 A1 = (   4.8487207946,   0.0000000000,   0.0000000000)
 A2 = (   0.0000000000,   4.8487207946,   0.0000000000)
 A3 = (   0.0000000000,   0.0000000000,   3.2860713234)


Analysis of symmetry for initial positions (statically):
=====================================================================
 Subroutine PRICEL returns:
 Original cell was already a primitive cell.
 

 Routine SETGRP: Setting up the symmetry group for a 
 simple tetragonal supercell.


 Subroutine GETGRP returns: Found 16 space group operations
 (whereof  8 operations were pure point group operations)
 out of a pool of 16 trial point group operations.


The static configuration has the point symmetry D_2h.
 The point group associated with its full space group is D_4h.


Analysis of symmetry for dynamics (positions and initial velocities):
=====================================================================
 Subroutine PRICEL returns:
 Original cell was already a primitive cell.
 

 Routine SETGRP: Setting up the symmetry group for a 
 simple tetragonal supercell.


 Subroutine GETGRP returns: Found 16 space group operations
 (whereof  8 operations were pure point group operations)
 out of a pool of 16 trial point group operations.


The dynamic configuration has the point symmetry D_2h.
 The point group associated with its full space group is D_4h.


Analysis of structural, dynamic, and magnetic symmetry:
=====================================================================
 Subroutine PRICEL returns:
 Original cell was already a primitive cell.
 

 Routine SETGRP: Setting up the symmetry group for a 
 simple tetragonal supercell.


 Subroutine GETGRP returns: Found 16 space group operations
 (whereof  8 operations were pure point group operations)
 out of a pool of 16 trial point group operations.


The magnetic configuration has the point symmetry D_2h.
 The point group associated with its full space group is D_4h.


 Subroutine INISYM returns: Found 16 space group operations
 (whereof  8 operations are pure point group operations),
 and found     1 'primitive' translations

 
 
 KPOINTS: KPOINTS created by Atomic Simulation Env

Automatic generation of k-mesh.
Space group operators:
 irot       det(A)        alpha          n_x          n_y          n_z        tau_x        tau_y        tau_z
    1     1.000000     0.000001     1.000000     0.000000     0.000000     0.000000     0.000000     0.000000
    2    -1.000000     0.000001     1.000000     0.000000     0.000000     0.000000     0.000000     0.000000
    3     1.000000   180.000000     0.000000     0.000000     1.000000     0.000000     0.000000     0.000000
    4    -1.000000   180.000000     0.000000     0.000000     1.000000     0.000000     0.000000     0.000000
    5     1.000000   180.000000     0.707107     0.707107     0.000000     0.000000     0.000000     0.000000
    6    -1.000000   180.000000     0.707107     0.707107     0.000000     0.000000     0.000000     0.000000
    7     1.000000   180.000000     0.707107    -0.707107     0.000000     0.000000     0.000000     0.000000
    8    -1.000000   180.000000     0.707107    -0.707107     0.000000     0.000000     0.000000     0.000000
    9     1.000000    90.000000     0.000000     0.000000    -1.000000     0.500000     0.500000     0.500000
   10    -1.000000    90.000000     0.000000     0.000000    -1.000000     0.500000     0.500000     0.500000
   11     1.000000    90.000000     0.000000     0.000000     1.000000     0.500000     0.500000     0.500000
   12    -1.000000    90.000000     0.000000     0.000000     1.000000     0.500000     0.500000     0.500000
   13     1.000000   180.000000     0.000000     1.000000     0.000000     0.500000     0.500000     0.500000
   14    -1.000000   180.000000     0.000000     1.000000     0.000000     0.500000     0.500000     0.500000
   15     1.000000   180.000000     1.000000     0.000000     0.000000     0.500000     0.500000     0.500000
   16    -1.000000   180.000000     1.000000     0.000000     0.000000     0.500000     0.500000     0.500000
 
 Subroutine IBZKPT returns following result:
 ===========================================
 
 Found      9 irreducible k-points:
 
 Following reciprocal coordinates:
            Coordinates               Weight
  0.125000  0.125000  0.083333      8.000000
  0.375000  0.125000  0.083333     16.000000
  0.375000  0.375000  0.083333      8.000000
  0.125000  0.125000  0.250000      8.000000
  0.375000  0.125000  0.250000     16.000000
  0.375000  0.375000  0.250000      8.000000
  0.125000  0.125000  0.416667      8.000000
  0.375000  0.125000  0.416667     16.000000
  0.375000  0.375000  0.416667      8.000000
 
 Following cartesian coordinates:
            Coordinates               Weight
  0.025780  0.025780  0.025360      8.000000
  0.077340  0.025780  0.025360     16.000000
  0.077340  0.077340  0.025360      8.000000
  0.025780  0.025780  0.076079      8.000000
  0.077340  0.025780  0.076079     16.000000
  0.077340  0.077340  0.076079      8.000000
  0.025780  0.025780  0.126798      8.000000
  0.077340  0.025780  0.126798     16.000000
  0.077340  0.077340  0.126798      8.000000
 
 TETIRR: Found    106 inequivalent tetrahedra from      576


--------------------------------------------------------------------------------------------------------




 Dimension of arrays:
   k-points           NKPTS =      9   k-points in BZ     NKDIM =      9   number of bands    NBANDS=     36
   number of dos      NEDOS =    301   number of ions     NIONS =      6
   non local maximal  LDIM  =      6   non local SUM 2l+1 LMDIM =     18
   total plane-waves  NPLWV =  14112
   max r-space proj   IRMAX =      1   max aug-charges    IRDMAX=  44535
   dimension x,y,z NGX =    28 NGY =   28 NGZ =   18
   dimension x,y,z NGXF=    56 NGYF=   56 NGZF=   36
   support grid    NGXF=   112 NGYF=  112 NGZF=   72
   ions per type =               2   4
   NGX,Y,Z   is equivalent  to a cutoff of   9.60,  9.60,  9.11 a.u.
   NGXF,Y,Z  is equivalent  to a cutoff of  19.20, 19.20, 18.21 a.u.

 SYSTEM =  unknown system                          
 POSCAR =  Mn  F                                   

 Startparameter for this run:
   NWRITE =      2    write-flag & timer
   PREC   = normal    normal or accurate (medium, high low for compatibility)
   ISTART =      0    job   : 0-new  1-cont  2-samecut
   ICHARG =      2    charge: 1-file 2-atom 10-const
   ISPIN  =      2    spin polarized calculation?
   LNONCOLLINEAR =      F non collinear calculations
   LSORBIT =      F    spin-orbit coupling
   INIWAV =      1    electr: 0-lowe 1-rand  2-diag
   LASPH  =      T    aspherical Exc in radial PAW
   METAGGA=      F    non-selfconsistent MetaGGA calc.

 Electronic Relaxation 1
   ENCUT  =  500.0 eV  36.75 Ry    6.06 a.u.   8.84  8.84  5.99*2*pi/ulx,y,z
   ENINI  =  500.0     initial cutoff
   ENAUG  =  613.6 eV  augmentation charge cutoff
   NELM   =     60;   NELMIN=  2; NELMDL= -5     # of ELM steps 
   EDIFF  = 0.1E-05   stopping-criterion for ELM
   LREAL  =      F    real-space projection
   NLSPLINE    = F    spline interpolate recip. space projectors
   LCOMPAT=      F    compatible to vasp.4.4
   GGA_COMPAT  = T    GGA compatible to vasp.4.4-vasp.4.6
   LMAXPAW     = -100 max onsite density
   LMAXMIX     =    4 max onsite mixed and CHGCAR
   VOSKOWN=      0    Vosko Wilk Nusair interpolation
   ROPT   =    0.00000   0.00000
 Ionic relaxation
   EDIFFG = 0.1E-04   stopping-criterion for IOM
   NSW    =      0    number of steps for IOM
   NBLOCK =      1;   KBLOCK =      1    inner block; outer block 
   IBRION =     -1    ionic relax: 0-MD 1-quasi-New 2-CG
   NFREE  =      0    steps in history (QN), initial steepest desc. (CG)
   ISIF   =      2    stress and relaxation
   IWAVPR =     10    prediction:  0-non 1-charg 2-wave 3-comb
   ISYM   =      2    0-nonsym 1-usesym 2-fastsym
   LCORR  =      T    Harris-Foulkes like correction to forces

   POTIM  = 0.5000    time-step for ionic-motion
   TEIN   =    0.0    initial temperature
   TEBEG  =    0.0;   TEEND  =   0.0 temperature during run
   SMASS  =  -3.00    Nose mass-parameter (am)
   estimated Nose-frequenzy (Omega)   =  0.10E-29 period in steps =****** mass=  -0.537E-27a.u.
   SCALEE = 1.0000    scale energy and forces
   NPACO  =    256;   APACO  = 16.0  distance and # of slots for P.C.
   PSTRESS=    0.0 pullay stress

  Mass of Ions in am
   POMASS =  54.94 19.00
  Ionic Valenz
   ZVAL   =  13.00  7.00
  Atomic Wigner-Seitz radii
   RWIGS  =  -1.00 -1.00
  virtual crystal weights 
   VCA    =   1.00  1.00
   NELECT =      54.0000    total number of electrons
   NUPDOWN=      -1.0000    fix difference up-down

 DOS related values:
   EMIN   =  10.00;   EMAX   =-10.00  energy-range for DOS
   EFERMI =   0.00
   ISMEAR =    -5;   SIGMA  =   0.20  broadening in eV -4-tet -1-fermi 0-gaus

 Electronic relaxation 2 (details)
   IALGO  =     38    algorithm
   LDIAG  =      T    sub-space diagonalisation (order eigenvalues)
   LSUBROT=      F    optimize rotation matrix (better conditioning)
   TURBO    =      0    0=normal 1=particle mesh
   IRESTART =      0    0=no restart 2=restart with 2 vectors
   NREBOOT  =      0    no. of reboots
   NMIN     =      0    reboot dimension
   EREF     =   0.00    reference energy to select bands
   IMIX   =      4    mixing-type and parameters
     AMIX     =   0.40;   BMIX     =  1.00
     AMIX_MAG =   1.60;   BMIX_MAG =  1.00
     AMIN     =   0.10
     WC   =   100.;   INIMIX=   1;  MIXPRE=   1;  MAXMIX= -45

 Intra band minimization:
   WEIMIN = 0.0000     energy-eigenvalue tresh-hold
   EBREAK =  0.69E-08  absolut break condition
   DEPER  =   0.30     relativ break condition  

   TIME   =   0.40     timestep for ELM

  volume/ion in A,a.u.               =      12.88        86.89
  Fermi-wavevector in a.u.,A,eV,Ry     =   1.452877  2.745540 28.719895  2.110853
  Thomas-Fermi vector in A             =   2.570209
 
 Write flags
   LWAVE        =      T    write WAVECAR
   LDOWNSAMPLE  =      F    k-point downsampling of WAVECAR
   LCHARG       =      T    write CHGCAR
   LVTOT        =      F    write LOCPOT, total local potential
   LVHAR        =      F    write LOCPOT, Hartree potential only
   LELF         =      F    write electronic localiz. function (ELF)
   LORBIT       =     11    0 simple, 1 ext, 2 COOP (PROOUT), +10 PAW based schemes


 Dipole corrections
   LMONO  =      F    monopole corrections only (constant potential shift)
   LDIPOL =      F    correct potential (dipole corrections)
   IDIPOL =      0    1-x, 2-y, 3-z, 4-all directions 
   EPSILON=  1.0000000 bulk dielectric constant

 LDA+U is selected, type is set to LDAUTYPE =  2
   angular momentum for each species LDAUL =     2   -1
   U (eV)           for each species LDAUU =   0.0  0.0
   J (eV)           for each species LDAUJ =   0.0  0.0
 Exchange correlation treatment:
   GGA     =    --    GGA type
   LEXCH   =     8    internal setting for exchange type
   VOSKOWN=      0    Vosko Wilk Nusair interpolation
   LHFCALC =     F    Hartree Fock is set to
   LHFONE  =     F    Hartree Fock one center treatment
   AEXX    =    0.0000 exact exchange contribution

 Linear response parameters
   LEPSILON=     F    determine dielectric tensor
   LRPA    =     F    only Hartree local field effects (RPA)
   LNABLA  =     F    use nabla operator in PAW spheres
   LVEL    =     F    velocity operator in full k-point grid
   LINTERFAST=   F  fast interpolation
   KINTER  =     0    interpolate to denser k-point grid
   CSHIFT  =0.1000    complex shift for real part using Kramers Kronig
   OMEGAMAX=  -1.0    maximum frequency
   DEG_THRESHOLD= 0.2000000E-02 threshold for treating states as degnerate
   RTIME   =   -0.100 relaxation time in fs
  (WPLASMAI=    0.000 imaginary part of plasma frequency in eV, 0.658/RTIME)
   DFIELD  = 0.0000000 0.0000000 0.0000000 field for delta impulse in time
 
 Orbital magnetization related:
   ORBITALMAG=     F  switch on orbital magnetization
   LCHIMAG   =     F  perturbation theory with respect to B field
   DQ        =  0.001000  dq finite difference perturbation B field
   LLRAUG    =     F  two centre corrections for induced B field



--------------------------------------------------------------------------------------------------------


 Static calculation
 charge density and potential will be updated during run
 spin polarized calculation
 Variant of blocked Davidson
 Davidson routine will perform the subspace rotation
 perform sub-space diagonalisation
    after iterative eigenvector-optimisation
 modified Broyden-mixing scheme, WC =      100.0
 initial mixing is a Kerker type mixing with AMIX =  0.4000 and BMIX =      1.0000
 Hartree-type preconditioning will be used
 using additional bands            9
 reciprocal scheme for non local part
 use partial core corrections
 calculate Harris-corrections to forces 
   (improved forces if not selfconsistent)
 use gradient corrections 
 use of overlap-Matrix (Vanderbilt PP)
 Fermi weights with tetrahedron method with Bloechl corrections


--------------------------------------------------------------------------------------------------------


  energy-cutoff  :      500.00
  volume of cell :       77.26
      direct lattice vectors                 reciprocal lattice vectors
     4.848720795  0.000000000  0.000000000     0.206239964  0.000000000  0.000000000
     0.000000000  4.848720795  0.000000000     0.000000000  0.206239964  0.000000000
     0.000000000  0.000000000  3.286071323     0.000000000  0.000000000  0.304314758

  length of vectors
     4.848720795  4.848720795  3.286071323     0.206239964  0.206239964  0.304314758


 
 k-points in units of 2pi/SCALE and weight: KPOINTS created by Atomic Simulation Env
   0.02578000  0.02578000  0.02535956       0.083
   0.07733999  0.02578000  0.02535956       0.167
   0.07733999  0.07733999  0.02535956       0.083
   0.02578000  0.02578000  0.07607869       0.083
   0.07733999  0.02578000  0.07607869       0.167
   0.07733999  0.07733999  0.07607869       0.083
   0.02578000  0.02578000  0.12679782       0.083
   0.07733999  0.02578000  0.12679782       0.167
   0.07733999  0.07733999  0.12679782       0.083
 
 k-points in reciprocal lattice and weights: KPOINTS created by Atomic Simulation Env
   0.12500000  0.12500000  0.08333333       0.083
   0.37500000  0.12500000  0.08333333       0.167
   0.37500000  0.37500000  0.08333333       0.083
   0.12500000  0.12500000  0.25000000       0.083
   0.37500000  0.12500000  0.25000000       0.167
   0.37500000  0.37500000  0.25000000       0.083
   0.12500000  0.12500000  0.41666667       0.083
   0.37500000  0.12500000  0.41666667       0.167
   0.37500000  0.37500000  0.41666667       0.083
 
 position of ions in fractional coordinates (direct lattice) 
   0.50000000  0.50000000  0.50000000
   0.00000000  0.00000000  0.00000000
   0.19611023  0.80388977  0.50000000
   0.80388977  0.19611023  0.50000000
   0.30388977  0.30388977  0.00000000
   0.69611023  0.69611023  0.00000000
 
 position of ions in cartesian coordinates  (Angst):
   2.42436040  2.42436040  1.64303566
   0.00000000  0.00000000  0.00000000
   0.95088374  3.89783706  1.64303566
   3.89783706  0.95088374  1.64303566
   1.47347666  1.47347666  0.00000000
   3.37524413  3.37524413  0.00000000
 


--------------------------------------------------------------------------------------------------------


 k-point  1 :   0.1250 0.1250 0.0833  plane waves:    1952
 k-point  2 :   0.3750 0.1250 0.0833  plane waves:    1953
 k-point  3 :   0.3750 0.3750 0.0833  plane waves:    1953
 k-point  4 :   0.1250 0.1250 0.2500  plane waves:    1968
 k-point  5 :   0.3750 0.1250 0.2500  plane waves:    1958
 k-point  6 :   0.3750 0.3750 0.2500  plane waves:    1964
 k-point  7 :   0.1250 0.1250 0.4167  plane waves:    1966
 k-point  8 :   0.3750 0.1250 0.4167  plane waves:    1959
 k-point  9 :   0.3750 0.3750 0.4167  plane waves:    1986

 maximum and minimum number of plane-waves per node :      1986     1952

 maximum number of plane-waves:      1986
 maximum index in each direction: 
   IXMAX=    8   IYMAX=    8   IZMAX=    5
   IXMIN=   -9   IYMIN=   -9   IZMIN=   -6


 serial   3D FFT for wavefunctions
 parallel 3D FFT for charge:
    minimum data exchange during FFTs selected (reduces bandwidth)


 total amount of memory used by VASP MPI-rank0    41943. kBytes
=======================================================================

   base      :      30000. kBytes
   nonl-proj :       5354. kBytes
   fftplans  :       1551. kBytes
   grid      :       3069. kBytes
   one-center:        186. kBytes
   wavefun   :       1783. kBytes
 
     INWAV:  cpu time    0.0000: real time    0.0000
 Broyden mixing: mesh for mixing (old mesh)
   NGX = 17   NGY = 17   NGZ = 11
  (NGX  = 56   NGY  = 56   NGZ  = 36)
  gives a total of   3179 points

 initial charge density was supplied:
 charge density of overlapping atoms calculated
 number of electron      54.0000000 magnetization       0.0000000
 keeping initial charge density in first step


--------------------------------------------------------------------------------------------------------


 Maximum index for augmentation-charges         4578 (set IRDMAX)


--------------------------------------------------------------------------------------------------------


 First call to EWALD:  gamma=   0.416
 Maximum number of real-space cells 2x 2x 3
 Maximum number of reciprocal cells 3x 3x 2

    FEWALD:  cpu time    0.0010: real time    0.0010


--------------------------------------- Iteration      1(   1)  ---------------------------------------


    POTLOK:  cpu time    0.0301: real time    0.0301
    SETDIJ:  cpu time    1.4363: real time    1.4363
atom =   1  type =  1  l = 2
 
 onsite density matrix
 
spin component  1
 
  0.2835  0.0000  0.0000  0.0000  0.0000
  0.0000  0.2835  0.0000  0.0000  0.0000
  0.0000  0.0000  0.2835  0.0000  0.0000
  0.0000  0.0000  0.0000  0.2835  0.0000
  0.0000  0.0000  0.0000  0.0000  0.2835
 
spin component  2
 
  0.7694  0.0000  0.0000  0.0000  0.0000
  0.0000  0.7694  0.0000  0.0000  0.0000
  0.0000  0.0000  0.7694  0.0000  0.0000
  0.0000  0.0000  0.0000  0.7694  0.0000
  0.0000  0.0000  0.0000  0.0000  0.7694
 
 occupancies and eigenvectors
 
  o =  0.2835  v =  1.0000  0.0000  0.0000  0.0000  0.0000  0.0000  0.0000  0.0000  0.0000  0.0000      0.0000  0.0000  0.0000  0.0000  0.0000  0.0000  0.0000  0.0000  0.0000  0.0000
  o =  0.2835  v =  0.0000  1.0000  0.0000  0.0000  0.0000  0.0000  0.0000  0.0000  0.0000  0.0000      0.0000  0.0000  0.0000  0.0000  0.0000  0.0000  0.0000  0.0000  0.0000  0.0000
  o =  0.2835  v =  0.0000  0.0000  1.0000  0.0000  0.0000  0.0000  0.0000  0.0000  0.0000  0.0000      0.0000  0.0000  0.0000  0.0000  0.0000  0.0000  0.0000  0.0000  0.0000  0.0000
  o =  0.2835  v =  0.0000  0.0000  0.0000  1.0000  0.0000  0.0000  0.0000  0.0000  0.0000  0.0000      0.0000  0.0000  0.0000  0.0000  0.0000  0.0000  0.0000  0.0000  0.0000  0.0000
  o =  0.2835  v =  0.0000  0.0000  0.0000  0.0000  1.0000  0.0000  0.0000  0.0000  0.0000  0.0000      0.0000  0.0000  0.0000  0.0000  0.0000  0.0000  0.0000  0.0000  0.0000  0.0000
  o =  0.7694  v =  0.0000  0.0000  0.0000  0.0000  0.0000  1.0000  0.0000  0.0000  0.0000  0.0000      0.0000  0.0000  0.0000  0.0000  0.0000  0.0000  0.0000  0.0000  0.0000  0.0000
  o =  0.7694  v =  0.0000  0.0000  0.0000  0.0000  0.0000  0.0000  1.0000  0.0000  0.0000  0.0000      0.0000  0.0000  0.0000  0.0000  0.0000  0.0000  0.0000  0.0000  0.0000  0.0000
  o =  0.7694  v =  0.0000  0.0000  0.0000  0.0000  0.0000  0.0000  0.0000  1.0000  0.0000  0.0000      0.0000  0.0000  0.0000  0.0000  0.0000  0.0000  0.0000  0.0000  0.0000  0.0000
  o =  0.7694  v =  0.0000  0.0000  0.0000  0.0000  0.0000  0.0000  0.0000  0.0000  1.0000  0.0000      0.0000  0.0000  0.0000  0.0000  0.0000  0.0000  0.0000  0.0000  0.0000  0.0000
  o =  0.7694  v =  0.0000  0.0000  0.0000  0.0000  0.0000  0.0000  0.0000  0.0000  0.0000  1.0000      0.0000  0.0000  0.0000  0.0000  0.0000  0.0000  0.0000  0.0000  0.0000  0.0000
atom =   2  type =  1  l = 2
 
 onsite density matrix
 
spin component  1
 
  0.7694  0.0000  0.0000  0.0000  0.0000
  0.0000  0.7694  0.0000  0.0000  0.0000
  0.0000  0.0000  0.7694  0.0000  0.0000
  0.0000  0.0000  0.0000  0.7694  0.0000
  0.0000  0.0000  0.0000  0.0000  0.7694
 
spin component  2
 
  0.2835  0.0000  0.0000  0.0000  0.0000
  0.0000  0.2835  0.0000  0.0000  0.0000
  0.0000  0.0000  0.2835  0.0000  0.0000
  0.0000  0.0000  0.0000  0.2835  0.0000
  0.0000  0.0000  0.0000  0.0000  0.2835
 
 occupancies and eigenvectors
 
  o =  0.2835  v =  0.0000  0.0000  0.0000  0.0000  0.0000  1.0000  0.0000  0.0000  0.0000  0.0000      0.0000  0.0000  0.0000  0.0000  0.0000  0.0000  0.0000  0.0000  0.0000  0.0000
  o =  0.2835  v =  0.0000  0.0000  0.0000  0.0000  0.0000  0.0000  1.0000  0.0000  0.0000  0.0000      0.0000  0.0000  0.0000  0.0000  0.0000  0.0000  0.0000  0.0000  0.0000  0.0000
  o =  0.2835  v =  0.0000  0.0000  0.0000  0.0000  0.0000  0.0000  0.0000  1.0000  0.0000  0.0000      0.0000  0.0000  0.0000  0.0000  0.0000  0.0000  0.0000  0.0000  0.0000  0.0000
  o =  0.2835  v =  0.0000  0.0000  0.0000  0.0000  0.0000  0.0000  0.0000  0.0000  1.0000  0.0000      0.0000  0.0000  0.0000  0.0000  0.0000  0.0000  0.0000  0.0000  0.0000  0.0000
  o =  0.2835  v =  0.0000  0.0000  0.0000  0.0000  0.0000  0.0000  0.0000  0.0000  0.0000  1.0000      0.0000  0.0000  0.0000  0.0000  0.0000  0.0000  0.0000  0.0000  0.0000  0.0000
  o =  0.7694  v =  1.0000  0.0000  0.0000  0.0000  0.0000  0.0000  0.0000  0.0000  0.0000  0.0000      0.0000  0.0000  0.0000  0.0000  0.0000  0.0000  0.0000  0.0000  0.0000  0.0000
  o =  0.7694  v =  0.0000  1.0000  0.0000  0.0000  0.0000  0.0000  0.0000  0.0000  0.0000  0.0000      0.0000  0.0000  0.0000  0.0000  0.0000  0.0000  0.0000  0.0000  0.0000  0.0000
  o =  0.7694  v =  0.0000  0.0000  1.0000  0.0000  0.0000  0.0000  0.0000  0.0000  0.0000  0.0000      0.0000  0.0000  0.0000  0.0000  0.0000  0.0000  0.0000  0.0000  0.0000  0.0000
  o =  0.7694  v =  0.0000  0.0000  0.0000  1.0000  0.0000  0.0000  0.0000  0.0000  0.0000  0.0000      0.0000  0.0000  0.0000  0.0000  0.0000  0.0000  0.0000  0.0000  0.0000  0.0000
  o =  0.7694  v =  0.0000  0.0000  0.0000  0.0000  1.0000  0.0000  0.0000  0.0000  0.0000  0.0000      0.0000  0.0000  0.0000  0.0000  0.0000  0.0000  0.0000  0.0000  0.0000  0.0000
     EDDAV:  cpu time    0.5360: real time    0.5570
 BZINTS: Fermi energy: 24.427009; 54.000000 electrons
         Band energy: 342.091604;  BLOECHL correction: -0.336740
       DOS:  cpu time    0.0067: real time    0.0067
    --------------------------------------------
      LOOP:  cpu time    2.0091: real time    2.0301

 eigenvalue-minimisations  :  1308
 total energy-change (2. order) : 0.9303511E+03  (-0.3430114E+04)
 number of electron      54.0000000 magnetization       0.0000000
 augmentation part       54.0000000 magnetization       0.0000000

 Free energy of the ion-electron system (eV)
  ---------------------------------------------------
  alpha Z        PSCENC =       199.82290046
  Ewald energy   TEWEN  =     -4206.20824019
  -Hartree energ DENC   =     -2128.66830889
  -exchange      EXHF   =         0.00000000
  -V(xc)+E(xc)   XCENC  =        -3.96107793
  PAW double counting   =      5566.43601843    -5528.13058630
  entropy T*S    EENTRO =         0.00000000
  eigenvalues    EBANDS =       342.09160418
  atomic energy  EATOM  =      6688.96875309
  Solvation  Ediel_sol  =         0.00000000
  ---------------------------------------------------
  free energy    TOTEN  =       930.35106286 eV

  energy without entropy =      930.35106286  energy(sigma->0) =      930.35106286


--------------------------------------------------------------------------------------------------------




--------------------------------------- Iteration      1(   2)  ---------------------------------------


     EDDAV:  cpu time    0.5874: real time    0.5874
 BZINTS: Fermi energy: 11.642960; 54.000000 electrons
         Band energy:-190.225605;  BLOECHL correction:  0.000000
       DOS:  cpu time    0.0012: real time    0.0012
    --------------------------------------------
      LOOP:  cpu time    0.5886: real time    0.5886

 eigenvalue-minimisations  :  1512
 total energy-change (2. order) :-0.5323172E+03  (-0.5087628E+03)
 number of electron      54.0000000 magnetization       0.0000000
 augmentation part       54.0000000 magnetization       0.0000000

 Free energy of the ion-electron system (eV)
  ---------------------------------------------------
  alpha Z        PSCENC =       199.82290046
  Ewald energy   TEWEN  =     -4206.20824019
  -Hartree energ DENC   =     -2128.66830889
  -exchange      EXHF   =         0.00000000
  -V(xc)+E(xc)   XCENC  =        -3.96107793
  PAW double counting   =      5566.43601843    -5528.13058630
  entropy T*S    EENTRO =         0.00000000
  eigenvalues    EBANDS =      -190.22560527
  atomic energy  EATOM  =      6688.96875309
  Solvation  Ediel_sol  =         0.00000000
  ---------------------------------------------------
  free energy    TOTEN  =       398.03385341 eV

  energy without entropy =      398.03385341  energy(sigma->0) =      398.03385341


--------------------------------------------------------------------------------------------------------




--------------------------------------- Iteration      1(   3)  ---------------------------------------


     EDDAV:  cpu time    0.5694: real time    0.5694
 BZINTS: Fermi energy:  9.914559; 54.000000 electrons
         Band energy:-221.514717;  BLOECHL correction:  0.000000
       DOS:  cpu time    0.0013: real time    0.0013
    --------------------------------------------
      LOOP:  cpu time    0.5707: real time    0.5707

 eigenvalue-minimisations  :  1452
 total energy-change (2. order) :-0.3128911E+02  (-0.3109155E+02)
 number of electron      54.0000000 magnetization       0.0000000
 augmentation part       54.0000000 magnetization       0.0000000

 Free energy of the ion-electron system (eV)
  ---------------------------------------------------
  alpha Z        PSCENC =       199.82290046
  Ewald energy   TEWEN  =     -4206.20824019
  -Hartree energ DENC   =     -2128.66830889
  -exchange      EXHF   =         0.00000000
  -V(xc)+E(xc)   XCENC  =        -3.96107793
  PAW double counting   =      5566.43601843    -5528.13058630
  entropy T*S    EENTRO =         0.00000000
  eigenvalues    EBANDS =      -221.51471736
  atomic energy  EATOM  =      6688.96875309
  Solvation  Ediel_sol  =         0.00000000
  ---------------------------------------------------
  free energy    TOTEN  =       366.74474132 eV

  energy without entropy =      366.74474132  energy(sigma->0) =      366.74474132


--------------------------------------------------------------------------------------------------------




--------------------------------------- Iteration      1(   4)  ---------------------------------------


     EDDAV:  cpu time    0.5899: real time    0.5899
 BZINTS: Fermi energy:  9.956767; 54.000000 electrons
         Band energy:-221.867472;  BLOECHL correction:  0.000000
       DOS:  cpu time    0.0013: real time    0.0013
    --------------------------------------------
      LOOP:  cpu time    0.5912: real time    0.5912

 eigenvalue-minimisations  :  1524
 total energy-change (2. order) :-0.3527545E+00  (-0.3525698E+00)
 number of electron      54.0000000 magnetization       0.0000000
 augmentation part       54.0000000 magnetization       0.0000000

 Free energy of the ion-electron system (eV)
  ---------------------------------------------------
  alpha Z        PSCENC =       199.82290046
  Ewald energy   TEWEN  =     -4206.20824019
  -Hartree energ DENC   =     -2128.66830889
  -exchange      EXHF   =         0.00000000
  -V(xc)+E(xc)   XCENC  =        -3.96107793
  PAW double counting   =      5566.43601843    -5528.13058630
  entropy T*S    EENTRO =         0.00000000
  eigenvalues    EBANDS =      -221.86747190
  atomic energy  EATOM  =      6688.96875309
  Solvation  Ediel_sol  =         0.00000000
  ---------------------------------------------------
  free energy    TOTEN  =       366.39198678 eV

  energy without entropy =      366.39198678  energy(sigma->0) =      366.39198678


--------------------------------------------------------------------------------------------------------




--------------------------------------- Iteration      1(   5)  ---------------------------------------


     EDDAV:  cpu time    0.5860: real time    0.5860
 BZINTS: Fermi energy:  9.969318; 54.000000 electrons
         Band energy:-221.873798;  BLOECHL correction:  0.000000
       DOS:  cpu time    0.0013: real time    0.0013
    CHARGE:  cpu time    0.1177: real time    0.1177
    MIXING:  cpu time    0.0004: real time    0.0004
    --------------------------------------------
      LOOP:  cpu time    0.7054: real time    0.7054

 eigenvalue-minimisations  :  1512
 total energy-change (2. order) :-0.6326001E-02  (-0.6325609E-02)
 number of electron      53.9999996 magnetization       0.0000000
 augmentation part       22.6164187 magnetization       0.0000000

 Broyden mixing:
  rms(total) = 0.58760E+01    rms(broyden)= 0.58747E+01
  rms(prec ) = 0.60995E+01
  weight for this iteration     100.00

 Free energy of the ion-electron system (eV)
  ---------------------------------------------------
  alpha Z        PSCENC =       199.82290046
  Ewald energy   TEWEN  =     -4206.20824019
  -Hartree energ DENC   =     -2128.66830889
  -exchange      EXHF   =         0.00000000
  -V(xc)+E(xc)   XCENC  =        -3.96107793
  PAW double counting   =      5566.43601843    -5528.13058630
  entropy T*S    EENTRO =         0.00000000
  eigenvalues    EBANDS =      -221.87379790
  atomic energy  EATOM  =      6688.96875309
  Solvation  Ediel_sol  =         0.00000000
  ---------------------------------------------------
  free energy    TOTEN  =       366.38566078 eV

  energy without entropy =      366.38566078  energy(sigma->0) =      366.38566078


--------------------------------------------------------------------------------------------------------




--------------------------------------- Iteration      1(   6)  ---------------------------------------


    POTLOK:  cpu time    0.0275: real time    0.0275
    SETDIJ:  cpu time    1.4607: real time    1.4607
atom =   1  type =  1  l = 2
 
 onsite density matrix
 
spin component  1
 
  0.0298  0.0000  0.0646  0.0000  0.0000
  0.0000  0.0039  0.0000  0.0598  0.0000
  0.0646  0.0000 -0.0068  0.0000  0.0000
  0.0000  0.0598  0.0000  0.0039  0.0000
  0.0000  0.0000  0.0000  0.0000 -0.0698
 
spin component  2
 
  1.0599  0.0000 -0.0305  0.0000 -0.0000
  0.0000  1.0732  0.0000 -0.0286  0.0000
 -0.0305  0.0000  1.0765  0.0000 -0.0000
  0.0000 -0.0286  0.0000  1.0732  0.0000
 -0.0000  0.0000 -0.0000  0.0000  1.1084
 
 occupancies and eigenvectors
 
  o = -0.0698  v =  0.0000 -0.0000 -0.0000  0.0000  1.0000  0.0000  0.0000  0.0000  0.0000  0.0000      0.0000  0.0000  0.0000  0.0000  0.0000  0.0000  0.0000  0.0000  0.0000  0.0000
  o = -0.0560  v =  0.0000  0.7071  0.0000 -0.7071  0.0000  0.0000  0.0000  0.0000  0.0000  0.0000      0.0000  0.0000  0.0000  0.0000  0.0000  0.0000  0.0000  0.0000  0.0000  0.0000
  o = -0.0556  v = -0.6030 -0.0000  0.7978  0.0000  0.0000  0.0000  0.0000  0.0000  0.0000  0.0000      0.0000  0.0000  0.0000  0.0000  0.0000  0.0000  0.0000  0.0000  0.0000  0.0000
  o =  0.0637  v =  0.0000 -0.7071  0.0000 -0.7071 -0.0000  0.0000  0.0000  0.0000  0.0000  0.0000      0.0000  0.0000  0.0000  0.0000  0.0000  0.0000  0.0000  0.0000  0.0000  0.0000
  o =  0.0786  v =  0.7978 -0.0000  0.6030  0.0000  0.0000  0.0000  0.0000  0.0000  0.0000  0.0000      0.0000  0.0000  0.0000  0.0000  0.0000  0.0000  0.0000  0.0000  0.0000  0.0000
  o =  1.0366  v =  0.0000  0.0000  0.0000  0.0000  0.0000  0.7949 -0.0000  0.6067 -0.0000  0.0000      0.0000  0.0000  0.0000  0.0000  0.0000  0.0000  0.0000  0.0000  0.0000  0.0000
  o =  1.0446  v =  0.0000  0.0000  0.0000  0.0000  0.0000 -0.0000 -0.7071 -0.0000 -0.7071  0.0000      0.0000  0.0000  0.0000  0.0000  0.0000  0.0000  0.0000  0.0000  0.0000  0.0000
  o =  1.0998  v =  0.0000  0.0000  0.0000  0.0000  0.0000 -0.6067 -0.0000  0.7949  0.0000  0.0000      0.0000  0.0000  0.0000  0.0000  0.0000  0.0000  0.0000  0.0000  0.0000  0.0000
  o =  1.1018  v =  0.0000  0.0000  0.0000  0.0000  0.0000  0.0000 -0.7071 -0.0000  0.7071  0.0000      0.0000  0.0000  0.0000  0.0000  0.0000  0.0000  0.0000  0.0000  0.0000  0.0000
  o =  1.1084  v =  0.0000  0.0000  0.0000  0.0000  0.0000  0.0000  0.0000 -0.0000 -0.0000  1.0000      0.0000  0.0000  0.0000  0.0000  0.0000  0.0000  0.0000  0.0000  0.0000  0.0000
atom =   2  type =  1  l = 2
 
 onsite density matrix
 
spin component  1
 
  1.0599  0.0000  0.0305  0.0000 -0.0000
  0.0000  1.0732  0.0000  0.0286  0.0000
  0.0305  0.0000  1.0765  0.0000  0.0000
  0.0000  0.0286  0.0000  1.0732  0.0000
 -0.0000  0.0000  0.0000  0.0000  1.1084
 
spin component  2
 
  0.0298  0.0000 -0.0646  0.0000  0.0000
  0.0000  0.0039  0.0000 -0.0598  0.0000
 -0.0646  0.0000 -0.0068  0.0000 -0.0000
  0.0000 -0.0598  0.0000  0.0039  0.0000
  0.0000  0.0000 -0.0000  0.0000 -0.0698
 
 occupancies and eigenvectors
 
  o = -0.0698  v =  0.0000  0.0000  0.0000  0.0000  0.0000  0.0000 -0.0000  0.0000  0.0000  1.0000      0.0000  0.0000  0.0000  0.0000  0.0000  0.0000  0.0000  0.0000  0.0000  0.0000
  o = -0.0560  v =  0.0000  0.0000  0.0000  0.0000  0.0000  0.0000 -0.7071  0.0000 -0.7071 -0.0000      0.0000  0.0000  0.0000  0.0000  0.0000  0.0000  0.0000  0.0000  0.0000  0.0000
  o = -0.0556  v =  0.0000  0.0000  0.0000  0.0000  0.0000 -0.6030 -0.0000 -0.7978  0.0000  0.0000      0.0000  0.0000  0.0000  0.0000  0.0000  0.0000  0.0000  0.0000  0.0000  0.0000
  o =  0.0637  v =  0.0000  0.0000  0.0000  0.0000  0.0000  0.0000  0.7071  0.0000 -0.7071  0.0000      0.0000  0.0000  0.0000  0.0000  0.0000  0.0000  0.0000  0.0000  0.0000  0.0000
  o =  0.0786  v =  0.0000  0.0000  0.0000  0.0000  0.0000  0.7978 -0.0000 -0.6030  0.0000  0.0000      0.0000  0.0000  0.0000  0.0000  0.0000  0.0000  0.0000  0.0000  0.0000  0.0000
  o =  1.0366  v = -0.7949  0.0000  0.6067  0.0000 -0.0000  0.0000  0.0000  0.0000  0.0000  0.0000      0.0000  0.0000  0.0000  0.0000  0.0000  0.0000  0.0000  0.0000  0.0000  0.0000
  o =  1.0446  v =  0.0000  0.7071  0.0000 -0.7071 -0.0000  0.0000  0.0000  0.0000  0.0000  0.0000      0.0000  0.0000  0.0000  0.0000  0.0000  0.0000  0.0000  0.0000  0.0000  0.0000
  o =  1.0998  v = -0.6067  0.0000 -0.7949  0.0000  0.0000  0.0000  0.0000  0.0000  0.0000  0.0000      0.0000  0.0000  0.0000  0.0000  0.0000  0.0000  0.0000  0.0000  0.0000  0.0000
  o =  1.1018  v =  0.0000 -0.7071  0.0000 -0.7071  0.0000  0.0000  0.0000  0.0000  0.0000  0.0000      0.0000  0.0000  0.0000  0.0000  0.0000  0.0000  0.0000  0.0000  0.0000  0.0000
  o =  1.1084  v =  0.0000  0.0000  0.0000  0.0000  1.0000  0.0000  0.0000  0.0000  0.0000  0.0000      0.0000  0.0000  0.0000  0.0000  0.0000  0.0000  0.0000  0.0000  0.0000  0.0000
     EDDAV:  cpu time    0.6036: real time    0.6037
 BZINTS: Fermi energy:  6.937888; 54.000000 electrons
         Band energy:-733.618219;  BLOECHL correction: -0.009172
       DOS:  cpu time    0.0068: real time    0.0068
    CHARGE:  cpu time    0.1193: real time    0.1193
    MIXING:  cpu time    0.0004: real time    0.0004
    --------------------------------------------
      LOOP:  cpu time    2.2183: real time    2.2183

 eigenvalue-minimisations  :  1572
 total energy-change (2. order) :-0.4355538E+03  (-0.2669437E+02)
 number of electron      53.9999996 magnetization       0.0000000
 augmentation part       19.7014003 magnetization       0.0000000

 Broyden mixing:
  rms(total) = 0.62475E+01    rms(broyden)= 0.62472E+01
  rms(prec ) = 0.67266E+01
  weight for this iteration     100.00

 eigenvalues of (default mixing * dielectric matrix)
  average eigenvalue GAMMA=   0.4173
  0.4173

 Free energy of the ion-electron system (eV)
  ---------------------------------------------------
  alpha Z        PSCENC =       199.82290046
  Ewald energy   TEWEN  =     -4206.20824019
  -Hartree energ DENC   =     -2196.31786992
  -exchange      EXHF   =         0.00000000
  -V(xc)+E(xc)   XCENC  =       144.64232329
  PAW double counting   =      6438.05682926    -6404.51464723
  entropy T*S    EENTRO =         0.00000000
  eigenvalues    EBANDS =      -733.61821878
  atomic energy  EATOM  =      6688.96875309
  Solvation  Ediel_sol  =         0.00000000
  ---------------------------------------------------
  free energy    TOTEN  =       -69.16817002 eV

  energy without entropy =      -69.16817002  energy(sigma->0) =      -69.16817002


--------------------------------------------------------------------------------------------------------




--------------------------------------- Iteration      1(   7)  ---------------------------------------


    POTLOK:  cpu time    0.0277: real time    0.0277
    SETDIJ:  cpu time    1.4408: real time    1.4409
atom =   1  type =  1  l = 2
 
 onsite density matrix
 
spin component  1
 
  0.0819  0.0000  0.0349  0.0000  0.0000
  0.0000  0.0537  0.0000  0.0244  0.0000
  0.0349  0.0000  0.0561  0.0000  0.0000
  0.0000  0.0244  0.0000  0.0537  0.0000
  0.0000  0.0000  0.0000  0.0000  0.0201
 
spin component  2
 
  0.9761  0.0000 -0.0043  0.0000 -0.0000
  0.0000  1.0025  0.0000  0.0082  0.0000
 -0.0043  0.0000  0.9893  0.0000 -0.0000
  0.0000  0.0082  0.0000  1.0025  0.0000
 -0.0000  0.0000 -0.0000  0.0000  0.9978
 
 occupancies and eigenvectors
 
  o =  0.0201  v =  0.0000 -0.0000 -0.0000  0.0000  1.0000  0.0000  0.0000  0.0000  0.0000  0.0000      0.0000  0.0000  0.0000  0.0000  0.0000  0.0000  0.0000  0.0000  0.0000  0.0000
  o =  0.0294  v =  0.0000 -0.7071  0.0000  0.7071 -0.0000  0.0000  0.0000  0.0000  0.0000  0.0000      0.0000  0.0000  0.0000  0.0000  0.0000  0.0000  0.0000  0.0000  0.0000  0.0000
  o =  0.0318  v = -0.5718 -0.0000  0.8204  0.0000  0.0000  0.0000  0.0000  0.0000  0.0000  0.0000      0.0000  0.0000  0.0000  0.0000  0.0000  0.0000  0.0000  0.0000  0.0000  0.0000
  o =  0.0781  v =  0.0000 -0.7071  0.0000 -0.7071 -0.0000  0.0000  0.0000  0.0000  0.0000  0.0000      0.0000  0.0000  0.0000  0.0000  0.0000  0.0000  0.0000  0.0000  0.0000  0.0000
  o =  0.1063  v = -0.8204  0.0000 -0.5718  0.0000 -0.0000  0.0000  0.0000  0.0000  0.0000  0.0000      0.0000  0.0000  0.0000  0.0000  0.0000  0.0000  0.0000  0.0000  0.0000  0.0000
  o =  0.9748  v =  0.0000  0.0000  0.0000  0.0000  0.0000 -0.9588  0.0000 -0.2841  0.0000 -0.0000      0.0000  0.0000  0.0000  0.0000  0.0000  0.0000  0.0000  0.0000  0.0000  0.0000
  o =  0.9906  v =  0.0000  0.0000  0.0000  0.0000  0.0000 -0.2841  0.0000  0.9588  0.0000  0.0000      0.0000  0.0000  0.0000  0.0000  0.0000  0.0000  0.0000  0.0000  0.0000  0.0000
  o =  0.9943  v =  0.0000  0.0000  0.0000  0.0000  0.0000  0.0000  0.7071  0.0000 -0.7071 -0.0000      0.0000  0.0000  0.0000  0.0000  0.0000  0.0000  0.0000  0.0000  0.0000  0.0000
  o =  0.9978  v =  0.0000  0.0000  0.0000  0.0000  0.0000  0.0000  0.0000 -0.0000 -0.0000  1.0000      0.0000  0.0000  0.0000  0.0000  0.0000  0.0000  0.0000  0.0000  0.0000  0.0000
  o =  1.0106  v =  0.0000  0.0000  0.0000  0.0000  0.0000  0.0000 -0.7071  0.0000 -0.7071 -0.0000      0.0000  0.0000  0.0000  0.0000  0.0000  0.0000  0.0000  0.0000  0.0000  0.0000
atom =   2  type =  1  l = 2
 
 onsite density matrix
 
spin component  1
 
  0.9761  0.0000  0.0043  0.0000 -0.0000
  0.0000  1.0025  0.0000 -0.0082  0.0000
  0.0043  0.0000  0.9893  0.0000  0.0000
  0.0000 -0.0082  0.0000  1.0025  0.0000
 -0.0000  0.0000  0.0000  0.0000  0.9978
 
spin component  2
 
  0.0819  0.0000 -0.0349  0.0000  0.0000
  0.0000  0.0537  0.0000 -0.0244  0.0000
 -0.0349  0.0000  0.0561  0.0000  0.0000
  0.0000 -0.0244  0.0000  0.0537  0.0000
  0.0000  0.0000  0.0000  0.0000  0.0201
 
 occupancies and eigenvectors
 
  o =  0.0201  v =  0.0000  0.0000  0.0000  0.0000  0.0000  0.0000  0.0000 -0.0000  0.0000 -1.0000      0.0000  0.0000  0.0000  0.0000  0.0000  0.0000  0.0000  0.0000  0.0000  0.0000
  o =  0.0294  v =  0.0000  0.0000  0.0000  0.0000  0.0000  0.0000 -0.7071  0.0000 -0.7071 -0.0000      0.0000  0.0000  0.0000  0.0000  0.0000  0.0000  0.0000  0.0000  0.0000  0.0000
  o =  0.0318  v =  0.0000  0.0000  0.0000  0.0000  0.0000 -0.5718  0.0000 -0.8204  0.0000  0.0000      0.0000  0.0000  0.0000  0.0000  0.0000  0.0000  0.0000  0.0000  0.0000  0.0000
  o =  0.0781  v =  0.0000  0.0000  0.0000  0.0000  0.0000  0.0000  0.7071  0.0000 -0.7071  0.0000      0.0000  0.0000  0.0000  0.0000  0.0000  0.0000  0.0000  0.0000  0.0000  0.0000
  o =  0.1063  v =  0.0000  0.0000  0.0000  0.0000  0.0000 -0.8204  0.0000  0.5718  0.0000 -0.0000      0.0000  0.0000  0.0000  0.0000  0.0000  0.0000  0.0000  0.0000  0.0000  0.0000
  o =  0.9748  v = -0.9588  0.0000  0.2841  0.0000 -0.0000  0.0000  0.0000  0.0000  0.0000  0.0000      0.0000  0.0000  0.0000  0.0000  0.0000  0.0000  0.0000  0.0000  0.0000  0.0000
  o =  0.9906  v = -0.2841  0.0000 -0.9588  0.0000  0.0000  0.0000  0.0000  0.0000  0.0000  0.0000      0.0000  0.0000  0.0000  0.0000  0.0000  0.0000  0.0000  0.0000  0.0000  0.0000
  o =  0.9943  v =  0.0000 -0.7071 -0.0000 -0.7071 -0.0000  0.0000  0.0000  0.0000  0.0000  0.0000      0.0000  0.0000  0.0000  0.0000  0.0000  0.0000  0.0000  0.0000  0.0000  0.0000
  o =  0.9978  v =  0.0000 -0.0000  0.0000 -0.0000  1.0000  0.0000  0.0000  0.0000  0.0000  0.0000      0.0000  0.0000  0.0000  0.0000  0.0000  0.0000  0.0000  0.0000  0.0000  0.0000
  o =  1.0106  v =  0.0000  0.7071 -0.0000 -0.7071 -0.0000  0.0000  0.0000  0.0000  0.0000  0.0000      0.0000  0.0000  0.0000  0.0000  0.0000  0.0000  0.0000  0.0000  0.0000  0.0000
     EDDAV:  cpu time    0.5468: real time    0.5468
 BZINTS: Fermi energy:  4.987942; 54.000000 electrons
         Band energy:-776.989048;  BLOECHL correction:  0.000000
       DOS:  cpu time    0.0012: real time    0.0012
    CHARGE:  cpu time    0.1158: real time    0.1158
    MIXING:  cpu time    0.0005: real time    0.0005
    --------------------------------------------
      LOOP:  cpu time    2.1328: real time    2.1328

 eigenvalue-minimisations  :  1356
 total energy-change (2. order) :-0.2335025E+01  (-0.4777471E+01)
 number of electron      53.9999997 magnetization       0.0000000
 augmentation part       19.7057413 magnetization       0.0000000

 Broyden mixing:
  rms(total) = 0.17033E+01    rms(broyden)= 0.17027E+01
  rms(prec ) = 0.25033E+01
  weight for this iteration     100.00

 eigenvalues of (default mixing * dielectric matrix)
  average eigenvalue GAMMA=   0.6961
  0.6961  0.6961

 Free energy of the ion-electron system (eV)
  ---------------------------------------------------
  alpha Z        PSCENC =       199.82290046
  Ewald energy   TEWEN  =     -4206.20824019
  -Hartree energ DENC   =     -2178.01656911
  -exchange      EXHF   =         0.00000000
  -V(xc)+E(xc)   XCENC  =       167.72270457
  PAW double counting   =      6495.50394034    -6462.30763646
  entropy T*S    EENTRO =         0.00000000
  eigenvalues    EBANDS =      -776.98904784
  atomic energy  EATOM  =      6688.96875309
  Solvation  Ediel_sol  =         0.00000000
  ---------------------------------------------------
  free energy    TOTEN  =       -71.50319514 eV

  energy without entropy =      -71.50319514  energy(sigma->0) =      -71.50319514


--------------------------------------------------------------------------------------------------------




--------------------------------------- Iteration      1(   8)  ---------------------------------------


    POTLOK:  cpu time    0.0275: real time    0.0275
    SETDIJ:  cpu time    1.4400: real time    1.4400
atom =   1  type =  1  l = 2
 
 onsite density matrix
 
spin component  1
 
  0.0461  0.0000  0.0148  0.0000  0.0000
  0.0000  0.0495  0.0000  0.0212  0.0000
  0.0148  0.0000  0.0427  0.0000 -0.0000
  0.0000  0.0212  0.0000  0.0495  0.0000
  0.0000  0.0000 -0.0000  0.0000  0.0244
 
spin component  2
 
  0.9915  0.0000  0.0223  0.0000 -0.0000
  0.0000  0.9815  0.0000  0.0124  0.0000
  0.0223  0.0000  0.9783  0.0000 -0.0000
  0.0000  0.0124  0.0000  0.9815  0.0000
 -0.0000  0.0000 -0.0000  0.0000  0.9682
 
 occupancies and eigenvectors
 
  o =  0.0244  v =  0.0000  0.0000  0.0000  0.0000 -1.0000  0.0000  0.0000  0.0000  0.0000  0.0000      0.0000  0.0000  0.0000  0.0000  0.0000  0.0000  0.0000  0.0000  0.0000  0.0000
  o =  0.0283  v =  0.0000  0.7071  0.0000 -0.7071  0.0000  0.0000  0.0000  0.0000  0.0000  0.0000      0.0000  0.0000  0.0000  0.0000  0.0000  0.0000  0.0000  0.0000  0.0000  0.0000
  o =  0.0294  v = -0.6655  0.0000  0.7464  0.0000  0.0000  0.0000  0.0000  0.0000  0.0000  0.0000      0.0000  0.0000  0.0000  0.0000  0.0000  0.0000  0.0000  0.0000  0.0000  0.0000
  o =  0.0593  v = -0.7464  0.0000 -0.6655  0.0000 -0.0000  0.0000  0.0000  0.0000  0.0000  0.0000      0.0000  0.0000  0.0000  0.0000  0.0000  0.0000  0.0000  0.0000  0.0000  0.0000
  o =  0.0707  v =  0.0000  0.7071  0.0000  0.7071  0.0000  0.0000  0.0000  0.0000  0.0000  0.0000      0.0000  0.0000  0.0000  0.0000  0.0000  0.0000  0.0000  0.0000  0.0000  0.0000
  o =  0.9616  v =  0.0000  0.0000  0.0000  0.0000  0.0000 -0.5990  0.0000  0.8008  0.0000 -0.0000      0.0000  0.0000  0.0000  0.0000  0.0000  0.0000  0.0000  0.0000  0.0000  0.0000
  o =  0.9682  v =  0.0000  0.0000  0.0000  0.0000  0.0000  0.0000  0.0000 -0.0000 -0.0000 -1.0000      0.0000  0.0000  0.0000  0.0000  0.0000  0.0000  0.0000  0.0000  0.0000  0.0000
  o =  0.9691  v =  0.0000  0.0000  0.0000  0.0000  0.0000  0.0000 -0.7071 -0.0000  0.7071 -0.0000      0.0000  0.0000  0.0000  0.0000  0.0000  0.0000  0.0000  0.0000  0.0000  0.0000
  o =  0.9939  v =  0.0000  0.0000  0.0000  0.0000  0.0000  0.0000  0.7071  0.0000  0.7071  0.0000      0.0000  0.0000  0.0000  0.0000  0.0000  0.0000  0.0000  0.0000  0.0000  0.0000
  o =  1.0082  v =  0.0000  0.0000  0.0000  0.0000  0.0000 -0.8008  0.0000 -0.5990  0.0000  0.0000      0.0000  0.0000  0.0000  0.0000  0.0000  0.0000  0.0000  0.0000  0.0000  0.0000
atom =   2  type =  1  l = 2
 
 onsite density matrix
 
spin component  1
 
  0.9915  0.0000 -0.0223  0.0000 -0.0000
  0.0000  0.9815  0.0000 -0.0124  0.0000
 -0.0223  0.0000  0.9783  0.0000  0.0000
  0.0000 -0.0124  0.0000  0.9815  0.0000
 -0.0000  0.0000  0.0000  0.0000  0.9682
 
spin component  2
 
  0.0461  0.0000 -0.0148  0.0000  0.0000
  0.0000  0.0495  0.0000 -0.0212  0.0000
 -0.0148  0.0000  0.0427  0.0000  0.0000
  0.0000 -0.0212  0.0000  0.0495  0.0000
  0.0000  0.0000  0.0000  0.0000  0.0244
 
 occupancies and eigenvectors
 
  o =  0.0244  v =  0.0000  0.0000  0.0000  0.0000  0.0000  0.0000  0.0000  0.0000  0.0000 -1.0000      0.0000  0.0000  0.0000  0.0000  0.0000  0.0000  0.0000  0.0000  0.0000  0.0000
  o =  0.0283  v =  0.0000  0.0000  0.0000  0.0000  0.0000  0.0000 -0.7071  0.0000 -0.7071  0.0000      0.0000  0.0000  0.0000  0.0000  0.0000  0.0000  0.0000  0.0000  0.0000  0.0000
  o =  0.0294  v =  0.0000  0.0000  0.0000  0.0000  0.0000 -0.6655  0.0000 -0.7464  0.0000 -0.0000      0.0000  0.0000  0.0000  0.0000  0.0000  0.0000  0.0000  0.0000  0.0000  0.0000
  o =  0.0593  v =  0.0000  0.0000  0.0000  0.0000  0.0000 -0.7464 -0.0000  0.6655  0.0000  0.0000      0.0000  0.0000  0.0000  0.0000  0.0000  0.0000  0.0000  0.0000  0.0000  0.0000
  o =  0.0707  v =  0.0000  0.0000  0.0000  0.0000  0.0000  0.0000  0.7071  0.0000 -0.7071 -0.0000      0.0000  0.0000  0.0000  0.0000  0.0000  0.0000  0.0000  0.0000  0.0000  0.0000
  o =  0.9616  v = -0.5990  0.0000 -0.8008  0.0000 -0.0000  0.0000  0.0000  0.0000  0.0000  0.0000      0.0000  0.0000  0.0000  0.0000  0.0000  0.0000  0.0000  0.0000  0.0000  0.0000
  o =  0.9682  v =  0.0000 -0.0000  0.0000  0.0000 -1.0000  0.0000  0.0000  0.0000  0.0000  0.0000      0.0000  0.0000  0.0000  0.0000  0.0000  0.0000  0.0000  0.0000  0.0000  0.0000
  o =  0.9691  v =  0.0000 -0.7071  0.0000 -0.7071  0.0000  0.0000  0.0000  0.0000  0.0000  0.0000      0.0000  0.0000  0.0000  0.0000  0.0000  0.0000  0.0000  0.0000  0.0000  0.0000
  o =  0.9939  v =  0.0000 -0.7071  0.0000  0.7071  0.0000  0.0000  0.0000  0.0000  0.0000  0.0000      0.0000  0.0000  0.0000  0.0000  0.0000  0.0000  0.0000  0.0000  0.0000  0.0000
  o =  1.0082  v = -0.8008  0.0000  0.5990  0.0000  0.0000  0.0000  0.0000  0.0000  0.0000  0.0000      0.0000  0.0000  0.0000  0.0000  0.0000  0.0000  0.0000  0.0000  0.0000  0.0000
     EDDAV:  cpu time    0.5973: real time    0.5973
 BZINTS: Fermi energy:  3.307654; 54.000000 electrons
         Band energy:-786.839795;  BLOECHL correction:  0.000000
       DOS:  cpu time    0.0012: real time    0.0012
    CHARGE:  cpu time    0.1159: real time    0.1159
    MIXING:  cpu time    0.0005: real time    0.0005
    --------------------------------------------
      LOOP:  cpu time    2.1823: real time    2.1823

 eigenvalue-minimisations  :  1560
 total energy-change (2. order) : 0.2880845E+01  (-0.7004796E+00)
 number of electron      53.9999997 magnetization      -0.0000000
 augmentation part       19.8659924 magnetization      -0.0000000

 Broyden mixing:
  rms(total) = 0.65017E+00    rms(broyden)= 0.64963E+00
  rms(prec ) = 0.97723E+00
  weight for this iteration     100.00

 eigenvalues of (default mixing * dielectric matrix)
  average eigenvalue GAMMA=   0.7735
  1.0086  0.6559  0.6559

 Free energy of the ion-electron system (eV)
  ---------------------------------------------------
  alpha Z        PSCENC =       199.82290046
  Ewald energy   TEWEN  =     -4206.20824019
  -Hartree energ DENC   =     -2169.90079193
  -exchange      EXHF   =         0.00000000
  -V(xc)+E(xc)   XCENC  =       170.49335910
  PAW double counting   =      6424.09973468    -6389.05826980
  entropy T*S    EENTRO =         0.00000000
  eigenvalues    EBANDS =      -786.83979517
  atomic energy  EATOM  =      6688.96875309
  Solvation  Ediel_sol  =         0.00000000
  ---------------------------------------------------
  free energy    TOTEN  =       -68.62234974 eV

  energy without entropy =      -68.62234974  energy(sigma->0) =      -68.62234974


--------------------------------------------------------------------------------------------------------




--------------------------------------- Iteration      1(   9)  ---------------------------------------


    POTLOK:  cpu time    0.0274: real time    0.0274
    SETDIJ:  cpu time    1.4406: real time    1.4406
atom =   1  type =  1  l = 2
 
 onsite density matrix
 
spin component  1
 
  0.0687  0.0000  0.0362  0.0000 -0.0000
  0.0000  0.0480  0.0000  0.0201  0.0000
  0.0362  0.0000  0.0477  0.0000 -0.0000
  0.0000  0.0201  0.0000  0.0480  0.0000
 -0.0000  0.0000 -0.0000  0.0000  0.0231
 
spin component  2
 
  0.9489  0.0000  0.0075  0.0000  0.0000
  0.0000  0.9575  0.0000  0.0159  0.0000
  0.0075  0.0000  0.9474  0.0000  0.0000
  0.0000  0.0159  0.0000  0.9575  0.0000
  0.0000  0.0000  0.0000  0.0000  0.9427
 
 occupancies and eigenvectors
 
  o =  0.0205  v = -0.6008  0.0000  0.7994  0.0000  0.0000  0.0000  0.0000  0.0000  0.0000  0.0000      0.0000  0.0000  0.0000  0.0000  0.0000  0.0000  0.0000  0.0000  0.0000  0.0000
  o =  0.0231  v = -0.0000 -0.0000  0.0000  0.0000 -1.0000  0.0000  0.0000  0.0000  0.0000  0.0000      0.0000  0.0000  0.0000  0.0000  0.0000  0.0000  0.0000  0.0000  0.0000  0.0000
  o =  0.0279  v =  0.0000 -0.7071  0.0000  0.7071  0.0000  0.0000  0.0000  0.0000  0.0000  0.0000      0.0000  0.0000  0.0000  0.0000  0.0000  0.0000  0.0000  0.0000  0.0000  0.0000
  o =  0.0681  v =  0.0000 -0.7071  0.0000 -0.7071  0.0000  0.0000  0.0000  0.0000  0.0000  0.0000      0.0000  0.0000  0.0000  0.0000  0.0000  0.0000  0.0000  0.0000  0.0000  0.0000
  o =  0.0959  v = -0.7994  0.0000 -0.6008  0.0000  0.0000  0.0000  0.0000  0.0000  0.0000  0.0000      0.0000  0.0000  0.0000  0.0000  0.0000  0.0000  0.0000  0.0000  0.0000  0.0000
  o =  0.9406  v =  0.0000  0.0000  0.0000  0.0000  0.0000 -0.6722  0.0000  0.7404  0.0000  0.0000      0.0000  0.0000  0.0000  0.0000  0.0000  0.0000  0.0000  0.0000  0.0000  0.0000
  o =  0.9416  v =  0.0000  0.0000  0.0000  0.0000  0.0000  0.0000 -0.7071  0.0000  0.7071 -0.0000      0.0000  0.0000  0.0000  0.0000  0.0000  0.0000  0.0000  0.0000  0.0000  0.0000
  o =  0.9427  v =  0.0000  0.0000  0.0000  0.0000  0.0000  0.0000 -0.0000 -0.0000  0.0000  1.0000      0.0000  0.0000  0.0000  0.0000  0.0000  0.0000  0.0000  0.0000  0.0000  0.0000
  o =  0.9557  v =  0.0000  0.0000  0.0000  0.0000  0.0000 -0.7404  0.0000 -0.6722  0.0000 -0.0000      0.0000  0.0000  0.0000  0.0000  0.0000  0.0000  0.0000  0.0000  0.0000  0.0000
  o =  0.9735  v =  0.0000  0.0000  0.0000  0.0000  0.0000  0.0000 -0.7071 -0.0000 -0.7071  0.0000      0.0000  0.0000  0.0000  0.0000  0.0000  0.0000  0.0000  0.0000  0.0000  0.0000
atom =   2  type =  1  l = 2
 
 onsite density matrix
 
spin component  1
 
  0.9489  0.0000 -0.0075  0.0000  0.0000
  0.0000  0.9575  0.0000 -0.0159  0.0000
 -0.0075  0.0000  0.9474  0.0000 -0.0000
  0.0000 -0.0159  0.0000  0.9575  0.0000
  0.0000  0.0000 -0.0000  0.0000  0.9427
 
spin component  2
 
  0.0687  0.0000 -0.0362  0.0000 -0.0000
  0.0000  0.0480  0.0000 -0.0201  0.0000
 -0.0362  0.0000  0.0477  0.0000  0.0000
  0.0000 -0.0201  0.0000  0.0480  0.0000
 -0.0000  0.0000  0.0000  0.0000  0.0231
 
 occupancies and eigenvectors
 
  o =  0.0205  v =  0.0000  0.0000  0.0000  0.0000  0.0000 -0.6008  0.0000 -0.7994  0.0000  0.0000      0.0000  0.0000  0.0000  0.0000  0.0000  0.0000  0.0000  0.0000  0.0000  0.0000
  o =  0.0231  v =  0.0000  0.0000  0.0000  0.0000  0.0000 -0.0000 -0.0000 -0.0000  0.0000 -1.0000      0.0000  0.0000  0.0000  0.0000  0.0000  0.0000  0.0000  0.0000  0.0000  0.0000
  o =  0.0279  v =  0.0000  0.0000  0.0000  0.0000  0.0000  0.0000  0.7071  0.0000  0.7071 -0.0000      0.0000  0.0000  0.0000  0.0000  0.0000  0.0000  0.0000  0.0000  0.0000  0.0000
  o =  0.0681  v =  0.0000  0.0000  0.0000  0.0000  0.0000  0.0000  0.7071  0.0000 -0.7071 -0.0000      0.0000  0.0000  0.0000  0.0000  0.0000  0.0000  0.0000  0.0000  0.0000  0.0000
  o =  0.0959  v =  0.0000  0.0000  0.0000  0.0000  0.0000 -0.7994  0.0000  0.6008  0.0000  0.0000      0.0000  0.0000  0.0000  0.0000  0.0000  0.0000  0.0000  0.0000  0.0000  0.0000
  o =  0.9406  v = -0.6722  0.0000 -0.7404  0.0000 -0.0000  0.0000  0.0000  0.0000  0.0000  0.0000      0.0000  0.0000  0.0000  0.0000  0.0000  0.0000  0.0000  0.0000  0.0000  0.0000
  o =  0.9416  v = -0.0000 -0.7071 -0.0000 -0.7071 -0.0000  0.0000  0.0000  0.0000  0.0000  0.0000      0.0000  0.0000  0.0000  0.0000  0.0000  0.0000  0.0000  0.0000  0.0000  0.0000
  o =  0.9427  v = -0.0000 -0.0000 -0.0000 -0.0000  1.0000  0.0000  0.0000  0.0000  0.0000  0.0000      0.0000  0.0000  0.0000  0.0000  0.0000  0.0000  0.0000  0.0000  0.0000  0.0000
  o =  0.9557  v = -0.7404  0.0000  0.6722  0.0000 -0.0000  0.0000  0.0000  0.0000  0.0000  0.0000      0.0000  0.0000  0.0000  0.0000  0.0000  0.0000  0.0000  0.0000  0.0000  0.0000
  o =  0.9735  v =  0.0000 -0.7071 -0.0000  0.7071  0.0000  0.0000  0.0000  0.0000  0.0000  0.0000      0.0000  0.0000  0.0000  0.0000  0.0000  0.0000  0.0000  0.0000  0.0000  0.0000
     EDDAV:  cpu time    0.5898: real time    0.5898
 BZINTS: Fermi energy:  2.176618; 54.000000 electrons
         Band energy:-794.226349;  BLOECHL correction:  0.000000
       DOS:  cpu time    0.0012: real time    0.0012
    CHARGE:  cpu time    0.1163: real time    0.1163
    MIXING:  cpu time    0.0005: real time    0.0005
    --------------------------------------------
      LOOP:  cpu time    2.1758: real time    2.1758

 eigenvalue-minimisations  :  1500
 total energy-change (2. order) : 0.4603177E+00  (-0.4889310E+00)
 number of electron      53.9999997 magnetization       0.0000000
 augmentation part       20.0004585 magnetization       0.0000000

 Broyden mixing:
  rms(total) = 0.81514E+00    rms(broyden)= 0.81504E+00
  rms(prec ) = 0.89530E+00
  weight for this iteration     100.00

 eigenvalues of (default mixing * dielectric matrix)
  average eigenvalue GAMMA=   0.9470
  1.7260  0.5729  0.7445  0.7445

 Free energy of the ion-electron system (eV)
  ---------------------------------------------------
  alpha Z        PSCENC =       199.82290046
  Ewald energy   TEWEN  =     -4206.20824019
  -Hartree energ DENC   =     -2161.23585130
  -exchange      EXHF   =         0.00000000
  -V(xc)+E(xc)   XCENC  =       168.50340637
  PAW double counting   =      6445.55011030    -6409.33676209
  entropy T*S    EENTRO =         0.00000000
  eigenvalues    EBANDS =      -794.22634871
  atomic energy  EATOM  =      6688.96875309
  Solvation  Ediel_sol  =         0.00000000
  ---------------------------------------------------
  free energy    TOTEN  =       -68.16203206 eV

  energy without entropy =      -68.16203206  energy(sigma->0) =      -68.16203206


--------------------------------------------------------------------------------------------------------




--------------------------------------- Iteration      1(  10)  ---------------------------------------


    POTLOK:  cpu time    0.0276: real time    0.0276
    SETDIJ:  cpu time    1.4412: real time    1.4412
atom =   1  type =  1  l = 2
 
 onsite density matrix
 
spin component  1
 
  0.0474  0.0000  0.0165  0.0000  0.0000
  0.0000  0.0509  0.0000  0.0207  0.0000
  0.0165  0.0000  0.0420  0.0000  0.0000
  0.0000  0.0207  0.0000  0.0509  0.0000
  0.0000  0.0000  0.0000  0.0000  0.0287
 
spin component  2
 
  0.9672  0.0000  0.0292  0.0000 -0.0000
  0.0000  0.9518  0.0000  0.0172  0.0000
  0.0292  0.0000  0.9494  0.0000 -0.0000
  0.0000  0.0172  0.0000  0.9518  0.0000
 -0.0000  0.0000 -0.0000  0.0000  0.9327
 
 occupancies and eigenvectors
 
  o =  0.0280  v = -0.6472  0.0000  0.7623  0.0000 -0.0000  0.0000  0.0000  0.0000  0.0000  0.0000      0.0000  0.0000  0.0000  0.0000  0.0000  0.0000  0.0000  0.0000  0.0000  0.0000
  o =  0.0287  v = -0.0000 -0.0000  0.0000  0.0000  1.0000  0.0000  0.0000  0.0000  0.0000  0.0000      0.0000  0.0000  0.0000  0.0000  0.0000  0.0000  0.0000  0.0000  0.0000  0.0000
  o =  0.0302  v =  0.0000  0.7071  0.0000 -0.7071  0.0000  0.0000  0.0000  0.0000  0.0000  0.0000      0.0000  0.0000  0.0000  0.0000  0.0000  0.0000  0.0000  0.0000  0.0000  0.0000
  o =  0.0614  v = -0.7623  0.0000 -0.6472  0.0000 -0.0000  0.0000  0.0000  0.0000  0.0000  0.0000      0.0000  0.0000  0.0000  0.0000  0.0000  0.0000  0.0000  0.0000  0.0000  0.0000
  o =  0.0716  v =  0.0000 -0.7071  0.0000 -0.7071 -0.0000  0.0000  0.0000  0.0000  0.0000  0.0000      0.0000  0.0000  0.0000  0.0000  0.0000  0.0000  0.0000  0.0000  0.0000  0.0000
  o =  0.9278  v =  0.0000  0.0000  0.0000  0.0000  0.0000 -0.5956  0.0000  0.8033  0.0000  0.0000      0.0000  0.0000  0.0000  0.0000  0.0000  0.0000  0.0000  0.0000  0.0000  0.0000
  o =  0.9327  v =  0.0000  0.0000  0.0000  0.0000  0.0000 -0.0000 -0.0000  0.0000  0.0000 -1.0000      0.0000  0.0000  0.0000  0.0000  0.0000  0.0000  0.0000  0.0000  0.0000  0.0000
  o =  0.9347  v =  0.0000  0.0000  0.0000  0.0000  0.0000  0.0000  0.7071  0.0000 -0.7071 -0.0000      0.0000  0.0000  0.0000  0.0000  0.0000  0.0000  0.0000  0.0000  0.0000  0.0000
  o =  0.9690  v =  0.0000  0.0000  0.0000  0.0000  0.0000  0.0000  0.7071  0.0000  0.7071 -0.0000      0.0000  0.0000  0.0000  0.0000  0.0000  0.0000  0.0000  0.0000  0.0000  0.0000
  o =  0.9888  v =  0.0000  0.0000  0.0000  0.0000  0.0000 -0.8033  0.0000 -0.5956  0.0000  0.0000      0.0000  0.0000  0.0000  0.0000  0.0000  0.0000  0.0000  0.0000  0.0000  0.0000
atom =   2  type =  1  l = 2
 
 onsite density matrix
 
spin component  1
 
  0.9672  0.0000 -0.0292  0.0000 -0.0000
  0.0000  0.9518  0.0000 -0.0172  0.0000
 -0.0292  0.0000  0.9494  0.0000 -0.0000
  0.0000 -0.0172  0.0000  0.9518  0.0000
 -0.0000  0.0000 -0.0000  0.0000  0.9327
 
spin component  2
 
  0.0474  0.0000 -0.0165  0.0000  0.0000
  0.0000  0.0509  0.0000 -0.0207  0.0000
 -0.0165  0.0000  0.0420  0.0000  0.0000
  0.0000 -0.0207  0.0000  0.0509  0.0000
  0.0000  0.0000  0.0000  0.0000  0.0287
 
 occupancies and eigenvectors
 
  o =  0.0280  v =  0.0000  0.0000  0.0000  0.0000  0.0000 -0.6472 -0.0000 -0.7623  0.0000  0.0000      0.0000  0.0000  0.0000  0.0000  0.0000  0.0000  0.0000  0.0000  0.0000  0.0000
  o =  0.0287  v =  0.0000  0.0000  0.0000  0.0000  0.0000 -0.0000  0.0000 -0.0000  0.0000 -1.0000      0.0000  0.0000  0.0000  0.0000  0.0000  0.0000  0.0000  0.0000  0.0000  0.0000
  o =  0.0302  v =  0.0000  0.0000  0.0000  0.0000  0.0000  0.0000 -0.7071  0.0000 -0.7071 -0.0000      0.0000  0.0000  0.0000  0.0000  0.0000  0.0000  0.0000  0.0000  0.0000  0.0000
  o =  0.0614  v =  0.0000  0.0000  0.0000  0.0000  0.0000 -0.7623 -0.0000  0.6472  0.0000  0.0000      0.0000  0.0000  0.0000  0.0000  0.0000  0.0000  0.0000  0.0000  0.0000  0.0000
  o =  0.0716  v =  0.0000  0.0000  0.0000  0.0000  0.0000  0.0000 -0.7071  0.0000  0.7071 -0.0000      0.0000  0.0000  0.0000  0.0000  0.0000  0.0000  0.0000  0.0000  0.0000  0.0000
  o =  0.9278  v = -0.5956  0.0000 -0.8033  0.0000 -0.0000  0.0000  0.0000  0.0000  0.0000  0.0000      0.0000  0.0000  0.0000  0.0000  0.0000  0.0000  0.0000  0.0000  0.0000  0.0000
  o =  0.9327  v =  0.0000  0.0000 -0.0000  0.0000  1.0000  0.0000  0.0000  0.0000  0.0000  0.0000      0.0000  0.0000  0.0000  0.0000  0.0000  0.0000  0.0000  0.0000  0.0000  0.0000
  o =  0.9347  v =  0.0000 -0.7071 -0.0000 -0.7071  0.0000  0.0000  0.0000  0.0000  0.0000  0.0000      0.0000  0.0000  0.0000  0.0000  0.0000  0.0000  0.0000  0.0000  0.0000  0.0000
  o =  0.9690  v =  0.0000 -0.7071 -0.0000  0.7071  0.0000  0.0000  0.0000  0.0000  0.0000  0.0000      0.0000  0.0000  0.0000  0.0000  0.0000  0.0000  0.0000  0.0000  0.0000  0.0000
  o =  0.9888  v = -0.8033  0.0000  0.5956  0.0000  0.0000  0.0000  0.0000  0.0000  0.0000  0.0000      0.0000  0.0000  0.0000  0.0000  0.0000  0.0000  0.0000  0.0000  0.0000  0.0000
     EDDAV:  cpu time    0.5623: real time    0.5623
 BZINTS: Fermi energy:  2.240014; 54.000000 electrons
         Band energy:-796.450758;  BLOECHL correction:  0.000000
       DOS:  cpu time    0.0013: real time    0.0013
    CHARGE:  cpu time    0.1154: real time    0.1154
    MIXING:  cpu time    0.0006: real time    0.0006
    --------------------------------------------
      LOOP:  cpu time    2.1484: real time    2.1484

 eigenvalue-minimisations  :  1416
 total energy-change (2. order) : 0.4747080E-01  (-0.4226999E-01)
 number of electron      53.9999997 magnetization       0.0000000
 augmentation part       19.9957112 magnetization       0.0000000

 Broyden mixing:
  rms(total) = 0.59834E+00    rms(broyden)= 0.59833E+00
  rms(prec ) = 0.66947E+00
  weight for this iteration     100.00

 eigenvalues of (default mixing * dielectric matrix)
  average eigenvalue GAMMA=   1.2136
  2.8730  0.9934  0.9934  0.6042  0.6042

 Free energy of the ion-electron system (eV)
  ---------------------------------------------------
  alpha Z        PSCENC =       199.82290046
  Ewald energy   TEWEN  =     -4206.20824019
  -Hartree energ DENC   =     -2155.00070745
  -exchange      EXHF   =         0.00000000
  -V(xc)+E(xc)   XCENC  =       165.73804801
  PAW double counting   =      6510.79411364    -6475.77867092
  entropy T*S    EENTRO =         0.00000000
  eigenvalues    EBANDS =      -796.45075792
  atomic energy  EATOM  =      6688.96875309
  Solvation  Ediel_sol  =         0.00000000
  ---------------------------------------------------
  free energy    TOTEN  =       -68.11456127 eV

  energy without entropy =      -68.11456127  energy(sigma->0) =      -68.11456127


--------------------------------------------------------------------------------------------------------




--------------------------------------- Iteration      1(  11)  ---------------------------------------


    POTLOK:  cpu time    0.0274: real time    0.0274
    SETDIJ:  cpu time    1.4376: real time    1.4376
atom =   1  type =  1  l = 2
 
 onsite density matrix
 
spin component  1
 
  0.0518  0.0000  0.0308  0.0000 -0.0000
  0.0000  0.0439  0.0000  0.0255  0.0000
  0.0308  0.0000  0.0374  0.0000 -0.0000
  0.0000  0.0255  0.0000  0.0439  0.0000
 -0.0000  0.0000 -0.0000  0.0000  0.0145
 
spin component  2
 
  0.9636  0.0000  0.0189  0.0000  0.0000
  0.0000  0.9593  0.0000  0.0168  0.0000
  0.0189  0.0000  0.9521  0.0000  0.0000
  0.0000  0.0168  0.0000  0.9593  0.0000
  0.0000  0.0000  0.0000  0.0000  0.9433
 
 occupancies and eigenvectors
 
  o =  0.0130  v = -0.6219  0.0000  0.7831  0.0000  0.0000  0.0000  0.0000  0.0000  0.0000  0.0000      0.0000  0.0000  0.0000  0.0000  0.0000  0.0000  0.0000  0.0000  0.0000  0.0000
  o =  0.0145  v = -0.0000 -0.0000  0.0000  0.0000 -1.0000  0.0000  0.0000  0.0000  0.0000  0.0000      0.0000  0.0000  0.0000  0.0000  0.0000  0.0000  0.0000  0.0000  0.0000  0.0000
  o =  0.0184  v =  0.0000  0.7071  0.0000 -0.7071 -0.0000  0.0000  0.0000  0.0000  0.0000  0.0000      0.0000  0.0000  0.0000  0.0000  0.0000  0.0000  0.0000  0.0000  0.0000  0.0000
  o =  0.0694  v =  0.0000  0.7071  0.0000  0.7071 -0.0000  0.0000  0.0000  0.0000  0.0000  0.0000      0.0000  0.0000  0.0000  0.0000  0.0000  0.0000  0.0000  0.0000  0.0000  0.0000
  o =  0.0762  v = -0.7831  0.0000 -0.6219  0.0000  0.0000  0.0000  0.0000  0.0000  0.0000  0.0000      0.0000  0.0000  0.0000  0.0000  0.0000  0.0000  0.0000  0.0000  0.0000  0.0000
  o =  0.9381  v =  0.0000  0.0000  0.0000  0.0000  0.0000 -0.5956  0.0000  0.8033  0.0000 -0.0000      0.0000  0.0000  0.0000  0.0000  0.0000  0.0000  0.0000  0.0000  0.0000  0.0000
  o =  0.9425  v =  0.0000  0.0000  0.0000  0.0000  0.0000 -0.0000 -0.7071  0.0000  0.7071  0.0000      0.0000  0.0000  0.0000  0.0000  0.0000  0.0000  0.0000  0.0000  0.0000  0.0000
  o =  0.9433  v =  0.0000  0.0000  0.0000  0.0000  0.0000  0.0000 -0.0000 -0.0000  0.0000 -1.0000      0.0000  0.0000  0.0000  0.0000  0.0000  0.0000  0.0000  0.0000  0.0000  0.0000
  o =  0.9762  v =  0.0000  0.0000  0.0000  0.0000  0.0000  0.0000 -0.7071 -0.0000 -0.7071 -0.0000      0.0000  0.0000  0.0000  0.0000  0.0000  0.0000  0.0000  0.0000  0.0000  0.0000
  o =  0.9776  v =  0.0000  0.0000  0.0000  0.0000  0.0000 -0.8033  0.0000 -0.5956  0.0000 -0.0000      0.0000  0.0000  0.0000  0.0000  0.0000  0.0000  0.0000  0.0000  0.0000  0.0000
atom =   2  type =  1  l = 2
 
 onsite density matrix
 
spin component  1
 
  0.9636  0.0000 -0.0189  0.0000  0.0000
  0.0000  0.9593  0.0000 -0.0168  0.0000
 -0.0189  0.0000  0.9521  0.0000  0.0000
  0.0000 -0.0168  0.0000  0.9593  0.0000
  0.0000  0.0000  0.0000  0.0000  0.9433
 
spin component  2
 
  0.0518  0.0000 -0.0308  0.0000  0.0000
  0.0000  0.0439  0.0000 -0.0255  0.0000
 -0.0308  0.0000  0.0374  0.0000  0.0000
  0.0000 -0.0255  0.0000  0.0439  0.0000
  0.0000  0.0000  0.0000  0.0000  0.0145
 
 occupancies and eigenvectors
 
  o =  0.0130  v =  0.0000  0.0000  0.0000  0.0000  0.0000 -0.6219 -0.0000 -0.7831  0.0000  0.0000      0.0000  0.0000  0.0000  0.0000  0.0000  0.0000  0.0000  0.0000  0.0000  0.0000
  o =  0.0145  v =  0.0000  0.0000  0.0000  0.0000  0.0000 -0.0000  0.0000 -0.0000  0.0000 -1.0000      0.0000  0.0000  0.0000  0.0000  0.0000  0.0000  0.0000  0.0000  0.0000  0.0000
  o =  0.0184  v =  0.0000  0.0000  0.0000  0.0000  0.0000  0.0000  0.7071  0.0000  0.7071 -0.0000      0.0000  0.0000  0.0000  0.0000  0.0000  0.0000  0.0000  0.0000  0.0000  0.0000
  o =  0.0694  v =  0.0000  0.0000  0.0000  0.0000  0.0000  0.0000  0.7071  0.0000 -0.7071 -0.0000      0.0000  0.0000  0.0000  0.0000  0.0000  0.0000  0.0000  0.0000  0.0000  0.0000
  o =  0.0762  v =  0.0000  0.0000  0.0000  0.0000  0.0000 -0.7831 -0.0000  0.6219  0.0000  0.0000      0.0000  0.0000  0.0000  0.0000  0.0000  0.0000  0.0000  0.0000  0.0000  0.0000
  o =  0.9381  v = -0.5956 -0.0000 -0.8033  0.0000  0.0000  0.0000  0.0000  0.0000  0.0000  0.0000      0.0000  0.0000  0.0000  0.0000  0.0000  0.0000  0.0000  0.0000  0.0000  0.0000
  o =  0.9425  v =  0.0000 -0.7071  0.0000 -0.7071  0.0000  0.0000  0.0000  0.0000  0.0000  0.0000      0.0000  0.0000  0.0000  0.0000  0.0000  0.0000  0.0000  0.0000  0.0000  0.0000
  o =  0.9433  v =  0.0000  0.0000  0.0000  0.0000  1.0000  0.0000  0.0000  0.0000  0.0000  0.0000      0.0000  0.0000  0.0000  0.0000  0.0000  0.0000  0.0000  0.0000  0.0000  0.0000
[...]
     33       9.0144      0.00000
     34      10.4510      0.00000
     35      10.7062      0.00000
     36      12.0227      0.00000

 k-point     7 :       0.1250    0.1250    0.4167
  band No.  band energies     occupation 
      1     -49.2189      1.00000
      2     -49.1791      1.00000
      3     -49.1587      1.00000
      4     -42.7112      1.00000
      5     -42.6671      1.00000
      6     -42.6378      1.00000
      7     -22.6572      1.00000
      8     -22.5216      1.00000
      9     -22.4821      1.00000
     10     -22.3993      1.00000
     11      -4.4551      1.00000
     12      -4.2062      1.00000
     13      -4.0184      1.00000
     14      -3.8383      1.00000
     15      -3.6799      1.00000
     16      -3.4819      1.00000
     17      -3.0993      1.00000
     18      -2.9192      1.00000
     19      -2.7893      1.00000
     20      -2.3814      1.00000
     21      -2.2916      1.00000
     22      -2.2340      1.00000
     23       0.8116      1.00000
     24       0.8558      1.00000
     25       1.1001      1.00000
     26       1.7290      1.00000
     27       2.0792      1.00000
     28       6.4184      0.00000
     29       6.4467      0.00000
     30       6.5542      0.00000
     31       7.4071      0.00000
     32       7.6996      0.00000
     33       9.0186      0.00000
     34      11.3160      0.00000
     35      12.7754      0.00000
     36      13.1465      0.00000

 k-point     8 :       0.3750    0.1250    0.4167
  band No.  band energies     occupation 
      1     -49.2188      1.00000
      2     -49.1792      1.00000
      3     -49.1587      1.00000
      4     -42.7112      1.00000
      5     -42.6671      1.00000
      6     -42.6378      1.00000
      7     -22.6000      1.00000
      8     -22.5431      1.00000
      9     -22.4929      1.00000
     10     -22.4235      1.00000
     11      -4.4952      1.00000
     12      -4.2413      1.00000
     13      -4.1564      1.00000
     14      -3.9794      1.00000
     15      -3.6080      1.00000
     16      -3.3715      1.00000
     17      -3.1973      1.00000
     18      -3.0917      1.00000
     19      -2.5230      1.00000
     20      -2.3632      1.00000
     21      -2.1831      1.00000
     22      -2.0808      1.00000
     23       0.7990      1.00000
     24       0.8280      1.00000
     25       1.0389      1.00000
     26       1.6858      1.00000
     27       2.2082      1.00000
     28       6.4062      0.00000
     29       6.4397      0.00000
     30       6.6102      0.00000
     31       7.3620      0.00000
     32       7.8810      0.00000
     33       9.6449      0.00000
     34      11.1708      0.00000
     35      11.6945      0.00000
     36      13.0067      0.00000

 k-point     9 :       0.3750    0.3750    0.4167
  band No.  band energies     occupation 
      1     -49.2189      1.00000
      2     -49.1792      1.00000
      3     -49.1589      1.00000
      4     -42.7113      1.00000
      5     -42.6672      1.00000
      6     -42.6380      1.00000
      7     -22.5933      1.00000
      8     -22.5519      1.00000
      9     -22.4939      1.00000
     10     -22.4182      1.00000
     11      -4.7307      1.00000
     12      -4.5226      1.00000
     13      -4.1521      1.00000
     14      -4.0943      1.00000
     15      -3.5808      1.00000
     16      -3.3036      1.00000
     17      -3.1352      1.00000
     18      -2.8992      1.00000
     19      -2.3120      1.00000
     20      -2.2179      1.00000
     21      -2.1044      1.00000
     22      -2.0290      1.00000
     23       0.7969      1.00000
     24       0.8204      1.00000
     25       1.0246      1.00000
     26       1.7201      1.00000
     27       2.1836      1.00000
     28       6.4127      0.00000
     29       6.4369      0.00000
     30       6.6280      0.00000
     31       7.3379      0.00000
     32       7.7846      0.00000
     33      10.1398      0.00000
     34      11.7245      0.00000
     35      11.7562      0.00000
     36      11.9910      0.00000


--------------------------------------------------------------------------------------------------------


 soft charge-density along one line, spin component           1
         0         1         2         3         4         5         6         7         8         9
 total charge-density along one line
 
 soft charge-density along one line, spin component           2
         0         1         2         3         4         5         6         7         8         9
 total charge-density along one line
 
 pseudopotential strength for first ion, spin component:           1
-45.209  -0.000  -0.038   7.790   0.000   0.016  -0.000   0.000
 -0.000 -45.175  -0.000   0.000   7.776   0.000  -0.000   0.000
 -0.038  -0.000 -45.209   0.016   0.000   7.790   0.000  -0.000
  7.790   0.000   0.016   5.592  -0.000   0.004  -0.000  -0.000
  0.000   7.776   0.000  -0.000   5.586  -0.000   0.000   0.000
  0.016   0.000   7.790   0.004  -0.000   5.592  -0.000   0.000
 -0.000  -0.000   0.000  -0.000   0.000  -0.000  -2.969  -0.000
  0.000   0.000  -0.000  -0.000   0.000   0.000  -0.000  -2.951
 -0.000   0.000   0.000   0.000  -0.000   0.000   0.020  -0.000
 -0.000   0.000   0.000   0.000   0.000  -0.000  -0.000  -0.018
  0.000  -0.000  -0.000  -0.000   0.000  -0.000  -0.000   0.000
 -0.000  -0.000   0.000  -0.000   0.000  -0.000  -3.485  -0.000
  0.000   0.000  -0.000  -0.000   0.000   0.000  -0.000  -3.467
 -0.000   0.000   0.000   0.000  -0.000   0.000   0.019  -0.000
 -0.000   0.000   0.000   0.000   0.000  -0.000  -0.000  -0.018
  0.000  -0.000  -0.000  -0.000   0.000  -0.000  -0.000   0.000
  0.000  -0.000   0.000   0.000  -0.000  -0.000   0.012   0.000
  0.000  -0.000   0.000   0.000  -0.000  -0.000   0.022   0.000
 pseudopotential strength for first ion, spin component:           2
-50.962  -0.000  -0.005   9.790   0.000   0.016   0.000   0.000
 -0.000 -50.962  -0.000   0.000   9.775   0.000  -0.000   0.000
 -0.005  -0.000 -50.962   0.016   0.000   9.790  -0.000  -0.000
  9.790   0.000   0.016   4.709  -0.000   0.001  -0.000  -0.000
  0.000   9.775   0.000  -0.000   4.708  -0.000   0.000  -0.000
  0.016   0.000   9.790   0.001  -0.000   4.709  -0.000   0.000
  0.000  -0.000  -0.000  -0.000   0.000  -0.000  -7.321  -0.000
  0.000   0.000  -0.000  -0.000  -0.000   0.000  -0.000  -7.312
  0.000   0.000  -0.000  -0.000  -0.000   0.000  -0.009  -0.000
 -0.000  -0.000   0.000   0.000   0.000  -0.000  -0.000  -0.028
 -0.000  -0.000   0.000  -0.000   0.000  -0.000   0.000   0.000
  0.000  -0.000  -0.000  -0.000   0.000  -0.000  -7.792  -0.000
  0.000   0.000  -0.000  -0.000  -0.000   0.000  -0.000  -7.783
  0.000   0.000  -0.000  -0.000  -0.000   0.000  -0.009  -0.000
 -0.000  -0.000   0.000   0.000   0.000  -0.000  -0.000  -0.027
 -0.000  -0.000   0.000  -0.000   0.000  -0.000   0.000   0.000
  0.000  -0.000  -0.000  -0.000  -0.000   0.000   0.011   0.000
  0.000  -0.000  -0.000  -0.000  -0.000   0.000   0.023   0.000
 total augmentation occupancy for first ion, spin component:           1
  2.001   0.000   0.000  -0.012   0.000   0.001   0.000   0.000   0.000   0.000   0.000   0.000   0.000   0.000   0.000   0.000
  0.000   2.001   0.000   0.000  -0.012   0.000   0.000   0.000   0.000   0.000   0.000   0.000   0.000   0.000   0.000   0.000
  0.000   0.000   2.001   0.001   0.000  -0.012   0.000   0.000   0.000   0.000   0.000   0.000   0.000   0.000   0.000   0.000
 -0.012   0.000   0.001   0.081   0.000  -0.009   0.000   0.000   0.000   0.000   0.000   0.000   0.000   0.000   0.000   0.000
  0.000  -0.012   0.000   0.000   0.090   0.000   0.000   0.000   0.000   0.000   0.000   0.000   0.000   0.000   0.000   0.000
  0.001   0.000  -0.012  -0.009   0.000   0.081   0.000   0.000   0.000   0.000   0.000   0.000   0.000   0.000   0.000   0.000
  0.000   0.000   0.000   0.000   0.000   0.000   7.778   0.000   3.015   0.000   0.000  -5.807   0.000  -2.835   0.000   0.000
  0.000   0.000   0.000   0.000   0.000   0.000   0.000   6.578   0.000   2.546   0.000   0.000  -4.651   0.000  -2.392   0.000
  0.000   0.000   0.000   0.000   0.000   0.000   3.015   0.000   5.967   0.000  -0.000  -2.837   0.000  -4.110   0.000  -0.000
  0.000   0.000   0.000   0.000   0.000   0.000   0.000   2.546   0.000   6.578   0.000   0.000  -2.392   0.000  -4.651   0.000
  0.000   0.000   0.000   0.000   0.000   0.000   0.000   0.000  -0.000   0.000   3.894   0.000   0.000  -0.000   0.000  -2.115
  0.000   0.000   0.000   0.000   0.000   0.000  -5.807   0.000  -2.837   0.000   0.000   5.010   0.000   2.701   0.000   0.000
  0.000   0.000   0.000   0.000   0.000   0.000   0.000  -4.651   0.000  -2.392   0.000   0.000   3.888   0.000   2.275   0.000
  0.000   0.000   0.000   0.000   0.000   0.000  -2.835   0.000  -4.110   0.000   0.000   2.701   0.000   3.401   0.000   0.000
  0.000   0.000   0.000   0.000   0.000   0.000   0.000  -2.392   0.000  -4.651   0.000   0.000   2.275   0.000   3.888   0.000
  0.000   0.000   0.000   0.000   0.000   0.000   0.000   0.000  -0.000   0.000  -2.115  -0.000   0.000   0.000   0.000   1.460
  0.000   0.000   0.000   0.000   0.000   0.000   0.445   0.000  -0.298   0.000   0.000  -0.422   0.000   0.277   0.000  -0.000
  0.000   0.000   0.000   0.000   0.000   0.000  -0.093   0.000   0.069   0.000   0.000   0.098   0.000  -0.068   0.000   0.000
 total augmentation occupancy for first ion, spin component:           2
  0.004   0.000  -0.000   0.017   0.000  -0.001   0.000   0.000   0.000   0.000   0.000   0.000   0.000   0.000   0.000   0.000
  0.000   0.004   0.000   0.000   0.018   0.000   0.000   0.000   0.000   0.000   0.000   0.000   0.000   0.000   0.000   0.000
 -0.000   0.000   0.004  -0.001   0.000   0.017   0.000   0.000   0.000   0.000   0.000   0.000   0.000   0.000   0.000   0.000
  0.017   0.000  -0.001  -0.011   0.000  -0.000   0.000   0.000   0.000   0.000   0.000   0.000   0.000   0.000   0.000   0.000
  0.000   0.018   0.000   0.000  -0.010   0.000   0.000   0.000   0.000   0.000   0.000   0.000   0.000   0.000   0.000   0.000
 -0.001   0.000   0.017  -0.000   0.000  -0.011   0.000   0.000   0.000   0.000   0.000   0.000   0.000   0.000   0.000   0.000
  0.000   0.000   0.000   0.000   0.000   0.000  -5.102   0.000  -1.501   0.000   0.000   2.728   0.000   1.103   0.000   0.000
  0.000   0.000   0.000   0.000   0.000   0.000   0.000  -4.548   0.000  -1.277   0.000   0.000   2.299   0.000   0.939   0.000
  0.000   0.000   0.000   0.000   0.000   0.000  -1.501   0.000  -4.148   0.000   0.000   1.103   0.000   2.012   0.000   0.000
  0.000   0.000   0.000   0.000   0.000   0.000   0.000  -1.277   0.000  -4.548   0.000   0.000   0.939   0.000   2.299   0.000
  0.000   0.000   0.000   0.000   0.000   0.000   0.000   0.000   0.000   0.000  -3.252  -0.000   0.000   0.000   0.000   1.352
  0.000   0.000   0.000   0.000   0.000   0.000   2.728   0.000   1.103   0.000   0.000  -1.456   0.000  -0.710   0.000  -0.000
  0.000   0.000   0.000   0.000   0.000   0.000   0.000   2.299   0.000   0.939   0.000   0.000  -1.154   0.000  -0.607   0.000
  0.000   0.000   0.000   0.000   0.000   0.000   1.103   0.000   2.012   0.000   0.000  -0.710   0.000  -0.975   0.000   0.000
  0.000   0.000   0.000   0.000   0.000   0.000   0.000   0.939   0.000   2.299   0.000   0.000  -0.607   0.000  -1.154   0.000
  0.000   0.000   0.000   0.000   0.000   0.000   0.000   0.000   0.000   0.000   1.352   0.000   0.000   0.000   0.000  -0.555
  0.000   0.000   0.000   0.000   0.000   0.000  -0.101   0.000   0.056   0.000  -0.000   0.024   0.000   0.001   0.000   0.000
  0.000   0.000   0.000   0.000   0.000   0.000   0.001   0.000  -0.006   0.000   0.000   0.008   0.000  -0.003   0.000   0.000


------------------------ aborting loop because EDIFF is reached ----------------------------------------


 


 total charge     
 
# of ion       s       p       d       tot
------------------------------------------
    1        0.168   6.150   4.966  11.284
    2        0.173   6.146   4.972  11.291
    3        1.736   4.400   0.000   6.135
    4        1.736   4.400   0.000   6.135
    5        1.735   4.396   0.000   6.131
    6        1.735   4.396   0.000   6.131
--------------------------------------------------
tot          7.283  29.888   9.938  47.109
 


 magnetization (x)
 
# of ion       s       p       d       tot
------------------------------------------
    1       -0.022  -0.018  -4.581  -4.621
    2        0.023   0.016   4.578   4.617
    3        0.003   0.025   0.000   0.027
    4        0.003   0.025   0.000   0.027
    5       -0.003  -0.021   0.000  -0.024
    6       -0.003  -0.021   0.000  -0.024
--------------------------------------------------
tot         -0.001   0.006  -0.003   0.003
 
    CHARGE:  cpu time    0.0276: real time    0.0276
    FORLOC:  cpu time    0.0007: real time    0.0007
    FORNL :  cpu time    0.1315: real time    0.1315
    STRESS:  cpu time    1.7267: real time    1.7267
    FORCOR:  cpu time    0.0253: real time    0.0253
    FORHAR:  cpu time    0.0018: real time    0.0018
    MIXING:  cpu time    0.0012: real time    0.0012
    OFIELD:  cpu time    0.0000: real time    0.0000

  FORCE on cell =-STRESS in cart. coord.  units (eV):
  Direction    XX          YY          ZZ          XY          YZ          ZX
  --------------------------------------------------------------------------------------
  Alpha Z   199.82290   199.82290   199.82290
  Ewald   -1587.11197 -1587.11197 -1031.98746    -0.00000    -0.00000     0.00000
  Hartree   593.54485   593.54485   968.67392    -0.00000    -0.00000    -0.00000
  E(xc)    -150.53964  -150.51691  -150.65340    -0.01643    -0.02598    -0.02766
  Local     164.98261   164.98261  -758.35663     0.00000    -0.00000    -0.00000
  n-local  -310.13982  -310.42058  -309.36122     0.01507     0.10911     0.11084
  augment   158.50292   158.50292   158.00991    -0.00000     0.00000     0.00000
  Kinetic   930.78435   931.35235   923.87411    -0.44000    -0.81325    -0.84878
  Fock        0.00000     0.00000     0.00000     0.00000     0.00000     0.00000
  -------------------------------------------------------------------------------------
  Total       0.00119     0.00119     0.02213    -0.00000     0.00000     0.00000
  in kB       0.02474     0.02474     0.45901    -0.00000     0.00000     0.00000
  external pressure =        0.17 kB  Pullay stress =        0.00 kB


 VOLUME and BASIS-vectors are now :
 -----------------------------------------------------------------------------
  energy-cutoff  :      500.00
  volume of cell :       77.26
      direct lattice vectors                 reciprocal lattice vectors
     4.848720795  0.000000000  0.000000000     0.206239964  0.000000000  0.000000000
     0.000000000  4.848720795  0.000000000     0.000000000  0.206239964  0.000000000
     0.000000000  0.000000000  3.286071323     0.000000000  0.000000000  0.304314758

  length of vectors
     4.848720795  4.848720795  3.286071323     0.206239964  0.206239964  0.304314758


 FORCES acting on ions
    electron-ion (+dipol)            ewald-force                    non-local-force                 convergence-correction
 -----------------------------------------------------------------------------------------------
   0.219E-11 0.521E-11 0.450E-11   0.227E-12 0.256E-12 0.289E-13   0.000E+00 0.000E+00 0.000E+00   -.424E-14 -.353E-13 0.335E-13
   -.280E-13 -.367E-13 0.468E-13   0.284E-13 -.568E-13 0.268E-13   0.000E+00 0.000E+00 0.000E+00   0.111E-13 -.964E-14 -.497E-13
   -.325E+02 0.325E+02 -.205E-11   0.337E+02 -.337E+02 -.145E-13   -.120E+01 0.120E+01 0.000E+00   -.239E-04 0.239E-04 -.804E-14
   0.325E+02 -.325E+02 -.734E-11   -.337E+02 0.337E+02 -.147E-13   0.120E+01 -.120E+01 0.000E+00   0.239E-04 -.239E-04 0.553E-13
   0.325E+02 0.325E+02 -.171E-07   -.337E+02 -.337E+02 -.108E-13   0.120E+01 0.120E+01 -.271E-19   0.239E-04 0.239E-04 -.119E-11
   -.325E+02 -.325E+02 0.171E-07   0.337E+02 0.337E+02 -.107E-13   -.120E+01 -.120E+01 0.271E-19   -.239E-04 -.239E-04 0.119E-11
 -----------------------------------------------------------------------------------------------
   -.411E-12 0.740E-11 0.463E-11   0.000E+00 0.000E+00 0.499E-14   -.222E-15 0.222E-15 0.000E+00   0.222E-13 -.191E-13 0.316E-13
 
 
 POSITION                                       TOTAL-FORCE (eV/Angst)
 -----------------------------------------------------------------------------------
      2.42436      2.42436      1.64304         0.000000     -0.000000      0.000000
      0.00000      0.00000      0.00000         0.000000     -0.000000      0.000000
      0.95088      3.89784      1.64304         0.000978     -0.000978      0.000000
      3.89784      0.95088      1.64304        -0.000978      0.000978     -0.000000
      1.47348      1.47348      0.00000        -0.000978     -0.000978      0.000000
      3.37524      3.37524      0.00000         0.000978      0.000978     -0.000000
 -----------------------------------------------------------------------------------
    total drift:                               -0.000000      0.000000      0.000000


--------------------------------------------------------------------------------------------------------



  FREE ENERGIE OF THE ION-ELECTRON SYSTEM (eV)
  ---------------------------------------------------
  free  energy   TOTEN  =       -68.02513189 eV

  energy  without entropy=      -68.02513189  energy(sigma->0) =      -68.02513189
 


--------------------------------------------------------------------------------------------------------


    POTLOK:  cpu time    1.4630: real time    1.4630


--------------------------------------------------------------------------------------------------------


 writing wavefunctions
     LOOP+:  cpu time   50.1397: real time   50.1614
    4ORBIT:  cpu time    0.0000: real time    0.0000
 


 total charge     
 
# of ion       s       p       d       tot
------------------------------------------
    1        0.168   6.150   4.966  11.284
    2        0.173   6.146   4.972  11.291
    3        1.736   4.400   0.000   6.135
    4        1.736   4.400   0.000   6.135
    5        1.735   4.396   0.000   6.131
    6        1.735   4.396   0.000   6.131
--------------------------------------------------
tot          7.283  29.888   9.938  47.109
 


 magnetization (x)
 
# of ion       s       p       d       tot
------------------------------------------
    1       -0.022  -0.018  -4.581  -4.621
    2        0.023   0.016   4.578   4.617
    3        0.003   0.025   0.000   0.027
    4        0.003   0.025   0.000   0.027
    5       -0.003  -0.021   0.000  -0.024
    6       -0.003  -0.021   0.000  -0.024
--------------------------------------------------
tot         -0.001   0.006  -0.003   0.003
 
 BZINTS: Fermi energy:  2.329474; 54.000000 electrons
         Band energy:-795.323524;  BLOECHL correction:  0.000000

 total amount of memory used by VASP MPI-rank0    41943. kBytes
=======================================================================

   base      :      30000. kBytes
   nonl-proj :       5354. kBytes
   fftplans  :       1551. kBytes
   grid      :       3069. kBytes
   one-center:        186. kBytes
   wavefun   :       1783. kBytes
 
  
  
 General timing and accounting informations for this job:
 ========================================================
  
                  Total CPU time used (sec):       51.392
                            User time (sec):       33.541
                          System time (sec):       17.851
                         Elapsed time (sec):       51.485
  
                   Maximum memory used (kb):       58736.
                   Average memory used (kb):           0.
  
                          Minor page faults:        10252
                          Major page faults:            7
                 Voluntary context switches:          406
