 vasp.5.4.4.18Apr17-6-g9f103f2a35 (build Nov 21 2017 18:25:41) complex          
  
 executed on         CrayXC-Intel date 2022.04.10  16:43:19
 running on  144 total cores
 distrk:  each k-point on   36 cores,    4 groups
 distr:  one band on NCORES_PER_BAND=   6 cores,    6 groups


--------------------------------------------------------------------------------------------------------


 INCAR:
 POTCAR:    PAW_PBE Mn_pv 02Aug2007               
 POTCAR:    PAW_PBE F 08Apr2002                   
 POTCAR:    PAW_PBE H 15Jun2001                   

 ----------------------------------------------------------------------------- 
|                                                                             |
|           W    W    AA    RRRRR   N    N  II  N    N   GGGG   !!!           |
|           W    W   A  A   R    R  NN   N  II  NN   N  G    G  !!!           |
|           W    W  A    A  R    R  N N  N  II  N N  N  G       !!!           |
|           W WW W  AAAAAA  RRRRR   N  N N  II  N  N N  G  GGG   !            |
|           WW  WW  A    A  R   R   N   NN  II  N   NN  G    G                |
|           W    W  A    A  R    R  N    N  II  N    N   GGGG   !!!           |
|                                                                             |
|      You have enabled k-point parallelism (KPAR>1).                         |
|      This developmental code was originally  written by Paul Kent at ORNL,  |
|      and carefully double checked in Vienna.                                |
|      GW as well as linear response parallelism added by Martijn Marsman     |
|      and Georg Kresse.                                                      |
|      Carefully verify results versus KPAR=1.                                |
|      Report problems to Paul Kent and Vienna.                               |
|                                                                             |
 ----------------------------------------------------------------------------- 

 POTCAR:    PAW_PBE Mn_pv 02Aug2007               
   VRHFIN =Mn: 3p4s3d                                                           
   LEXCH  = PE                                                                  
   EATOM  =  2025.2664 eV,  148.8529 Ry                                         
                                                                                
   TITEL  = PAW_PBE Mn_pv 02Aug2007                                             
   LULTRA =        F    use ultrasoft PP ?                                      
   IUNSCR =        1    unscreen: 0-lin 1-nonlin 2-no                           
   RPACOR =    2.080    partial core radius                                     
   POMASS =   54.938; ZVAL   =   13.000    mass and valenz                      
   RCORE  =    2.300    outmost cutoff radius                                   
   RWIGS  =    2.500; RWIGS  =    1.323    wigner-seitz radius (au A)           
   ENMAX  =  269.864; ENMIN  =  202.398 eV                                      
   ICORE  =        3    local potential                                         
   LCOR   =        T    correct aug charges                                     
   LPAW   =        T    paw PP                                                  
   EAUG   =  569.085                                                            
   DEXC   =    0.000                                                            
   RMAX   =    2.343    core radius for proj-oper                               
   RAUG   =    1.300    factor for augmentation sphere                          
   RDEP   =    2.338    radius for radial grids                                 
   RDEPT  =    1.798    core radius for aug-charge                              
                                                                                
   Atomic configuration                                                         
    8 entries                                                                   
     n  l   j            E        occ.                                          
     1  0  0.50     -6424.8287   2.0000                                         
     2  0  0.50      -739.1154   2.0000                                         
     2  1  1.50      -625.3949   6.0000                                         
     3  0  0.50       -81.6100   2.0000                                         
     3  1  1.50       -50.4667   6.0000                                         
     3  2  2.50        -3.3745   6.0000                                         
     4  0  0.50        -4.1331   1.0000                                         
     4  3  2.50        -1.3606   0.0000                                         
   Description                                                                  
     l       E           TYP  RCUT    TYP  RCUT                                 
     1    -50.4666628     23  2.000                                             
     1     -1.3605826     23  2.000                                             
     2     -3.3744729     23  2.300                                             
     2     -4.7350555     23  2.300                                             
     0     -4.1331431     23  2.300                                             
     0      7.6656591     23  2.300                                             
     3      9.5240782     23  2.300                                             
  local pseudopotential read in
  partial core-charges read in
  partial kinetic energy density read in
  atomic valenz-charges read in
  non local Contribution for L=           1  read in
    real space projection operators read in
  non local Contribution for L=           1  read in
    real space projection operators read in
  non local Contribution for L=           2  read in
    real space projection operators read in
  non local Contribution for L=           2  read in
    real space projection operators read in
  non local Contribution for L=           0  read in
    real space projection operators read in
  non local Contribution for L=           0  read in
    real space projection operators read in
    PAW grid and wavefunctions read in
 
   number of l-projection  operators is LMAX  =           6
   number of lm-projection operators is LMMAX =          18
 
 POTCAR:    PAW_PBE F 08Apr2002                   
   VRHFIN =F: s2p5                                                              
   LEXCH  = PE                                                                  
   EATOM  =   659.6475 eV,   48.4827 Ry                                         
                                                                                
   TITEL  = PAW_PBE F 08Apr2002                                                 
   LULTRA =        F    use ultrasoft PP ?                                      
   IUNSCR =        1    unscreen: 0-lin 1-nonlin 2-no                           
   RPACOR =    1.200    partial core radius                                     
   POMASS =   18.998; ZVAL   =    7.000    mass and valenz                      
   RCORE  =    1.520    outmost cutoff radius                                   
   RWIGS  =    1.500; RWIGS  =    0.794    wigner-seitz radius (au A)           
   ENMAX  =  400.000; ENMIN  =  300.000 eV                                      
   ICORE  =        2    local potential                                         
   LCOR   =        T    correct aug charges                                     
   LPAW   =        T    paw PP                                                  
   EAUG   =  613.614                                                            
   RMAX   =    1.555    core radius for proj-oper                               
   RAUG   =    1.300    factor for augmentation sphere                          
   RDEP   =    1.539    radius for radial grids                                 
   RDEPT  =    1.299    core radius for aug-charge                              
                                                                                
   Atomic configuration                                                         
    4 entries                                                                   
     n  l   j            E        occ.                                          
     1  0  0.50      -663.3661   2.0000                                         
     2  0  0.50       -29.8995   2.0000                                         
     2  1  0.50       -11.1114   5.0000                                         
     3  2  1.50       -10.8847   0.0000                                         
   Description                                                                  
     l       E           TYP  RCUT    TYP  RCUT                                 
     0    -29.8995018     23  1.200                                             
     0     -9.5240782     23  1.200                                             
     1    -11.1113914     23  1.520                                             
     1      1.3605826     23  1.520                                             
     2    -10.8846608      7  1.500                                             
  local pseudopotential read in
  partial core-charges read in
  partial kinetic energy density read in
  atomic valenz-charges read in
  non local Contribution for L=           0  read in
    real space projection operators read in
  non local Contribution for L=           0  read in
    real space projection operators read in
  non local Contribution for L=           1  read in
    real space projection operators read in
  non local Contribution for L=           1  read in
    real space projection operators read in
    PAW grid and wavefunctions read in
 
   number of l-projection  operators is LMAX  =           4
   number of lm-projection operators is LMMAX =           8
 
 POTCAR:    PAW_PBE H 15Jun2001                   
   VRHFIN =H: ultrasoft test                                                    
   LEXCH  = PE                                                                  
   EATOM  =    12.4884 eV,    0.9179 Ry                                         
                                                                                
   TITEL  = PAW_PBE H 15Jun2001                                                 
   LULTRA =        F    use ultrasoft PP ?                                      
   IUNSCR =        0    unscreen: 0-lin 1-nonlin 2-no                           
   RPACOR =    0.000    partial core radius                                     
   POMASS =    1.000; ZVAL   =    1.000    mass and valenz                      
   RCORE  =    1.100    outmost cutoff radius                                   
   RWIGS  =    0.700; RWIGS  =    0.370    wigner-seitz radius (au A)           
   ENMAX  =  250.000; ENMIN  =  200.000 eV                                      
   RCLOC  =    0.701    cutoff for local pot                                    
   LCOR   =        T    correct aug charges                                     
   LPAW   =        T    paw PP                                                  
   EAUG   =  400.000                                                            
   RMAX   =    1.123    core radius for proj-oper                               
   RAUG   =    1.200    factor for augmentation sphere                          
   RDEP   =    1.112    radius for radial grids                                 
   RDEPT  =    0.926    core radius for aug-charge                              
                                                                                
   Atomic configuration                                                         
    2 entries                                                                   
     n  l   j            E        occ.                                          
     1  0  0.50        -6.4927   1.0000                                         
     2  1  0.50        -3.4015   0.0000                                         
   Description                                                                  
     l       E           TYP  RCUT    TYP  RCUT                                 
     0     -6.4927494     23  1.100                                             
     0      6.8029130     23  1.100                                             
     1     -4.0817478     23  1.100                                             
  local pseudopotential read in
  atomic valenz-charges read in
  non local Contribution for L=           0  read in
    real space projection operators read in
  non local Contribution for L=           0  read in
    real space projection operators read in
  non local Contribution for L=           1  read in
    real space projection operators read in
    PAW grid and wavefunctions read in
 
   number of l-projection  operators is LMAX  =           3
   number of lm-projection operators is LMMAX =           5
 

 ----------------------------------------------------------------------------- 
|                                                                             |
|  ADVICE TO THIS USER RUNNING 'VASP/VAMP'   (HEAR YOUR MASTER'S VOICE ...):  |
|                                                                             |
|      You have a (more or less) 'large supercell' and for larger cells       |
|      it might be more efficient to use real space projection opertators     |
|      So try LREAL= Auto  in the INCAR   file.                               |
|      Mind:          For very  accurate calculation you might also keep the  |
|      reciprocal projection scheme          (i.e. LREAL=.FALSE.)             |
|                                                                             |
 ----------------------------------------------------------------------------- 


 ----------------------------------------------------------------------------- 
|                                                                             |
|  ADVICE TO THIS USER RUNNING 'VASP/VAMP'   (HEAR YOUR MASTER'S VOICE ...):  |
|                                                                             |
|      You enforced a specific xc-type in the INCAR file,                     |
|      a different type was found on the POTCAR file                          |
|          I HOPE YOU KNOW, WHAT YOU ARE  DOING                               |
|                                                                             |
 ----------------------------------------------------------------------------- 

  PAW_PBE Mn_pv 02Aug2007               :
 energy of atom  1       EATOM=-2025.2664
 kinetic energy error for atom=    0.0020 (will be added to EATOM!!)
  PAW_PBE F 08Apr2002                   :
 energy of atom  2       EATOM= -659.6475
 kinetic energy error for atom=    0.0140 (will be added to EATOM!!)
  PAW_PBE H 15Jun2001                   :
 energy of atom  3       EATOM=  -12.4884
 kinetic energy error for atom=    0.0002 (will be added to EATOM!!)
 
 
 POSCAR: Mn  F  H                                
  positions in direct lattice
  velocities in cartesian coordinates
 exchange correlation table for  LEXCH =       14
   RHO(1)=    0.500       N(1)  =     2000
   RHO(2)=  100.500       N(2)  =     4000
 


--------------------------------------------------------------------------------------------------------


 ion  position               nearest neighbor table
   1  0.161  0.157  0.125-  74 2.10  79 2.11  75 2.11  73 2.13  76 2.19  80 2.19
   2  0.001  0.991  0.011- 217 2.00 204 2.12 170 2.15 117 2.15  75 2.17 105 2.24 182 2.28   4 3.01

   3  0.165  0.166  0.375-  79 2.08  77 2.10  78 2.11  80 2.13  83 2.13  84 2.14
   4  0.001  0.991  0.239- 217 2.00 208 2.12 170 2.15 109 2.15  79 2.17 105 2.24 174 2.28   2 3.01

   5  0.166  0.166  0.625-  82 2.10  81 2.10  87 2.11  83 2.11  88 2.13  84 2.13
   6  0.999  0.999  0.497- 174 2.10 212 2.10  83 2.11 109 2.14 178 2.15 113 2.16
   7  0.165  0.166  0.875-  75 2.08  85 2.10  86 2.11  76 2.13  87 2.13  88 2.14
   8  0.999  0.999  0.753- 182 2.10 216 2.10  87 2.11 117 2.14 178 2.15 113 2.16
   9  0.167  0.500  0.125-  89 2.09  90 2.10  95 2.13  91 2.13  96 2.13  92 2.13
  10  0.001  0.333  0.000- 172 2.08  91 2.10  73 2.12  85 2.12 186 2.13 198 2.14
  11  0.167  0.500  0.375-  93 2.10  94 2.10  95 2.12  96 2.13  99 2.13 100 2.13
  12  0.001  0.333  0.250- 176 2.08  95 2.10  73 2.12  77 2.12 186 2.13 190 2.14
  13  0.166  0.500  0.625-  97 2.09  98 2.10  99 2.12 103 2.12 100 2.13 104 2.13
  14  1.000  0.334  0.500- 180 2.09  99 2.10  77 2.11 190 2.12 194 2.13  81 2.13
  15  0.167  0.500  0.875- 101 2.10 102 2.10  91 2.12  92 2.13 103 2.13 104 2.13
  16  1.000  0.334  0.750- 184 2.09 103 2.10  85 2.11 198 2.12 194 2.13  81 2.13
  17  0.169  0.840  0.125- 105 2.06 106 2.12 107 2.14 111 2.14 108 2.15 112 2.15
  18  0.000  0.668  0.001- 188 2.10 202 2.10 107 2.11 214 2.13 101 2.13  89 2.13
  19  0.166  0.833  0.375- 109 2.08 110 2.10 112 2.11 115 2.13 116 2.13 111 2.14
  20  0.000  0.668  0.249- 192 2.10 202 2.10 111 2.11 206 2.13  93 2.13  89 2.13
  21  0.166  0.835  0.625- 113 2.09 114 2.11 120 2.12 116 2.12 115 2.13 119 2.13
  22  1.000  0.668  0.500- 115 2.09 196 2.10 206 2.12 210 2.12  97 2.13  93 2.13
  23  0.166  0.833  0.875- 117 2.08 118 2.10 108 2.11 119 2.13 120 2.13 107 2.14
  24  1.000  0.668  0.750- 119 2.09 200 2.10 214 2.12 210 2.12  97 2.13 101 2.13
  25  0.502  0.166  0.125- 122 2.09 121 2.10 123 2.13 127 2.13 124 2.13 128 2.13
  26  0.335  0.000  1.000- 108 2.08 123 2.09  74 2.12  86 2.13 153 2.13 165 2.14
  27  0.501  0.167  0.375- 126 2.09 125 2.10 127 2.12 132 2.13 128 2.13 131 2.13
  28  0.335  0.000  0.250- 112 2.08 127 2.09  74 2.12  78 2.13 153 2.13 157 2.14
  29  0.499  0.168  0.625- 129 2.09 130 2.09 131 2.12 135 2.12 136 2.13 132 2.13
  30  0.333  0.001  0.500- 116 2.10 131 2.10 157 2.12  78 2.12  82 2.13 161 2.13
  31  0.501  0.167  0.875- 134 2.09 133 2.10 123 2.12 136 2.13 124 2.13 135 2.13
  32  0.333  0.001  0.750- 120 2.10 135 2.10 165 2.12  86 2.12  82 2.13 161 2.13
  33  0.501  0.501  0.125- 138 2.10 137 2.10 144 2.13 140 2.13 139 2.14 143 2.14
  34  0.332  0.331  0.001-  76 2.10 139 2.12 121 2.12  90 2.12 133 2.13 102 2.14
  35  0.500  0.500  0.373- 141 2.10 142 2.10 143 2.12 144 2.13 148 2.13 147 2.14
  36  0.332  0.331  0.249-  80 2.10 143 2.12 121 2.12  90 2.12 125 2.13  94 2.14
  37  0.499  0.498  0.625- 146 2.09 145 2.10 147 2.13 151 2.13 152 2.13 148 2.13
  38  0.332  0.333  0.499-  84 2.09 147 2.10  94 2.12 125 2.13 129 2.13  98 2.13
  39  0.500  0.500  0.877- 149 2.10 150 2.10 139 2.12 140 2.13 152 2.13 151 2.14
  40  0.332  0.333  0.751-  88 2.09 151 2.10 102 2.12 133 2.13 129 2.13  98 2.13
  41  0.500  0.833  0.125- 153 2.09 154 2.09 156 2.12 160 2.12 159 2.13 155 2.13
  42  0.333  0.668  0.000- 155 2.09  92 2.10 106 2.12 118 2.13 137 2.13 149 2.13
  43  0.502  0.835  0.375- 157 2.09 158 2.10 160 2.12 164 2.12 159 2.13 163 2.14
  44  0.333  0.668  0.250- 159 2.09  96 2.10 106 2.12 110 2.13 137 2.13 141 2.13
  45  0.498  0.832  0.625- 161 2.09 162 2.10 168 2.12 164 2.12 163 2.13 167 2.13
  46  0.333  0.666  0.500- 163 2.09 100 2.09 110 2.12 145 2.13 141 2.13 114 2.13
  47  0.502  0.835  0.875- 165 2.09 166 2.10 156 2.12 168 2.12 155 2.13 167 2.14
  48  0.333  0.666  0.750- 167 2.09 104 2.09 118 2.12 145 2.13 149 2.13 114 2.13
  49  0.834  0.168  0.125- 170 2.05 169 2.09 172 2.13 176 2.13 175 2.14 171 2.14
  50  0.670  0.998  1.000- 171 2.09 156 2.10 201 2.11 213 2.12 122 2.14 134 2.15
  51  0.836  0.165  0.374- 174 2.07 176 2.12 173 2.12 175 2.12 179 2.14 180 2.14
  52  0.670  0.998  0.250- 175 2.09 160 2.10 201 2.11 205 2.12 122 2.14 126 2.15
  53  0.834  0.165  0.625- 178 2.09 177 2.10 184 2.13 180 2.13 179 2.13 183 2.13
  54  0.664  0.001  0.501- 205 2.09 179 2.10 164 2.10 130 2.12 126 2.13 209 2.13
  55  0.836  0.165  0.876- 182 2.07 172 2.12 181 2.12 171 2.12 183 2.14 184 2.14
  56  0.664  0.001  0.749- 213 2.09 183 2.10 168 2.10 130 2.12 134 2.13 209 2.13
  57  0.835  0.500  0.125- 185 2.09 186 2.09 192 2.13 188 2.13 191 2.13 187 2.13
  58  0.668  0.334  1.000- 124 2.09 187 2.09 169 2.12 150 2.13 181 2.13 138 2.14
  59  0.834  0.500  0.375- 190 2.09 189 2.10 192 2.12 191 2.12 196 2.13 195 2.13
  60  0.668  0.334  0.250- 128 2.09 191 2.09 169 2.12 142 2.13 173 2.13 138 2.14
  61  0.833  0.500  0.625- 193 2.09 194 2.09 196 2.13 200 2.13 199 2.13 195 2.13
  62  0.668  0.333  0.500- 132 2.09 195 2.09 173 2.12 177 2.13 142 2.13 146 2.14
  63  0.834  0.500  0.875- 198 2.09 197 2.10 188 2.12 187 2.12 200 2.13 199 2.13
  64  0.668  0.333  0.750- 136 2.09 199 2.09 181 2.12 177 2.13 150 2.13 146 2.14
  65  0.853  0.849  0.125- 217 1.92 202 2.12 201 2.13 208 2.19 204 2.19 203 2.29 207 2.29
  66  0.670  0.669  0.001- 203 2.08 185 2.12 154 2.12 140 2.13 197 2.14 166 2.14
  67  0.826  0.829  0.377- 208 2.03 211 2.10 207 2.11 205 2.11 206 2.12 212 2.16
  68  0.670  0.669  0.249- 207 2.08 185 2.12 154 2.12 144 2.13 189 2.14 158 2.14
  69  0.834  0.835  0.625- 212 2.10 216 2.10 209 2.10 210 2.11 211 2.13 215 2.13
  70  0.665  0.665  0.500- 211 2.08 148 2.09 158 2.13 193 2.13 162 2.13 189 2.13
  71  0.826  0.829  0.873- 204 2.03 215 2.10 203 2.11 213 2.11 214 2.12 216 2.16
  72  0.665  0.665  0.750- 215 2.08 152 2.09 166 2.13 193 2.13 162 2.13 197 2.13
  73  0.066  0.267  0.125-  10 2.12  12 2.12   1 2.13
  74  0.275  0.069  0.125-   1 2.10  28 2.12  26 2.12
  75  0.095  0.104  0.994-   7 2.08   1 2.11   2 2.17
  76  0.230  0.230  0.002-  34 2.10   7 2.13   1 2.19
  77  0.066  0.270  0.376-   3 2.10  14 2.11  12 2.12
  78  0.268  0.065  0.375-   3 2.11  30 2.12  28 2.13
  79  0.095  0.104  0.256-   3 2.08   1 2.11   4 2.17
  80  0.230  0.230  0.248-  36 2.10   3 2.13   1 2.19
  81  0.065  0.269  0.625-   5 2.10  16 2.13  14 2.13
  82  0.269  0.066  0.625-   5 2.10  32 2.13  30 2.13
  83  0.102  0.100  0.501-   6 2.11   5 2.11   3 2.13
  84  0.231  0.232  0.500-  38 2.09   5 2.13   3 2.14
  85  0.066  0.270  0.874-   7 2.10  16 2.11  10 2.12
  86  0.268  0.065  0.875-   7 2.11  32 2.12  26 2.13
  87  0.102  0.100  0.749-   8 2.11   5 2.11   7 2.13
  88  0.231  0.232  0.750-  40 2.09   5 2.13   7 2.14
  89  0.066  0.602  0.125-   9 2.09  20 2.13  18 2.13
  90  0.268  0.399  0.125-   9 2.10  36 2.12  34 2.12
  91  0.102  0.435  0.000-  10 2.10  15 2.12   9 2.13
  92  0.232  0.566  0.000-  42 2.10  15 2.13   9 2.13
  93  0.066  0.603  0.375-  11 2.10  20 2.13  22 2.13
  94  0.267  0.398  0.374-  11 2.10  38 2.12  36 2.14
  95  0.102  0.435  0.250-  12 2.10  11 2.12   9 2.13
  96  0.232  0.566  0.250-  44 2.10  11 2.13   9 2.13
  97  0.065  0.602  0.625-  13 2.09  22 2.13  24 2.13
  98  0.267  0.399  0.625-  13 2.10  40 2.13  38 2.13
  99  0.101  0.436  0.500-  14 2.10  13 2.12  11 2.13
 100  0.232  0.564  0.500-  46 2.09  13 2.13  11 2.13
 101  0.066  0.603  0.876-  15 2.10  18 2.13  24 2.13
 102  0.267  0.398  0.876-  15 2.10  40 2.12  34 2.14
 103  0.101  0.436  0.750-  16 2.10  13 2.12  15 2.13
 104  0.232  0.564  0.750-  48 2.09  13 2.13  15 2.13
 105  0.112  0.969  0.125-  17 2.06   4 2.24   2 2.24
 106  0.267  0.733  0.125-  17 2.12  44 2.12  42 2.12
 107  0.100  0.772  0.003-  18 2.11  23 2.14  17 2.14
 108  0.241  0.893  0.995-  26 2.08  23 2.11  17 2.15
 109  0.065  0.933  0.372-  19 2.08   6 2.14   4 2.15
 110  0.266  0.730  0.376-  19 2.10  46 2.12  44 2.13
 111  0.100  0.772  0.247-  20 2.11  19 2.14  17 2.14
 112  0.241  0.893  0.255-  28 2.08  19 2.11  17 2.15
 113  0.064  0.935  0.625-  21 2.09   8 2.16   6 2.16
 114  0.268  0.732  0.625-  21 2.11  48 2.13  46 2.13
 115  0.102  0.768  0.500-  22 2.09  21 2.13  19 2.13
 116  0.232  0.899  0.500-  30 2.10  21 2.12  19 2.13
 117  0.065  0.933  0.878-  23 2.08   8 2.14   2 2.15
 118  0.266  0.730  0.874-  23 2.10  48 2.12  42 2.13
 119  0.102  0.768  0.750-  24 2.09  21 2.13  23 2.13
 120  0.232  0.899  0.750-  32 2.10  21 2.12  23 2.13
 121  0.400  0.267  0.125-  25 2.10  36 2.12  34 2.12
 122  0.603  0.064  0.125-  25 2.09  52 2.14  50 2.14
 123  0.437  0.101  1.000-  26 2.09  31 2.12  25 2.13
 124  0.565  0.233  0.000-  58 2.09  31 2.13  25 2.13
 125  0.398  0.268  0.375-  27 2.10  36 2.13  38 2.13
 126  0.602  0.066  0.374-  27 2.09  54 2.13  52 2.15
 127  0.437  0.101  0.250-  28 2.09  27 2.12  25 2.13
 128  0.565  0.233  0.250-  60 2.09  27 2.13  25 2.13
 129  0.398  0.269  0.625-  29 2.09  40 2.13  38 2.13
 130  0.601  0.068  0.625-  29 2.09  56 2.12  54 2.12
 131  0.435  0.102  0.500-  30 2.10  29 2.12  27 2.13
 132  0.565  0.233  0.500-  62 2.09  27 2.13  29 2.13
 133  0.398  0.268  0.875-  31 2.10  34 2.13  40 2.13
 134  0.602  0.067  0.876-  31 2.09  56 2.13  50 2.15
 135  0.435  0.102  0.750-  32 2.10  29 2.12  31 2.13
 136  0.565  0.233  0.750-  64 2.09  31 2.13  29 2.13
 137  0.399  0.602  0.125-  33 2.10  44 2.13  42 2.13
 138  0.602  0.400  0.125-  33 2.10  60 2.14  58 2.14
 139  0.434  0.434  0.001-  34 2.12  39 2.12  33 2.14
 140  0.567  0.567  0.999-  39 2.13  66 2.13  33 2.13
 141  0.398  0.601  0.374-  35 2.10  46 2.13  44 2.13
 142  0.602  0.399  0.375-  35 2.10  60 2.13  62 2.13
 143  0.434  0.434  0.249-  36 2.12  35 2.12  33 2.14
 144  0.567  0.567  0.251-  35 2.13  68 2.13  33 2.13
 145  0.399  0.601  0.625-  37 2.10  48 2.13  46 2.13
 146  0.602  0.398  0.625-  37 2.09  64 2.14  62 2.14
 147  0.434  0.434  0.499-  38 2.10  37 2.13  35 2.14
 148  0.564  0.564  0.500-  70 2.09  35 2.13  37 2.13
 149  0.398  0.601  0.876-  39 2.10  48 2.13  42 2.13
 150  0.602  0.399  0.875-  39 2.10  58 2.13  64 2.13
 151  0.434  0.434  0.751-  40 2.10  37 2.13  39 2.14
 152  0.564  0.564  0.750-  72 2.09  39 2.13  37 2.13
 153  0.400  0.935  0.125-  41 2.09  28 2.13  26 2.13
 154  0.600  0.731  0.125-  41 2.09  66 2.12  68 2.12
 155  0.435  0.768  0.999-  42 2.09  47 2.13  41 2.13
 156  0.565  0.899  0.001-  50 2.10  47 2.12  41 2.12
 157  0.401  0.937  0.376-  43 2.09  30 2.12  28 2.14
 158  0.604  0.733  0.375-  43 2.10  70 2.13  68 2.14
 159  0.435  0.768  0.251-  44 2.09  43 2.13  41 2.13
 160  0.565  0.899  0.249-  52 2.10  43 2.12  41 2.12
 161  0.397  0.934  0.625-  45 2.09  32 2.13  30 2.13
 162  0.598  0.730  0.625-  45 2.10  72 2.13  70 2.13
 163  0.435  0.767  0.498-  46 2.09  45 2.13  43 2.14
 164  0.562  0.900  0.502-  54 2.10  45 2.12  43 2.12
 165  0.401  0.937  0.874-  47 2.09  32 2.12  26 2.14
 166  0.604  0.733  0.875-  47 2.10  72 2.13  66 2.14
 167  0.435  0.767  0.752-  48 2.09  45 2.13  47 2.14
 168  0.562  0.900  0.748-  56 2.10  45 2.12  47 2.12
 169  0.731  0.268  0.125-  49 2.09  60 2.12  58 2.12
 170  0.940  0.077  0.125-  49 2.05   4 2.15   2 2.15
 171  0.768  0.102  1.000-  50 2.09  55 2.12  49 2.14
 172  0.896  0.237  0.999-  10 2.08  55 2.12  49 2.13
 173  0.732  0.267  0.375-  62 2.12  51 2.12  60 2.13
 174  0.939  0.068  0.374-  51 2.07   6 2.10   4 2.28
 175  0.768  0.102  0.250-  52 2.09  51 2.12  49 2.14
 176  0.896  0.237  0.251-  12 2.08  51 2.12  49 2.13
 177  0.732  0.267  0.625-  53 2.10  64 2.13  62 2.13
 178  0.935  0.064  0.625-  53 2.09   8 2.15   6 2.15
 179  0.768  0.100  0.499-  54 2.10  53 2.13  51 2.14
 180  0.898  0.233  0.501-  14 2.09  53 2.13  51 2.14
 181  0.732  0.267  0.875-  64 2.12  55 2.12  58 2.13
 182  0.939  0.068  0.876-  55 2.07   8 2.10   2 2.28
 183  0.768  0.100  0.751-  56 2.10  53 2.13  55 2.14
 184  0.898  0.233  0.749-  16 2.09  53 2.13  55 2.14
 185  0.732  0.599  0.125-  57 2.09  68 2.12  66 2.12
 186  0.937  0.400  0.125-  57 2.09  10 2.13  12 2.13
 187  0.769  0.435  1.000-  58 2.09  63 2.12  57 2.13
 188  0.900  0.565  0.999-  18 2.10  63 2.12  57 2.13
 189  0.733  0.602  0.375-  59 2.10  70 2.13  68 2.14
 190  0.936  0.400  0.375-  59 2.09  14 2.12  12 2.14
 191  0.769  0.435  0.250-  60 2.09  59 2.12  57 2.13
 192  0.900  0.565  0.251-  20 2.10  59 2.12  57 2.13
 193  0.729  0.599  0.625-  61 2.09  72 2.13  70 2.13
 194  0.935  0.400  0.625-  61 2.09  16 2.13  14 2.13
 195  0.769  0.435  0.500-  62 2.09  61 2.13  59 2.13
 196  0.899  0.566  0.500-  22 2.10  61 2.13  59 2.13
 197  0.733  0.602  0.875-  63 2.10  72 2.13  66 2.14
 198  0.936  0.400  0.875-  63 2.09  16 2.12  10 2.14
 199  0.769  0.435  0.750-  64 2.09  61 2.13  63 2.13
 200  0.899  0.566  0.750-  24 2.10  61 2.13  63 2.13
 201  0.736  0.936  0.125-  52 2.11  50 2.11  65 2.13
 202  0.932  0.728  0.125-  20 2.10  18 2.10  65 2.12
 203  0.772  0.769  0.005-  66 2.08  71 2.11  65 2.29
 204  0.881  0.915  0.978-  71 2.03   2 2.12  65 2.19
 205  0.721  0.928  0.380-  54 2.09  67 2.11  52 2.12
 206  0.934  0.732  0.375-  67 2.12  22 2.12  20 2.13
 207  0.772  0.769  0.245-  68 2.08  67 2.11  65 2.29
 208  0.881  0.915  0.272-  67 2.03   4 2.12  65 2.19
 209  0.730  0.935  0.625-  69 2.10  54 2.13  56 2.13
 210  0.935  0.732  0.625-  69 2.11  24 2.12  22 2.12
 211  0.767  0.765  0.504-  70 2.08  67 2.10  69 2.13
 212  0.897  0.898  0.500-  69 2.10   6 2.10  67 2.16
 213  0.721  0.928  0.871-  56 2.09  71 2.11  50 2.12
 214  0.934  0.732  0.875-  71 2.12  24 2.12  18 2.13
 215  0.767  0.765  0.746-  72 2.08  71 2.10  69 2.13
 216  0.897  0.898  0.750-  69 2.10   8 2.10  71 2.16
 217  0.972  0.905  0.125-  65 1.92   2 2.00   4 2.00
 

IMPORTANT INFORMATION: All symmetrisations will be switched off!
NOSYMM: (Re-)initialisation of all symmetry stuff for point group C_1.

 
 
 KPOINTS: KPOINTS created by Atomic Simulation Env

Automatic generation of k-mesh.
Space group operators:
 irot       det(A)        alpha          n_x          n_y          n_z        tau_x        tau_y        tau_z
    1     1.000000     0.000000     1.000000     0.000000     0.000000     0.000000     0.000000     0.000000
 
 Subroutine IBZKPT returns following result:
 ===========================================
 
 Found      4 irreducible k-points:
 
 Following reciprocal coordinates:
            Coordinates               Weight
  0.250000  0.250000  0.250000      2.000000
 -0.250000  0.250000  0.250000      2.000000
  0.250000 -0.250000  0.250000      2.000000
 -0.250000 -0.250000  0.250000      2.000000
 
 Following cartesian coordinates:
            Coordinates               Weight
  0.017111  0.017111  0.018996      2.000000
 -0.017111  0.017111  0.018996      2.000000
  0.017111 -0.017111  0.018996      2.000000
 -0.017111 -0.017111  0.018996      2.000000
 


--------------------------------------------------------------------------------------------------------




 Dimension of arrays:
   k-points           NKPTS =      4   k-points in BZ     NKDIM =      4   number of bands    NBANDS=   1170
   number of dos      NEDOS =    301   number of ions     NIONS =    217
   non local maximal  LDIM  =      6   non local SUM 2l+1 LMDIM =     18
   total plane-waves  NPLWV = 829440
   max r-space proj   IRMAX =      1   max aug-charges    IRDMAX=  71863
   dimension x,y,z NGX =    96 NGY =   96 NGZ =   90
   dimension x,y,z NGXF=   192 NGYF=  192 NGZF=  180
   support grid    NGXF=   384 NGYF=  384 NGZF=  360
   ions per type =              72 144   1
   NGX,Y,Z   is equivalent  to a cutoff of  10.92, 10.92, 11.37 a.u.
   NGXF,Y,Z  is equivalent  to a cutoff of  21.85, 21.85, 22.74 a.u.

 SYSTEM =  unknown system                          
 POSCAR =  Mn  F  H                                

 Startparameter for this run:
   NWRITE =      2    write-flag & timer
   PREC   = normal    normal or accurate (medium, high low for compatibility)
   ISTART =      0    job   : 0-new  1-cont  2-samecut
   ICHARG =      2    charge: 1-file 2-atom 10-const
   ISPIN  =      2    spin polarized calculation?
   LNONCOLLINEAR =      F non collinear calculations
   LSORBIT =      F    spin-orbit coupling
   INIWAV =      1    electr: 0-lowe 1-rand  2-diag
   LASPH  =      T    aspherical Exc in radial PAW
   METAGGA=      F    non-selfconsistent MetaGGA calc.

 Electronic Relaxation 1
   ENCUT  =  700.0 eV  51.45 Ry    7.17 a.u.  31.52 31.52 28.39*2*pi/ulx,y,z
   ENINI  =  700.0     initial cutoff
   ENAUG  =  613.6 eV  augmentation charge cutoff
   NELM   =     60;   NELMIN=  2; NELMDL= -5     # of ELM steps 
   EDIFF  = 0.1E-06   stopping-criterion for ELM
   LREAL  =      F    real-space projection
   NLSPLINE    = F    spline interpolate recip. space projectors
   LCOMPAT=      F    compatible to vasp.4.4
   GGA_COMPAT  = T    GGA compatible to vasp.4.4-vasp.4.6
   LMAXPAW     = -100 max onsite density
   LMAXMIX     =    4 max onsite mixed and CHGCAR
   VOSKOWN=      0    Vosko Wilk Nusair interpolation
   ROPT   =    0.00000   0.00000   0.00000
 Ionic relaxation
   EDIFFG = -.5E-02   stopping-criterion for IOM
   NSW    =      0    number of steps for IOM
   NBLOCK =      1;   KBLOCK =      1    inner block; outer block 
   IBRION =     -1    ionic relax: 0-MD 1-quasi-New 2-CG
   NFREE  =      0    steps in history (QN), initial steepest desc. (CG)
   ISIF   =      2    stress and relaxation
   IWAVPR =     10    prediction:  0-non 1-charg 2-wave 3-comb
   ISYM   =      0    0-nonsym 1-usesym 2-fastsym
   LCORR  =      T    Harris-Foulkes like correction to forces

   POTIM  = 0.5000    time-step for ionic-motion
   TEIN   =    0.0    initial temperature
   TEBEG  =    0.0;   TEEND  =   0.0 temperature during run
   SMASS  =  -3.00    Nose mass-parameter (am)
   estimated Nose-frequenzy (Omega)   =  0.10E-29 period in steps =****** mass=  -0.488E-26a.u.
   SCALEE = 1.0000    scale energy and forces
   NPACO  =    256;   APACO  = 16.0  distance and # of slots for P.C.
   PSTRESS=    0.0 pullay stress

  Mass of Ions in am
   POMASS =  54.94 19.00  1.00
  Ionic Valenz
   ZVAL   =  13.00  7.00  1.00
  Atomic Wigner-Seitz radii
   RWIGS  =  -1.00 -1.00 -1.00
  virtual crystal weights 
   VCA    =   1.00  1.00  1.00
   NELECT =    1946.0000    total number of electrons
   NUPDOWN=      -1.0000    fix difference up-down

 DOS related values:
   EMIN   =  10.00;   EMAX   =-10.00  energy-range for DOS
   EFERMI =   0.00
   ISMEAR =     0;   SIGMA  =   0.02  broadening in eV -4-tet -1-fermi 0-gaus

 Electronic relaxation 2 (details)
   IALGO  =     68    algorithm
   LDIAG  =      T    sub-space diagonalisation (order eigenvalues)
   LSUBROT=      F    optimize rotation matrix (better conditioning)
   TURBO    =      0    0=normal 1=particle mesh
   IRESTART =      0    0=no restart 2=restart with 2 vectors
   NREBOOT  =      0    no. of reboots
   NMIN     =      0    reboot dimension
   EREF     =   0.00    reference energy to select bands
   IMIX   =      4    mixing-type and parameters
     AMIX     =   0.40;   BMIX     =  1.00
     AMIX_MAG =   1.60;   BMIX_MAG =  1.00
     AMIN     =   0.10
     WC   =   100.;   INIMIX=   1;  MIXPRE=   1;  MAXMIX= -45

 Intra band minimization:
   WEIMIN = 0.0000     energy-eigenvalue tresh-hold
   EBREAK =  0.21E-10  absolut break condition
   DEPER  =   0.30     relativ break condition  

   TIME   =   0.40     timestep for ELM

  volume/ion in A,a.u.               =      12.95        87.36
  Fermi-wavevector in a.u.,A,eV,Ry     =   1.448539  2.737341 28.548623  2.098265
  Thomas-Fermi vector in A             =   2.566368
 
 Write flags
   LWAVE        =      T    write WAVECAR
   LDOWNSAMPLE  =      F    k-point downsampling of WAVECAR
   LCHARG       =      T    write CHGCAR
   LVTOT        =      F    write LOCPOT, total local potential
   LVHAR        =      F    write LOCPOT, Hartree potential only
   LELF         =      F    write electronic localiz. function (ELF)
   LORBIT       =     11    0 simple, 1 ext, 2 COOP (PROOUT), +10 PAW based schemes


 Dipole corrections
   LMONO  =      F    monopole corrections only (constant potential shift)
   LDIPOL =      F    correct potential (dipole corrections)
   IDIPOL =      0    1-x, 2-y, 3-z, 4-all directions 
   EPSILON=  1.0000000 bulk dielectric constant

 LDA+U is selected, type is set to LDAUTYPE =  2
   angular momentum for each species LDAUL =     2   -1   -1
   U (eV)           for each species LDAUU =   2.0  0.0  0.0
   J (eV)           for each species LDAUJ =   0.0  0.0  0.0
 Exchange correlation treatment:
   GGA     =    PS    GGA type
   LEXCH   =    14    internal setting for exchange type
   VOSKOWN=      0    Vosko Wilk Nusair interpolation
   LHFCALC =     F    Hartree Fock is set to
   LHFONE  =     F    Hartree Fock one center treatment
   AEXX    =    0.0000 exact exchange contribution

 Linear response parameters
   LEPSILON=     F    determine dielectric tensor
   LRPA    =     F    only Hartree local field effects (RPA)
   LNABLA  =     F    use nabla operator in PAW spheres
   LVEL    =     F    velocity operator in full k-point grid
   LINTERFAST=   F  fast interpolation
   KINTER  =     0    interpolate to denser k-point grid
   CSHIFT  =0.1000    complex shift for real part using Kramers Kronig
   OMEGAMAX=  -1.0    maximum frequency
   DEG_THRESHOLD= 0.2000000E-02 threshold for treating states as degnerate
   RTIME   =   -0.100 relaxation time in fs
  (WPLASMAI=    0.000 imaginary part of plasma frequency in eV, 0.658/RTIME)
   DFIELD  = 0.0000000 0.0000000 0.0000000 field for delta impulse in time
 
 Orbital magnetization related:
   ORBITALMAG=     F  switch on orbital magnetization
   LCHIMAG   =     F  perturbation theory with respect to B field
   DQ        =  0.001000  dq finite difference perturbation B field
   LLRAUG    =     F  two centre corrections for induced B field



--------------------------------------------------------------------------------------------------------


 Static calculation
 charge density and potential will be updated during run
 spin polarized calculation
 RMM-DIIS sequential band-by-band and
  variant of blocked Davidson during initial phase
 perform sub-space diagonalisation
    before iterative eigenvector-optimisation
 modified Broyden-mixing scheme, WC =      100.0
 initial mixing is a Kerker type mixing with AMIX =  0.4000 and BMIX =      1.0000
 Hartree-type preconditioning will be used
 using additional bands          197
 reciprocal scheme for non local part
 use partial core corrections
 calculate Harris-corrections to forces 
   (improved forces if not selfconsistent)
 use gradient corrections 
 use of overlap-Matrix (Vanderbilt PP)
 Gauss-broadening in eV      SIGMA  =   0.02


--------------------------------------------------------------------------------------------------------


  energy-cutoff  :      700.00
  volume of cell :     2809.16
      direct lattice vectors                 reciprocal lattice vectors
    14.610086635  0.000000000  0.000000000     0.068445864  0.000000000  0.000000000
     0.000000000 14.610086635  0.000000000     0.000000000  0.068445864  0.000000000
     0.000000000  0.000000000 13.160468869     0.000000000  0.000000000  0.075985135

  length of vectors
    14.610086635 14.610086635 13.160468869     0.068445864  0.068445864  0.075985135


 
 k-points in units of 2pi/SCALE and weight: KPOINTS created by Atomic Simulation Env
   0.01711147  0.01711147  0.01899628       0.250
  -0.01711147  0.01711147  0.01899628       0.250
   0.01711147 -0.01711147  0.01899628       0.250
  -0.01711147 -0.01711147  0.01899628       0.250
 
 k-points in reciprocal lattice and weights: KPOINTS created by Atomic Simulation Env
   0.25000000  0.25000000  0.25000000       0.250
  -0.25000000  0.25000000  0.25000000       0.250
   0.25000000 -0.25000000  0.25000000       0.250
  -0.25000000 -0.25000000  0.25000000       0.250
 
 position of ions in fractional coordinates (direct lattice) 
   0.16069691  0.15690253  0.12502652
   0.00050865  0.99085191  0.01072062
   0.16546091  0.16621117  0.37464306
   0.00052372  0.99085504  0.23932378
   0.16574160  0.16600035  0.62502596
   0.99878464  0.99935248  0.49667820
   0.16545624  0.16620472  0.87540946
   0.99878275  0.99935179  0.75336729
   0.16682319  0.50031554  0.12502515
   0.00118743  0.33253618  0.00027890
   0.16651141  0.50048316  0.37467167
   0.00119000  0.33253325  0.24977168
   0.16593362  0.50018032  0.62502658
   0.99951209  0.33373551  0.50009167
   0.16651110  0.50048531  0.87537928
   0.99951451  0.33373274  0.74995960
   0.16935766  0.84006328  0.12502678
   0.00010181  0.66847047  0.00055827
   0.16640453  0.83317317  0.37481289
   0.00010003  0.66847147  0.24949463
   0.16617902  0.83466859  0.62502525
   0.99965968  0.66764400  0.49984810
   0.16640032  0.83317348  0.87523814
   0.99965483  0.66764923  0.75020538
   0.50183613  0.16582226  0.12502228
   0.33481028  0.00042331  0.99988714
   0.50065359  0.16714794  0.37477529
   0.33481314  0.00041913  0.25015988
   0.49887171  0.16829120  0.62502274
   0.33320470  0.00052983  0.49973719
   0.50065546  0.16714790  0.87527046
   0.33320779  0.00052660  0.75030972
   0.50120389  0.50137998  0.12502326
   0.33201103  0.33108240  0.00104860
   0.49959226  0.49954869  0.37340071
   0.33201164  0.33108602  0.24900002
   0.49932831  0.49847606  0.62502397
   0.33210181  0.33336619  0.49938488
   0.49959000  0.49954709  0.87664602
   0.33209804  0.33336608  0.75066577
   0.49997898  0.83279106  0.12502221
   0.33281464  0.66797151  0.00024028
   0.50172328  0.83456032  0.37492304
   0.33281367  0.66797081  0.24980738
   0.49766827  0.83209334  0.62502130
   0.33323343  0.66617639  0.49994127
   0.50172652  0.83456297  0.87512138
   0.33323346  0.66617892  0.75010766
   0.83365704  0.16832763  0.12502327
   0.66978106  0.99803341  0.99999261
   0.83582784  0.16514557  0.37444383
   0.66977032  0.99804127  0.25004970
   0.83374689  0.16499097  0.62502319
   0.66441384  0.00130039  0.50062173
   0.83582741  0.16514814  0.87560161
   0.66440700  0.00130519  0.74941914
   0.83501040  0.50033982  0.12502459
   0.66761677  0.33353669  0.99971043
   0.83400167  0.50032251  0.37477887
   0.66761739  0.33353574  0.25033685
   0.83321891  0.50035295  0.62502472
   0.66777197  0.33274358  0.49980614
   0.83400151  0.50032233  0.87526990
   0.66777165  0.33274423  0.75024028
   0.85293478  0.84942956  0.12501409
   0.67032408  0.66922486  0.00137488
   0.82636780  0.82898666  0.37739191
   0.67032486  0.66922463  0.24867085
   0.83367168  0.83538932  0.62502109
   0.66491510  0.66513893  0.50017283
   0.82636347  0.82899097  0.87264950
   0.66491666  0.66513676  0.74987263
   0.06564035  0.26703296  0.12502344
   0.27459921  0.06902850  0.12502654
   0.09549483  0.10411021  0.99449799
   0.23048798  0.22980734  0.00222480
   0.06619341  0.27017732  0.37637261
   0.26838727  0.06535526  0.37462094
   0.09548394  0.10413438  0.25555727
   0.23049113  0.22981014  0.24782634
   0.06541340  0.26885814  0.62502524
   0.26897665  0.06614462  0.62502584
   0.10199762  0.10006780  0.50083915
   0.23149384  0.23175176  0.50005431
   0.06618729  0.27016872  0.87368151
   0.26839062  0.06535811  0.87542135
   0.10199981  0.10006201  0.74920961
   0.23148738  0.23175366  0.75000015
   0.06619008  0.60217716  0.12502803
   0.26813587  0.39879591  0.12502377
   0.10159530  0.43524012  0.00006255
   0.23224043  0.56560740  0.00015040
   0.06629166  0.60327471  0.37454553
   0.26737592  0.39819768  0.37398084
   0.10159712  0.43523821  0.24998725
   0.23224256  0.56560391  0.24989997
   0.06516598  0.60203450  0.62502968
   0.26736088  0.39870325  0.62502520
   0.10081174  0.43580502  0.49985541
   0.23232775  0.56447226  0.50025228
   0.06628794  0.60327491  0.87550311
   0.26737555  0.39819865  0.87607060
   0.10081531  0.43580093  0.75019783
   0.23232731  0.56447428  0.74979994
   0.11208503  0.96893191  0.12505075
   0.26737699  0.73298593  0.12502407
   0.10013348  0.77225143  0.00308937
   0.24095857  0.89304418  0.99534093
   0.06522836  0.93347081  0.37182161
   0.26604633  0.72967426  0.37596731
   0.10012617  0.77225867  0.24696582
   0.24097581  0.89302799  0.25470965
   0.06364433  0.93456950  0.62502442
   0.26827684  0.73238133  0.62502483
   0.10150699  0.76828030  0.50036455
   0.23188666  0.89897462  0.49993582
   0.06520940  0.93345822  0.87823041
   0.26604891  0.72968051  0.87408157
   0.10150641  0.76828082  0.74968599
   0.23188298  0.89897669  0.75011561
   0.39970930  0.26734334  0.12502535
   0.60305450  0.06441097  0.12501797
   0.43652838  0.10141330  0.99968523
   0.56542072  0.23312946  0.00012735
   0.39806388  0.26779283  0.37483931
   0.60204966  0.06649691  0.37381224
   0.43653137  0.10141004  0.25035941
   0.56542297  0.23312578  0.24991893
   0.39789093  0.26933363  0.62502690
   0.60063379  0.06783072  0.62501837
   0.43474587  0.10221200  0.50013905
   0.56481306  0.23303455  0.50007172
   0.39806281  0.26779112  0.87520679
   0.60205449  0.06650014  0.87623595
   0.43475179  0.10220691  0.74990712
   0.56481510  0.23303252  0.74997350
   0.39898815  0.60246519  0.12502420
   0.60235000  0.39967045  0.12502465
   0.43442332  0.43409243  0.00111586
   0.56653495  0.56661915  0.99947491
   0.39824741  0.60104935  0.37435852
   0.60191892  0.39885111  0.37523728
   0.43442365  0.43409462  0.24893261
   0.56653625  0.56661885  0.25057024
   0.39862701  0.60089987  0.62502533
   0.60193810  0.39831567  0.62502372
   0.43405929  0.43435986  0.49933702
   0.56389847  0.56425221  0.49957584
   0.39824534  0.60104805  0.87568798
   0.60191820  0.39885115  0.87480831
   0.43405783  0.43435905  0.75070964
   0.56389880  0.56425090  0.75047159
   0.39978353  0.93476380  0.12502157
   0.60027126  0.73082405  0.12502281
   0.43483960  0.76844553  0.99884696
   0.56545469  0.89879601  0.00118700
   0.40117038  0.93656024  0.37618443
   0.60356113  0.73333997  0.37465639
   0.43483790  0.76844569  0.25119549
   0.56545200  0.89879670  0.24886158
   0.39663485  0.93384802  0.62502176
   0.59849631  0.72984235  0.62502461
   0.43468312  0.76718248  0.49837093
   0.56233071  0.89982310  0.50241642
   0.40116645  0.93655672  0.87386603
   0.60356411  0.73334199  0.87538677
   0.43468510  0.76718280  0.75167318
   0.56231860  0.89983260  0.74762511
   0.73119349  0.26842556  0.12502381
   0.94033774  0.07729030  0.12502626
   0.76798966  0.10214799  0.99996698
   0.89581346  0.23656253  0.99925442
   0.73239674  0.26717101  0.37542550
   0.93897754  0.06809975  0.37356570
   0.76798802  0.10214844  0.25007732
   0.89581550  0.23656027  0.25079339
   0.73208275  0.26706049  0.62502387
   0.93491107  0.06421056  0.62502308
   0.76848813  0.10042687  0.49942419
   0.89823184  0.23251664  0.50088261
   0.73239614  0.26717239  0.87462044
   0.93898764  0.06811390  0.87647520
   0.76848849  0.10042497  0.75062231
   0.89822946  0.23251893  0.74916294
   0.73155651  0.59892588  0.12502278
   0.93659666  0.39962815  0.12502693
   0.76902634  0.43475383  0.99996712
   0.89995598  0.56506575  0.99945953
   0.73288016  0.60224025  0.37510425
   0.93564196  0.39963958  0.37499853
   0.76902518  0.43475479  0.25008156
   0.89995505  0.56506557  0.25058884
   0.72927235  0.59853929  0.62502203
   0.93482322  0.39959013  0.62502749
   0.76860652  0.43462715  0.49975441
   0.89865475  0.56575820  0.50036527
   0.73287931  0.60223925  0.87494296
   0.93564332  0.39964097  0.87504848
   0.76860588  0.43462828  0.75029402
   0.89865022  0.56576366  0.74968569
   0.73559381  0.93569936  0.12502919
   0.93206922  0.72803690  0.12502569
   0.77225780  0.76873235  0.00538890
   0.88099613  0.91457224  0.97801545
   0.72139158  0.92842080  0.37950514
   0.93406945  0.73199667  0.37515877
   0.77225301  0.76873436  0.24465632
   0.88105310  0.91452483  0.27201737
   0.73013420  0.93533828  0.62502329
   0.93481893  0.73244407  0.62502452
   0.76673464  0.76500886  0.50442719
   0.89682828  0.89813686  0.49996456
   0.72136430  0.92840163  0.87052677
   0.93407434  0.73201038  0.87489741
   0.76674125  0.76500195  0.74561566
   0.89682331  0.89814034  0.75007869
   0.97168850  0.90535264  0.12499282
 
 position of ions in cartesian coordinates  (Angst):
   2.34779575  2.29235961  1.64540762
   0.00743145 14.47643220  0.14108845
   2.41739829  2.42835965  4.93047838
   0.00765153 14.47647798  3.14961312
   2.42149920  2.42527954  8.22563471
  14.59233009 14.60062626  6.53651798
   2.41733005  2.42826539 11.52079897
  14.59230244 14.60061625  9.91466673
   2.43730132  7.30965337  1.64538956
   0.01734840  4.85838234  0.00367047
   2.43274612  7.31210240  4.93085488
   0.01738604  4.85833962  3.28711245
   2.42430459  7.30767774  8.22564284
  14.60295816  4.87590468  6.58144088
   2.43274155  7.31213379 11.52040181
  14.60299366  4.87586431  9.86981991
   2.47433005 12.27339734  1.64541108
   0.00148743  9.76641148  0.00734705
   2.43118461 12.17273224  4.93271339
   0.00146146  9.76642602  3.28346632
   2.42788995 12.19458047  8.22562533
  14.60511457  9.75433663  6.57823533
   2.43112315 12.17273674 11.51854430
  14.60504365  9.75441311  9.87305449
   7.33186934  2.42267756  1.64535187
   4.89160718  0.00618465 13.15898353
   7.31459231  2.44204592  4.93221850
   4.89164900  0.00612353  3.29222127
   7.28855893  2.45874906  8.22559228
   4.86814959  0.00774085  6.57677568
   7.31461961  2.44204524 11.51896970
   4.86819467  0.00769374  9.87442777
   7.32263220  7.32520495  1.64536478
   4.85070997  4.83714253  0.01380005
   7.29908625  7.29844968  4.91412845
   4.85071888  4.83719545  3.27695704
   7.29522992  7.28277842  8.22560844
   4.85203628  4.87050892  6.57213911
   7.29905323  7.29842633 11.53707264
   4.85198111  4.87050732  9.87911345
   7.30473616 12.16714960  1.64535086
   4.86245070  9.75912168  0.00316214
   7.33022064 12.19299860  4.93416299
   4.86243653  9.75911135  3.28758224
   7.27097651 12.15695576  8.22557334
   4.86856931  9.73289484  6.57946154
   7.33026785 12.19303732 11.51700770
   4.86856969  9.73293169  9.87176855
  12.17980154  2.45928131  1.64536482
   9.78555935 14.58135463 13.16037165
  12.21151717  2.41279110  4.92785632
   9.78540238 14.58146942  3.29077131
  12.18111428  2.41053233  8.22559823
   9.70714371  0.01899881  6.58841671
  12.21151091  2.41282868 11.52332767
   9.70704380  0.01906899  9.86270722
  12.19957436  7.31000814  1.64538225
   9.75393886  4.87299998 13.15665797
  12.18483661  7.30975524  4.93226565
   9.75394784  4.87298599  3.29455036
  12.17340043  7.31019989  8.22561840
   9.75620627  4.86141255  6.57768319
  12.18483434  7.30975258 11.51896224
   9.75620160  4.86142207  9.87351381
  12.46145101 12.41023946  1.64524399
   9.79349284  9.77743325  0.01809410
  12.07330510 12.11156696  4.96665452
   9.79350424  9.77742983  3.27262500
  12.18001541 12.20511031  8.22557066
   9.71446726  9.71773741  6.58250901
  12.07324189 12.11162994 11.48447659
   9.71449004  9.71770570  9.86867543
   0.95901121  3.90137469  1.64536712
   4.01191820  1.00851232  1.64540786
   1.39518780  1.52105923 13.08805979
   3.36744931  3.35750510  0.02927942
   0.96709145  3.94731411  4.95323999
   3.92116125  0.95484595  4.93018725
   1.39502870  1.52141224  3.36325355
   3.36749534  3.35754598  3.26151086
   0.95569542  3.92804076  8.22562526
   3.92977211  0.96637868  8.22563311
   1.49019404  1.46199918  6.59127806
   3.38214499  3.38591327  6.58094913
   0.96700207  3.94718835 11.49805827
   3.92121027  0.95488762 11.52095541
   1.49022599  1.46191459  9.85994969
   3.38205065  3.38594112  9.87035362
   0.96704280  8.79786046  1.64542756
   3.91748828  5.82644287  1.64537146
   1.48431610  6.35889587  0.00082322
   3.39305275  8.26357309  0.00197927
   0.96852685  8.81389573  4.92919478
   3.90638539  5.81770257  4.92176316
   1.48434277  6.35886797  3.28994943
   3.39308395  8.26352208  3.28880079
   0.95208066  8.79577626  8.22568365
   3.90616567  5.82508902  8.22562472
   1.47286822  6.36714903  6.57833160
   3.39432858  8.24698857  6.58355459
   0.96847260  8.81389865 11.52203145
   3.90637995  5.81771671 11.52949992
   1.47292045  6.36708927  9.87295523
   3.39432210  8.24701812  9.86771874
   1.63757196 14.15617909  1.64572645
   3.90640096 10.70898799  1.64537542
   1.46295883 11.28266026  0.04065761
   3.52042554 13.04745284 13.09915326
   0.95299196 13.63808945  4.89334677
   3.88695995 10.66060414  4.94790604
   1.46285201 11.28276604  3.25018604
   3.52067741 13.04721633  3.35209837
   0.92984924 13.65414140  8.22561446
   3.91954781 10.70015466  8.22561985
   1.48302599 11.22464179  6.58503203
   3.38788419 13.13409711  6.57938986
   0.95271497 13.63790549 11.55792401
   3.88699767 10.66069545 11.50332326
   1.48301740 11.22464929  9.86621920
   3.38783036 13.13412725  9.87187310
   5.83978749  3.90590935  1.64539216
   8.81067848  0.94104981  1.64529516
   6.37771747  1.48165715 13.15632631
   8.26084565  3.40604167  0.00167592
   5.81574781  3.91247650  4.93306110
   8.79599776  0.97152557  4.91954441
   6.37776113  1.48160951  3.29484729
   8.26087852  3.40598791  3.28905024
   5.81322098  3.93498772  8.22564710
   8.77531170  0.99101266  8.22553480
   6.35167485  1.49332617  6.58206443
   8.25196768  3.40465495  6.58117833
   5.81573212  3.91245153 11.51813172
   8.79606827  0.97157286 11.53167590
   6.35176126  1.49325182  9.86912936
   8.25199753  3.40462533  9.87000291
   5.82925148  8.80206867  1.64537706
   8.80038567  5.83921988  1.64538299
   6.34696238  6.34212807  0.01468521
   8.27712472  8.27835491 13.15355838
   5.81842914  8.78138314  4.92673371
   8.79408754  5.82724929  4.93829858
   6.34696722  6.34215996  3.27606988
   8.27714376  8.27835042  3.29762181
   5.82397522  8.77919911  8.22562646
   8.79436779  5.81942650  8.22560515
   6.34164376  6.34603523  6.57150937
   8.23860543  8.24377373  6.57465228
   5.81839890  8.78136408 11.52446433
   8.79407711  5.82724986 11.51288757
   6.34162253  6.34602342  9.87969087
   8.23861028  8.24375458  9.87655805
   5.84087196 13.65698013  1.64534243
   8.77001518 10.67740276  1.64535880
   6.35304425 11.22705582 13.14529429
   8.26134203 13.13148759  0.01562154
   5.86113399 13.68322631  4.95076349
   8.81808039 10.71416055  4.93065378
   6.35301933 11.22705816  3.30585046
   8.26130277 13.13149769  3.27513513
   5.79486949 13.64360041  8.22557941
   8.74408292 10.66305991  8.22561688
   6.35075804 11.20860247  6.55879505
   8.21570041 13.14649340  6.61203564
   5.86107664 13.68317482 11.50048663
   8.81812399 10.71418999 11.52050036
   6.35078704 11.20860716  9.89237148
   8.21552343 13.14663227  9.83909705
  10.68280020  3.92172073  1.64537191
  13.73841578  1.12921799  1.64540414
  11.22039546  1.49239102 13.16003433
  13.08791221  3.45619912 13.15065667
  10.70037987  3.90339153  4.94077566
  13.71854318  0.99494326  4.91629978
  11.22037144  1.49239750  3.29113474
  13.08794200  3.45616609  3.30055860
  10.69579243  3.90177686  8.22560717
  13.65913170  0.93812188  8.22559679
  11.22767810  1.46724521  6.57265651
  13.12324499  3.39708821  6.59185002
  10.70037104  3.90341173 11.51041509
  13.71869078  0.99514993 11.53482458
  11.22768338  1.46721751  9.87854149
  13.12321020  3.39712169  9.85933552
  10.68810394  8.75035895  1.64535835
  13.68375838  5.83860191  1.64541298
  11.23554138  6.35179109 13.16003609
  13.14843486  8.25565956 13.15335608
  10.70744268  8.79878217  4.93654779
  13.66981016  5.83876896  4.93515647
  11.23552449  6.35180509  3.29119053
  13.14842122  8.25565690  3.29786666
  10.65473228  8.74471089  8.22558291
  13.65784826  5.83804641  8.22565477
  11.22940790  6.34994038  6.57700231
  13.12942376  8.26577636  6.58504155
  10.70743020  8.79876764 11.51465965
  13.66983003  5.83878923 11.51604833
  11.22939852  6.34995681  9.87422108
  13.12935764  8.26585611  9.86621521
  10.74708933 13.67064865  1.64544278
  13.61761211 10.63668215  1.64539674
  11.28275336 11.23124620  0.07092049
  12.87142981 13.36197965 12.87114188
  10.53959350 13.56430835  4.99446560
  13.64683552 10.69453473  4.93726532
  11.28268341 11.23127563  3.21979190
  12.87226217 13.36128703  3.57987610
  10.66732396 13.66537327  8.22559958
  13.65778552 10.70107132  8.22561572
  11.20205957 11.17684568  6.63849837
  13.10273892 13.12185737  6.57976809
  10.53919488 13.56402820 11.45654042
  13.64690704 10.69473506 11.51406017
  11.20215612 11.17674474  9.81265171
  13.10266627 13.12190814  9.87138726
  14.19645317 13.22728054  1.64496411
 


--------------------------------------------------------------------------------------------------------


 k-point  1 :   0.2500 0.2500 0.2500  plane waves:  118129
 k-point  2 :  -0.2500 0.2500 0.2500  plane waves:  118129
 k-point  3 :   0.2500-0.2500 0.2500  plane waves:  118129
 k-point  4 :  -0.2500-0.2500 0.2500  plane waves:  118129

 maximum and minimum number of plane-waves per node :     19742    19655

 maximum number of plane-waves:    118129
 maximum index in each direction: 
   IXMAX=   31   IYMAX=   31   IZMAX=   28
   IXMIN=  -31   IYMIN=  -31   IZMIN=  -28


 parallel 3D FFT for wavefunctions:
    minimum data exchange during FFTs selected (reduces bandwidth)
 parallel 3D FFT for charge:
    minimum data exchange during FFTs selected (reduces bandwidth)


 total amount of memory used by VASP MPI-rank0   697375. kBytes
=======================================================================

   base      :      30000. kBytes
   nonl-proj :     102460. kBytes
   fftplans  :      32099. kBytes
   grid      :      29521. kBytes
   one-center:       1150. kBytes
   wavefun   :     502145. kBytes
 
     INWAV:  cpu time    0.0000: real time    0.0000
 Broyden mixing: mesh for mixing (old mesh)
   NGX = 63   NGY = 63   NGZ = 57
  (NGX  =192   NGY  =192   NGZ  =180)
  gives a total of 226233 points

 initial charge density was supplied:
 charge density of overlapping atoms calculated
 number of electron    1945.0000000 magnetization       0.0130000
 keeping initial charge density in first step


--------------------------------------------------------------------------------------------------------


 Maximum index for augmentation-charges         2332 (set IRDMAX)


--------------------------------------------------------------------------------------------------------


 First call to EWALD:  gamma=   0.126
 Maximum number of real-space cells 3x 3x 3
 Maximum number of reciprocal cells 3x 3x 3

    FEWALD:  cpu time    0.3896: real time    0.3896


--------------------------------------- Iteration      1(   1)  ---------------------------------------


    POTLOK:  cpu time    0.3391: real time    0.3638
    SETDIJ:  cpu time    3.8260: real time    3.8262
atom =   1  type =  1  l = 2
 
 onsite density matrix
 
spin component  1
 
  0.7156  0.0000  0.0000  0.0000  0.0000
  0.0000  0.7156  0.0000  0.0000  0.0000
  0.0000  0.0000  0.7156  0.0000  0.0000
  0.0000  0.0000  0.0000  0.7156  0.0000
  0.0000  0.0000  0.0000  0.0000  0.7156
 
spin component  2
 
  0.3372  0.0000  0.0000  0.0000  0.0000
  0.0000  0.3372  0.0000  0.0000  0.0000
  0.0000  0.0000  0.3372  0.0000  0.0000
  0.0000  0.0000  0.0000  0.3372  0.0000
  0.0000  0.0000  0.0000  0.0000  0.3372
 
 occupancies and eigenvectors
 
  o =  0.3372  v =  0.0000  0.0000  0.0000  0.0000  0.0000  1.0000  0.0000  0.0000  0.0000  0.0000      0.0000  0.0000  0.0000  0.0000  0.0000  0.0000  0.0000  0.0000  0.0000  0.0000
  o =  0.3372  v =  0.0000  0.0000  0.0000  0.0000  0.0000  0.0000  1.0000  0.0000  0.0000  0.0000      0.0000  0.0000  0.0000  0.0000  0.0000  0.0000  0.0000  0.0000  0.0000  0.0000
  o =  0.3372  v =  0.0000  0.0000  0.0000  0.0000  0.0000  0.0000  0.0000  1.0000  0.0000  0.0000      0.0000  0.0000  0.0000  0.0000  0.0000  0.0000  0.0000  0.0000  0.0000  0.0000
  o =  0.3372  v =  0.0000  0.0000  0.0000  0.0000  0.0000  0.0000  0.0000  0.0000  0.0000 -1.0000      0.0000  0.0000  0.0000  0.0000  0.0000  0.0000  0.0000  0.0000  0.0000  0.0000
  o =  0.3372  v =  0.0000  0.0000  0.0000  0.0000  0.0000  0.0000  0.0000  0.0000 -1.0000  0.0000      0.0000  0.0000  0.0000  0.0000  0.0000  0.0000  0.0000  0.0000  0.0000  0.0000
  o =  0.7156  v =  1.0000  0.0000  0.0000  0.0000  0.0000  0.0000  0.0000  0.0000  0.0000  0.0000      0.0000  0.0000  0.0000  0.0000  0.0000  0.0000  0.0000  0.0000  0.0000  0.0000
  o =  0.7156  v =  0.0000  1.0000  0.0000  0.0000  0.0000  0.0000  0.0000  0.0000  0.0000  0.0000      0.0000  0.0000  0.0000  0.0000  0.0000  0.0000  0.0000  0.0000  0.0000  0.0000
  o =  0.7156  v =  0.0000  0.0000  1.0000  0.0000  0.0000  0.0000  0.0000  0.0000  0.0000  0.0000      0.0000  0.0000  0.0000  0.0000  0.0000  0.0000  0.0000  0.0000  0.0000  0.0000
  o =  0.7156  v =  0.0000  0.0000  0.0000  0.0000 -1.0000  0.0000  0.0000  0.0000  0.0000  0.0000      0.0000  0.0000  0.0000  0.0000  0.0000  0.0000  0.0000  0.0000  0.0000  0.0000
  o =  0.7156  v =  0.0000  0.0000  0.0000 -1.0000  0.0000  0.0000  0.0000  0.0000  0.0000  0.0000      0.0000  0.0000  0.0000  0.0000  0.0000  0.0000  0.0000  0.0000  0.0000  0.0000
atom =   2  type =  1  l = 2
 
 onsite density matrix
 
spin component  1
 
  0.3382  0.0000  0.0000  0.0000  0.0000
  0.0000  0.3382  0.0000  0.0000  0.0000
  0.0000  0.0000  0.3382  0.0000  0.0000
  0.0000  0.0000  0.0000  0.3382  0.0000
  0.0000  0.0000  0.0000  0.0000  0.3382
 
spin component  2
 
  0.7146  0.0000  0.0000  0.0000  0.0000
  0.0000  0.7146  0.0000  0.0000  0.0000
  0.0000  0.0000  0.7146  0.0000  0.0000
  0.0000  0.0000  0.0000  0.7146  0.0000
  0.0000  0.0000  0.0000  0.0000  0.7146
 
 occupancies and eigenvectors
 
  o =  0.3382  v =  1.0000  0.0000  0.0000  0.0000  0.0000  0.0000  0.0000  0.0000  0.0000  0.0000      0.0000  0.0000  0.0000  0.0000  0.0000  0.0000  0.0000  0.0000  0.0000  0.0000
  o =  0.3382  v =  0.0000  1.0000  0.0000  0.0000  0.0000  0.0000  0.0000  0.0000  0.0000  0.0000      0.0000  0.0000  0.0000  0.0000  0.0000  0.0000  0.0000  0.0000  0.0000  0.0000
  o =  0.3382  v =  0.0000  0.0000  1.0000  0.0000  0.0000  0.0000  0.0000  0.0000  0.0000  0.0000      0.0000  0.0000  0.0000  0.0000  0.0000  0.0000  0.0000  0.0000  0.0000  0.0000
  o =  0.3382  v =  0.0000  0.0000  0.0000  0.0000 -1.0000  0.0000  0.0000  0.0000  0.0000  0.0000      0.0000  0.0000  0.0000  0.0000  0.0000  0.0000  0.0000  0.0000  0.0000  0.0000
  o =  0.3382  v =  0.0000  0.0000  0.0000 -1.0000  0.0000  0.0000  0.0000  0.0000  0.0000  0.0000      0.0000  0.0000  0.0000  0.0000  0.0000  0.0000  0.0000  0.0000  0.0000  0.0000
  o =  0.7146  v =  0.0000  0.0000  0.0000  0.0000  0.0000  1.0000  0.0000  0.0000  0.0000  0.0000      0.0000  0.0000  0.0000  0.0000  0.0000  0.0000  0.0000  0.0000  0.0000  0.0000
  o =  0.7146  v =  0.0000  0.0000  0.0000  0.0000  0.0000  0.0000  1.0000  0.0000  0.0000  0.0000      0.0000  0.0000  0.0000  0.0000  0.0000  0.0000  0.0000  0.0000  0.0000  0.0000
  o =  0.7146  v =  0.0000  0.0000  0.0000  0.0000  0.0000  0.0000  0.0000  1.0000  0.0000  0.0000      0.0000  0.0000  0.0000  0.0000  0.0000  0.0000  0.0000  0.0000  0.0000  0.0000
  o =  0.7146  v =  0.0000  0.0000  0.0000  0.0000  0.0000  0.0000  0.0000  0.0000  0.0000 -1.0000      0.0000  0.0000  0.0000  0.0000  0.0000  0.0000  0.0000  0.0000  0.0000  0.0000
  o =  0.7146  v =  0.0000  0.0000  0.0000  0.0000  0.0000  0.0000  0.0000  0.0000 -1.0000  0.0000      0.0000  0.0000  0.0000  0.0000  0.0000  0.0000  0.0000  0.0000  0.0000  0.0000
atom =   3  type =  1  l = 2
 
 onsite density matrix
 
spin component  1
 
  0.7153  0.0000  0.0000  0.0000  0.0000
  0.0000  0.7153  0.0000  0.0000  0.0000
  0.0000  0.0000  0.7153  0.0000  0.0000
  0.0000  0.0000  0.0000  0.7153  0.0000
  0.0000  0.0000  0.0000  0.0000  0.7153
 
spin component  2
 
  0.3376  0.0000  0.0000  0.0000  0.0000
  0.0000  0.3376  0.0000  0.0000  0.0000
  0.0000  0.0000  0.3376  0.0000  0.0000
  0.0000  0.0000  0.0000  0.3376  0.0000
  0.0000  0.0000  0.0000  0.0000  0.3376
 
 occupancies and eigenvectors
 
  o =  0.3376  v =  0.0000  0.0000  0.0000  0.0000  0.0000  1.0000  0.0000  0.0000  0.0000  0.0000      0.0000  0.0000  0.0000  0.0000  0.0000  0.0000  0.0000  0.0000  0.0000  0.0000
  o =  0.3376  v =  0.0000  0.0000  0.0000  0.0000  0.0000  0.0000  1.0000  0.0000  0.0000  0.0000      0.0000  0.0000  0.0000  0.0000  0.0000  0.0000  0.0000  0.0000  0.0000  0.0000
  o =  0.3376  v =  0.0000  0.0000  0.0000  0.0000  0.0000  0.0000  0.0000  1.0000  0.0000  0.0000      0.0000  0.0000  0.0000  0.0000  0.0000  0.0000  0.0000  0.0000  0.0000  0.0000
  o =  0.3376  v =  0.0000  0.0000  0.0000  0.0000  0.0000  0.0000  0.0000  0.0000  0.0000 -1.0000      0.0000  0.0000  0.0000  0.0000  0.0000  0.0000  0.0000  0.0000  0.0000  0.0000
  o =  0.3376  v =  0.0000  0.0000  0.0000  0.0000  0.0000  0.0000  0.0000  0.0000 -1.0000  0.0000      0.0000  0.0000  0.0000  0.0000  0.0000  0.0000  0.0000  0.0000  0.0000  0.0000
  o =  0.7153  v =  1.0000  0.0000  0.0000  0.0000  0.0000  0.0000  0.0000  0.0000  0.0000  0.0000      0.0000  0.0000  0.0000  0.0000  0.0000  0.0000  0.0000  0.0000  0.0000  0.0000
  o =  0.7153  v =  0.0000  1.0000  0.0000  0.0000  0.0000  0.0000  0.0000  0.0000  0.0000  0.0000      0.0000  0.0000  0.0000  0.0000  0.0000  0.0000  0.0000  0.0000  0.0000  0.0000
  o =  0.7153  v =  0.0000  0.0000  1.0000  0.0000  0.0000  0.0000  0.0000  0.0000  0.0000  0.0000      0.0000  0.0000  0.0000  0.0000  0.0000  0.0000  0.0000  0.0000  0.0000  0.0000
  o =  0.7153  v =  0.0000  0.0000  0.0000  0.0000 -1.0000  0.0000  0.0000  0.0000  0.0000  0.0000      0.0000  0.0000  0.0000  0.0000  0.0000  0.0000  0.0000  0.0000  0.0000  0.0000
  o =  0.7153  v =  0.0000  0.0000  0.0000 -1.0000  0.0000  0.0000  0.0000  0.0000  0.0000  0.0000      0.0000  0.0000  0.0000  0.0000  0.0000  0.0000  0.0000  0.0000  0.0000  0.0000
atom =   4  type =  1  l = 2
 
 onsite density matrix
 
spin component  1
 
  0.3382  0.0000  0.0000  0.0000  0.0000
  0.0000  0.3382  0.0000  0.0000  0.0000
  0.0000  0.0000  0.3382  0.0000  0.0000
  0.0000  0.0000  0.0000  0.3382  0.0000
  0.0000  0.0000  0.0000  0.0000  0.3382
 
spin component  2
 
  0.7146  0.0000  0.0000  0.0000  0.0000
  0.0000  0.7146  0.0000  0.0000  0.0000
  0.0000  0.0000  0.7146  0.0000  0.0000
  0.0000  0.0000  0.0000  0.7146  0.0000
  0.0000  0.0000  0.0000  0.0000  0.7146
 
 occupancies and eigenvectors
 
  o =  0.3382  v =  1.0000  0.0000  0.0000  0.0000  0.0000  0.0000  0.0000  0.0000  0.0000  0.0000      0.0000  0.0000  0.0000  0.0000  0.0000  0.0000  0.0000  0.0000  0.0000  0.0000
  o =  0.3382  v =  0.0000  1.0000  0.0000  0.0000  0.0000  0.0000  0.0000  0.0000  0.0000  0.0000      0.0000  0.0000  0.0000  0.0000  0.0000  0.0000  0.0000  0.0000  0.0000  0.0000
  o =  0.3382  v =  0.0000  0.0000  1.0000  0.0000  0.0000  0.0000  0.0000  0.0000  0.0000  0.0000      0.0000  0.0000  0.0000  0.0000  0.0000  0.0000  0.0000  0.0000  0.0000  0.0000
  o =  0.3382  v =  0.0000  0.0000  0.0000  0.0000 -1.0000  0.0000  0.0000  0.0000  0.0000  0.0000      0.0000  0.0000  0.0000  0.0000  0.0000  0.0000  0.0000  0.0000  0.0000  0.0000
  o =  0.3382  v =  0.0000  0.0000  0.0000 -1.0000  0.0000  0.0000  0.0000  0.0000  0.0000  0.0000      0.0000  0.0000  0.0000  0.0000  0.0000  0.0000  0.0000  0.0000  0.0000  0.0000
  o =  0.7146  v =  0.0000  0.0000  0.0000  0.0000  0.0000  1.0000  0.0000  0.0000  0.0000  0.0000      0.0000  0.0000  0.0000  0.0000  0.0000  0.0000  0.0000  0.0000  0.0000  0.0000
  o =  0.7146  v =  0.0000  0.0000  0.0000  0.0000  0.0000  0.0000  1.0000  0.0000  0.0000  0.0000      0.0000  0.0000  0.0000  0.0000  0.0000  0.0000  0.0000  0.0000  0.0000  0.0000
  o =  0.7146  v =  0.0000  0.0000  0.0000  0.0000  0.0000  0.0000  0.0000  1.0000  0.0000  0.0000      0.0000  0.0000  0.0000  0.0000  0.0000  0.0000  0.0000  0.0000  0.0000  0.0000
  o =  0.7146  v =  0.0000  0.0000  0.0000  0.0000  0.0000  0.0000  0.0000  0.0000  0.0000 -1.0000      0.0000  0.0000  0.0000  0.0000  0.0000  0.0000  0.0000  0.0000  0.0000  0.0000
  o =  0.7146  v =  0.0000  0.0000  0.0000  0.0000  0.0000  0.0000  0.0000  0.0000 -1.0000  0.0000      0.0000  0.0000  0.0000  0.0000  0.0000  0.0000  0.0000  0.0000  0.0000  0.0000
atom =   5  type =  1  l = 2
 
 onsite density matrix
 
spin component  1
 
  0.7153  0.0000  0.0000  0.0000  0.0000
  0.0000  0.7153  0.0000  0.0000  0.0000
  0.0000  0.0000  0.7153  0.0000  0.0000
  0.0000  0.0000  0.0000  0.7153  0.0000
  0.0000  0.0000  0.0000  0.0000  0.7153
 
spin component  2
 
  0.3376  0.0000  0.0000  0.0000  0.0000
  0.0000  0.3376  0.0000  0.0000  0.0000
  0.0000  0.0000  0.3376  0.0000  0.0000
  0.0000  0.0000  0.0000  0.3376  0.0000
  0.0000  0.0000  0.0000  0.0000  0.3376
 
 occupancies and eigenvectors
 
  o =  0.3376  v =  0.0000  0.0000  0.0000  0.0000  0.0000  1.0000  0.0000  0.0000  0.0000  0.0000      0.0000  0.0000  0.0000  0.0000  0.0000  0.0000  0.0000  0.0000  0.0000  0.0000
  o =  0.3376  v =  0.0000  0.0000  0.0000  0.0000  0.0000  0.0000  1.0000  0.0000  0.0000  0.0000      0.0000  0.0000  0.0000  0.0000  0.0000  0.0000  0.0000  0.0000  0.0000  0.0000
  o =  0.3376  v =  0.0000  0.0000  0.0000  0.0000  0.0000  0.0000  0.0000  1.0000  0.0000  0.0000      0.0000  0.0000  0.0000  0.0000  0.0000  0.0000  0.0000  0.0000  0.0000  0.0000
  o =  0.3376  v =  0.0000  0.0000  0.0000  0.0000  0.0000  0.0000  0.0000  0.0000  0.0000 -1.0000      0.0000  0.0000  0.0000  0.0000  0.0000  0.0000  0.0000  0.0000  0.0000  0.0000
  o =  0.3376  v =  0.0000  0.0000  0.0000  0.0000  0.0000  0.0000  0.0000  0.0000 -1.0000  0.0000      0.0000  0.0000  0.0000  0.0000  0.0000  0.0000  0.0000  0.0000  0.0000  0.0000
  o =  0.7153  v =  1.0000  0.0000  0.0000  0.0000  0.0000  0.0000  0.0000  0.0000  0.0000  0.0000      0.0000  0.0000  0.0000  0.0000  0.0000  0.0000  0.0000  0.0000  0.0000  0.0000
  o =  0.7153  v =  0.0000  1.0000  0.0000  0.0000  0.0000  0.0000  0.0000  0.0000  0.0000  0.0000      0.0000  0.0000  0.0000  0.0000  0.0000  0.0000  0.0000  0.0000  0.0000  0.0000
  o =  0.7153  v =  0.0000  0.0000  1.0000  0.0000  0.0000  0.0000  0.0000  0.0000  0.0000  0.0000      0.0000  0.0000  0.0000  0.0000  0.0000  0.0000  0.0000  0.0000  0.0000  0.0000
  o =  0.7153  v =  0.0000  0.0000  0.0000  0.0000 -1.0000  0.0000  0.0000  0.0000  0.0000  0.0000      0.0000  0.0000  0.0000  0.0000  0.0000  0.0000  0.0000  0.0000  0.0000  0.0000
  o =  0.7153  v =  0.0000  0.0000  0.0000 -1.0000  0.0000  0.0000  0.0000  0.0000  0.0000  0.0000      0.0000  0.0000  0.0000  0.0000  0.0000  0.0000  0.0000  0.0000  0.0000  0.0000
atom =   6  type =  1  l = 2
 
 onsite density matrix
 
spin component  1
 
  0.3375  0.0000  0.0000  0.0000  0.0000
  0.0000  0.3375  0.0000  0.0000  0.0000
  0.0000  0.0000  0.3375  0.0000  0.0000
  0.0000  0.0000  0.0000  0.3375  0.0000
  0.0000  0.0000  0.0000  0.0000  0.3375
 
spin component  2
 
  0.7154  0.0000  0.0000  0.0000  0.0000
  0.0000  0.7154  0.0000  0.0000  0.0000
  0.0000  0.0000  0.7154  0.0000  0.0000
  0.0000  0.0000  0.0000  0.7154  0.0000
  0.0000  0.0000  0.0000  0.0000  0.7154
 
 occupancies and eigenvectors
 
  o =  0.3375  v =  1.0000  0.0000  0.0000  0.0000  0.0000  0.0000  0.0000  0.0000  0.0000  0.0000      0.0000  0.0000  0.0000  0.0000  0.0000  0.0000  0.0000  0.0000  0.0000  0.0000
  o =  0.3375  v =  0.0000  1.0000  0.0000  0.0000  0.0000  0.0000  0.0000  0.0000  0.0000  0.0000      0.0000  0.0000  0.0000  0.0000  0.0000  0.0000  0.0000  0.0000  0.0000  0.0000
  o =  0.3375  v =  0.0000  0.0000  1.0000  0.0000  0.0000  0.0000  0.0000  0.0000  0.0000  0.0000      0.0000  0.0000  0.0000  0.0000  0.0000  0.0000  0.0000  0.0000  0.0000  0.0000
  o =  0.3375  v =  0.0000  0.0000  0.0000  0.0000 -1.0000  0.0000  0.0000  0.0000  0.0000  0.0000      0.0000  0.0000  0.0000  0.0000  0.0000  0.0000  0.0000  0.0000  0.0000  0.0000
  o =  0.3375  v =  0.0000  0.0000  0.0000 -1.0000  0.0000  0.0000  0.0000  0.0000  0.0000  0.0000      0.0000  0.0000  0.0000  0.0000  0.0000  0.0000  0.0000  0.0000  0.0000  0.0000
  o =  0.7154  v =  0.0000  0.0000  0.0000  0.0000  0.0000  0.0000  0.0000  0.0000  0.6001  0.7999      0.0000  0.0000  0.0000  0.0000  0.0000  0.0000  0.0000  0.0000  0.0000  0.0000
  o =  0.7154  v =  0.0000  0.0000  0.0000  0.0000  0.0000  0.0000  1.0000  0.0000  0.0000  0.0000      0.0000  0.0000  0.0000  0.0000  0.0000  0.0000  0.0000  0.0000  0.0000  0.0000
  o =  0.7154  v =  0.0000  0.0000  0.0000  0.0000  0.0000  0.0000  0.0000  1.0000  0.0000  0.0000      0.0000  0.0000  0.0000  0.0000  0.0000  0.0000  0.0000  0.0000  0.0000  0.0000
  o =  0.7154  v =  0.0000  0.0000  0.0000  0.0000  0.0000  0.0000  0.0000  0.0000 -0.7999  0.6001      0.0000  0.0000  0.0000  0.0000  0.0000  0.0000  0.0000  0.0000  0.0000  0.0000
  o =  0.7154  v =  0.0000  0.0000  0.0000  0.0000  0.0000  1.0000  0.0000  0.0000  0.0000  0.0000      0.0000  0.0000  0.0000  0.0000  0.0000  0.0000  0.0000  0.0000  0.0000  0.0000
atom =   7  type =  1  l = 2
 
 onsite density matrix
 
spin component  1
 
  0.7153  0.0000  0.0000  0.0000  0.0000
  0.0000  0.7153  0.0000  0.0000  0.0000
  0.0000  0.0000  0.7153  0.0000  0.0000
  0.0000  0.0000  0.0000  0.7153  0.0000
  0.0000  0.0000  0.0000  0.0000  0.7153
 
spin component  2
 
  0.3376  0.0000  0.0000  0.0000  0.0000
  0.0000  0.3376  0.0000  0.0000  0.0000
  0.0000  0.0000  0.3376  0.0000  0.0000
  0.0000  0.0000  0.0000  0.3376  0.0000
  0.0000  0.0000  0.0000  0.0000  0.3376
 
 occupancies and eigenvectors
 
  o =  0.3376  v =  0.0000  0.0000  0.0000  0.0000  0.0000  1.0000  0.0000  0.0000  0.0000  0.0000      0.0000  0.0000  0.0000  0.0000  0.0000  0.0000  0.0000  0.0000  0.0000  0.0000
  o =  0.3376  v =  0.0000  0.0000  0.0000  0.0000  0.0000  0.0000  1.0000  0.0000  0.0000  0.0000      0.0000  0.0000  0.0000  0.0000  0.0000  0.0000  0.0000  0.0000  0.0000  0.0000
  o =  0.3376  v =  0.0000  0.0000  0.0000  0.0000  0.0000  0.0000  0.0000  1.0000  0.0000  0.0000      0.0000  0.0000  0.0000  0.0000  0.0000  0.0000  0.0000  0.0000  0.0000  0.0000
  o =  0.3376  v =  0.0000  0.0000  0.0000  0.0000  0.0000  0.0000  0.0000  0.0000  0.0000 -1.0000      0.0000  0.0000  0.0000  0.0000  0.0000  0.0000  0.0000  0.0000  0.0000  0.0000
  o =  0.3376  v =  0.0000  0.0000  0.0000  0.0000  0.0000  0.0000  0.0000  0.0000 -1.0000  0.0000      0.0000  0.0000  0.0000  0.0000  0.0000  0.0000  0.0000  0.0000  0.0000  0.0000
  o =  0.7153  v =  1.0000  0.0000  0.0000  0.0000  0.0000  0.0000  0.0000  0.0000  0.0000  0.0000      0.0000  0.0000  0.0000  0.0000  0.0000  0.0000  0.0000  0.0000  0.0000  0.0000
  o =  0.7153  v =  0.0000  1.0000  0.0000  0.0000  0.0000  0.0000  0.0000  0.0000  0.0000  0.0000      0.0000  0.0000  0.0000  0.0000  0.0000  0.0000  0.0000  0.0000  0.0000  0.0000
  o =  0.7153  v =  0.0000  0.0000  1.0000  0.0000  0.0000  0.0000  0.0000  0.0000  0.0000  0.0000      0.0000  0.0000  0.0000  0.0000  0.0000  0.0000  0.0000  0.0000  0.0000  0.0000
  o =  0.7153  v =  0.0000  0.0000  0.0000  0.0000 -1.0000  0.0000  0.0000  0.0000  0.0000  0.0000      0.0000  0.0000  0.0000  0.0000  0.0000  0.0000  0.0000  0.0000  0.0000  0.0000
  o =  0.7153  v =  0.0000  0.0000  0.0000 -1.0000  0.0000  0.0000  0.0000  0.0000  0.0000  0.0000      0.0000  0.0000  0.0000  0.0000  0.0000  0.0000  0.0000  0.0000  0.0000  0.0000
atom =   8  type =  1  l = 2
 
 onsite density matrix
 
spin component  1
 
  0.3375  0.0000  0.0000  0.0000  0.0000
  0.0000  0.3375  0.0000  0.0000  0.0000
  0.0000  0.0000  0.3375  0.0000  0.0000
  0.0000  0.0000  0.0000  0.3375  0.0000
  0.0000  0.0000  0.0000  0.0000  0.3375
 
spin component  2
 
  0.7154  0.0000  0.0000  0.0000  0.0000
  0.0000  0.7154  0.0000  0.0000  0.0000
  0.0000  0.0000  0.7154  0.0000  0.0000
  0.0000  0.0000  0.0000  0.7154  0.0000
  0.0000  0.0000  0.0000  0.0000  0.7154
 
 occupancies and eigenvectors
 
  o =  0.3375  v =  1.0000  0.0000  0.0000  0.0000  0.0000  0.0000  0.0000  0.0000  0.0000  0.0000      0.0000  0.0000  0.0000  0.0000  0.0000  0.0000  0.0000  0.0000  0.0000  0.0000
  o =  0.3375  v =  0.0000  1.0000  0.0000  0.0000  0.0000  0.0000  0.0000  0.0000  0.0000  0.0000      0.0000  0.0000  0.0000  0.0000  0.0000  0.0000  0.0000  0.0000  0.0000  0.0000
  o =  0.3375  v =  0.0000  0.0000  1.0000  0.0000  0.0000  0.0000  0.0000  0.0000  0.0000  0.0000      0.0000  0.0000  0.0000  0.0000  0.0000  0.0000  0.0000  0.0000  0.0000  0.0000
  o =  0.3375  v =  0.0000  0.0000  0.0000  0.0000 -1.0000  0.0000  0.0000  0.0000  0.0000  0.0000      0.0000  0.0000  0.0000  0.0000  0.0000  0.0000  0.0000  0.0000  0.0000  0.0000
  o =  0.3375  v =  0.0000  0.0000  0.0000 -1.0000  0.0000  0.0000  0.0000  0.0000  0.0000  0.0000      0.0000  0.0000  0.0000  0.0000  0.0000  0.0000  0.0000  0.0000  0.0000  0.0000
  o =  0.7154  v =  0.0000  0.0000  0.0000  0.0000  0.0000  0.0000  0.0000  0.0000  0.6001  0.7999      0.0000  0.0000  0.0000  0.0000  0.0000  0.0000  0.0000  0.0000  0.0000  0.0000
  o =  0.7154  v =  0.0000  0.0000  0.0000  0.0000  0.0000  0.0000  1.0000  0.0000  0.0000  0.0000      0.0000  0.0000  0.0000  0.0000  0.0000  0.0000  0.0000  0.0000  0.0000  0.0000
  o =  0.7154  v =  0.0000  0.0000  0.0000  0.0000  0.0000  0.0000  0.0000  1.0000  0.0000  0.0000      0.0000  0.0000  0.0000  0.0000  0.0000  0.0000  0.0000  0.0000  0.0000  0.0000
  o =  0.7154  v =  0.0000  0.0000  0.0000  0.0000  0.0000  0.0000  0.0000  0.0000 -0.7999  0.6001      0.0000  0.0000  0.0000  0.0000  0.0000  0.0000  0.0000  0.0000  0.0000  0.0000
  o =  0.7154  v =  0.0000  0.0000  0.0000  0.0000  0.0000  1.0000  0.0000  0.0000  0.0000  0.0000      0.0000  0.0000  0.0000  0.0000  0.0000  0.0000  0.0000  0.0000  0.0000  0.0000
atom =   9  type =  1  l = 2
 
 onsite density matrix
 
spin component  1
 
  0.7153  0.0000  0.0000  0.0000  0.0000
  0.0000  0.7153  0.0000  0.0000  0.0000
  0.0000  0.0000  0.7153  0.0000  0.0000
  0.0000  0.0000  0.0000  0.7153  0.0000
  0.0000  0.0000  0.0000  0.0000  0.7153
 
spin component  2
 
  0.3375  0.0000  0.0000  0.0000  0.0000
  0.0000  0.3375  0.0000  0.0000  0.0000
  0.0000  0.0000  0.3375  0.0000  0.0000
  0.0000  0.0000  0.0000  0.3375  0.0000
  0.0000  0.0000  0.0000  0.0000  0.3375
 
 occupancies and eigenvectors
 
  o =  0.3375  v =  0.0000  0.0000  0.0000  0.0000  0.0000  1.0000  0.0000  0.0000  0.0000  0.0000      0.0000  0.0000  0.0000  0.0000  0.0000  0.0000  0.0000  0.0000  0.0000  0.0000
  o =  0.3375  v =  0.0000  0.0000  0.0000  0.0000  0.0000  0.0000  1.0000  0.0000  0.0000  0.0000      0.0000  0.0000  0.0000  0.0000  0.0000  0.0000  0.0000  0.0000  0.0000  0.0000
  o =  0.3375  v =  0.0000  0.0000  0.0000  0.0000  0.0000  0.0000  0.0000  1.0000  0.0000  0.0000      0.0000  0.0000  0.0000  0.0000  0.0000  0.0000  0.0000  0.0000  0.0000  0.0000
  o =  0.3375  v =  0.0000  0.0000  0.0000  0.0000  0.0000  0.0000  0.0000  0.0000  0.0000 -1.0000      0.0000  0.0000  0.0000  0.0000  0.0000  0.0000  0.0000  0.0000  0.0000  0.0000
  o =  0.3375  v =  0.0000  0.0000  0.0000  0.0000  0.0000  0.0000  0.0000  0.0000 -1.0000  0.0000      0.0000  0.0000  0.0000  0.0000  0.0000  0.0000  0.0000  0.0000  0.0000  0.0000
  o =  0.7153  v =  1.0000  0.0000  0.0000  0.0000  0.0000  0.0000  0.0000  0.0000  0.0000  0.0000      0.0000  0.0000  0.0000  0.0000  0.0000  0.0000  0.0000  0.0000  0.0000  0.0000
  o =  0.7153  v =  0.0000  1.0000  0.0000  0.0000  0.0000  0.0000  0.0000  0.0000  0.0000  0.0000      0.0000  0.0000  0.0000  0.0000  0.0000  0.0000  0.0000  0.0000  0.0000  0.0000
  o =  0.7153  v =  0.0000  0.0000  1.0000  0.0000  0.0000  0.0000  0.0000  0.0000  0.0000  0.0000      0.0000  0.0000  0.0000  0.0000  0.0000  0.0000  0.0000  0.0000  0.0000  0.0000
  o =  0.7153  v =  0.0000  0.0000  0.0000  0.0000 -1.0000  0.0000  0.0000  0.0000  0.0000  0.0000      0.0000  0.0000  0.0000  0.0000  0.0000  0.0000  0.0000  0.0000  0.0000  0.0000
  o =  0.7153  v =  0.0000  0.0000  0.0000 -1.0000  0.0000  0.0000  0.0000  0.0000  0.0000  0.0000      0.0000  0.0000  0.0000  0.0000  0.0000  0.0000  0.0000  0.0000  0.0000  0.0000
atom =  10  type =  1  l = 2
 
 onsite density matrix
 
spin component  1
 
  0.3375  0.0000  0.0000  0.0000  0.0000
  0.0000  0.3375  0.0000  0.0000  0.0000
  0.0000  0.0000  0.3375  0.0000  0.0000
  0.0000  0.0000  0.0000  0.3375  0.0000
  0.0000  0.0000  0.0000  0.0000  0.3375
 
spin component  2
 
  0.7153  0.0000  0.0000  0.0000  0.0000
  0.0000  0.7153  0.0000  0.0000  0.0000
  0.0000  0.0000  0.7153  0.0000  0.0000
[...]
    1        0.162   6.144   4.946  11.253
    2        0.172   6.144   4.938  11.254
    3        0.169   6.154   4.960  11.283
    4        0.172   6.144   4.938  11.254
    5        0.168   6.153   4.960  11.281
    6        0.165   6.149   4.952  11.266
    7        0.169   6.154   4.960  11.283
    8        0.165   6.149   4.952  11.266
    9        0.168   6.153   4.960  11.281
   10        0.168   6.153   4.959  11.279
   11        0.168   6.153   4.959  11.279
   12        0.168   6.153   4.959  11.279
   13        0.169   6.154   4.960  11.283
   14        0.169   6.154   4.961  11.283
   15        0.168   6.153   4.959  11.279
   16        0.169   6.154   4.961  11.283
   17        0.169   6.151   4.952  11.272
   18        0.168   6.152   4.957  11.277
   19        0.169   6.154   4.960  11.284
   20        0.168   6.152   4.957  11.277
   21        0.168   6.152   4.958  11.278
   22        0.168   6.153   4.959  11.280
   23        0.169   6.154   4.960  11.284
   24        0.168   6.153   4.959  11.280
   25        0.167   6.152   4.958  11.277
   26        0.168   6.154   4.960  11.282
   27        0.168   6.154   4.960  11.282
   28        0.168   6.154   4.960  11.282
   29        0.169   6.155   4.961  11.285
   30        0.168   6.153   4.959  11.281
   31        0.168   6.154   4.960  11.282
   32        0.168   6.153   4.959  11.281
   33        0.166   6.150   4.955  11.271
   34        0.166   6.151   4.956  11.273
   35        0.167   6.152   4.958  11.277
   36        0.166   6.151   4.956  11.273
   37        0.167   6.152   4.957  11.277
   38        0.168   6.153   4.959  11.280
   39        0.167   6.152   4.958  11.277
   40        0.168   6.153   4.959  11.280
   41        0.169   6.154   4.960  11.283
   42        0.168   6.152   4.958  11.278
   43        0.168   6.152   4.958  11.278
   44        0.168   6.152   4.958  11.278
   45        0.169   6.155   4.961  11.285
   46        0.168   6.153   4.960  11.281
   47        0.168   6.152   4.958  11.278
   48        0.168   6.153   4.960  11.281
   49        0.169   6.155   4.961  11.285
   50        0.166   6.151   4.955  11.272
   51        0.168   6.152   4.958  11.278
   52        0.166   6.151   4.955  11.272
   53        0.168   6.153   4.958  11.279
   54        0.170   6.156   4.963  11.288
   55        0.168   6.152   4.958  11.278
   56        0.170   6.156   4.963  11.288
   57        0.168   6.153   4.959  11.279
   58        0.168   6.153   4.959  11.279
   59        0.168   6.153   4.960  11.281
   60        0.168   6.153   4.959  11.279
   61        0.168   6.154   4.960  11.282
   62        0.168   6.153   4.959  11.280
   63        0.168   6.153   4.960  11.281
   64        0.168   6.153   4.959  11.280
   65        0.174   6.143   4.938  11.255
   66        0.167   6.151   4.955  11.272
   67        0.173   6.160   4.967  11.300
   68        0.167   6.151   4.955  11.272
   69        0.169   6.156   4.964  11.289
   70        0.169   6.154   4.961  11.283
   71        0.173   6.160   4.967  11.300
   72        0.169   6.154   4.961  11.283
   73        1.726   4.361   0.000   6.087
   74        1.727   4.363   0.000   6.089
   75        1.727   4.363   0.000   6.090
   76        1.726   4.357   0.000   6.084
   77        1.727   4.364   0.000   6.090
   78        1.726   4.362   0.000   6.088
   79        1.727   4.363   0.000   6.090
   80        1.726   4.357   0.000   6.084
   81        1.726   4.362   0.000   6.088
   82        1.727   4.363   0.000   6.089
   83        1.726   4.362   0.000   6.089
   84        1.726   4.362   0.000   6.088
   85        1.727   4.364   0.000   6.090
   86        1.726   4.362   0.000   6.088
   87        1.726   4.362   0.000   6.089
   88        1.726   4.362   0.000   6.088
   89        1.726   4.362   0.000   6.088
   90        1.726   4.363   0.000   6.089
   91        1.726   4.363   0.000   6.089
   92        1.726   4.363   0.000   6.089
   93        1.726   4.361   0.000   6.088
   94        1.726   4.362   0.000   6.088
   95        1.726   4.363   0.000   6.089
   96        1.726   4.363   0.000   6.089
   97        1.726   4.362   0.000   6.088
   98        1.726   4.362   0.000   6.089
   99        1.727   4.363   0.000   6.089
  100        1.727   4.363   0.000   6.089
  101        1.726   4.361   0.000   6.088
  102        1.726   4.362   0.000   6.088
  103        1.727   4.363   0.000   6.089
  104        1.727   4.363   0.000   6.089
  105        1.733   4.345   0.000   6.078
  106        1.726   4.361   0.000   6.087
  107        1.727   4.358   0.000   6.085
  108        1.727   4.364   0.000   6.091
  109        1.726   4.360   0.000   6.087
  110        1.727   4.363   0.000   6.090
  111        1.727   4.358   0.000   6.085
  112        1.727   4.364   0.000   6.091
  113        1.726   4.359   0.000   6.085
  114        1.726   4.360   0.000   6.087
  115        1.727   4.363   0.000   6.089
  116        1.726   4.362   0.000   6.089
  117        1.726   4.360   0.000   6.087
  118        1.727   4.363   0.000   6.090
  119        1.727   4.363   0.000   6.089
  120        1.726   4.362   0.000   6.089
  121        1.726   4.362   0.000   6.089
  122        1.726   4.360   0.000   6.086
  123        1.727   4.364   0.000   6.091
  124        1.726   4.363   0.000   6.089
  125        1.726   4.362   0.000   6.088
  126        1.726   4.362   0.000   6.088
  127        1.727   4.364   0.000   6.091
  128        1.726   4.363   0.000   6.089
  129        1.727   4.363   0.000   6.090
  130        1.727   4.364   0.000   6.091
  131        1.727   4.362   0.000   6.089
  132        1.727   4.363   0.000   6.089
  133        1.726   4.362   0.000   6.088
  134        1.726   4.362   0.000   6.088
  135        1.727   4.362   0.000   6.089
  136        1.727   4.363   0.000   6.089
  137        1.726   4.361   0.000   6.087
  138        1.726   4.361   0.000   6.087
  139        1.726   4.359   0.000   6.085
  140        1.726   4.358   0.000   6.085
  141        1.726   4.362   0.000   6.088
  142        1.726   4.362   0.000   6.088
  143        1.726   4.359   0.000   6.085
  144        1.726   4.358   0.000   6.085
  145        1.726   4.362   0.000   6.088
  146        1.726   4.361   0.000   6.088
  147        1.726   4.362   0.000   6.088
  148        1.726   4.363   0.000   6.090
  149        1.726   4.362   0.000   6.088
  150        1.726   4.362   0.000   6.088
  151        1.726   4.362   0.000   6.088
  152        1.726   4.363   0.000   6.090
  153        1.727   4.363   0.000   6.090
  154        1.726   4.363   0.000   6.090
  155        1.726   4.362   0.000   6.088
  156        1.727   4.363   0.000   6.089
  157        1.727   4.363   0.000   6.089
  158        1.726   4.361   0.000   6.087
  159        1.726   4.362   0.000   6.088
  160        1.727   4.363   0.000   6.089
  161        1.727   4.363   0.000   6.089
  162        1.726   4.362   0.000   6.088
  163        1.726   4.362   0.000   6.089
  164        1.727   4.364   0.000   6.090
  165        1.727   4.363   0.000   6.089
  166        1.726   4.361   0.000   6.087
  167        1.726   4.362   0.000   6.089
  168        1.727   4.364   0.000   6.090
  169        1.727   4.365   0.000   6.091
  170        1.729   4.359   0.000   6.088
  171        1.726   4.362   0.000   6.088
  172        1.727   4.364   0.000   6.090
  173        1.726   4.360   0.000   6.087
  174        1.726   4.358   0.000   6.084
  175        1.726   4.362   0.000   6.088
  176        1.727   4.364   0.000   6.090
  177        1.726   4.362   0.000   6.088
  178        1.726   4.360   0.000   6.086
  179        1.726   4.361   0.000   6.087
  180        1.726   4.362   0.000   6.088
  181        1.726   4.360   0.000   6.087
  182        1.726   4.358   0.000   6.084
  183        1.726   4.361   0.000   6.087
  184        1.726   4.362   0.000   6.088
  185        1.726   4.364   0.000   6.090
  186        1.727   4.362   0.000   6.089
  187        1.726   4.362   0.000   6.089
  188        1.727   4.362   0.000   6.089
  189        1.726   4.361   0.000   6.088
  190        1.727   4.362   0.000   6.089
  191        1.726   4.362   0.000   6.089
  192        1.727   4.362   0.000   6.089
  193        1.727   4.363   0.000   6.090
  194        1.727   4.363   0.000   6.090
  195        1.726   4.362   0.000   6.089
  196        1.726   4.362   0.000   6.089
  197        1.726   4.361   0.000   6.088
  198        1.727   4.362   0.000   6.089
  199        1.726   4.362   0.000   6.089
  200        1.726   4.362   0.000   6.089
  201        1.727   4.362   0.000   6.088
  202        1.728   4.361   0.000   6.089
  203        1.726   4.354   0.000   6.080
  204        1.731   4.362   0.000   6.093
  205        1.727   4.365   0.000   6.093
  206        1.727   4.361   0.000   6.087
  207        1.726   4.354   0.000   6.080
  208        1.731   4.362   0.000   6.093
  209        1.727   4.362   0.000   6.088
  210        1.727   4.362   0.000   6.089
  211        1.727   4.365   0.000   6.092
  212        1.727   4.362   0.000   6.088
  213        1.727   4.365   0.000   6.093
  214        1.727   4.361   0.000   6.087
  215        1.727   4.365   0.000   6.092
  216        1.727   4.362   0.000   6.088
  217        0.547   0.007   0.000   0.554
--------------------------------------------------
tot        261.2911071.078 356.9651689.334
 


 magnetization (x)
 
# of ion       s       p       d       tot
------------------------------------------
    1        0.019   0.018   4.576   4.612
    2       -0.019  -0.018  -4.536  -4.573
    3        0.018   0.018   4.567   4.603
    4       -0.019  -0.018  -4.536  -4.573
    5        0.017   0.018   4.568   4.603
    6       -0.018  -0.018  -4.570  -4.605
    7        0.018   0.018   4.567   4.603
    8       -0.018  -0.018  -4.570  -4.605
    9        0.018   0.018   4.568   4.603
   10       -0.018  -0.018  -4.568  -4.604
   11        0.018   0.018   4.569   4.604
   12       -0.018  -0.018  -4.568  -4.604
   13        0.018   0.018   4.567   4.603
   14       -0.018  -0.018  -4.567  -4.603
   15        0.018   0.018   4.569   4.604
   16       -0.018  -0.018  -4.567  -4.603
   17        0.019   0.019   4.564   4.602
   18       -0.018  -0.018  -4.568  -4.604
   19        0.018   0.018   4.566   4.602
   20       -0.018  -0.018  -4.568  -4.604
   21        0.018   0.018   4.569   4.604
   22       -0.018  -0.018  -4.568  -4.603
   23        0.018   0.018   4.566   4.602
   24       -0.018  -0.018  -4.568  -4.603
   25        0.018   0.018   4.569   4.604
   26       -0.018  -0.018  -4.567  -4.603
   27        0.018   0.018   4.568   4.603
   28       -0.018  -0.018  -4.567  -4.603
   29        0.018   0.018   4.567   4.602
   30       -0.018  -0.018  -4.568  -4.603
   31        0.018   0.018   4.568   4.603
   32       -0.018  -0.018  -4.568  -4.603
   33        0.018   0.018   4.570   4.606
   34       -0.018  -0.018  -4.570  -4.605
   35        0.018   0.018   4.569   4.604
   36       -0.018  -0.018  -4.570  -4.605
   37        0.018   0.018   4.569   4.604
   38       -0.018  -0.018  -4.568  -4.604
   39        0.018   0.018   4.569   4.604
   40       -0.018  -0.018  -4.568  -4.604
   41        0.018   0.018   4.567   4.603
   42       -0.018  -0.018  -4.569  -4.604
   43        0.018   0.018   4.568   4.604
   44       -0.018  -0.018  -4.569  -4.604
   45        0.018   0.018   4.567   4.602
   46       -0.018  -0.018  -4.568  -4.603
   47        0.018   0.018   4.568   4.604
   48       -0.018  -0.018  -4.568  -4.603
   49        0.018   0.018   4.564   4.599
   50       -0.018  -0.018  -4.570  -4.606
   51        0.018   0.018   4.568   4.603
   52       -0.018  -0.018  -4.570  -4.606
   53        0.018   0.018   4.568   4.604
   54       -0.018  -0.018  -4.566  -4.601
   55        0.018   0.018   4.568   4.603
   56       -0.018  -0.018  -4.566  -4.601
   57        0.018   0.018   4.568   4.603
   58       -0.018  -0.018  -4.568  -4.604
   59        0.018   0.018   4.568   4.603
   60       -0.018  -0.018  -4.568  -4.604
   61        0.018   0.018   4.567   4.603
   62       -0.018  -0.018  -4.568  -4.603
   63        0.018   0.018   4.568   4.603
   64       -0.018  -0.018  -4.568  -4.603
   65        0.015   0.018   4.529   4.562
   66       -0.018  -0.018  -4.569  -4.605
   67        0.018   0.019   4.558   4.594
   68       -0.018  -0.018  -4.569  -4.605
   69        0.017   0.018   4.566   4.601
   70       -0.018  -0.018  -4.567  -4.602
   71        0.018   0.019   4.558   4.594
   72       -0.018  -0.018  -4.567  -4.602
   73       -0.002  -0.024   0.000  -0.026
   74       -0.002  -0.022   0.000  -0.024
   75        0.002   0.030   0.000   0.032
   76        0.002   0.016   0.000   0.018
   77       -0.002  -0.021   0.000  -0.023
   78       -0.002  -0.021   0.000  -0.023
   79        0.002   0.030   0.000   0.032
   80        0.002   0.016   0.000   0.018
   81       -0.002  -0.020   0.000  -0.022
   82       -0.002  -0.020   0.000  -0.022
   83        0.002   0.022   0.000   0.024
   84        0.002   0.017   0.000   0.019
   85       -0.002  -0.021   0.000  -0.023
   86       -0.002  -0.021   0.000  -0.023
   87        0.002   0.022   0.000   0.024
   88        0.002   0.017   0.000   0.019
   89       -0.002  -0.019   0.000  -0.021
   90       -0.002  -0.020   0.000  -0.022
   91        0.002   0.021   0.000   0.023
   92        0.002   0.020   0.000   0.022
   93       -0.002  -0.018   0.000  -0.020
   94       -0.002  -0.019   0.000  -0.022
   95        0.002   0.021   0.000   0.023
   96        0.002   0.020   0.000   0.022
   97       -0.002  -0.018   0.000  -0.021
   98       -0.002  -0.019   0.000  -0.021
   99        0.002   0.020   0.000   0.023
  100        0.002   0.019   0.000   0.022
  101       -0.002  -0.018   0.000  -0.020
  102       -0.002  -0.019   0.000  -0.022
  103        0.002   0.020   0.000   0.023
  104        0.002   0.019   0.000   0.022
  105       -0.002  -0.007   0.000  -0.010
  106       -0.002  -0.023   0.000  -0.025
  107        0.002   0.019   0.000   0.021
  108        0.002   0.019   0.000   0.022
  109       -0.002  -0.014   0.000  -0.016
  110       -0.002  -0.021   0.000  -0.023
  111        0.002   0.019   0.000   0.021
  112        0.002   0.019   0.000   0.022
  113       -0.002  -0.013   0.000  -0.015
  114       -0.002  -0.021   0.000  -0.023
  115        0.002   0.019   0.000   0.021
  116        0.002   0.020   0.000   0.022
  117       -0.002  -0.014   0.000  -0.016
  118       -0.002  -0.021   0.000  -0.023
  119        0.002   0.019   0.000   0.021
  120        0.002   0.020   0.000   0.022
  121       -0.002  -0.021   0.000  -0.023
  122       -0.002  -0.018   0.000  -0.020
  123        0.002   0.021   0.000   0.023
  124        0.002   0.020   0.000   0.022
  125       -0.002  -0.020   0.000  -0.022
  126       -0.002  -0.017   0.000  -0.019
  127        0.002   0.021   0.000   0.023
  128        0.002   0.020   0.000   0.022
  129       -0.002  -0.019   0.000  -0.021
  130       -0.002  -0.018   0.000  -0.020
  131        0.002   0.020   0.000   0.022
  132        0.002   0.019   0.000   0.022
  133       -0.002  -0.020   0.000  -0.022
  134       -0.002  -0.017   0.000  -0.019
  135        0.002   0.020   0.000   0.022
  136        0.002   0.019   0.000   0.022
  137       -0.002  -0.020   0.000  -0.022
  138       -0.002  -0.019   0.000  -0.021
  139        0.002   0.022   0.000   0.024
  140        0.002   0.023   0.000   0.026
  141       -0.002  -0.019   0.000  -0.021
  142       -0.002  -0.020   0.000  -0.022
  143        0.002   0.022   0.000   0.024
  144        0.002   0.023   0.000   0.026
  145       -0.002  -0.019   0.000  -0.022
  146       -0.002  -0.018   0.000  -0.021
  147        0.002   0.019   0.000   0.021
  148        0.002   0.018   0.000   0.021
  149       -0.002  -0.019   0.000  -0.021
  150       -0.002  -0.020   0.000  -0.022
  151        0.002   0.019   0.000   0.021
  152        0.002   0.018   0.000   0.021
  153       -0.002  -0.019   0.000  -0.021
  154       -0.002  -0.020   0.000  -0.022
  155        0.002   0.019   0.000   0.021
  156        0.002   0.022   0.000   0.024
  157       -0.002  -0.019   0.000  -0.021
  158       -0.002  -0.019   0.000  -0.021
  159        0.002   0.019   0.000   0.021
  160        0.002   0.022   0.000   0.024
  161       -0.002  -0.019   0.000  -0.021
  162       -0.002  -0.020   0.000  -0.022
  163        0.002   0.018   0.000   0.021
  164        0.002   0.021   0.000   0.023
  165       -0.002  -0.019   0.000  -0.021
  166       -0.002  -0.019   0.000  -0.021
  167        0.002   0.018   0.000   0.021
  168        0.002   0.021   0.000   0.023
  169       -0.002  -0.022   0.000  -0.024
  170       -0.003  -0.019   0.000  -0.022
  171        0.002   0.020   0.000   0.022
  172        0.002   0.019   0.000   0.021
  173       -0.002  -0.024   0.000  -0.026
  174       -0.002  -0.011   0.000  -0.013
  175        0.002   0.020   0.000   0.022
  176        0.002   0.019   0.000   0.021
  177       -0.002  -0.021   0.000  -0.023
  178       -0.002  -0.015   0.000  -0.017
  179        0.002   0.019   0.000   0.021
  180        0.002   0.018   0.000   0.021
  181       -0.002  -0.024   0.000  -0.026
  182       -0.002  -0.011   0.000  -0.013
  183        0.002   0.019   0.000   0.021
  184        0.002   0.018   0.000   0.021
  185       -0.002  -0.020   0.000  -0.022
  186       -0.002  -0.019   0.000  -0.021
  187        0.002   0.020   0.000   0.022
  188        0.002   0.021   0.000   0.023
  189       -0.002  -0.019   0.000  -0.021
  190       -0.002  -0.018   0.000  -0.021
  191        0.002   0.020   0.000   0.022
  192        0.002   0.021   0.000   0.023
  193       -0.002  -0.019   0.000  -0.022
  194       -0.002  -0.019   0.000  -0.021
  195        0.002   0.019   0.000   0.021
  196        0.002   0.020   0.000   0.022
  197       -0.002  -0.019   0.000  -0.021
  198       -0.002  -0.018   0.000  -0.021
  199        0.002   0.019   0.000   0.021
  200        0.002   0.020   0.000   0.022
  201       -0.002  -0.025   0.000  -0.028
  202       -0.002  -0.024   0.000  -0.026
  203        0.002   0.011   0.000   0.012
  204        0.002   0.025   0.000   0.027
  205       -0.002  -0.023   0.000  -0.025
  206       -0.002  -0.022   0.000  -0.024
  207        0.002   0.011   0.000   0.012
  208        0.002   0.025   0.000   0.027
  209       -0.002  -0.021   0.000  -0.023
  210       -0.002  -0.021   0.000  -0.023
  211        0.002   0.017   0.000   0.019
  212        0.002   0.021   0.000   0.024
  213       -0.002  -0.023   0.000  -0.025
  214       -0.002  -0.022   0.000  -0.024
  215        0.002   0.017   0.000   0.019
  216        0.002   0.021   0.000   0.024
  217        0.001  -0.001   0.000   0.000
--------------------------------------------------
tot         -0.005   0.035  -0.007   0.024
 

 total amount of memory used by VASP MPI-rank0   697375. kBytes
=======================================================================

   base      :      30000. kBytes
   nonl-proj :     102460. kBytes
   fftplans  :      32099. kBytes
   grid      :      29521. kBytes
   one-center:       1150. kBytes
   wavefun   :     502145. kBytes
 
  
  
 General timing and accounting informations for this job:
 ========================================================
  
                  Total CPU time used (sec):     6141.288
                            User time (sec):     6109.997
                          System time (sec):       31.290
                         Elapsed time (sec):     6149.448
  
                   Maximum memory used (kb):      922140.
                   Average memory used (kb):           0.
  
                          Minor page faults:       276720
                          Major page faults:           12
                 Voluntary context switches:          878
