 vasp.5.4.4.18Apr17-6-g9f103f2a35 (build Apr 27 2017 11:13:10) complex          
  
 executed on           IFC91_ompi date 2020.05.13  10:13:14
 running on   12 total cores
 distrk:  each k-point on   12 cores,    1 groups
 distr:  one band on NCORES_PER_BAND=   1 cores,   12 groups


--------------------------------------------------------------------------------------------------------


 INCAR:
 POTCAR:    PAW_PBE Mn_pv 02Aug2007               
 POTCAR:    PAW_PBE F 08Apr2002                   

 ----------------------------------------------------------------------------- 
|                                                                             |
|           W    W    AA    RRRRR   N    N  II  N    N   GGGG   !!!           |
|           W    W   A  A   R    R  NN   N  II  NN   N  G    G  !!!           |
|           W    W  A    A  R    R  N N  N  II  N N  N  G       !!!           |
|           W WW W  AAAAAA  RRRRR   N  N N  II  N  N N  G  GGG   !            |
|           WW  WW  A    A  R   R   N   NN  II  N   NN  G    G                |
|           W    W  A    A  R    R  N    N  II  N    N   GGGG   !!!           |
|                                                                             |
|      For optimal performance we recommend to set                            |
|        NCORE= 4 - approx SQRT( number of cores)                             |
|      NCORE specifies how many cores store one orbital (NPAR=cpu/NCORE).     |
|      This setting can  greatly improve the performance of VASP for DFT.     |
|      The default,   NCORE=1            might be grossly inefficient         |
|      on modern multi-core architectures or massively parallel machines.     |
|      Do your own testing !!!!                                               |
|      Unfortunately you need to use the default for GW and RPA calculations. |
|      (for HF NCORE is supported but not extensively tested yet)             |
|                                                                             |
 ----------------------------------------------------------------------------- 

 POTCAR:    PAW_PBE Mn_pv 02Aug2007               
   VRHFIN =Mn: 3p4s3d                                                           
   LEXCH  = PE                                                                  
   EATOM  =  2025.2664 eV,  148.8529 Ry                                         
                                                                                
   TITEL  = PAW_PBE Mn_pv 02Aug2007                                             
   LULTRA =        F    use ultrasoft PP ?                                      
   IUNSCR =        1    unscreen: 0-lin 1-nonlin 2-no                           
   RPACOR =    2.080    partial core radius                                     
   POMASS =   54.938; ZVAL   =   13.000    mass and valenz                      
   RCORE  =    2.300    outmost cutoff radius                                   
   RWIGS  =    2.500; RWIGS  =    1.323    wigner-seitz radius (au A)           
   ENMAX  =  269.864; ENMIN  =  202.398 eV                                      
   ICORE  =        3    local potential                                         
   LCOR   =        T    correct aug charges                                     
   LPAW   =        T    paw PP                                                  
   EAUG   =  569.085                                                            
   DEXC   =    0.000                                                            
   RMAX   =    2.343    core radius for proj-oper                               
   RAUG   =    1.300    factor for augmentation sphere                          
   RDEP   =    2.338    radius for radial grids                                 
   RDEPT  =    1.798    core radius for aug-charge                              
                                                                                
   Atomic configuration                                                         
    8 entries                                                                   
     n  l   j            E        occ.                                          
     1  0  0.50     -6424.8287   2.0000                                         
     2  0  0.50      -739.1154   2.0000                                         
     2  1  1.50      -625.3949   6.0000                                         
     3  0  0.50       -81.6100   2.0000                                         
     3  1  1.50       -50.4667   6.0000                                         
     3  2  2.50        -3.3745   6.0000                                         
     4  0  0.50        -4.1331   1.0000                                         
     4  3  2.50        -1.3606   0.0000                                         
   Description                                                                  
     l       E           TYP  RCUT    TYP  RCUT                                 
     1    -50.4666628     23  2.000                                             
     1     -1.3605826     23  2.000                                             
     2     -3.3744729     23  2.300                                             
     2     -4.7350555     23  2.300                                             
     0     -4.1331431     23  2.300                                             
     0      7.6656591     23  2.300                                             
     3      9.5240782     23  2.300                                             
  local pseudopotential read in
  partial core-charges read in
  partial kinetic energy density read in
  atomic valenz-charges read in
  non local Contribution for L=           1  read in
    real space projection operators read in
  non local Contribution for L=           1  read in
    real space projection operators read in
  non local Contribution for L=           2  read in
    real space projection operators read in
  non local Contribution for L=           2  read in
    real space projection operators read in
  non local Contribution for L=           0  read in
    real space projection operators read in
  non local Contribution for L=           0  read in
    real space projection operators read in
    PAW grid and wavefunctions read in
 
   number of l-projection  operators is LMAX  =           6
   number of lm-projection operators is LMMAX =          18
 
 POTCAR:    PAW_PBE F 08Apr2002                   
   VRHFIN =F: s2p5                                                              
   LEXCH  = PE                                                                  
   EATOM  =   659.6475 eV,   48.4827 Ry                                         
                                                                                
   TITEL  = PAW_PBE F 08Apr2002                                                 
   LULTRA =        F    use ultrasoft PP ?                                      
   IUNSCR =        1    unscreen: 0-lin 1-nonlin 2-no                           
   RPACOR =    1.200    partial core radius                                     
   POMASS =   18.998; ZVAL   =    7.000    mass and valenz                      
   RCORE  =    1.520    outmost cutoff radius                                   
   RWIGS  =    1.500; RWIGS  =    0.794    wigner-seitz radius (au A)           
   ENMAX  =  400.000; ENMIN  =  300.000 eV                                      
   ICORE  =        2    local potential                                         
   LCOR   =        T    correct aug charges                                     
   LPAW   =        T    paw PP                                                  
   EAUG   =  613.614                                                            
   RMAX   =    1.555    core radius for proj-oper                               
   RAUG   =    1.300    factor for augmentation sphere                          
   RDEP   =    1.539    radius for radial grids                                 
   RDEPT  =    1.299    core radius for aug-charge                              
                                                                                
   Atomic configuration                                                         
    4 entries                                                                   
     n  l   j            E        occ.                                          
     1  0  0.50      -663.3661   2.0000                                         
     2  0  0.50       -29.8995   2.0000                                         
     2  1  0.50       -11.1114   5.0000                                         
     3  2  1.50       -10.8847   0.0000                                         
   Description                                                                  
     l       E           TYP  RCUT    TYP  RCUT                                 
     0    -29.8995018     23  1.200                                             
     0     -9.5240782     23  1.200                                             
     1    -11.1113914     23  1.520                                             
     1      1.3605826     23  1.520                                             
     2    -10.8846608      7  1.500                                             
  local pseudopotential read in
  partial core-charges read in
  partial kinetic energy density read in
  atomic valenz-charges read in
  non local Contribution for L=           0  read in
    real space projection operators read in
  non local Contribution for L=           0  read in
    real space projection operators read in
  non local Contribution for L=           1  read in
    real space projection operators read in
  non local Contribution for L=           1  read in
    real space projection operators read in
    PAW grid and wavefunctions read in
 
   number of l-projection  operators is LMAX  =           4
   number of lm-projection operators is LMMAX =           8
 

 ----------------------------------------------------------------------------- 
|                                                                             |
|  ADVICE TO THIS USER RUNNING 'VASP/VAMP'   (HEAR YOUR MASTER'S VOICE ...):  |
|                                                                             |
|      You enforced a specific xc-type in the INCAR file,                     |
|      a different type was found on the POTCAR file                          |
|          I HOPE YOU KNOW, WHAT YOU ARE  DOING                               |
|                                                                             |
 ----------------------------------------------------------------------------- 

  PAW_PBE Mn_pv 02Aug2007               :
 energy of atom  1       EATOM=-2025.2664
 kinetic energy error for atom=    0.0047 (will be added to EATOM!!)
  PAW_PBE F 08Apr2002                   :
 energy of atom  2       EATOM= -659.6475
 kinetic energy error for atom=    0.0256 (will be added to EATOM!!)
 
 
 POSCAR: Mn  F                                   
  positions in cartesian coordinates
  No initial velocities read in
 exchange correlation table for  LEXCH =       14
   RHO(1)=    0.500       N(1)  =     2000
   RHO(2)=  100.500       N(2)  =     4000
 


--------------------------------------------------------------------------------------------------------


 ion  position               nearest neighbor table
   1  0.500  0.500  0.500-   3 2.09   4 2.09   5 2.13   6 2.13   5 2.13   6 2.13
   2  0.000  0.000  0.000-   5 2.09   6 2.09   3 2.13   4 2.13   3 2.13   4 2.13
   3  0.196  0.804  0.500-   1 2.09   2 2.13   2 2.13
   4  0.804  0.196  0.500-   1 2.09   2 2.13   2 2.13
   5  0.304  0.304  0.000-   2 2.09   1 2.13   1 2.13
   6  0.696  0.696  0.000-   2 2.09   1 2.13   1 2.13
 
  LATTYP: Found a simple tetragonal cell.
 ALAT       =     4.8700288782
 C/A-ratio  =     0.6755847449
  
  Lattice vectors:
  
 A1 = (   4.8700288782,   0.0000000000,   0.0000000000)
 A2 = (   0.0000000000,   4.8700288782,   0.0000000000)
 A3 = (   0.0000000000,   0.0000000000,   3.2901172172)


Analysis of symmetry for initial positions (statically):
=====================================================================
 Subroutine PRICEL returns:
 Original cell was already a primitive cell.
 

 Routine SETGRP: Setting up the symmetry group for a 
 simple tetragonal supercell.


 Subroutine GETGRP returns: Found 16 space group operations
 (whereof  8 operations were pure point group operations)
 out of a pool of 16 trial point group operations.


The static configuration has the point symmetry D_2h.
 The point group associated with its full space group is D_4h.


Analysis of symmetry for dynamics (positions and initial velocities):
=====================================================================
 Subroutine PRICEL returns:
 Original cell was already a primitive cell.
 

 Routine SETGRP: Setting up the symmetry group for a 
 simple tetragonal supercell.


 Subroutine GETGRP returns: Found 16 space group operations
 (whereof  8 operations were pure point group operations)
 out of a pool of 16 trial point group operations.


The dynamic configuration has the point symmetry D_2h.
 The point group associated with its full space group is D_4h.


Analysis of structural, dynamic, and magnetic symmetry:
=====================================================================
 Subroutine PRICEL returns:
 Original cell was already a primitive cell.
 

 Routine SETGRP: Setting up the symmetry group for a 
 simple tetragonal supercell.


 Subroutine GETGRP returns: Found 16 space group operations
 (whereof  8 operations were pure point group operations)
 out of a pool of 16 trial point group operations.


The magnetic configuration has the point symmetry D_2h.
 The point group associated with its full space group is D_4h.


 Subroutine INISYM returns: Found 16 space group operations
 (whereof  8 operations are pure point group operations),
 and found     1 'primitive' translations

 
 
 KPOINTS: KPOINTS created by Atomic Simulation Env

Automatic generation of k-mesh.
Space group operators:
 irot       det(A)        alpha          n_x          n_y          n_z        tau_x        tau_y        tau_z
    1     1.000000     0.000000     1.000000     0.000000     0.000000     0.000000     0.000000     0.000000
    2    -1.000000     0.000000     1.000000     0.000000     0.000000     0.000000     0.000000     0.000000
    3     1.000000   180.000000     0.000000     0.000000     1.000000     0.000000     0.000000     0.000000
    4    -1.000000   180.000000     0.000000     0.000000     1.000000     0.000000     0.000000     0.000000
    5     1.000000   180.000000     0.707107     0.707107     0.000000     0.000000     0.000000     0.000000
    6    -1.000000   180.000000     0.707107     0.707107     0.000000     0.000000     0.000000     0.000000
    7     1.000000   180.000000     0.707107    -0.707107     0.000000     0.000000     0.000000     0.000000
    8    -1.000000   180.000000     0.707107    -0.707107     0.000000     0.000000     0.000000     0.000000
    9     1.000000    90.000000     0.000000     0.000000    -1.000000     0.500000     0.500000     0.500000
   10    -1.000000    90.000000     0.000000     0.000000    -1.000000     0.500000     0.500000     0.500000
   11     1.000000    90.000000     0.000000     0.000000     1.000000     0.500000     0.500000     0.500000
   12    -1.000000    90.000000     0.000000     0.000000     1.000000     0.500000     0.500000     0.500000
   13     1.000000   180.000000     0.000000     1.000000     0.000000     0.500000     0.500000     0.500000
   14    -1.000000   180.000000     0.000000     1.000000     0.000000     0.500000     0.500000     0.500000
   15     1.000000   180.000000     1.000000     0.000000     0.000000     0.500000     0.500000     0.500000
   16    -1.000000   180.000000     1.000000     0.000000     0.000000     0.500000     0.500000     0.500000
 
 Subroutine IBZKPT returns following result:
 ===========================================
 
 Found      9 irreducible k-points:
 
 Following reciprocal coordinates:
            Coordinates               Weight
  0.125000  0.125000  0.083333      8.000000
  0.375000  0.125000  0.083333     16.000000
  0.375000  0.375000  0.083333      8.000000
  0.125000  0.125000  0.250000      8.000000
  0.375000  0.125000  0.250000     16.000000
  0.375000  0.375000  0.250000      8.000000
  0.125000  0.125000  0.416667      8.000000
  0.375000  0.125000  0.416667     16.000000
  0.375000  0.375000  0.416667      8.000000
 
 Following cartesian coordinates:
            Coordinates               Weight
  0.025667  0.025667  0.025328      8.000000
  0.077002  0.025667  0.025328     16.000000
  0.077002  0.077002  0.025328      8.000000
  0.025667  0.025667  0.075985      8.000000
  0.077002  0.025667  0.075985     16.000000
  0.077002  0.077002  0.075985      8.000000
  0.025667  0.025667  0.126642      8.000000
  0.077002  0.025667  0.126642     16.000000
  0.077002  0.077002  0.126642      8.000000
 
 TETIRR: Found    106 inequivalent tetrahedra from      576


--------------------------------------------------------------------------------------------------------




 Dimension of arrays:
   k-points           NKPTS =      9   k-points in BZ     NKDIM =      9   number of bands    NBANDS=     36
   number of dos      NEDOS =    301   number of ions     NIONS =      6
   non local maximal  LDIM  =      6   non local SUM 2l+1 LMDIM =     18
   total plane-waves  NPLWV =  18000
   max r-space proj   IRMAX =      1   max aug-charges    IRDMAX=  56187
   dimension x,y,z NGX =    30 NGY =   30 NGZ =   20
   dimension x,y,z NGXF=    60 NGYF=   60 NGZF=   40
   support grid    NGXF=   120 NGYF=  120 NGZF=   80
   ions per type =               2   4
   NGX,Y,Z   is equivalent  to a cutoff of  10.24, 10.24, 10.11 a.u.
   NGXF,Y,Z  is equivalent  to a cutoff of  20.48, 20.48, 20.21 a.u.

 SYSTEM =  unknown system                          
 POSCAR =  Mn  F                                   

 Startparameter for this run:
   NWRITE =      2    write-flag & timer
   PREC   = normal    normal or accurate (medium, high low for compatibility)
   ISTART =      0    job   : 0-new  1-cont  2-samecut
   ICHARG =      2    charge: 1-file 2-atom 10-const
   ISPIN  =      2    spin polarized calculation?
   LNONCOLLINEAR =      F non collinear calculations
   LSORBIT =      F    spin-orbit coupling
   INIWAV =      1    electr: 0-lowe 1-rand  2-diag
   LASPH  =      T    aspherical Exc in radial PAW
   METAGGA=      F    non-selfconsistent MetaGGA calc.

 Electronic Relaxation 1
   ENCUT  =  600.0 eV  44.10 Ry    6.64 a.u.   9.73  9.73  6.57*2*pi/ulx,y,z
   ENINI  =  600.0     initial cutoff
   ENAUG  =  613.6 eV  augmentation charge cutoff
   NELM   =     60;   NELMIN=  2; NELMDL= -5     # of ELM steps 
   EDIFF  = 0.1E-05   stopping-criterion for ELM
   LREAL  =      F    real-space projection
   NLSPLINE    = F    spline interpolate recip. space projectors
   LCOMPAT=      F    compatible to vasp.4.4
   GGA_COMPAT  = T    GGA compatible to vasp.4.4-vasp.4.6
   LMAXPAW     = -100 max onsite density
   LMAXMIX     =    4 max onsite mixed and CHGCAR
   VOSKOWN=      0    Vosko Wilk Nusair interpolation
   ROPT   =    0.00000   0.00000
 Ionic relaxation
   EDIFFG = 0.1E-04   stopping-criterion for IOM
   NSW    =      0    number of steps for IOM
   NBLOCK =      1;   KBLOCK =      1    inner block; outer block 
   IBRION =     -1    ionic relax: 0-MD 1-quasi-New 2-CG
   NFREE  =      0    steps in history (QN), initial steepest desc. (CG)
   ISIF   =      2    stress and relaxation
   IWAVPR =     10    prediction:  0-non 1-charg 2-wave 3-comb
   ISYM   =      2    0-nonsym 1-usesym 2-fastsym
   LCORR  =      T    Harris-Foulkes like correction to forces

   POTIM  = 0.5000    time-step for ionic-motion
   TEIN   =    0.0    initial temperature
   TEBEG  =    0.0;   TEEND  =   0.0 temperature during run
   SMASS  =  -3.00    Nose mass-parameter (am)
   estimated Nose-frequenzy (Omega)   =  0.10E-29 period in steps =****** mass=  -0.542E-27a.u.
   SCALEE = 1.0000    scale energy and forces
   NPACO  =    256;   APACO  = 16.0  distance and # of slots for P.C.
   PSTRESS=    0.0 pullay stress

  Mass of Ions in am
   POMASS =  54.94 19.00
  Ionic Valenz
   ZVAL   =  13.00  7.00
  Atomic Wigner-Seitz radii
   RWIGS  =  -1.00 -1.00
  virtual crystal weights 
   VCA    =   1.00  1.00
   NELECT =      54.0000    total number of electrons
   NUPDOWN=      -1.0000    fix difference up-down

 DOS related values:
   EMIN   =  10.00;   EMAX   =-10.00  energy-range for DOS
   EFERMI =   0.00
   ISMEAR =    -5;   SIGMA  =   0.20  broadening in eV -4-tet -1-fermi 0-gaus

 Electronic relaxation 2 (details)
   IALGO  =     38    algorithm
   LDIAG  =      T    sub-space diagonalisation (order eigenvalues)
   LSUBROT=      F    optimize rotation matrix (better conditioning)
   TURBO    =      0    0=normal 1=particle mesh
   IRESTART =      0    0=no restart 2=restart with 2 vectors
   NREBOOT  =      0    no. of reboots
   NMIN     =      0    reboot dimension
   EREF     =   0.00    reference energy to select bands
   IMIX   =      4    mixing-type and parameters
     AMIX     =   0.40;   BMIX     =  1.00
     AMIX_MAG =   1.60;   BMIX_MAG =  1.00
     AMIN     =   0.10
     WC   =   100.;   INIMIX=   1;  MIXPRE=   1;  MAXMIX= -45

 Intra band minimization:
   WEIMIN = 0.0000     energy-eigenvalue tresh-hold
   EBREAK =  0.69E-08  absolut break condition
   DEPER  =   0.30     relativ break condition  

   TIME   =   0.40     timestep for ELM

  volume/ion in A,a.u.               =      13.01        87.76
  Fermi-wavevector in a.u.,A,eV,Ry     =   1.448042  2.736403 28.529059  2.096827
  Thomas-Fermi vector in A             =   2.565928
 
 Write flags
   LWAVE        =      T    write WAVECAR
   LDOWNSAMPLE  =      F    k-point downsampling of WAVECAR
   LCHARG       =      T    write CHGCAR
   LVTOT        =      F    write LOCPOT, total local potential
   LVHAR        =      F    write LOCPOT, Hartree potential only
   LELF         =      F    write electronic localiz. function (ELF)
   LORBIT       =     11    0 simple, 1 ext, 2 COOP (PROOUT), +10 PAW based schemes


 Dipole corrections
   LMONO  =      F    monopole corrections only (constant potential shift)
   LDIPOL =      F    correct potential (dipole corrections)
   IDIPOL =      0    1-x, 2-y, 3-z, 4-all directions 
   EPSILON=  1.0000000 bulk dielectric constant

 LDA+U is selected, type is set to LDAUTYPE =  2
   angular momentum for each species LDAUL =     2   -1
   U (eV)           for each species LDAUU =   2.0  0.0
   J (eV)           for each species LDAUJ =   0.0  0.0
 Exchange correlation treatment:
   GGA     =    PS    GGA type
   LEXCH   =    14    internal setting for exchange type
   VOSKOWN=      0    Vosko Wilk Nusair interpolation
   LHFCALC =     F    Hartree Fock is set to
   LHFONE  =     F    Hartree Fock one center treatment
   AEXX    =    0.0000 exact exchange contribution

 Linear response parameters
   LEPSILON=     F    determine dielectric tensor
   LRPA    =     F    only Hartree local field effects (RPA)
   LNABLA  =     F    use nabla operator in PAW spheres
   LVEL    =     F    velocity operator in full k-point grid
   LINTERFAST=   F  fast interpolation
   KINTER  =     0    interpolate to denser k-point grid
   CSHIFT  =0.1000    complex shift for real part using Kramers Kronig
   OMEGAMAX=  -1.0    maximum frequency
   DEG_THRESHOLD= 0.2000000E-02 threshold for treating states as degnerate
   RTIME   =   -0.100 relaxation time in fs
  (WPLASMAI=    0.000 imaginary part of plasma frequency in eV, 0.658/RTIME)
   DFIELD  = 0.0000000 0.0000000 0.0000000 field for delta impulse in time
 
 Orbital magnetization related:
   ORBITALMAG=     F  switch on orbital magnetization
   LCHIMAG   =     F  perturbation theory with respect to B field
   DQ        =  0.001000  dq finite difference perturbation B field
   LLRAUG    =     F  two centre corrections for induced B field



--------------------------------------------------------------------------------------------------------


 Static calculation
 charge density and potential will be updated during run
 spin polarized calculation
 Variant of blocked Davidson
 Davidson routine will perform the subspace rotation
 perform sub-space diagonalisation
    after iterative eigenvector-optimisation
 modified Broyden-mixing scheme, WC =      100.0
 initial mixing is a Kerker type mixing with AMIX =  0.4000 and BMIX =      1.0000
 Hartree-type preconditioning will be used
 using additional bands            9
 reciprocal scheme for non local part
 use partial core corrections
 calculate Harris-corrections to forces 
   (improved forces if not selfconsistent)
 use gradient corrections 
 use of overlap-Matrix (Vanderbilt PP)
 Fermi weights with tetrahedron method with Bloechl corrections


--------------------------------------------------------------------------------------------------------


  energy-cutoff  :      600.00
  volume of cell :       78.03
      direct lattice vectors                 reciprocal lattice vectors
     4.870028878  0.000000000  0.000000000     0.205337591  0.000000000  0.000000000
     0.000000000  4.870028878  0.000000000     0.000000000  0.205337591  0.000000000
     0.000000000  0.000000000  3.290117217     0.000000000  0.000000000  0.303940539

  length of vectors
     4.870028878  4.870028878  3.290117217     0.205337591  0.205337591  0.303940539


 
 k-points in units of 2pi/SCALE and weight: KPOINTS created by Atomic Simulation Env
   0.02566720  0.02566720  0.02532838       0.083
   0.07700160  0.02566720  0.02532838       0.167
   0.07700160  0.07700160  0.02532838       0.083
   0.02566720  0.02566720  0.07598513       0.083
   0.07700160  0.02566720  0.07598513       0.167
   0.07700160  0.07700160  0.07598513       0.083
   0.02566720  0.02566720  0.12664189       0.083
   0.07700160  0.02566720  0.12664189       0.167
   0.07700160  0.07700160  0.12664189       0.083
 
 k-points in reciprocal lattice and weights: KPOINTS created by Atomic Simulation Env
   0.12500000  0.12500000  0.08333333       0.083
   0.37500000  0.12500000  0.08333333       0.167
   0.37500000  0.37500000  0.08333333       0.083
   0.12500000  0.12500000  0.25000000       0.083
   0.37500000  0.12500000  0.25000000       0.167
   0.37500000  0.37500000  0.25000000       0.083
   0.12500000  0.12500000  0.41666667       0.083
   0.37500000  0.12500000  0.41666667       0.167
   0.37500000  0.37500000  0.41666667       0.083
 
 position of ions in fractional coordinates (direct lattice) 
   0.50000000  0.50000000  0.50000000
   0.00000000  0.00000000  0.00000000
   0.19594878  0.80405122  0.50000000
   0.80405122  0.19594878  0.50000000
   0.30405122  0.30405122  0.00000000
   0.69594878  0.69594878  0.00000000
 
 position of ions in cartesian coordinates  (Angst):
   2.43501444  2.43501444  1.64505861
   0.00000000  0.00000000  0.00000000
   0.95427624  3.91575264  1.64505861
   3.91575264  0.95427624  1.64505861
   1.48073820  1.48073820  0.00000000
   3.38929068  3.38929068  0.00000000
 


--------------------------------------------------------------------------------------------------------


 k-point  1 :   0.1250 0.1250 0.0833  plane waves:    2608
 k-point  2 :   0.3750 0.1250 0.0833  plane waves:    2618
 k-point  3 :   0.3750 0.3750 0.0833  plane waves:    2602
 k-point  4 :   0.1250 0.1250 0.2500  plane waves:    2603
 k-point  5 :   0.3750 0.1250 0.2500  plane waves:    2598
 k-point  6 :   0.3750 0.3750 0.2500  plane waves:    2613
 k-point  7 :   0.1250 0.1250 0.4167  plane waves:    2602
 k-point  8 :   0.3750 0.1250 0.4167  plane waves:    2600
 k-point  9 :   0.3750 0.3750 0.4167  plane waves:    2592

 maximum and minimum number of plane-waves per node :      2618     2592

 maximum number of plane-waves:      2618
 maximum index in each direction: 
   IXMAX=    9   IYMAX=    9   IZMAX=    6
   IXMIN=  -10   IYMIN=  -10   IZMIN=   -6


 serial   3D FFT for wavefunctions
 parallel 3D FFT for charge:
    minimum data exchange during FFTs selected (reduces bandwidth)


 total amount of memory used by VASP MPI-rank0    43924. kBytes
=======================================================================

   base      :      30000. kBytes
   nonl-proj :       7064. kBytes
   fftplans  :       1875. kBytes
   grid      :       2467. kBytes
   one-center:        186. kBytes
   wavefun   :       2332. kBytes
 
     INWAV:  cpu time    0.0000: real time    0.0000
 Broyden mixing: mesh for mixing (old mesh)
   NGX = 19   NGY = 19   NGZ = 13
  (NGX  = 60   NGY  = 60   NGZ  = 40)
  gives a total of   4693 points

 initial charge density was supplied:
 charge density of overlapping atoms calculated
 number of electron      54.0000000 magnetization       0.0000000
 keeping initial charge density in first step


--------------------------------------------------------------------------------------------------------


 Maximum index for augmentation-charges         4295 (set IRDMAX)


--------------------------------------------------------------------------------------------------------


 First call to EWALD:  gamma=   0.415
 Maximum number of real-space cells 2x 2x 3
 Maximum number of reciprocal cells 3x 3x 2

    FEWALD:  cpu time    0.0010: real time    0.0010


--------------------------------------- Iteration      1(   1)  ---------------------------------------


    POTLOK:  cpu time    0.0175: real time    0.0175
    SETDIJ:  cpu time    0.6769: real time    0.6769
atom =   1  type =  1  l = 2
 
 onsite density matrix
 
spin component  1
 
  0.2835  0.0000  0.0000  0.0000  0.0000
  0.0000  0.2835  0.0000  0.0000  0.0000
  0.0000  0.0000  0.2835  0.0000  0.0000
  0.0000  0.0000  0.0000  0.2835  0.0000
  0.0000  0.0000  0.0000  0.0000  0.2835
 
spin component  2
 
  0.7694  0.0000  0.0000  0.0000  0.0000
  0.0000  0.7694  0.0000  0.0000  0.0000
  0.0000  0.0000  0.7694  0.0000  0.0000
  0.0000  0.0000  0.0000  0.7694  0.0000
  0.0000  0.0000  0.0000  0.0000  0.7694
 
 occupancies and eigenvectors
 
  o =  0.2835  v =  1.0000  0.0000  0.0000  0.0000  0.0000  0.0000  0.0000  0.0000  0.0000  0.0000      0.0000  0.0000  0.0000  0.0000  0.0000  0.0000  0.0000  0.0000  0.0000  0.0000
  o =  0.2835  v =  0.0000  1.0000  0.0000  0.0000  0.0000  0.0000  0.0000  0.0000  0.0000  0.0000      0.0000  0.0000  0.0000  0.0000  0.0000  0.0000  0.0000  0.0000  0.0000  0.0000
  o =  0.2835  v =  0.0000  0.0000  1.0000  0.0000  0.0000  0.0000  0.0000  0.0000  0.0000  0.0000      0.0000  0.0000  0.0000  0.0000  0.0000  0.0000  0.0000  0.0000  0.0000  0.0000
  o =  0.2835  v =  0.0000  0.0000  0.0000  1.0000  0.0000  0.0000  0.0000  0.0000  0.0000  0.0000      0.0000  0.0000  0.0000  0.0000  0.0000  0.0000  0.0000  0.0000  0.0000  0.0000
  o =  0.2835  v =  0.0000  0.0000  0.0000  0.0000  1.0000  0.0000  0.0000  0.0000  0.0000  0.0000      0.0000  0.0000  0.0000  0.0000  0.0000  0.0000  0.0000  0.0000  0.0000  0.0000
  o =  0.7694  v =  0.0000  0.0000  0.0000  0.0000  0.0000  1.0000  0.0000  0.0000  0.0000  0.0000      0.0000  0.0000  0.0000  0.0000  0.0000  0.0000  0.0000  0.0000  0.0000  0.0000
  o =  0.7694  v =  0.0000  0.0000  0.0000  0.0000  0.0000  0.0000  1.0000  0.0000  0.0000  0.0000      0.0000  0.0000  0.0000  0.0000  0.0000  0.0000  0.0000  0.0000  0.0000  0.0000
  o =  0.7694  v =  0.0000  0.0000  0.0000  0.0000  0.0000  0.0000  0.0000  1.0000  0.0000  0.0000      0.0000  0.0000  0.0000  0.0000  0.0000  0.0000  0.0000  0.0000  0.0000  0.0000
  o =  0.7694  v =  0.0000  0.0000  0.0000  0.0000  0.0000  0.0000  0.0000  0.0000  1.0000  0.0000      0.0000  0.0000  0.0000  0.0000  0.0000  0.0000  0.0000  0.0000  0.0000  0.0000
  o =  0.7694  v =  0.0000  0.0000  0.0000  0.0000  0.0000  0.0000  0.0000  0.0000  0.0000  1.0000      0.0000  0.0000  0.0000  0.0000  0.0000  0.0000  0.0000  0.0000  0.0000  0.0000
atom =   2  type =  1  l = 2
 
 onsite density matrix
 
spin component  1
 
  0.7694  0.0000  0.0000  0.0000  0.0000
  0.0000  0.7694  0.0000  0.0000  0.0000
  0.0000  0.0000  0.7694  0.0000  0.0000
  0.0000  0.0000  0.0000  0.7694  0.0000
  0.0000  0.0000  0.0000  0.0000  0.7694
 
spin component  2
 
  0.2835  0.0000  0.0000  0.0000  0.0000
  0.0000  0.2835  0.0000  0.0000  0.0000
  0.0000  0.0000  0.2835  0.0000  0.0000
  0.0000  0.0000  0.0000  0.2835  0.0000
  0.0000  0.0000  0.0000  0.0000  0.2835
 
 occupancies and eigenvectors
 
  o =  0.2835  v =  0.0000  0.0000  0.0000  0.0000  0.0000  1.0000  0.0000  0.0000  0.0000  0.0000      0.0000  0.0000  0.0000  0.0000  0.0000  0.0000  0.0000  0.0000  0.0000  0.0000
  o =  0.2835  v =  0.0000  0.0000  0.0000  0.0000  0.0000  0.0000  1.0000  0.0000  0.0000  0.0000      0.0000  0.0000  0.0000  0.0000  0.0000  0.0000  0.0000  0.0000  0.0000  0.0000
  o =  0.2835  v =  0.0000  0.0000  0.0000  0.0000  0.0000  0.0000  0.0000  1.0000  0.0000  0.0000      0.0000  0.0000  0.0000  0.0000  0.0000  0.0000  0.0000  0.0000  0.0000  0.0000
  o =  0.2835  v =  0.0000  0.0000  0.0000  0.0000  0.0000  0.0000  0.0000  0.0000  1.0000  0.0000      0.0000  0.0000  0.0000  0.0000  0.0000  0.0000  0.0000  0.0000  0.0000  0.0000
  o =  0.2835  v =  0.0000  0.0000  0.0000  0.0000  0.0000  0.0000  0.0000  0.0000  0.0000  1.0000      0.0000  0.0000  0.0000  0.0000  0.0000  0.0000  0.0000  0.0000  0.0000  0.0000
  o =  0.7694  v =  1.0000  0.0000  0.0000  0.0000  0.0000  0.0000  0.0000  0.0000  0.0000  0.0000      0.0000  0.0000  0.0000  0.0000  0.0000  0.0000  0.0000  0.0000  0.0000  0.0000
  o =  0.7694  v =  0.0000  1.0000  0.0000  0.0000  0.0000  0.0000  0.0000  0.0000  0.0000  0.0000      0.0000  0.0000  0.0000  0.0000  0.0000  0.0000  0.0000  0.0000  0.0000  0.0000
  o =  0.7694  v =  0.0000  0.0000  1.0000  0.0000  0.0000  0.0000  0.0000  0.0000  0.0000  0.0000      0.0000  0.0000  0.0000  0.0000  0.0000  0.0000  0.0000  0.0000  0.0000  0.0000
  o =  0.7694  v =  0.0000  0.0000  0.0000  1.0000  0.0000  0.0000  0.0000  0.0000  0.0000  0.0000      0.0000  0.0000  0.0000  0.0000  0.0000  0.0000  0.0000  0.0000  0.0000  0.0000
  o =  0.7694  v =  0.0000  0.0000  0.0000  0.0000  1.0000  0.0000  0.0000  0.0000  0.0000  0.0000      0.0000  0.0000  0.0000  0.0000  0.0000  0.0000  0.0000  0.0000  0.0000  0.0000
     EDDAV:  cpu time    0.3426: real time    0.3606
 BZINTS: Fermi energy: 18.266565; 54.000000 electrons
         Band energy: -49.690826;  BLOECHL correction: -0.034657
       DOS:  cpu time    0.0101: real time    0.0101
    --------------------------------------------
      LOOP:  cpu time    1.0471: real time    1.0651

 eigenvalue-minimisations  :  1296
 total energy-change (2. order) : 0.6767029E+03  (-0.3410781E+04)
 number of electron      54.0000000 magnetization       0.0000000
 augmentation part       54.0000000 magnetization       0.0000000

 Free energy of the ion-electron system (eV)
  ---------------------------------------------------
  alpha Z        PSCENC =       197.83455644
  Ewald energy   TEWEN  =     -4190.82401748
  -Hartree energ DENC   =     -2138.55489456
  -exchange      EXHF   =         0.00000000
  -V(xc)+E(xc)   XCENC  =       293.34406674
  PAW double counting   =      5439.83165491    -5552.88620675
  entropy T*S    EENTRO =         0.00000000
  eigenvalues    EBANDS =       -49.69082592
  atomic energy  EATOM  =      6677.64854832
  Solvation  Ediel_sol  =         0.00000000
  ---------------------------------------------------
  free energy    TOTEN  =       676.70288169 eV

  energy without entropy =      676.70288169  energy(sigma->0) =      676.70288169


--------------------------------------------------------------------------------------------------------




--------------------------------------- Iteration      1(   2)  ---------------------------------------


     EDDAV:  cpu time    0.3778: real time    0.3778
 BZINTS: Fermi energy:  4.358970; 54.000000 electrons
         Band energy:-719.022047;  BLOECHL correction:  0.000000
       DOS:  cpu time    0.0018: real time    0.0018
    --------------------------------------------
      LOOP:  cpu time    0.3796: real time    0.3796

 eigenvalue-minimisations  :  1488
 total energy-change (2. order) :-0.6693312E+03  (-0.6486505E+03)
 number of electron      54.0000000 magnetization       0.0000000
 augmentation part       54.0000000 magnetization       0.0000000

 Free energy of the ion-electron system (eV)
  ---------------------------------------------------
  alpha Z        PSCENC =       197.83455644
  Ewald energy   TEWEN  =     -4190.82401748
  -Hartree energ DENC   =     -2138.55489456
  -exchange      EXHF   =         0.00000000
  -V(xc)+E(xc)   XCENC  =       293.34406674
  PAW double counting   =      5439.83165491    -5552.88620675
  entropy T*S    EENTRO =         0.00000000
  eigenvalues    EBANDS =      -719.02204723
  atomic energy  EATOM  =      6677.64854832
  Solvation  Ediel_sol  =         0.00000000
  ---------------------------------------------------
  free energy    TOTEN  =         7.37166038 eV

  energy without entropy =        7.37166038  energy(sigma->0) =        7.37166038


--------------------------------------------------------------------------------------------------------




--------------------------------------- Iteration      1(   3)  ---------------------------------------


     EDDAV:  cpu time    0.3920: real time    0.3920
 BZINTS: Fermi energy:  3.704134; 54.000000 electrons
         Band energy:-767.578527;  BLOECHL correction:  0.000000
       DOS:  cpu time    0.0020: real time    0.0020
    --------------------------------------------
      LOOP:  cpu time    0.3940: real time    0.3940

 eigenvalue-minimisations  :  1548
 total energy-change (2. order) :-0.4855648E+02  (-0.4835795E+02)
 number of electron      54.0000000 magnetization       0.0000000
 augmentation part       54.0000000 magnetization       0.0000000

 Free energy of the ion-electron system (eV)
  ---------------------------------------------------
  alpha Z        PSCENC =       197.83455644
  Ewald energy   TEWEN  =     -4190.82401748
  -Hartree energ DENC   =     -2138.55489456
  -exchange      EXHF   =         0.00000000
  -V(xc)+E(xc)   XCENC  =       293.34406674
  PAW double counting   =      5439.83165491    -5552.88620675
  entropy T*S    EENTRO =         0.00000000
  eigenvalues    EBANDS =      -767.57852714
  atomic energy  EATOM  =      6677.64854832
  Solvation  Ediel_sol  =         0.00000000
  ---------------------------------------------------
  free energy    TOTEN  =       -41.18481953 eV

  energy without entropy =      -41.18481953  energy(sigma->0) =      -41.18481953


--------------------------------------------------------------------------------------------------------




--------------------------------------- Iteration      1(   4)  ---------------------------------------


     EDDAV:  cpu time    0.3560: real time    0.3560
 BZINTS: Fermi energy:  3.668388; 54.000000 electrons
         Band energy:-768.229469;  BLOECHL correction:  0.000000
       DOS:  cpu time    0.0020: real time    0.0020
    --------------------------------------------
      LOOP:  cpu time    0.3580: real time    0.3580

 eigenvalue-minimisations  :  1392
 total energy-change (2. order) :-0.6509418E+00  (-0.6508083E+00)
 number of electron      54.0000000 magnetization       0.0000000
 augmentation part       54.0000000 magnetization       0.0000000

 Free energy of the ion-electron system (eV)
  ---------------------------------------------------
  alpha Z        PSCENC =       197.83455644
  Ewald energy   TEWEN  =     -4190.82401748
  -Hartree energ DENC   =     -2138.55489456
  -exchange      EXHF   =         0.00000000
  -V(xc)+E(xc)   XCENC  =       293.34406674
  PAW double counting   =      5439.83165491    -5552.88620675
  entropy T*S    EENTRO =         0.00000000
  eigenvalues    EBANDS =      -768.22946897
  atomic energy  EATOM  =      6677.64854832
  Solvation  Ediel_sol  =         0.00000000
  ---------------------------------------------------
  free energy    TOTEN  =       -41.83576136 eV

  energy without entropy =      -41.83576136  energy(sigma->0) =      -41.83576136


--------------------------------------------------------------------------------------------------------




--------------------------------------- Iteration      1(   5)  ---------------------------------------


     EDDAV:  cpu time    0.3985: real time    0.3985
 BZINTS: Fermi energy:  3.637292; 54.000000 electrons
         Band energy:-768.240024;  BLOECHL correction:  0.000000
       DOS:  cpu time    0.0020: real time    0.0020
    CHARGE:  cpu time    0.0359: real time    0.0359
    MIXING:  cpu time    0.0005: real time    0.0005
    --------------------------------------------
      LOOP:  cpu time    0.4370: real time    0.4370

 eigenvalue-minimisations  :  1572
 total energy-change (2. order) :-0.1055459E-01  (-0.1055450E-01)
 number of electron      54.0000009 magnetization      -0.0000000
 augmentation part       20.0285494 magnetization      -0.0000000

 Broyden mixing:
  rms(total) = 0.22657E+01    rms(broyden)= 0.22657E+01
  rms(prec ) = 0.30413E+01
  weight for this iteration     100.00

 Free energy of the ion-electron system (eV)
  ---------------------------------------------------
  alpha Z        PSCENC =       197.83455644
  Ewald energy   TEWEN  =     -4190.82401748
  -Hartree energ DENC   =     -2138.55489456
  -exchange      EXHF   =         0.00000000
  -V(xc)+E(xc)   XCENC  =       293.34406674
  PAW double counting   =      5439.83165491    -5552.88620675
  entropy T*S    EENTRO =         0.00000000
  eigenvalues    EBANDS =      -768.24002357
  atomic energy  EATOM  =      6677.64854832
  Solvation  Ediel_sol  =         0.00000000
  ---------------------------------------------------
  free energy    TOTEN  =       -41.84631595 eV

  energy without entropy =      -41.84631595  energy(sigma->0) =      -41.84631595


--------------------------------------------------------------------------------------------------------




--------------------------------------- Iteration      1(   6)  ---------------------------------------


    POTLOK:  cpu time    0.0159: real time    0.0159
    SETDIJ:  cpu time    0.3687: real time    0.3687
atom =   1  type =  1  l = 2
 
 onsite density matrix
 
spin component  1
 
 -0.0725  0.0000  0.0036  0.0000 -0.0000
  0.0000 -0.0760  0.0000  0.0024  0.0000
  0.0036  0.0000 -0.0732  0.0000 -0.0000
  0.0000  0.0024  0.0000 -0.0760  0.0000
 -0.0000  0.0000 -0.0000  0.0000 -0.0815
 
spin component  2
 
  1.0956  0.0000  0.0139  0.0000  0.0000
  0.0000  1.0941  0.0000  0.0124  0.0000
  0.0139  0.0000  1.0869  0.0000  0.0000
  0.0000  0.0124  0.0000  1.0941  0.0000
  0.0000  0.0000  0.0000  0.0000  1.0843
 
 occupancies and eigenvectors
 
  o = -0.0815  v = -0.0000  0.0000  0.0000 -0.0000  1.0000  0.0000  0.0000  0.0000  0.0000  0.0000      0.0000  0.0000  0.0000  0.0000  0.0000  0.0000  0.0000  0.0000  0.0000  0.0000
  o = -0.0783  v = -0.0000 -0.7071  0.0000  0.7071  0.0000  0.0000  0.0000  0.0000  0.0000  0.0000      0.0000  0.0000  0.0000  0.0000  0.0000  0.0000  0.0000  0.0000  0.0000  0.0000
  o = -0.0764  v =  0.6743 -0.0000 -0.7384  0.0000  0.0000  0.0000  0.0000  0.0000  0.0000  0.0000      0.0000  0.0000  0.0000  0.0000  0.0000  0.0000  0.0000  0.0000  0.0000  0.0000
  o = -0.0736  v = -0.0000  0.7071  0.0000  0.7071 -0.0000  0.0000  0.0000  0.0000  0.0000  0.0000      0.0000  0.0000  0.0000  0.0000  0.0000  0.0000  0.0000  0.0000  0.0000  0.0000
  o = -0.0693  v =  0.7384  0.0000  0.6743  0.0000 -0.0000  0.0000  0.0000  0.0000  0.0000  0.0000      0.0000  0.0000  0.0000  0.0000  0.0000  0.0000  0.0000  0.0000  0.0000  0.0000
  o =  1.0767  v =  0.0000  0.0000  0.0000  0.0000  0.0000 -0.5932 -0.0000  0.8050  0.0000 -0.0000      0.0000  0.0000  0.0000  0.0000  0.0000  0.0000  0.0000  0.0000  0.0000  0.0000
  o =  1.0817  v =  0.0000  0.0000  0.0000  0.0000  0.0000 -0.0000  0.7071  0.0000 -0.7071  0.0000      0.0000  0.0000  0.0000  0.0000  0.0000  0.0000  0.0000  0.0000  0.0000  0.0000
  o =  1.0843  v =  0.0000  0.0000  0.0000  0.0000  0.0000 -0.0000 -0.0000  0.0000  0.0000  1.0000      0.0000  0.0000  0.0000  0.0000  0.0000  0.0000  0.0000  0.0000  0.0000  0.0000
  o =  1.1058  v =  0.0000  0.0000  0.0000  0.0000  0.0000 -0.8050  0.0000 -0.5932  0.0000 -0.0000      0.0000  0.0000  0.0000  0.0000  0.0000  0.0000  0.0000  0.0000  0.0000  0.0000
  o =  1.1065  v =  0.0000  0.0000  0.0000  0.0000  0.0000  0.0000  0.7071  0.0000  0.7071 -0.0000      0.0000  0.0000  0.0000  0.0000  0.0000  0.0000  0.0000  0.0000  0.0000  0.0000
atom =   2  type =  1  l = 2
 
 onsite density matrix
 
spin component  1
 
  1.0956  0.0000 -0.0139  0.0000  0.0000
  0.0000  1.0941  0.0000 -0.0124  0.0000
 -0.0139  0.0000  1.0869  0.0000 -0.0000
  0.0000 -0.0124  0.0000  1.0941  0.0000
  0.0000  0.0000 -0.0000  0.0000  1.0843
 
spin component  2
 
 -0.0725  0.0000 -0.0036  0.0000 -0.0000
  0.0000 -0.0760  0.0000 -0.0024  0.0000
 -0.0036  0.0000 -0.0732  0.0000  0.0000
  0.0000 -0.0024  0.0000 -0.0760  0.0000
 -0.0000  0.0000  0.0000  0.0000 -0.0815
 
 occupancies and eigenvectors
 
  o = -0.0815  v =  0.0000  0.0000  0.0000  0.0000  0.0000 -0.0000  0.0000 -0.0000  0.0000  1.0000      0.0000  0.0000  0.0000  0.0000  0.0000  0.0000  0.0000  0.0000  0.0000  0.0000
  o = -0.0783  v =  0.0000  0.0000  0.0000  0.0000  0.0000  0.0000 -0.7071  0.0000 -0.7071  0.0000      0.0000  0.0000  0.0000  0.0000  0.0000  0.0000  0.0000  0.0000  0.0000  0.0000
  o = -0.0764  v =  0.0000  0.0000  0.0000  0.0000  0.0000  0.6743  0.0000  0.7384  0.0000  0.0000      0.0000  0.0000  0.0000  0.0000  0.0000  0.0000  0.0000  0.0000  0.0000  0.0000
  o = -0.0736  v =  0.0000  0.0000  0.0000  0.0000  0.0000  0.0000  0.7071  0.0000 -0.7071  0.0000      0.0000  0.0000  0.0000  0.0000  0.0000  0.0000  0.0000  0.0000  0.0000  0.0000
  o = -0.0693  v =  0.0000  0.0000  0.0000  0.0000  0.0000  0.7384 -0.0000 -0.6743  0.0000 -0.0000      0.0000  0.0000  0.0000  0.0000  0.0000  0.0000  0.0000  0.0000  0.0000  0.0000
  o =  1.0767  v = -0.5932  0.0000 -0.8050  0.0000 -0.0000  0.0000  0.0000  0.0000  0.0000  0.0000      0.0000  0.0000  0.0000  0.0000  0.0000  0.0000  0.0000  0.0000  0.0000  0.0000
  o =  1.0817  v = -0.0000 -0.7071 -0.0000 -0.7071  0.0000  0.0000  0.0000  0.0000  0.0000  0.0000      0.0000  0.0000  0.0000  0.0000  0.0000  0.0000  0.0000  0.0000  0.0000  0.0000
  o =  1.0843  v = -0.0000  0.0000 -0.0000  0.0000  1.0000  0.0000  0.0000  0.0000  0.0000  0.0000      0.0000  0.0000  0.0000  0.0000  0.0000  0.0000  0.0000  0.0000  0.0000  0.0000
  o =  1.1058  v = -0.8050 -0.0000  0.5932  0.0000 -0.0000  0.0000  0.0000  0.0000  0.0000  0.0000      0.0000  0.0000  0.0000  0.0000  0.0000  0.0000  0.0000  0.0000  0.0000  0.0000
  o =  1.1065  v =  0.0000 -0.7071 -0.0000  0.7071 -0.0000  0.0000  0.0000  0.0000  0.0000  0.0000      0.0000  0.0000  0.0000  0.0000  0.0000  0.0000  0.0000  0.0000  0.0000  0.0000
     EDDAV:  cpu time    0.3872: real time    0.3872
 BZINTS: Fermi energy:  2.048293; 54.000000 electrons
         Band energy:-751.112290;  BLOECHL correction:  0.000000
       DOS:  cpu time    0.0012: real time    0.0012
    CHARGE:  cpu time    0.0321: real time    0.0321
    MIXING:  cpu time    0.0008: real time    0.0008
    --------------------------------------------
      LOOP:  cpu time    0.8057: real time    0.8057

 eigenvalue-minimisations  :  1644
 total energy-change (2. order) : 0.2563273E+01  (-0.1505629E+01)
 number of electron      54.0000008 magnetization       0.0000000
 augmentation part       19.8974622 magnetization       0.0000000

 Broyden mixing:
  rms(total) = 0.14107E+01    rms(broyden)= 0.14106E+01
  rms(prec ) = 0.14727E+01
  weight for this iteration     100.00

 eigenvalues of (default mixing * dielectric matrix)
  average eigenvalue GAMMA=   0.7953
  0.7953

 Free energy of the ion-electron system (eV)
  ---------------------------------------------------
  alpha Z        PSCENC =       197.83455644
  Ewald energy   TEWEN  =     -4190.82401748
  -Hartree energ DENC   =     -2157.10780740
  -exchange      EXHF   =         0.00000000
  -V(xc)+E(xc)   XCENC  =       293.64586683
  PAW double counting   =      5691.70759878    -5801.07549807
  entropy T*S    EENTRO =         0.00000000
  eigenvalues    EBANDS =      -751.11229037
  atomic energy  EATOM  =      6677.64854832
  Solvation  Ediel_sol  =         0.00000000
  ---------------------------------------------------
  free energy    TOTEN  =       -39.28304294 eV

  energy without entropy =      -39.28304294  energy(sigma->0) =      -39.28304294


--------------------------------------------------------------------------------------------------------




--------------------------------------- Iteration      1(   7)  ---------------------------------------


    POTLOK:  cpu time    0.0154: real time    0.0154
    SETDIJ:  cpu time    0.3696: real time    0.3696
atom =   1  type =  1  l = 2
 
 onsite density matrix
 
spin component  1
 
  0.1229  0.0000  0.0229  0.0000  0.0000
  0.0000  0.1161  0.0000  0.0188  0.0000
  0.0229  0.0000  0.1110  0.0000 -0.0000
  0.0000  0.0188  0.0000  0.1161  0.0000
  0.0000  0.0000 -0.0000  0.0000  0.0956
 
spin component  2
 
  0.8949  0.0000  0.0056  0.0000 -0.0000
  0.0000  0.8935  0.0000  0.0053  0.0000
  0.0056  0.0000  0.8912  0.0000  0.0000
  0.0000  0.0053  0.0000  0.8935  0.0000
 -0.0000  0.0000  0.0000  0.0000  0.8886
 
 occupancies and eigenvectors
 
  o =  0.0933  v = -0.6114 -0.0000  0.7913  0.0000  0.0000  0.0000  0.0000  0.0000  0.0000  0.0000      0.0000  0.0000  0.0000  0.0000  0.0000  0.0000  0.0000  0.0000  0.0000  0.0000
  o =  0.0956  v = -0.0000  0.0000  0.0000  0.0000 -1.0000  0.0000  0.0000  0.0000  0.0000  0.0000      0.0000  0.0000  0.0000  0.0000  0.0000  0.0000  0.0000  0.0000  0.0000  0.0000
  o =  0.0973  v =  0.0000 -0.7071  0.0000  0.7071 -0.0000  0.0000  0.0000  0.0000  0.0000  0.0000      0.0000  0.0000  0.0000  0.0000  0.0000  0.0000  0.0000  0.0000  0.0000  0.0000
  o =  0.1349  v =  0.0000 -0.7071  0.0000 -0.7071 -0.0000  0.0000  0.0000  0.0000  0.0000  0.0000      0.0000  0.0000  0.0000  0.0000  0.0000  0.0000  0.0000  0.0000  0.0000  0.0000
  o =  0.1406  v = -0.7913 -0.0000 -0.6114  0.0000  0.0000  0.0000  0.0000  0.0000  0.0000  0.0000      0.0000  0.0000  0.0000  0.0000  0.0000  0.0000  0.0000  0.0000  0.0000  0.0000
  o =  0.8872  v =  0.0000  0.0000  0.0000  0.0000  0.0000 -0.5863  0.0000  0.8101  0.0000 -0.0000      0.0000  0.0000  0.0000  0.0000  0.0000  0.0000  0.0000  0.0000  0.0000  0.0000
  o =  0.8883  v =  0.0000  0.0000  0.0000  0.0000  0.0000  0.0000  0.7071  0.0000 -0.7071 -0.0000      0.0000  0.0000  0.0000  0.0000  0.0000  0.0000  0.0000  0.0000  0.0000  0.0000
  o =  0.8886  v =  0.0000  0.0000  0.0000  0.0000  0.0000  0.0000  0.0000  0.0000  0.0000  1.0000      0.0000  0.0000  0.0000  0.0000  0.0000  0.0000  0.0000  0.0000  0.0000  0.0000
  o =  0.8988  v =  0.0000  0.0000  0.0000  0.0000  0.0000  0.0000  0.7071  0.0000  0.7071 -0.0000      0.0000  0.0000  0.0000  0.0000  0.0000  0.0000  0.0000  0.0000  0.0000  0.0000
  o =  0.8989  v =  0.0000  0.0000  0.0000  0.0000  0.0000 -0.8101  0.0000 -0.5863  0.0000  0.0000      0.0000  0.0000  0.0000  0.0000  0.0000  0.0000  0.0000  0.0000  0.0000  0.0000
atom =   2  type =  1  l = 2
 
 onsite density matrix
 
spin component  1
 
  0.8949  0.0000 -0.0056  0.0000 -0.0000
  0.0000  0.8935  0.0000 -0.0053  0.0000
 -0.0056  0.0000  0.8912  0.0000  0.0000
  0.0000 -0.0053  0.0000  0.8935  0.0000
 -0.0000  0.0000  0.0000  0.0000  0.8886
 
spin component  2
 
  0.1229  0.0000 -0.0229  0.0000 -0.0000
  0.0000  0.1161  0.0000 -0.0188  0.0000
 -0.0229  0.0000  0.1110  0.0000 -0.0000
  0.0000 -0.0188  0.0000  0.1161  0.0000
 -0.0000  0.0000 -0.0000  0.0000  0.0956
 
 occupancies and eigenvectors
 
  o =  0.0933  v =  0.0000  0.0000  0.0000  0.0000  0.0000 -0.6114  0.0000 -0.7913  0.0000 -0.0000      0.0000  0.0000  0.0000  0.0000  0.0000  0.0000  0.0000  0.0000  0.0000  0.0000
  o =  0.0956  v =  0.0000  0.0000  0.0000  0.0000  0.0000 -0.0000 -0.0000 -0.0000  0.0000  1.0000      0.0000  0.0000  0.0000  0.0000  0.0000  0.0000  0.0000  0.0000  0.0000  0.0000
  o =  0.0973  v =  0.0000  0.0000  0.0000  0.0000  0.0000  0.0000 -0.7071 -0.0000 -0.7071 -0.0000      0.0000  0.0000  0.0000  0.0000  0.0000  0.0000  0.0000  0.0000  0.0000  0.0000
  o =  0.1349  v =  0.0000  0.0000  0.0000  0.0000  0.0000 -0.0000  0.7071  0.0000 -0.7071  0.0000      0.0000  0.0000  0.0000  0.0000  0.0000  0.0000  0.0000  0.0000  0.0000  0.0000
  o =  0.1406  v =  0.0000  0.0000  0.0000  0.0000  0.0000 -0.7913 -0.0000  0.6114  0.0000 -0.0000      0.0000  0.0000  0.0000  0.0000  0.0000  0.0000  0.0000  0.0000  0.0000  0.0000
  o =  0.8872  v =  0.5863 -0.0000  0.8101 -0.0000 -0.0000  0.0000  0.0000  0.0000  0.0000  0.0000      0.0000  0.0000  0.0000  0.0000  0.0000  0.0000  0.0000  0.0000  0.0000  0.0000
  o =  0.8883  v =  0.0000 -0.7071 -0.0000 -0.7071  0.0000  0.0000  0.0000  0.0000  0.0000  0.0000      0.0000  0.0000  0.0000  0.0000  0.0000  0.0000  0.0000  0.0000  0.0000  0.0000
  o =  0.8886  v = -0.0000 -0.0000 -0.0000 -0.0000 -1.0000  0.0000  0.0000  0.0000  0.0000  0.0000      0.0000  0.0000  0.0000  0.0000  0.0000  0.0000  0.0000  0.0000  0.0000  0.0000
  o =  0.8988  v =  0.0000 -0.7071 -0.0000  0.7071  0.0000  0.0000  0.0000  0.0000  0.0000  0.0000      0.0000  0.0000  0.0000  0.0000  0.0000  0.0000  0.0000  0.0000  0.0000  0.0000
  o =  0.8989  v =  0.8101  0.0000 -0.5863  0.0000 -0.0000  0.0000  0.0000  0.0000  0.0000  0.0000      0.0000  0.0000  0.0000  0.0000  0.0000  0.0000  0.0000  0.0000  0.0000  0.0000
     EDDAV:  cpu time    0.3529: real time    0.3529
 BZINTS: Fermi energy:  2.262398; 54.000000 electrons
         Band energy:-751.620759;  BLOECHL correction:  0.000000
       DOS:  cpu time    0.0013: real time    0.0013
    CHARGE:  cpu time    0.0319: real time    0.0320
    MIXING:  cpu time    0.0008: real time    0.0008
    --------------------------------------------
      LOOP:  cpu time    0.7720: real time    0.7720

 eigenvalue-minimisations  :  1512
 total energy-change (2. order) :-0.4921566E+00  (-0.1583899E+00)
 number of electron      54.0000008 magnetization       0.0000000
 augmentation part       19.9279284 magnetization       0.0000000

 Broyden mixing:
  rms(total) = 0.11258E+01    rms(broyden)= 0.11258E+01
  rms(prec ) = 0.11571E+01
  weight for this iteration     100.00

 eigenvalues of (default mixing * dielectric matrix)
  average eigenvalue GAMMA=   1.4360
  0.7077  2.1644

 Free energy of the ion-electron system (eV)
  ---------------------------------------------------
  alpha Z        PSCENC =       197.83455644
  Ewald energy   TEWEN  =     -4190.82401748
  -Hartree energ DENC   =     -2151.75037484
  -exchange      EXHF   =         0.00000000
  -V(xc)+E(xc)   XCENC  =       294.05171997
  PAW double counting   =      5908.56153948    -6023.67641229
  entropy T*S    EENTRO =         0.00000000
  eigenvalues    EBANDS =      -751.62075911
  atomic energy  EATOM  =      6677.64854832
  Solvation  Ediel_sol  =         0.00000000
  ---------------------------------------------------
  free energy    TOTEN  =       -39.77519951 eV

  energy without entropy =      -39.77519951  energy(sigma->0) =      -39.77519951


--------------------------------------------------------------------------------------------------------




--------------------------------------- Iteration      1(   8)  ---------------------------------------


    POTLOK:  cpu time    0.0155: real time    0.0155
    SETDIJ:  cpu time    0.3700: real time    0.3700
atom =   1  type =  1  l = 2
 
 onsite density matrix
 
spin component  1
 
 -0.0165  0.0000  0.0228  0.0000 -0.0000
  0.0000 -0.0241  0.0000  0.0180  0.0000
  0.0228  0.0000 -0.0274  0.0000 -0.0000
  0.0000  0.0180  0.0000 -0.0241  0.0000
 -0.0000  0.0000 -0.0000  0.0000 -0.0463
 
spin component  2
 
  1.0345  0.0000  0.0184  0.0000  0.0000
  0.0000  1.0299  0.0000  0.0170  0.0000
  0.0184  0.0000  1.0223  0.0000  0.0000
  0.0000  0.0170  0.0000  1.0299  0.0000
  0.0000  0.0000  0.0000  0.0000  1.0146
 
 occupancies and eigenvectors
 
  o = -0.0463  v =  0.0000 -0.0000 -0.0000  0.0000 -1.0000  0.0000  0.0000  0.0000  0.0000  0.0000      0.0000  0.0000  0.0000  0.0000  0.0000  0.0000  0.0000  0.0000  0.0000  0.0000
  o = -0.0454  v = -0.6194 -0.0000  0.7851  0.0000 -0.0000  0.0000  0.0000  0.0000  0.0000  0.0000      0.0000  0.0000  0.0000  0.0000  0.0000  0.0000  0.0000  0.0000  0.0000  0.0000
  o = -0.0422  v =  0.0000  0.7071  0.0000 -0.7071 -0.0000  0.0000  0.0000  0.0000  0.0000  0.0000      0.0000  0.0000  0.0000  0.0000  0.0000  0.0000  0.0000  0.0000  0.0000  0.0000
  o = -0.0061  v =  0.0000 -0.7071  0.0000 -0.7071  0.0000  0.0000  0.0000  0.0000  0.0000  0.0000      0.0000  0.0000  0.0000  0.0000  0.0000  0.0000  0.0000  0.0000  0.0000  0.0000
  o =  0.0015  v =  0.7851 -0.0000  0.6194  0.0000 -0.0000  0.0000  0.0000  0.0000  0.0000  0.0000      0.0000  0.0000  0.0000  0.0000  0.0000  0.0000  0.0000  0.0000  0.0000  0.0000
  o =  1.0090  v =  0.0000  0.0000  0.0000  0.0000  0.0000 -0.5862  0.0000  0.8102 -0.0000 -0.0000      0.0000  0.0000  0.0000  0.0000  0.0000  0.0000  0.0000  0.0000  0.0000  0.0000
  o =  1.0129  v =  0.0000  0.0000  0.0000  0.0000  0.0000 -0.0000 -0.7071  0.0000  0.7071 -0.0000      0.0000  0.0000  0.0000  0.0000  0.0000  0.0000  0.0000  0.0000  0.0000  0.0000
  o =  1.0146  v =  0.0000  0.0000  0.0000  0.0000  0.0000 -0.0000 -0.0000  0.0000  0.0000  1.0000      0.0000  0.0000  0.0000  0.0000  0.0000  0.0000  0.0000  0.0000  0.0000  0.0000
  o =  1.0469  v =  0.0000  0.0000  0.0000  0.0000  0.0000 -0.0000 -0.7071 -0.0000 -0.7071  0.0000      0.0000  0.0000  0.0000  0.0000  0.0000  0.0000  0.0000  0.0000  0.0000  0.0000
  o =  1.0478  v =  0.0000  0.0000  0.0000  0.0000  0.0000 -0.8102  0.0000 -0.5862  0.0000 -0.0000      0.0000  0.0000  0.0000  0.0000  0.0000  0.0000  0.0000  0.0000  0.0000  0.0000
atom =   2  type =  1  l = 2
 
 onsite density matrix
 
spin component  1
 
  1.0345  0.0000 -0.0184  0.0000  0.0000
  0.0000  1.0299  0.0000 -0.0170  0.0000
 -0.0184  0.0000  1.0223  0.0000  0.0000
  0.0000 -0.0170  0.0000  1.0299  0.0000
  0.0000  0.0000  0.0000  0.0000  1.0146
 
spin component  2
 
 -0.0165  0.0000 -0.0228  0.0000 -0.0000
  0.0000 -0.0241  0.0000 -0.0180  0.0000
 -0.0228  0.0000 -0.0274  0.0000 -0.0000
  0.0000 -0.0180  0.0000 -0.0241  0.0000
 -0.0000  0.0000 -0.0000  0.0000 -0.0463
 
 occupancies and eigenvectors
 
  o = -0.0463  v =  0.0000  0.0000  0.0000  0.0000  0.0000  0.0000  0.0000  0.0000  0.0000  1.0000      0.0000  0.0000  0.0000  0.0000  0.0000  0.0000  0.0000  0.0000  0.0000  0.0000
  o = -0.0454  v =  0.0000  0.0000  0.0000  0.0000  0.0000 -0.6194  0.0000 -0.7851  0.0000  0.0000      0.0000  0.0000  0.0000  0.0000  0.0000  0.0000  0.0000  0.0000  0.0000  0.0000
  o = -0.0422  v =  0.0000  0.0000  0.0000  0.0000  0.0000  0.0000  0.7071  0.0000  0.7071 -0.0000      0.0000  0.0000  0.0000  0.0000  0.0000  0.0000  0.0000  0.0000  0.0000  0.0000
  o = -0.0061  v =  0.0000  0.0000  0.0000  0.0000  0.0000  0.0000 -0.7071  0.0000  0.7071  0.0000      0.0000  0.0000  0.0000  0.0000  0.0000  0.0000  0.0000  0.0000  0.0000  0.0000
  o =  0.0015  v =  0.0000  0.0000  0.0000  0.0000  0.0000  0.7851  0.0000 -0.6194  0.0000  0.0000      0.0000  0.0000  0.0000  0.0000  0.0000  0.0000  0.0000  0.0000  0.0000  0.0000
  o =  1.0090  v = -0.5862  0.0000 -0.8102  0.0000  0.0000  0.0000  0.0000  0.0000  0.0000  0.0000      0.0000  0.0000  0.0000  0.0000  0.0000  0.0000  0.0000  0.0000  0.0000  0.0000
  o =  1.0129  v = -0.0000 -0.7071 -0.0000 -0.7071 -0.0000  0.0000  0.0000  0.0000  0.0000  0.0000      0.0000  0.0000  0.0000  0.0000  0.0000  0.0000  0.0000  0.0000  0.0000  0.0000
  o =  1.0146  v = -0.0000  0.0000 -0.0000  0.0000 -1.0000  0.0000  0.0000  0.0000  0.0000  0.0000      0.0000  0.0000  0.0000  0.0000  0.0000  0.0000  0.0000  0.0000  0.0000  0.0000
  o =  1.0469  v = -0.0000 -0.7071  0.0000  0.7071  0.0000  0.0000  0.0000  0.0000  0.0000  0.0000      0.0000  0.0000  0.0000  0.0000  0.0000  0.0000  0.0000  0.0000  0.0000  0.0000
  o =  1.0478  v = -0.8102  0.0000  0.5862 -0.0000  0.0000  0.0000  0.0000  0.0000  0.0000  0.0000      0.0000  0.0000  0.0000  0.0000  0.0000  0.0000  0.0000  0.0000  0.0000  0.0000
     EDDAV:  cpu time    0.3530: real time    0.3530
 BZINTS: Fermi energy:  2.001155; 54.000000 electrons
         Band energy:-754.826425;  BLOECHL correction:  0.000000
       DOS:  cpu time    0.0011: real time    0.0011
    CHARGE:  cpu time    0.0318: real time    0.0318
    MIXING:  cpu time    0.0008: real time    0.0008
    --------------------------------------------
      LOOP:  cpu time    0.7724: real time    0.7724

 eigenvalue-minimisations  :  1512
 total energy-change (2. order) : 0.2221851E-03  (-0.4002209E-01)
 number of electron      54.0000009 magnetization       0.0000000
 augmentation part       19.9314717 magnetization       0.0000000

 Broyden mixing:
  rms(total) = 0.49475E+00    rms(broyden)= 0.49474E+00
  rms(prec ) = 0.51994E+00
  weight for this iteration     100.00

 eigenvalues of (default mixing * dielectric matrix)
  average eigenvalue GAMMA=   1.1498
  1.9898  0.8614  0.5983

 Free energy of the ion-electron system (eV)
  ---------------------------------------------------
  alpha Z        PSCENC =       197.83455644
  Ewald energy   TEWEN  =     -4190.82401748
  -Hartree energ DENC   =     -2148.57896264
  -exchange      EXHF   =         0.00000000
  -V(xc)+E(xc)   XCENC  =       293.68896359
  PAW double counting   =      6136.72341712    -6251.44105744
  entropy T*S    EENTRO =         0.00000000
  eigenvalues    EBANDS =      -754.82642523
  atomic energy  EATOM  =      6677.64854832
  Solvation  Ediel_sol  =         0.00000000
  ---------------------------------------------------
  free energy    TOTEN  =       -39.77497732 eV

  energy without entropy =      -39.77497732  energy(sigma->0) =      -39.77497732


--------------------------------------------------------------------------------------------------------




--------------------------------------- Iteration      1(   9)  ---------------------------------------


    POTLOK:  cpu time    0.0155: real time    0.0155
    SETDIJ:  cpu time    0.3698: real time    0.3698
atom =   1  type =  1  l = 2
 
 onsite density matrix
 
spin component  1
 
  0.0495  0.0000  0.0274  0.0000  0.0000
  0.0000  0.0404  0.0000  0.0229  0.0000
  0.0274  0.0000  0.0346  0.0000  0.0000
  0.0000  0.0229  0.0000  0.0404  0.0000
  0.0000  0.0000  0.0000  0.0000  0.0146
 
spin component  2
 
  0.9673  0.0000  0.0213  0.0000 -0.0000
  0.0000  0.9618  0.0000  0.0186  0.0000
  0.0213  0.0000  0.9547  0.0000 -0.0000
  0.0000  0.0186  0.0000  0.9618  0.0000
 -0.0000  0.0000 -0.0000  0.0000  0.9433
 
 occupancies and eigenvectors
 
  o =  0.0137  v = -0.6076  0.0000  0.7943  0.0000 -0.0000  0.0000  0.0000  0.0000  0.0000  0.0000      0.0000  0.0000  0.0000  0.0000  0.0000  0.0000  0.0000  0.0000  0.0000  0.0000
  o =  0.0146  v = -0.0000 -0.0000  0.0000  0.0000  1.0000  0.0000  0.0000  0.0000  0.0000  0.0000      0.0000  0.0000  0.0000  0.0000  0.0000  0.0000  0.0000  0.0000  0.0000  0.0000
  o =  0.0174  v =  0.0000  0.7071  0.0000 -0.7071  0.0000  0.0000  0.0000  0.0000  0.0000  0.0000      0.0000  0.0000  0.0000  0.0000  0.0000  0.0000  0.0000  0.0000  0.0000  0.0000
  o =  0.0633  v =  0.0000 -0.7071  0.0000 -0.7071 -0.0000  0.0000  0.0000  0.0000  0.0000  0.0000      0.0000  0.0000  0.0000  0.0000  0.0000  0.0000  0.0000  0.0000  0.0000  0.0000
  o =  0.0704  v = -0.7943  0.0000 -0.6076  0.0000 -0.0000  0.0000  0.0000  0.0000  0.0000  0.0000      0.0000  0.0000  0.0000  0.0000  0.0000  0.0000  0.0000  0.0000  0.0000  0.0000
  o =  0.9389  v =  0.0000  0.0000  0.0000  0.0000  0.0000 -0.5983  0.0000  0.8013  0.0000  0.0000      0.0000  0.0000  0.0000  0.0000  0.0000  0.0000  0.0000  0.0000  0.0000  0.0000
  o =  0.9432  v =  0.0000  0.0000  0.0000  0.0000  0.0000  0.0000  0.7071  0.0000 -0.7071  0.0000      0.0000  0.0000  0.0000  0.0000  0.0000  0.0000  0.0000  0.0000  0.0000  0.0000
  o =  0.9433  v =  0.0000  0.0000  0.0000  0.0000  0.0000 -0.0000 -0.0000  0.0000  0.0000 -1.0000      0.0000  0.0000  0.0000  0.0000  0.0000  0.0000  0.0000  0.0000  0.0000  0.0000
  o =  0.9804  v =  0.0000  0.0000  0.0000  0.0000  0.0000  0.0000 -0.7071  0.0000 -0.7071 -0.0000      0.0000  0.0000  0.0000  0.0000  0.0000  0.0000  0.0000  0.0000  0.0000  0.0000
  o =  0.9832  v =  0.0000  0.0000  0.0000  0.0000  0.0000 -0.8013  0.0000 -0.5983  0.0000  0.0000      0.0000  0.0000  0.0000  0.0000  0.0000  0.0000  0.0000  0.0000  0.0000  0.0000
atom =   2  type =  1  l = 2
 
 onsite density matrix
 
spin component  1
 
  0.9673  0.0000 -0.0213  0.0000 -0.0000
  0.0000  0.9618  0.0000 -0.0186  0.0000
 -0.0213  0.0000  0.9547  0.0000 -0.0000
  0.0000 -0.0186  0.0000  0.9618  0.0000
 -0.0000  0.0000 -0.0000  0.0000  0.9433
 
spin component  2
 
  0.0495  0.0000 -0.0274  0.0000  0.0000
  0.0000  0.0404  0.0000 -0.0229  0.0000
 -0.0274  0.0000  0.0346  0.0000  0.0000
  0.0000 -0.0229  0.0000  0.0404  0.0000
  0.0000  0.0000  0.0000  0.0000  0.0146
 
 occupancies and eigenvectors
 
  o =  0.0137  v =  0.0000  0.0000  0.0000  0.0000  0.0000 -0.6076 -0.0000 -0.7943  0.0000  0.0000      0.0000  0.0000  0.0000  0.0000  0.0000  0.0000  0.0000  0.0000  0.0000  0.0000
  o =  0.0146  v =  0.0000  0.0000  0.0000  0.0000  0.0000 -0.0000  0.0000 -0.0000  0.0000 -1.0000      0.0000  0.0000  0.0000  0.0000  0.0000  0.0000  0.0000  0.0000  0.0000  0.0000
  o =  0.0174  v =  0.0000  0.0000  0.0000  0.0000  0.0000  0.0000 -0.7071  0.0000 -0.7071 -0.0000      0.0000  0.0000  0.0000  0.0000  0.0000  0.0000  0.0000  0.0000  0.0000  0.0000
  o =  0.0633  v =  0.0000  0.0000  0.0000  0.0000  0.0000  0.0000 -0.7071  0.0000  0.7071 -0.0000      0.0000  0.0000  0.0000  0.0000  0.0000  0.0000  0.0000  0.0000  0.0000  0.0000
  o =  0.0704  v =  0.0000  0.0000  0.0000  0.0000  0.0000 -0.7943 -0.0000  0.6076  0.0000  0.0000      0.0000  0.0000  0.0000  0.0000  0.0000  0.0000  0.0000  0.0000  0.0000  0.0000
  o =  0.9389  v = -0.5983 -0.0000 -0.8013  0.0000 -0.0000  0.0000  0.0000  0.0000  0.0000  0.0000      0.0000  0.0000  0.0000  0.0000  0.0000  0.0000  0.0000  0.0000  0.0000  0.0000
  o =  0.9432  v =  0.0000  0.7071  0.0000  0.7071  0.0000  0.0000  0.0000  0.0000  0.0000  0.0000      0.0000  0.0000  0.0000  0.0000  0.0000  0.0000  0.0000  0.0000  0.0000  0.0000
  o =  0.9433  v = -0.0000  0.0000 -0.0000  0.0000  1.0000  0.0000  0.0000  0.0000  0.0000  0.0000      0.0000  0.0000  0.0000  0.0000  0.0000  0.0000  0.0000  0.0000  0.0000  0.0000
  o =  0.9804  v =  0.0000  0.7071  0.0000 -0.7071  0.0000  0.0000  0.0000  0.0000  0.0000  0.0000      0.0000  0.0000  0.0000  0.0000  0.0000  0.0000  0.0000  0.0000  0.0000  0.0000
  o =  0.9832  v = -0.8013 -0.0000  0.5983  0.0000 -0.0000  0.0000  0.0000  0.0000  0.0000  0.0000      0.0000  0.0000  0.0000  0.0000  0.0000  0.0000  0.0000  0.0000  0.0000  0.0000
     EDDAV:  cpu time    0.3435: real time    0.3435
 BZINTS: Fermi energy:  2.005848; 54.000000 electrons
         Band energy:-752.790694;  BLOECHL correction:  0.000000
       DOS:  cpu time    0.0012: real time    0.0012
    CHARGE:  cpu time    0.0317: real time    0.0317
    MIXING:  cpu time    0.0009: real time    0.0009
    --------------------------------------------
      LOOP:  cpu time    0.7626: real time    0.7626

 eigenvalue-minimisations  :  1464
 total energy-change (2. order) :-0.1253203E+00  (-0.3646970E-02)
 number of electron      54.0000009 magnetization      -0.0000000
 augmentation part       19.9337739 magnetization      -0.0000000

 Broyden mixing:
  rms(total) = 0.14116E+00    rms(broyden)= 0.14116E+00
  rms(prec ) = 0.15223E+00
  weight for this iteration     100.00

 eigenvalues of (default mixing * dielectric matrix)
  average eigenvalue GAMMA=   1.2069
  2.5845  0.8144  0.8144  0.6142

 Free energy of the ion-electron system (eV)
  ---------------------------------------------------
  alpha Z        PSCENC =       197.83455644
  Ewald energy   TEWEN  =     -4190.82401748
  -Hartree energ DENC   =     -2148.33874400
  -exchange      EXHF   =         0.00000000
  -V(xc)+E(xc)   XCENC  =       293.83940647
  PAW double counting   =      6264.38356158    -6381.65291508
  entropy T*S    EENTRO =         0.00000000
  eigenvalues    EBANDS =      -752.79069390
  atomic energy  EATOM  =      6677.64854832
  Solvation  Ediel_sol  =         0.00000000
  ---------------------------------------------------
  free energy    TOTEN  =       -39.90029765 eV

  energy without entropy =      -39.90029765  energy(sigma->0) =      -39.90029765


--------------------------------------------------------------------------------------------------------




--------------------------------------- Iteration      1(  10)  ---------------------------------------


    POTLOK:  cpu time    0.0154: real time    0.0154
    SETDIJ:  cpu time    0.3696: real time    0.3696
atom =   1  type =  1  l = 2
 
 onsite density matrix
 
spin component  1
 
  0.0553  0.0000  0.0298  0.0000  0.0000
  0.0000  0.0457  0.0000  0.0247  0.0000
  0.0298  0.0000  0.0395  0.0000 -0.0000
  0.0000  0.0247  0.0000  0.0457  0.0000
  0.0000  0.0000 -0.0000  0.0000  0.0178
 
spin component  2
 
  0.9617  0.0000  0.0192  0.0000  0.0000
  0.0000  0.9564  0.0000  0.0172  0.0000
  0.0192  0.0000  0.9497  0.0000  0.0000
  0.0000  0.0172  0.0000  0.9564  0.0000
  0.0000  0.0000  0.0000  0.0000  0.9397
 
 occupancies and eigenvectors
 
  o =  0.0165  v = -0.6099 -0.0000  0.7925  0.0000  0.0000  0.0000  0.0000  0.0000  0.0000  0.0000      0.0000  0.0000  0.0000  0.0000  0.0000  0.0000  0.0000  0.0000  0.0000  0.0000
  o =  0.0178  v = -0.0000  0.0000  0.0000  0.0000 -1.0000  0.0000  0.0000  0.0000  0.0000  0.0000      0.0000  0.0000  0.0000  0.0000  0.0000  0.0000  0.0000  0.0000  0.0000  0.0000
  o =  0.0211  v =  0.0000  0.7071  0.0000 -0.7071  0.0000  0.0000  0.0000  0.0000  0.0000  0.0000      0.0000  0.0000  0.0000  0.0000  0.0000  0.0000  0.0000  0.0000  0.0000  0.0000
  o =  0.0704  v =  0.0000  0.7071  0.0000  0.7071  0.0000  0.0000  0.0000  0.0000  0.0000  0.0000      0.0000  0.0000  0.0000  0.0000  0.0000  0.0000  0.0000  0.0000  0.0000  0.0000
  o =  0.0782  v = -0.7925 -0.0000 -0.6099  0.0000  0.0000  0.0000  0.0000  0.0000  0.0000  0.0000      0.0000  0.0000  0.0000  0.0000  0.0000  0.0000  0.0000  0.0000  0.0000  0.0000
  o =  0.9356  v =  0.0000  0.0000  0.0000  0.0000  0.0000  0.5929  0.0000 -0.8053  0.0000  0.0000      0.0000  0.0000  0.0000  0.0000  0.0000  0.0000  0.0000  0.0000  0.0000  0.0000
  o =  0.9392  v =  0.0000  0.0000  0.0000  0.0000  0.0000  0.0000  0.7071  0.0000 -0.7071 -0.0000      0.0000  0.0000  0.0000  0.0000  0.0000  0.0000  0.0000  0.0000  0.0000  0.0000
  o =  0.9397  v =  0.0000  0.0000  0.0000  0.0000  0.0000 -0.0000  0.0000  0.0000  0.0000  1.0000      0.0000  0.0000  0.0000  0.0000  0.0000  0.0000  0.0000  0.0000  0.0000  0.0000
  o =  0.9736  v =  0.0000  0.0000  0.0000  0.0000  0.0000 -0.0000 -0.7071 -0.0000 -0.7071  0.0000      0.0000  0.0000  0.0000  0.0000  0.0000  0.0000  0.0000  0.0000  0.0000  0.0000
  o =  0.9758  v =  0.0000  0.0000  0.0000  0.0000  0.0000  0.8053 -0.0000  0.5929  0.0000  0.0000      0.0000  0.0000  0.0000  0.0000  0.0000  0.0000  0.0000  0.0000  0.0000  0.0000
atom =   2  type =  1  l = 2
 
 onsite density matrix
 
spin component  1
 
  0.9617  0.0000 -0.0192  0.0000  0.0000
  0.0000  0.9564  0.0000 -0.0172  0.0000
 -0.0192  0.0000  0.9497  0.0000  0.0000
  0.0000 -0.0172  0.0000  0.9564  0.0000
  0.0000  0.0000  0.0000  0.0000  0.9397
 
spin component  2
 
  0.0553  0.0000 -0.0298  0.0000  0.0000
  0.0000  0.0457  0.0000 -0.0247  0.0000
 -0.0298  0.0000  0.0395  0.0000  0.0000
  0.0000 -0.0247  0.0000  0.0457  0.0000
  0.0000  0.0000  0.0000  0.0000  0.0178
 
 occupancies and eigenvectors
 
  o =  0.0165  v =  0.0000  0.0000  0.0000  0.0000  0.0000 -0.6099 -0.0000 -0.7925  0.0000  0.0000      0.0000  0.0000  0.0000  0.0000  0.0000  0.0000  0.0000  0.0000  0.0000  0.0000
  o =  0.0178  v =  0.0000  0.0000  0.0000  0.0000  0.0000 -0.0000  0.0000 -0.0000  0.0000 -1.0000      0.0000  0.0000  0.0000  0.0000  0.0000  0.0000  0.0000  0.0000  0.0000  0.0000
  o =  0.0211  v =  0.0000  0.0000  0.0000  0.0000  0.0000  0.0000  0.7071  0.0000  0.7071  0.0000      0.0000  0.0000  0.0000  0.0000  0.0000  0.0000  0.0000  0.0000  0.0000  0.0000
  o =  0.0704  v =  0.0000  0.0000  0.0000  0.0000  0.0000  0.0000  0.7071  0.0000 -0.7071  0.0000      0.0000  0.0000  0.0000  0.0000  0.0000  0.0000  0.0000  0.0000  0.0000  0.0000
  o =  0.0782  v =  0.0000  0.0000  0.0000  0.0000  0.0000 -0.7925 -0.0000  0.6099  0.0000  0.0000      0.0000  0.0000  0.0000  0.0000  0.0000  0.0000  0.0000  0.0000  0.0000  0.0000
  o =  0.9356  v = -0.5929  0.0000 -0.8053  0.0000  0.0000  0.0000  0.0000  0.0000  0.0000  0.0000      0.0000  0.0000  0.0000  0.0000  0.0000  0.0000  0.0000  0.0000  0.0000  0.0000
  o =  0.9392  v =  0.0000 -0.7071  0.0000 -0.7071  0.0000  0.0000  0.0000  0.0000  0.0000  0.0000      0.0000  0.0000  0.0000  0.0000  0.0000  0.0000  0.0000  0.0000  0.0000  0.0000
  o =  0.9397  v =  0.0000 -0.0000 -0.0000 -0.0000 -1.0000  0.0000  0.0000  0.0000  0.0000  0.0000      0.0000  0.0000  0.0000  0.0000  0.0000  0.0000  0.0000  0.0000  0.0000  0.0000
  o =  0.9736  v =  0.0000  0.7071  0.0000 -0.7071  0.0000  0.0000  0.0000  0.0000  0.0000  0.0000      0.0000  0.0000  0.0000  0.0000  0.0000  0.0000  0.0000  0.0000  0.0000  0.0000
  o =  0.9758  v = -0.8053  0.0000  0.5929  0.0000 -0.0000  0.0000  0.0000  0.0000  0.0000  0.0000      0.0000  0.0000  0.0000  0.0000  0.0000  0.0000  0.0000  0.0000  0.0000  0.0000
     EDDAV:  cpu time    0.3684: real time    0.3685
 BZINTS: Fermi energy:  1.997911; 54.000000 electrons
         Band energy:-752.252944;  BLOECHL correction:  0.000000
       DOS:  cpu time    0.0011: real time    0.0011
    CHARGE:  cpu time    0.0320: real time    0.0320
    MIXING:  cpu time    0.0010: real time    0.0010
    --------------------------------------------
      LOOP:  cpu time    0.7876: real time    0.7876

 eigenvalue-minimisations  :  1596
 total energy-change (2. order) :-0.8557748E-03  (-0.1846491E-02)
 number of electron      54.0000008 magnetization       0.0000000
 augmentation part       19.9328783 magnetization       0.0000000

 Broyden mixing:
  rms(total) = 0.24077E-01    rms(broyden)= 0.24071E-01
  rms(prec ) = 0.26349E-01
  weight for this iteration     100.00

 eigenvalues of (default mixing * dielectric matrix)
  average eigenvalue GAMMA=   1.1559
  2.4666  1.0448  0.6159  0.8260  0.8260

 Free energy of the ion-electron system (eV)
  ---------------------------------------------------
  alpha Z        PSCENC =       197.83455644
  Ewald energy   TEWEN  =     -4190.82401748
  -Hartree energ DENC   =     -2148.89084842
  -exchange      EXHF   =         0.00000000
  -V(xc)+E(xc)   XCENC  =       293.93843433
  PAW double counting   =      6263.64036855    -6380.99525101
  entropy T*S    EENTRO =         0.00000000
  eigenvalues    EBANDS =      -752.25294416
  atomic energy  EATOM  =      6677.64854832
  Solvation  Ediel_sol  =         0.00000000
  ---------------------------------------------------
  free energy    TOTEN  =       -39.90115343 eV

  energy without entropy =      -39.90115343  energy(sigma->0) =      -39.90115343


--------------------------------------------------------------------------------------------------------




--------------------------------------- Iteration      1(  11)  ---------------------------------------


    POTLOK:  cpu time    0.0154: real time    0.0154
    SETDIJ:  cpu time    0.3686: real time    0.3686
atom =   1  type =  1  l = 2
 
 onsite density matrix
 
spin component  1
 
  0.0531  0.0000  0.0295  0.0000  0.0000
  0.0000  0.0436  0.0000  0.0244  0.0000
  0.0295  0.0000  0.0373  0.0000  0.0000
  0.0000  0.0244  0.0000  0.0436  0.0000
  0.0000  0.0000  0.0000  0.0000  0.0160
 
spin component  2
 
  0.9647  0.0000  0.0192  0.0000 -0.0000
  0.0000  0.9595  0.0000  0.0172  0.0000
  0.0192  0.0000  0.9528  0.0000 -0.0000
  0.0000  0.0172  0.0000  0.9595  0.0000
 -0.0000  0.0000 -0.0000  0.0000  0.9428
 
 occupancies and eigenvectors
 
  o =  0.0147  v = -0.6090  0.0000  0.7932 -0.0000 -0.0000  0.0000  0.0000  0.0000  0.0000  0.0000      0.0000  0.0000  0.0000  0.0000  0.0000  0.0000  0.0000  0.0000  0.0000  0.0000
  o =  0.0160  v =  0.0000  0.0000 -0.0000 -0.0000 -1.0000  0.0000  0.0000  0.0000  0.0000  0.0000      0.0000  0.0000  0.0000  0.0000  0.0000  0.0000  0.0000  0.0000  0.0000  0.0000
  o =  0.0191  v =  0.0000  0.7071 -0.0000 -0.7071  0.0000  0.0000  0.0000  0.0000  0.0000  0.0000      0.0000  0.0000  0.0000  0.0000  0.0000  0.0000  0.0000  0.0000  0.0000  0.0000
  o =  0.0680  v =  0.0000  0.7071  0.0000  0.7071  0.0000  0.0000  0.0000  0.0000  0.0000  0.0000      0.0000  0.0000  0.0000  0.0000  0.0000  0.0000  0.0000  0.0000  0.0000  0.0000
  o =  0.0757  v = -0.7932  0.0000 -0.6090  0.0000 -0.0000  0.0000  0.0000  0.0000  0.0000  0.0000      0.0000  0.0000  0.0000  0.0000  0.0000  0.0000  0.0000  0.0000  0.0000  0.0000
  o =  0.9386  v =  0.0000  0.0000  0.0000  0.0000  0.0000  0.5932  0.0000 -0.8051  0.0000 -0.0000      0.0000  0.0000  0.0000  0.0000  0.0000  0.0000  0.0000  0.0000  0.0000  0.0000
  o =  0.9423  v =  0.0000  0.0000  0.0000  0.0000  0.0000 -0.0000  0.7071  0.0000 -0.7071 -0.0000      0.0000  0.0000  0.0000  0.0000  0.0000  0.0000  0.0000  0.0000  0.0000  0.0000
  o =  0.9428  v =  0.0000  0.0000  0.0000  0.0000  0.0000 -0.0000 -0.0000  0.0000  0.0000 -1.0000      0.0000  0.0000  0.0000  0.0000  0.0000  0.0000  0.0000  0.0000  0.0000  0.0000
  o =  0.9767  v =  0.0000  0.0000  0.0000  0.0000  0.0000  0.0000  0.7071  0.0000  0.7071  0.0000      0.0000  0.0000  0.0000  0.0000  0.0000  0.0000  0.0000  0.0000  0.0000  0.0000
  o =  0.9789  v =  0.0000  0.0000  0.0000  0.0000  0.0000  0.8051 -0.0000  0.5932  0.0000 -0.0000      0.0000  0.0000  0.0000  0.0000  0.0000  0.0000  0.0000  0.0000  0.0000  0.0000
atom =   2  type =  1  l = 2
 
 onsite density matrix
 
spin component  1
 
  0.9647  0.0000 -0.0192  0.0000 -0.0000
  0.0000  0.9595  0.0000 -0.0172  0.0000
 -0.0192  0.0000  0.9528  0.0000  0.0000
  0.0000 -0.0172  0.0000  0.9595  0.0000
 -0.0000  0.0000  0.0000  0.0000  0.9428
 
spin component  2
 
  0.0531  0.0000 -0.0295  0.0000  0.0000
  0.0000  0.0436  0.0000 -0.0244  0.0000
 -0.0295  0.0000  0.0373  0.0000  0.0000
  0.0000 -0.0244  0.0000  0.0436  0.0000
  0.0000  0.0000  0.0000  0.0000  0.0160
 
 occupancies and eigenvectors
 
  o =  0.0147  v =  0.0000  0.0000  0.0000  0.0000  0.0000 -0.6090  0.0000 -0.7932  0.0000  0.0000      0.0000  0.0000  0.0000  0.0000  0.0000  0.0000  0.0000  0.0000  0.0000  0.0000
  o =  0.0160  v =  0.0000  0.0000  0.0000  0.0000  0.0000 -0.0000  0.0000 -0.0000 -0.0000 -1.0000      0.0000  0.0000  0.0000  0.0000  0.0000  0.0000  0.0000  0.0000  0.0000  0.0000
  o =  0.0191  v =  0.0000  0.0000  0.0000  0.0000  0.0000 -0.0000 -0.7071 -0.0000 -0.7071  0.0000      0.0000  0.0000  0.0000  0.0000  0.0000  0.0000  0.0000  0.0000  0.0000  0.0000
  o =  0.0680  v =  0.0000  0.0000  0.0000  0.0000  0.0000 -0.0000 -0.7071  0.0000  0.7071  0.0000      0.0000  0.0000  0.0000  0.0000  0.0000  0.0000  0.0000  0.0000  0.0000  0.0000
[...]
     33       8.5631      0.00000
     34       9.8446      0.00000
     35      10.2883      0.00000
     36      11.3328      0.00000

 k-point     7 :       0.1250    0.1250    0.4167
  band No.  band energies     occupation 
      1     -46.6146      1.00000
      2     -46.5744      1.00000
      3     -46.5559      1.00000
      4     -41.6847      1.00000
      5     -41.6540      1.00000
      6     -41.6280      1.00000
      7     -20.8294      1.00000
      8     -20.6967      1.00000
      9     -20.6473      1.00000
     10     -20.5663      1.00000
     11      -4.0871      1.00000
     12      -3.8526      1.00000
     13      -3.5703      1.00000
     14      -3.4307      1.00000
     15      -3.2753      1.00000
     16      -3.0782      1.00000
     17      -2.6612      1.00000
     18      -2.4770      1.00000
     19      -2.3463      1.00000
     20      -1.9135      1.00000
     21      -1.7999      1.00000
     22      -1.7254      1.00000
     23       0.4286      1.00000
     24       0.5304      1.00000
     25       0.8109      1.00000
     26       1.4090      1.00000
     27       1.7327      1.00000
     28       6.3800      0.00000
     29       6.3811      0.00000
     30       6.5212      0.00000
     31       7.1856      0.00000
     32       7.4245      0.00000
     33       8.5560      0.00000
     34      10.7725      0.00000
     35      12.1227      0.00000
     36      12.6081      0.00000

 k-point     8 :       0.3750    0.1250    0.4167
  band No.  band energies     occupation 
      1     -46.6146      1.00000
      2     -46.5744      1.00000
      3     -46.5559      1.00000
      4     -41.6847      1.00000
      5     -41.6540      1.00000
      6     -41.6281      1.00000
      7     -20.7710      1.00000
      8     -20.7122      1.00000
      9     -20.6627      1.00000
     10     -20.5931      1.00000
     11      -4.0886      1.00000
     12      -3.8510      1.00000
     13      -3.7832      1.00000
     14      -3.5537      1.00000
     15      -3.2459      1.00000
     16      -2.9334      1.00000
     17      -2.7757      1.00000
     18      -2.6395      1.00000
     19      -2.0941      1.00000
     20      -1.8855      1.00000
     21      -1.6833      1.00000
     22      -1.5682      1.00000
     23       0.4333      1.00000
     24       0.4765      1.00000
     25       0.7298      1.00000
     26       1.3596      1.00000
     27       1.8938      1.00000
     28       6.3686      0.00000
     29       6.3721      0.00000
     30       6.5860      0.00000
     31       7.1375      0.00000
     32       7.6122      0.00000
     33       9.1436      0.00000
     34      10.6198      0.00000
     35      11.1283      0.00000
     36      12.3319      0.00000

 k-point     9 :       0.3750    0.3750    0.4167
  band No.  band energies     occupation 
      1     -46.6146      1.00000
      2     -46.5744      1.00000
      3     -46.5559      1.00000
      4     -41.6848      1.00000
      5     -41.6540      1.00000
      6     -41.6281      1.00000
      7     -20.7539      1.00000
      8     -20.7331      1.00000
      9     -20.6625      1.00000
     10     -20.5858      1.00000
     11      -4.3358      1.00000
     12      -4.0969      1.00000
     13      -3.7504      1.00000
     14      -3.6775      1.00000
     15      -3.2586      1.00000
     16      -2.8959      1.00000
     17      -2.6711      1.00000
     18      -2.4572      1.00000
     19      -1.8783      1.00000
     20      -1.7179      1.00000
     21      -1.6183      1.00000
     22      -1.5203      1.00000
     23       0.4370      1.00000
     24       0.4659      1.00000
     25       0.7044      1.00000
     26       1.4028      1.00000
     27       1.8613      1.00000
     28       6.3708      0.00000
     29       6.3770      0.00000
     30       6.6049      0.00000
     31       7.1148      0.00000
     32       7.5089      0.00000
     33       9.5910      0.00000
     34      11.1249      0.00000
     35      11.2757      0.00000
     36      11.3500      0.00000


--------------------------------------------------------------------------------------------------------


 soft charge-density along one line, spin component           1
         0         1         2         3         4         5         6         7         8         9
 total charge-density along one line
 
 soft charge-density along one line, spin component           2
         0         1         2         3         4         5         6         7         8         9
 total charge-density along one line
 
 pseudopotential strength for first ion, spin component:           1
-42.445  -0.000  -0.030   7.844   0.000   0.013   0.000   0.000
 -0.000 -42.417  -0.000   0.000   7.832   0.000  -0.000   0.000
 -0.030  -0.000 -42.445   0.013   0.000   7.844   0.000  -0.000
  7.844   0.000   0.013   5.260  -0.000  -0.002   0.000  -0.000
  0.000   7.832   0.000  -0.000   5.262  -0.000   0.000  -0.000
  0.013   0.000   7.844  -0.002  -0.000   5.260  -0.000   0.000
  0.000  -0.000   0.000   0.000   0.000  -0.000  -2.235  -0.000
  0.000   0.000  -0.000  -0.000  -0.000   0.000  -0.000  -2.205
 -0.000   0.000   0.000   0.000  -0.000  -0.000  -0.029   0.000
 -0.000   0.000   0.000   0.000  -0.000  -0.000  -0.000  -0.052
 -0.000   0.000  -0.000   0.000  -0.000   0.000   0.000   0.000
  0.000  -0.000   0.000   0.000   0.000  -0.000  -2.701  -0.000
  0.000   0.000  -0.000  -0.000  -0.000   0.000  -0.000  -2.671
 -0.000   0.000   0.000   0.000  -0.000  -0.000  -0.031   0.000
 -0.000   0.000   0.000   0.000  -0.000  -0.000  -0.000  -0.053
 -0.000   0.000  -0.000   0.000  -0.000   0.000   0.000   0.000
 -0.000  -0.000   0.000  -0.000  -0.000   0.000   0.007   0.000
 -0.000  -0.000   0.000  -0.000  -0.000   0.000   0.014   0.000
 pseudopotential strength for first ion, spin component:           2
-45.753  -0.000  -0.022   9.361   0.000   0.008   0.000   0.000
 -0.000 -45.733  -0.000   0.000   9.355   0.000  -0.000   0.000
 -0.022  -0.000 -45.753   0.008   0.000   9.361   0.000  -0.000
  9.361   0.000   0.008   4.751  -0.000  -0.001   0.000  -0.000
  0.000   9.355   0.000  -0.000   4.752  -0.000   0.000  -0.000
  0.008   0.000   9.361  -0.001  -0.000   4.751  -0.000   0.000
  0.000  -0.000   0.000   0.000   0.000  -0.000  -6.846  -0.000
  0.000   0.000  -0.000  -0.000  -0.000   0.000  -0.000  -6.829
 -0.000   0.000   0.000   0.000  -0.000  -0.000  -0.009   0.000
 -0.000   0.000   0.000   0.000  -0.000  -0.000  -0.000  -0.035
 -0.000   0.000  -0.000   0.000  -0.000   0.000   0.000   0.000
  0.000  -0.000   0.000   0.000   0.000  -0.000  -7.319  -0.000
  0.000   0.000  -0.000  -0.000  -0.000   0.000  -0.000  -7.301
 -0.000   0.000   0.000   0.000  -0.000  -0.000  -0.011   0.000
 -0.000   0.000   0.000   0.000  -0.000  -0.000  -0.000  -0.036
 -0.000   0.000  -0.000   0.000  -0.000   0.000   0.000   0.000
 -0.000  -0.000   0.000  -0.000  -0.000   0.000   0.003   0.000
 -0.000  -0.000   0.000  -0.000  -0.000   0.000   0.006   0.000
 total augmentation occupancy for first ion, spin component:           1
  1.998   0.000   0.000  -0.014   0.000   0.000   0.000   0.000   0.000   0.000   0.000   0.000   0.000   0.000   0.000   0.000
  0.000   1.998   0.000   0.000  -0.014   0.000   0.000   0.000   0.000   0.000   0.000   0.000   0.000   0.000   0.000   0.000
  0.000   0.000   1.998   0.000   0.000  -0.014   0.000   0.000   0.000   0.000   0.000   0.000   0.000   0.000   0.000   0.000
 -0.014   0.000   0.000   0.087   0.000  -0.009   0.000   0.000   0.000   0.000   0.000   0.000   0.000   0.000   0.000   0.000
  0.000  -0.014   0.000   0.000   0.099   0.000   0.000   0.000   0.000   0.000   0.000   0.000   0.000   0.000   0.000   0.000
  0.000   0.000  -0.014  -0.009   0.000   0.087   0.000   0.000   0.000   0.000   0.000   0.000   0.000   0.000   0.000   0.000
  0.000   0.000   0.000   0.000   0.000   0.000   7.565   0.000   2.887   0.000   0.000  -5.646   0.000  -2.731   0.000   0.000
  0.000   0.000   0.000   0.000   0.000   0.000   0.000   6.427   0.000   2.520   0.000   0.000  -4.560   0.000  -2.374   0.000
  0.000   0.000   0.000   0.000   0.000   0.000   2.887   0.000   5.804   0.000   0.000  -2.732   0.000  -3.999   0.000   0.000
  0.000   0.000   0.000   0.000   0.000   0.000   0.000   2.520   0.000   6.427   0.000   0.000  -2.374   0.000  -4.560   0.000
  0.000   0.000   0.000   0.000   0.000   0.000   0.000   0.000  -0.000   0.000   3.804   0.000   0.000   0.000   0.000  -2.062
  0.000   0.000   0.000   0.000   0.000   0.000  -5.646   0.000  -2.732   0.000  -0.000   4.897   0.000   2.619   0.000  -0.000
  0.000   0.000   0.000   0.000   0.000   0.000   0.000  -4.560   0.000  -2.374   0.000   0.000   3.850   0.000   2.266   0.000
  0.000   0.000   0.000   0.000   0.000   0.000  -2.731   0.000  -3.999   0.000   0.000   2.619   0.000   3.339   0.000   0.000
  0.000   0.000   0.000   0.000   0.000   0.000   0.000  -2.374   0.000  -4.560   0.000   0.000   2.266   0.000   3.850   0.000
  0.000   0.000   0.000   0.000   0.000   0.000  -0.000   0.000   0.000   0.000  -2.062  -0.000   0.000   0.000   0.000   1.441
  0.000   0.000   0.000   0.000   0.000   0.000   0.213   0.000  -0.202   0.000  -0.000  -0.249   0.000   0.218   0.000   0.000
  0.000   0.000   0.000   0.000   0.000   0.000   0.006   0.000   0.014   0.000  -0.000   0.024   0.000  -0.030   0.000   0.000
 total augmentation occupancy for first ion, spin component:           2
  0.003   0.000  -0.000   0.011   0.000  -0.001   0.000   0.000   0.000   0.000   0.000   0.000   0.000   0.000   0.000   0.000
  0.000   0.003   0.000   0.000   0.012   0.000   0.000   0.000   0.000   0.000   0.000   0.000   0.000   0.000   0.000   0.000
 -0.000   0.000   0.003  -0.001   0.000   0.011   0.000   0.000   0.000   0.000   0.000   0.000   0.000   0.000   0.000   0.000
  0.011   0.000  -0.001  -0.011   0.000  -0.000   0.000   0.000   0.000   0.000   0.000   0.000   0.000   0.000   0.000   0.000
  0.000   0.012   0.000   0.000  -0.010   0.000   0.000   0.000   0.000   0.000   0.000   0.000   0.000   0.000   0.000   0.000
 -0.001   0.000   0.011  -0.000   0.000  -0.011   0.000   0.000   0.000   0.000   0.000   0.000   0.000   0.000   0.000   0.000
  0.000   0.000   0.000   0.000   0.000   0.000  -5.202   0.000  -1.554   0.000   0.000   2.899   0.000   1.189   0.000   0.000
  0.000   0.000   0.000   0.000   0.000   0.000   0.000  -4.605   0.000  -1.380   0.000   0.000   2.426   0.000   1.057   0.000
  0.000   0.000   0.000   0.000   0.000   0.000  -1.554   0.000  -4.173   0.000  -0.000   1.189   0.000   2.101   0.000   0.000
  0.000   0.000   0.000   0.000   0.000   0.000   0.000  -1.380   0.000  -4.605   0.000   0.000   1.057   0.000   2.426   0.000
  0.000   0.000   0.000   0.000   0.000   0.000   0.000   0.000   0.000   0.000  -3.232   0.000   0.000   0.000   0.000   1.374
  0.000   0.000   0.000   0.000   0.000   0.000   2.899   0.000   1.189   0.000  -0.000  -1.693   0.000  -0.828   0.000   0.000
  0.000   0.000   0.000   0.000   0.000   0.000   0.000   2.426   0.000   1.057   0.000   0.000  -1.343   0.000  -0.740   0.000
  0.000   0.000   0.000   0.000   0.000   0.000   1.189   0.000   2.101   0.000   0.000  -0.828   0.000  -1.121   0.000   0.000
  0.000   0.000   0.000   0.000   0.000   0.000   0.000   1.057   0.000   2.426   0.000   0.000  -0.740   0.000  -1.343   0.000
  0.000   0.000   0.000   0.000   0.000   0.000   0.000   0.000   0.000   0.000   1.374   0.000   0.000   0.000   0.000  -0.611
  0.000   0.000   0.000   0.000   0.000   0.000   0.032   0.000   0.002   0.000   0.000  -0.035   0.000   0.012   0.000  -0.000
  0.000   0.000   0.000   0.000   0.000   0.000  -0.056   0.000   0.024   0.000   0.000   0.033   0.000  -0.013   0.000   0.000


------------------------ aborting loop because EDIFF is reached ----------------------------------------


 


 total charge     
 
# of ion       s       p       d       tot
------------------------------------------
    1        0.165   6.155   4.954  11.274
    2        0.170   6.150   4.961  11.281
    3        1.727   4.362   0.000   6.089
    4        1.727   4.362   0.000   6.089
    5        1.727   4.357   0.000   6.084
    6        1.727   4.357   0.000   6.084
--------------------------------------------------
tot          7.243  29.744   9.915  46.902
 


 magnetization (x)
 
# of ion       s       p       d       tot
------------------------------------------
    1       -0.017  -0.018  -4.570  -4.606
    2        0.018   0.017   4.567   4.602
    3        0.002   0.022   0.000   0.024
    4        0.002   0.022   0.000   0.024
    5       -0.003  -0.017   0.000  -0.020
    6       -0.003  -0.017   0.000  -0.020
--------------------------------------------------
tot         -0.001   0.007  -0.003   0.003
 
    CHARGE:  cpu time    0.0318: real time    0.0318
    FORLOC:  cpu time    0.0011: real time    0.0011
    FORNL :  cpu time    0.1746: real time    0.1746
    STRESS:  cpu time    0.5157: real time    0.5157
    FORCOR:  cpu time    0.0151: real time    0.0151
    FORHAR:  cpu time    0.0021: real time    0.0021
    MIXING:  cpu time    0.0008: real time    0.0008
    OFIELD:  cpu time    0.0000: real time    0.0000

  FORCE on cell =-STRESS in cart. coord.  units (eV):
  Direction    XX          YY          ZZ          XY          YZ          ZX
  --------------------------------------------------------------------------------------
  Alpha Z   197.83456   197.83456   197.83456
  Ewald   -1583.92425 -1583.92425 -1022.97863     0.00000     0.00000     0.00000
  Hartree   589.98010   589.98010   969.47612    -0.00000    -0.00000    -0.00000
  E(xc)    -313.94948  -313.94948  -313.73635    -0.00000    -0.00000    -0.00000
  Local     162.15213   162.15213  -771.43710    -0.00000    -0.00000     0.00000
  n-local  -242.09629  -242.41092  -241.36093     0.01152     0.11226     0.11003
  augment   265.50367   265.50367   265.01401     0.00000     0.00000     0.00000
  Kinetic   924.30100   925.02675   917.18633    -0.50063    -0.90009    -0.95028
  Fock        0.00000     0.00000     0.00000     0.00000     0.00000     0.00000
  -------------------------------------------------------------------------------------
  Total       0.00700     0.00700    -0.00200    -0.00000     0.00000     0.00000
  in kB       0.14369     0.14369    -0.04109    -0.00000     0.00000     0.00000
  external pressure =        0.08 kB  Pullay stress =        0.00 kB


 VOLUME and BASIS-vectors are now :
 -----------------------------------------------------------------------------
  energy-cutoff  :      600.00
  volume of cell :       78.03
      direct lattice vectors                 reciprocal lattice vectors
     4.870028878  0.000000000  0.000000000     0.205337591  0.000000000  0.000000000
     0.000000000  4.870028878  0.000000000     0.000000000  0.205337591  0.000000000
     0.000000000  0.000000000  3.290117217     0.000000000  0.000000000  0.303940539

  length of vectors
     4.870028878  4.870028878  3.290117217     0.205337591  0.205337591  0.303940539


 FORCES acting on ions
    electron-ion (+dipol)            ewald-force                    non-local-force                 convergence-correction
 -----------------------------------------------------------------------------------------------
   -.175E-11 0.654E-11 -.841E-14   0.171E-12 0.284E-13 -.152E-13   0.000E+00 0.000E+00 0.000E+00   -.625E-13 -.227E-13 0.825E-13
   -.315E-13 -.327E-13 0.384E-13   0.853E-13 0.000E+00 -.153E-13   0.000E+00 0.000E+00 0.000E+00   -.589E-13 0.129E-13 -.845E-13
   -.336E+02 0.336E+02 0.760E-12   0.349E+02 -.349E+02 0.246E-14   -.133E+01 0.133E+01 -.434E-18   -.122E-03 0.122E-03 0.167E-12
   0.336E+02 -.336E+02 0.651E-11   -.349E+02 0.349E+02 0.222E-14   0.133E+01 -.133E+01 0.434E-18   0.122E-03 -.122E-03 -.842E-13
   0.336E+02 0.336E+02 0.308E-08   -.349E+02 -.349E+02 0.403E-14   0.133E+01 0.133E+01 -.434E-18   0.122E-03 0.122E-03 -.131E-09
   -.336E+02 -.336E+02 -.308E-08   0.349E+02 0.349E+02 0.373E-14   -.133E+01 -.133E+01 0.434E-18   -.122E-03 -.122E-03 0.131E-09
 -----------------------------------------------------------------------------------------------
   -.978E-12 -.132E-11 0.730E-11   -.711E-14 0.000E+00 -.180E-13   -.222E-15 -.222E-15 0.000E+00   -.618E-13 -.668E-13 0.238E-13
 
 
 POSITION                                       TOTAL-FORCE (eV/Angst)
 -----------------------------------------------------------------------------------
      2.43501      2.43501      1.64506         0.000000      0.000000     -0.000000
      0.00000      0.00000      0.00000         0.000000      0.000000     -0.000000
      0.95428      3.91575      1.64506        -0.003006      0.003006     -0.000000
      3.91575      0.95428      1.64506         0.003006     -0.003006     -0.000000
      1.48074      1.48074      0.00000         0.003006      0.003006     -0.000000
      3.38929      3.38929      0.00000        -0.003006     -0.003006      0.000000
 -----------------------------------------------------------------------------------
    total drift:                               -0.000000     -0.000000      0.000000


--------------------------------------------------------------------------------------------------------



  FREE ENERGIE OF THE ION-ELECTRON SYSTEM (eV)
  ---------------------------------------------------
  free  energy   TOTEN  =       -39.90171516 eV

  energy  without entropy=      -39.90171516  energy(sigma->0) =      -39.90171516
 


--------------------------------------------------------------------------------------------------------


    POTLOK:  cpu time    0.3845: real time    0.3845


--------------------------------------------------------------------------------------------------------


 writing wavefunctions
     LOOP+:  cpu time   11.8942: real time   11.9123
    4ORBIT:  cpu time    0.0000: real time    0.0000
 


 total charge     
 
# of ion       s       p       d       tot
------------------------------------------
    1        0.165   6.155   4.954  11.274
    2        0.170   6.150   4.961  11.281
    3        1.727   4.362   0.000   6.089
    4        1.727   4.362   0.000   6.089
    5        1.727   4.357   0.000   6.084
    6        1.727   4.357   0.000   6.084
--------------------------------------------------
tot          7.243  29.744   9.915  46.902
 


 magnetization (x)
 
# of ion       s       p       d       tot
------------------------------------------
    1       -0.017  -0.018  -4.570  -4.606
    2        0.018   0.017   4.567   4.602
    3        0.002   0.022   0.000   0.024
    4        0.002   0.022   0.000   0.024
    5       -0.003  -0.017   0.000  -0.020
    6       -0.003  -0.017   0.000  -0.020
--------------------------------------------------
tot         -0.001   0.007  -0.003   0.003
 
 BZINTS: Fermi energy:  2.013942; 54.000000 electrons
         Band energy:-751.896469;  BLOECHL correction:  0.000000

 total amount of memory used by VASP MPI-rank0    43924. kBytes
=======================================================================

   base      :      30000. kBytes
   nonl-proj :       7064. kBytes
   fftplans  :       1875. kBytes
   grid      :       2467. kBytes
   one-center:        186. kBytes
   wavefun   :       2332. kBytes
 
  
  
 General timing and accounting informations for this job:
 ========================================================
  
                  Total CPU time used (sec):       13.133
                            User time (sec):        9.664
                          System time (sec):        3.469
                         Elapsed time (sec):       13.322
  
                   Maximum memory used (kb):       58884.
                   Average memory used (kb):           0.
  
                          Minor page faults:         8453
                          Major page faults:            5
                 Voluntary context switches:          147
