 vasp.5.4.4.18Apr17-6-g9f103f2a35 (build Apr 27 2017 11:13:10) complex          
  
 executed on           IFC91_ompi date 2021.06.08  16:47:50
 running on   12 total cores
 distrk:  each k-point on   12 cores,    1 groups
 distr:  one band on NCORES_PER_BAND=   1 cores,   12 groups


--------------------------------------------------------------------------------------------------------


 INCAR:
 POTCAR:    PAW_PBE Mn_pv 02Aug2007               
 POTCAR:    PAW_PBE F 08Apr2002                   

 ----------------------------------------------------------------------------- 
|                                                                             |
|           W    W    AA    RRRRR   N    N  II  N    N   GGGG   !!!           |
|           W    W   A  A   R    R  NN   N  II  NN   N  G    G  !!!           |
|           W    W  A    A  R    R  N N  N  II  N N  N  G       !!!           |
|           W WW W  AAAAAA  RRRRR   N  N N  II  N  N N  G  GGG   !            |
|           WW  WW  A    A  R   R   N   NN  II  N   NN  G    G                |
|           W    W  A    A  R    R  N    N  II  N    N   GGGG   !!!           |
|                                                                             |
|      For optimal performance we recommend to set                            |
|        NCORE= 4 - approx SQRT( number of cores)                             |
|      NCORE specifies how many cores store one orbital (NPAR=cpu/NCORE).     |
|      This setting can  greatly improve the performance of VASP for DFT.     |
|      The default,   NCORE=1            might be grossly inefficient         |
|      on modern multi-core architectures or massively parallel machines.     |
|      Do your own testing !!!!                                               |
|      Unfortunately you need to use the default for GW and RPA calculations. |
|      (for HF NCORE is supported but not extensively tested yet)             |
|                                                                             |
 ----------------------------------------------------------------------------- 

 POTCAR:    PAW_PBE Mn_pv 02Aug2007               
   VRHFIN =Mn: 3p4s3d                                                           
   LEXCH  = PE                                                                  
   EATOM  =  2025.2664 eV,  148.8529 Ry                                         
                                                                                
   TITEL  = PAW_PBE Mn_pv 02Aug2007                                             
   LULTRA =        F    use ultrasoft PP ?                                      
   IUNSCR =        1    unscreen: 0-lin 1-nonlin 2-no                           
   RPACOR =    2.080    partial core radius                                     
   POMASS =   54.938; ZVAL   =   13.000    mass and valenz                      
   RCORE  =    2.300    outmost cutoff radius                                   
   RWIGS  =    2.500; RWIGS  =    1.323    wigner-seitz radius (au A)           
   ENMAX  =  269.864; ENMIN  =  202.398 eV                                      
   ICORE  =        3    local potential                                         
   LCOR   =        T    correct aug charges                                     
   LPAW   =        T    paw PP                                                  
   EAUG   =  569.085                                                            
   DEXC   =    0.000                                                            
   RMAX   =    2.343    core radius for proj-oper                               
   RAUG   =    1.300    factor for augmentation sphere                          
   RDEP   =    2.338    radius for radial grids                                 
   RDEPT  =    1.798    core radius for aug-charge                              
                                                                                
   Atomic configuration                                                         
    8 entries                                                                   
     n  l   j            E        occ.                                          
     1  0  0.50     -6424.8287   2.0000                                         
     2  0  0.50      -739.1154   2.0000                                         
     2  1  1.50      -625.3949   6.0000                                         
     3  0  0.50       -81.6100   2.0000                                         
     3  1  1.50       -50.4667   6.0000                                         
     3  2  2.50        -3.3745   6.0000                                         
     4  0  0.50        -4.1331   1.0000                                         
     4  3  2.50        -1.3606   0.0000                                         
   Description                                                                  
     l       E           TYP  RCUT    TYP  RCUT                                 
     1    -50.4666628     23  2.000                                             
     1     -1.3605826     23  2.000                                             
     2     -3.3744729     23  2.300                                             
     2     -4.7350555     23  2.300                                             
     0     -4.1331431     23  2.300                                             
     0      7.6656591     23  2.300                                             
     3      9.5240782     23  2.300                                             
  local pseudopotential read in
  partial core-charges read in
  partial kinetic energy density read in
  atomic valenz-charges read in
  non local Contribution for L=           1  read in
    real space projection operators read in
  non local Contribution for L=           1  read in
    real space projection operators read in
  non local Contribution for L=           2  read in
    real space projection operators read in
  non local Contribution for L=           2  read in
    real space projection operators read in
  non local Contribution for L=           0  read in
    real space projection operators read in
  non local Contribution for L=           0  read in
    real space projection operators read in
    PAW grid and wavefunctions read in
 
   number of l-projection  operators is LMAX  =           6
   number of lm-projection operators is LMMAX =          18
 
 POTCAR:    PAW_PBE F 08Apr2002                   
   VRHFIN =F: s2p5                                                              
   LEXCH  = PE                                                                  
   EATOM  =   659.6475 eV,   48.4827 Ry                                         
                                                                                
   TITEL  = PAW_PBE F 08Apr2002                                                 
   LULTRA =        F    use ultrasoft PP ?                                      
   IUNSCR =        1    unscreen: 0-lin 1-nonlin 2-no                           
   RPACOR =    1.200    partial core radius                                     
   POMASS =   18.998; ZVAL   =    7.000    mass and valenz                      
   RCORE  =    1.520    outmost cutoff radius                                   
   RWIGS  =    1.500; RWIGS  =    0.794    wigner-seitz radius (au A)           
   ENMAX  =  400.000; ENMIN  =  300.000 eV                                      
   ICORE  =        2    local potential                                         
   LCOR   =        T    correct aug charges                                     
   LPAW   =        T    paw PP                                                  
   EAUG   =  613.614                                                            
   RMAX   =    1.555    core radius for proj-oper                               
   RAUG   =    1.300    factor for augmentation sphere                          
   RDEP   =    1.539    radius for radial grids                                 
   RDEPT  =    1.299    core radius for aug-charge                              
                                                                                
   Atomic configuration                                                         
    4 entries                                                                   
     n  l   j            E        occ.                                          
     1  0  0.50      -663.3661   2.0000                                         
     2  0  0.50       -29.8995   2.0000                                         
     2  1  0.50       -11.1114   5.0000                                         
     3  2  1.50       -10.8847   0.0000                                         
   Description                                                                  
     l       E           TYP  RCUT    TYP  RCUT                                 
     0    -29.8995018     23  1.200                                             
     0     -9.5240782     23  1.200                                             
     1    -11.1113914     23  1.520                                             
     1      1.3605826     23  1.520                                             
     2    -10.8846608      7  1.500                                             
  local pseudopotential read in
  partial core-charges read in
  partial kinetic energy density read in
  atomic valenz-charges read in
  non local Contribution for L=           0  read in
    real space projection operators read in
  non local Contribution for L=           0  read in
    real space projection operators read in
  non local Contribution for L=           1  read in
    real space projection operators read in
  non local Contribution for L=           1  read in
    real space projection operators read in
    PAW grid and wavefunctions read in
 
   number of l-projection  operators is LMAX  =           4
   number of lm-projection operators is LMMAX =           8
 
  PAW_PBE Mn_pv 02Aug2007               :
 energy of atom  1       EATOM=-2025.2664
 kinetic energy error for atom=    0.0047 (will be added to EATOM!!)
  PAW_PBE F 08Apr2002                   :
 energy of atom  2       EATOM= -659.6475
 kinetic energy error for atom=    0.0256 (will be added to EATOM!!)
 
 
 POSCAR: Mn  F                                   
  positions in cartesian coordinates
  No initial velocities read in

 METAGGA = SCAN     LMAXTAU =  6    LMIXTAU =  F

 exchange correlation table for  LEXCH =        8
   RHO(1)=    0.500       N(1)  =     2000
   RHO(2)=  100.500       N(2)  =     4000
 


--------------------------------------------------------------------------------------------------------


 ion  position               nearest neighbor table
   1  0.500  0.500  0.500-   3 2.11   4 2.11   5 2.14   6 2.14   5 2.14   6 2.14
   2  0.000  0.000  0.000-   5 2.11   6 2.11   3 2.14   4 2.14   3 2.14   4 2.14
   3  0.195  0.805  0.500-   1 2.11   2 2.14   2 2.14
   4  0.805  0.195  0.500-   1 2.11   2 2.14   2 2.14
   5  0.305  0.305  0.000-   2 2.11   1 2.14   1 2.14
   6  0.695  0.695  0.000-   2 2.11   1 2.14   1 2.14
 

IMPORTANT INFORMATION: All symmetrisations will be switched off!
NOSYMM: (Re-)initialisation of all symmetry stuff for point group C_1.

 
 
 KPOINTS: KPOINTS created by Atomic Simulation Env

Automatic generation of k-mesh.
Space group operators:
 irot       det(A)        alpha          n_x          n_y          n_z        tau_x        tau_y        tau_z
    1     1.000000     0.000000     1.000000     0.000000     0.000000     0.000000     0.000000     0.000000
 
 Subroutine IBZKPT returns following result:
 ===========================================
 
 Found     48 irreducible k-points:
 
 Following reciprocal coordinates:
            Coordinates               Weight
  0.125000  0.125000  0.083333      2.000000
  0.375000  0.125000  0.083333      2.000000
 -0.375000  0.125000  0.083333      2.000000
 -0.125000  0.125000  0.083333      2.000000
  0.125000  0.375000  0.083333      2.000000
  0.375000  0.375000  0.083333      2.000000
 -0.375000  0.375000  0.083333      2.000000
 -0.125000  0.375000  0.083333      2.000000
  0.125000 -0.375000  0.083333      2.000000
  0.375000 -0.375000  0.083333      2.000000
 -0.375000 -0.375000  0.083333      2.000000
 -0.125000 -0.375000  0.083333      2.000000
  0.125000 -0.125000  0.083333      2.000000
  0.375000 -0.125000  0.083333      2.000000
 -0.375000 -0.125000  0.083333      2.000000
 -0.125000 -0.125000  0.083333      2.000000
  0.125000  0.125000  0.250000      2.000000
  0.375000  0.125000  0.250000      2.000000
 -0.375000  0.125000  0.250000      2.000000
 -0.125000  0.125000  0.250000      2.000000
  0.125000  0.375000  0.250000      2.000000
  0.375000  0.375000  0.250000      2.000000
 -0.375000  0.375000  0.250000      2.000000
 -0.125000  0.375000  0.250000      2.000000
  0.125000 -0.375000  0.250000      2.000000
  0.375000 -0.375000  0.250000      2.000000
 -0.375000 -0.375000  0.250000      2.000000
 -0.125000 -0.375000  0.250000      2.000000
  0.125000 -0.125000  0.250000      2.000000
  0.375000 -0.125000  0.250000      2.000000
 -0.375000 -0.125000  0.250000      2.000000
 -0.125000 -0.125000  0.250000      2.000000
  0.125000  0.125000  0.416667      2.000000
  0.375000  0.125000  0.416667      2.000000
 -0.375000  0.125000  0.416667      2.000000
 -0.125000  0.125000  0.416667      2.000000
  0.125000  0.375000  0.416667      2.000000
  0.375000  0.375000  0.416667      2.000000
 -0.375000  0.375000  0.416667      2.000000
 -0.125000  0.375000  0.416667      2.000000
  0.125000 -0.375000  0.416667      2.000000
  0.375000 -0.375000  0.416667      2.000000
 -0.375000 -0.375000  0.416667      2.000000
 -0.125000 -0.375000  0.416667      2.000000
  0.125000 -0.125000  0.416667      2.000000
  0.375000 -0.125000  0.416667      2.000000
 -0.375000 -0.125000  0.416667      2.000000
 -0.125000 -0.125000  0.416667      2.000000
 
 Following cartesian coordinates:
            Coordinates               Weight
  0.025585  0.025585  0.025174      2.000000
  0.076755  0.025585  0.025174      2.000000
 -0.076755  0.025585  0.025174      2.000000
 -0.025585  0.025585  0.025174      2.000000
  0.025585  0.076755  0.025174      2.000000
  0.076755  0.076755  0.025174      2.000000
 -0.076755  0.076755  0.025174      2.000000
 -0.025585  0.076755  0.025174      2.000000
  0.025585 -0.076755  0.025174      2.000000
  0.076755 -0.076755  0.025174      2.000000
 -0.076755 -0.076755  0.025174      2.000000
 -0.025585 -0.076755  0.025174      2.000000
  0.025585 -0.025585  0.025174      2.000000
  0.076755 -0.025585  0.025174      2.000000
 -0.076755 -0.025585  0.025174      2.000000
 -0.025585 -0.025585  0.025174      2.000000
  0.025585  0.025585  0.075522      2.000000
  0.076755  0.025585  0.075522      2.000000
 -0.076755  0.025585  0.075522      2.000000
 -0.025585  0.025585  0.075522      2.000000
  0.025585  0.076755  0.075522      2.000000
  0.076755  0.076755  0.075522      2.000000
 -0.076755  0.076755  0.075522      2.000000
 -0.025585  0.076755  0.075522      2.000000
  0.025585 -0.076755  0.075522      2.000000
  0.076755 -0.076755  0.075522      2.000000
 -0.076755 -0.076755  0.075522      2.000000
 -0.025585 -0.076755  0.075522      2.000000
  0.025585 -0.025585  0.075522      2.000000
  0.076755 -0.025585  0.075522      2.000000
 -0.076755 -0.025585  0.075522      2.000000
 -0.025585 -0.025585  0.075522      2.000000
  0.025585  0.025585  0.125870      2.000000
  0.076755  0.025585  0.125870      2.000000
 -0.076755  0.025585  0.125870      2.000000
 -0.025585  0.025585  0.125870      2.000000
  0.025585  0.076755  0.125870      2.000000
  0.076755  0.076755  0.125870      2.000000
 -0.076755  0.076755  0.125870      2.000000
 -0.025585  0.076755  0.125870      2.000000
  0.025585 -0.076755  0.125870      2.000000
  0.076755 -0.076755  0.125870      2.000000
 -0.076755 -0.076755  0.125870      2.000000
 -0.025585 -0.076755  0.125870      2.000000
  0.025585 -0.025585  0.125870      2.000000
  0.076755 -0.025585  0.125870      2.000000
 -0.076755 -0.025585  0.125870      2.000000
 -0.025585 -0.025585  0.125870      2.000000
 
 TETIRR: Found    288 inequivalent tetrahedra from      576


--------------------------------------------------------------------------------------------------------




 Dimension of arrays:
   k-points           NKPTS =     48   k-points in BZ     NKDIM =     48   number of bands    NBANDS=     36
   number of dos      NEDOS =    301   number of ions     NIONS =      6
   non local maximal  LDIM  =      6   non local SUM 2l+1 LMDIM =     18
   total plane-waves  NPLWV =  18000
   max r-space proj   IRMAX =      1   max aug-charges    IRDMAX=  55490
   dimension x,y,z NGX =    30 NGY =   30 NGZ =   20
   dimension x,y,z NGXF=    60 NGYF=   60 NGZF=   40
   support grid    NGXF=   120 NGYF=  120 NGZF=   80
   ions per type =               2   4
   NGX,Y,Z   is equivalent  to a cutoff of  10.21, 10.21, 10.04 a.u.
   NGXF,Y,Z  is equivalent  to a cutoff of  20.42, 20.42, 20.09 a.u.

 SYSTEM =  unknown system                          
 POSCAR =  Mn  F                                   

 Startparameter for this run:
   NWRITE =      2    write-flag & timer
   PREC   = normal    normal or accurate (medium, high low for compatibility)
   ISTART =      1    job   : 0-new  1-cont  2-samecut
   ICHARG =      0    charge: 1-file 2-atom 10-const
   ISPIN  =      2    spin polarized calculation?
   LNONCOLLINEAR =      F non collinear calculations
   LSORBIT =      F    spin-orbit coupling
   INIWAV =      1    electr: 0-lowe 1-rand  2-diag
   LASPH  =      T    aspherical Exc in radial PAW
   METAGGA=      F    non-selfconsistent MetaGGA calc.

 Electronic Relaxation 1
   ENCUT  =  600.0 eV  44.10 Ry    6.64 a.u.   9.76  9.76  6.61*2*pi/ulx,y,z
   ENINI  =  600.0     initial cutoff
   ENAUG  =  613.6 eV  augmentation charge cutoff
   NELM   =     60;   NELMIN=  2; NELMDL=  0     # of ELM steps 
   EDIFF  = 0.1E-07   stopping-criterion for ELM
   LREAL  =      F    real-space projection
   NLSPLINE    = F    spline interpolate recip. space projectors
   LCOMPAT=      F    compatible to vasp.4.4
   GGA_COMPAT  = T    GGA compatible to vasp.4.4-vasp.4.6
   LMAXPAW     = -100 max onsite density
   LMAXMIX     =    4 max onsite mixed and CHGCAR
   VOSKOWN=      0    Vosko Wilk Nusair interpolation
   ROPT   =    0.00000   0.00000
 Ionic relaxation
   EDIFFG = 0.1E-06   stopping-criterion for IOM
   NSW    =      0    number of steps for IOM
   NBLOCK =      1;   KBLOCK =      1    inner block; outer block 
   IBRION =     -1    ionic relax: 0-MD 1-quasi-New 2-CG
   NFREE  =      0    steps in history (QN), initial steepest desc. (CG)
   ISIF   =      2    stress and relaxation
   IWAVPR =     10    prediction:  0-non 1-charg 2-wave 3-comb
   ISYM   =      0    0-nonsym 1-usesym 2-fastsym
   LCORR  =      T    Harris-Foulkes like correction to forces

   POTIM  = 0.5000    time-step for ionic-motion
   TEIN   =    0.0    initial temperature
   TEBEG  =    0.0;   TEEND  =   0.0 temperature during run
   SMASS  =  -3.00    Nose mass-parameter (am)
   estimated Nose-frequenzy (Omega)   =  0.10E-29 period in steps =****** mass=  -0.545E-27a.u.
   SCALEE = 1.0000    scale energy and forces
   NPACO  =    256;   APACO  = 16.0  distance and # of slots for P.C.
   PSTRESS=    0.0 pullay stress

  Mass of Ions in am
   POMASS =  54.94 19.00
  Ionic Valenz
   ZVAL   =  13.00  7.00
  Atomic Wigner-Seitz radii
   RWIGS  =  -1.00 -1.00
  virtual crystal weights 
   VCA    =   1.00  1.00
   NELECT =      54.0000    total number of electrons
   NUPDOWN=      -1.0000    fix difference up-down

 DOS related values:
   EMIN   =  10.00;   EMAX   =-10.00  energy-range for DOS
   EFERMI =   0.00
   ISMEAR =    -5;   SIGMA  =   0.20  broadening in eV -4-tet -1-fermi 0-gaus

 Electronic relaxation 2 (details)
   IALGO  =     38    algorithm
   LDIAG  =      T    sub-space diagonalisation (order eigenvalues)
   LSUBROT=      F    optimize rotation matrix (better conditioning)
   TURBO    =      0    0=normal 1=particle mesh
   IRESTART =      0    0=no restart 2=restart with 2 vectors
   NREBOOT  =      0    no. of reboots
   NMIN     =      0    reboot dimension
   EREF     =   0.00    reference energy to select bands
   IMIX   =      4    mixing-type and parameters
     AMIX     =   0.40;   BMIX     =  1.00
     AMIX_MAG =   1.60;   BMIX_MAG =  1.00
     AMIN     =   0.10
     WC   =   100.;   INIMIX=   1;  MIXPRE=   1;  MAXMIX= -45

 Intra band minimization:
   WEIMIN = 0.0000     energy-eigenvalue tresh-hold
   EBREAK =  0.69E-10  absolut break condition
   DEPER  =   0.30     relativ break condition  

   TIME   =   0.40     timestep for ELM

  volume/ion in A,a.u.               =      13.17        88.87
  Fermi-wavevector in a.u.,A,eV,Ry     =   1.442007  2.724999 28.291754  2.079385
  Thomas-Fermi vector in A             =   2.560576
 
 Write flags
   LWAVE        =      T    write WAVECAR
   LDOWNSAMPLE  =      F    k-point downsampling of WAVECAR
   LCHARG       =      T    write CHGCAR
   LVTOT        =      F    write LOCPOT, total local potential
   LVHAR        =      F    write LOCPOT, Hartree potential only
   LELF         =      F    write electronic localiz. function (ELF)
   LORBIT       =     11    0 simple, 1 ext, 2 COOP (PROOUT), +10 PAW based schemes


 Dipole corrections
   LMONO  =      F    monopole corrections only (constant potential shift)
   LDIPOL =      F    correct potential (dipole corrections)
   IDIPOL =      0    1-x, 2-y, 3-z, 4-all directions 
   EPSILON=  1.0000000 bulk dielectric constant

 LDA+U is selected, type is set to LDAUTYPE =  2
   angular momentum for each species LDAUL =     2   -1
   U (eV)           for each species LDAUU =   6.0  0.0
   J (eV)           for each species LDAUJ =   0.0  0.0
 Exchange correlation treatment:
   GGA     =    --    GGA type
   LEXCH   =     8    internal setting for exchange type
   VOSKOWN=      0    Vosko Wilk Nusair interpolation
   LHFCALC =     F    Hartree Fock is set to
   LHFONE  =     F    Hartree Fock one center treatment
   AEXX    =    0.0000 exact exchange contribution

 Linear response parameters
   LEPSILON=     F    determine dielectric tensor
   LRPA    =     F    only Hartree local field effects (RPA)
   LNABLA  =     F    use nabla operator in PAW spheres
   LVEL    =     F    velocity operator in full k-point grid
   LINTERFAST=   F  fast interpolation
   KINTER  =     0    interpolate to denser k-point grid
   CSHIFT  =0.1000    complex shift for real part using Kramers Kronig
   OMEGAMAX=  -1.0    maximum frequency
   DEG_THRESHOLD= 0.2000000E-02 threshold for treating states as degnerate
   RTIME   =   -0.100 relaxation time in fs
  (WPLASMAI=    0.000 imaginary part of plasma frequency in eV, 0.658/RTIME)
   DFIELD  = 0.0000000 0.0000000 0.0000000 field for delta impulse in time
 
 Orbital magnetization related:
   ORBITALMAG=     F  switch on orbital magnetization
   LCHIMAG   =     F  perturbation theory with respect to B field
   DQ        =  0.001000  dq finite difference perturbation B field
   LLRAUG    =     F  two centre corrections for induced B field



--------------------------------------------------------------------------------------------------------


 Static calculation
 charge density and potential will be updated during run
 spin polarized calculation
 Variant of blocked Davidson
 Davidson routine will perform the subspace rotation
 perform sub-space diagonalisation
    after iterative eigenvector-optimisation
 modified Broyden-mixing scheme, WC =      100.0
 initial mixing is a Kerker type mixing with AMIX =  0.4000 and BMIX =      1.0000
 Hartree-type preconditioning will be used
 using additional bands            9
 reciprocal scheme for non local part
 use partial core corrections
 calculate Harris-corrections to forces 
   (improved forces if not selfconsistent)
 use gradient corrections 
 use of overlap-Matrix (Vanderbilt PP)
 Fermi weights with tetrahedron method with Bloechl corrections


--------------------------------------------------------------------------------------------------------


  energy-cutoff  :      600.00
  volume of cell :       79.02
      direct lattice vectors                 reciprocal lattice vectors
     4.885668075  0.000000000  0.000000000     0.204680299  0.000000000  0.000000000
     0.000000000  4.885668075  0.000000000     0.000000000  0.204680299  0.000000000
     0.000000000  0.000000000  3.310304055     0.000000000  0.000000000  0.302087054

  length of vectors
     4.885668075  4.885668075  3.310304055     0.204680299  0.204680299  0.302087054


 
 old parameters found on file WAVECAR:
  energy-cutoff  :      600.00
  volume of cell :       79.02
      direct lattice vectors                 reciprocal lattice vectors
     4.885668075  0.000000000  0.000000000     0.204680299  0.000000000  0.000000000
     0.000000000  4.885668075  0.000000000     0.000000000  0.204680299  0.000000000
     0.000000000  0.000000000  3.310304055     0.000000000  0.000000000  0.302087054

  length of vectors

 
 k-points in units of 2pi/SCALE and weight: KPOINTS created by Atomic Simulation Env
   0.02558504  0.02558504  0.02517392       0.021
   0.07675511  0.02558504  0.02517392       0.021
  -0.07675511  0.02558504  0.02517392       0.021
  -0.02558504  0.02558504  0.02517392       0.021
   0.02558504  0.07675511  0.02517392       0.021
   0.07675511  0.07675511  0.02517392       0.021
  -0.07675511  0.07675511  0.02517392       0.021
  -0.02558504  0.07675511  0.02517392       0.021
   0.02558504 -0.07675511  0.02517392       0.021
   0.07675511 -0.07675511  0.02517392       0.021
  -0.07675511 -0.07675511  0.02517392       0.021
  -0.02558504 -0.07675511  0.02517392       0.021
   0.02558504 -0.02558504  0.02517392       0.021
   0.07675511 -0.02558504  0.02517392       0.021
  -0.07675511 -0.02558504  0.02517392       0.021
  -0.02558504 -0.02558504  0.02517392       0.021
   0.02558504  0.02558504  0.07552176       0.021
   0.07675511  0.02558504  0.07552176       0.021
  -0.07675511  0.02558504  0.07552176       0.021
  -0.02558504  0.02558504  0.07552176       0.021
   0.02558504  0.07675511  0.07552176       0.021
   0.07675511  0.07675511  0.07552176       0.021
  -0.07675511  0.07675511  0.07552176       0.021
  -0.02558504  0.07675511  0.07552176       0.021
   0.02558504 -0.07675511  0.07552176       0.021
   0.07675511 -0.07675511  0.07552176       0.021
  -0.07675511 -0.07675511  0.07552176       0.021
  -0.02558504 -0.07675511  0.07552176       0.021
   0.02558504 -0.02558504  0.07552176       0.021
   0.07675511 -0.02558504  0.07552176       0.021
  -0.07675511 -0.02558504  0.07552176       0.021
  -0.02558504 -0.02558504  0.07552176       0.021
   0.02558504  0.02558504  0.12586961       0.021
   0.07675511  0.02558504  0.12586961       0.021
  -0.07675511  0.02558504  0.12586961       0.021
  -0.02558504  0.02558504  0.12586961       0.021
   0.02558504  0.07675511  0.12586961       0.021
   0.07675511  0.07675511  0.12586961       0.021
  -0.07675511  0.07675511  0.12586961       0.021
  -0.02558504  0.07675511  0.12586961       0.021
   0.02558504 -0.07675511  0.12586961       0.021
   0.07675511 -0.07675511  0.12586961       0.021
  -0.07675511 -0.07675511  0.12586961       0.021
  -0.02558504 -0.07675511  0.12586961       0.021
   0.02558504 -0.02558504  0.12586961       0.021
   0.07675511 -0.02558504  0.12586961       0.021
  -0.07675511 -0.02558504  0.12586961       0.021
  -0.02558504 -0.02558504  0.12586961       0.021
 
 k-points in reciprocal lattice and weights: KPOINTS created by Atomic Simulation Env
   0.12500000  0.12500000  0.08333333       0.021
   0.37500000  0.12500000  0.08333333       0.021
  -0.37500000  0.12500000  0.08333333       0.021
  -0.12500000  0.12500000  0.08333333       0.021
   0.12500000  0.37500000  0.08333333       0.021
   0.37500000  0.37500000  0.08333333       0.021
  -0.37500000  0.37500000  0.08333333       0.021
  -0.12500000  0.37500000  0.08333333       0.021
   0.12500000 -0.37500000  0.08333333       0.021
   0.37500000 -0.37500000  0.08333333       0.021
  -0.37500000 -0.37500000  0.08333333       0.021
  -0.12500000 -0.37500000  0.08333333       0.021
   0.12500000 -0.12500000  0.08333333       0.021
   0.37500000 -0.12500000  0.08333333       0.021
  -0.37500000 -0.12500000  0.08333333       0.021
  -0.12500000 -0.12500000  0.08333333       0.021
   0.12500000  0.12500000  0.25000000       0.021
   0.37500000  0.12500000  0.25000000       0.021
  -0.37500000  0.12500000  0.25000000       0.021
  -0.12500000  0.12500000  0.25000000       0.021
   0.12500000  0.37500000  0.25000000       0.021
   0.37500000  0.37500000  0.25000000       0.021
  -0.37500000  0.37500000  0.25000000       0.021
  -0.12500000  0.37500000  0.25000000       0.021
   0.12500000 -0.37500000  0.25000000       0.021
   0.37500000 -0.37500000  0.25000000       0.021
  -0.37500000 -0.37500000  0.25000000       0.021
  -0.12500000 -0.37500000  0.25000000       0.021
   0.12500000 -0.12500000  0.25000000       0.021
   0.37500000 -0.12500000  0.25000000       0.021
  -0.37500000 -0.12500000  0.25000000       0.021
  -0.12500000 -0.12500000  0.25000000       0.021
   0.12500000  0.12500000  0.41666667       0.021
   0.37500000  0.12500000  0.41666667       0.021
  -0.37500000  0.12500000  0.41666667       0.021
  -0.12500000  0.12500000  0.41666667       0.021
   0.12500000  0.37500000  0.41666667       0.021
   0.37500000  0.37500000  0.41666667       0.021
  -0.37500000  0.37500000  0.41666667       0.021
  -0.12500000  0.37500000  0.41666667       0.021
   0.12500000 -0.37500000  0.41666667       0.021
   0.37500000 -0.37500000  0.41666667       0.021
  -0.37500000 -0.37500000  0.41666667       0.021
  -0.12500000 -0.37500000  0.41666667       0.021
   0.12500000 -0.12500000  0.41666667       0.021
   0.37500000 -0.12500000  0.41666667       0.021
  -0.37500000 -0.12500000  0.41666667       0.021
  -0.12500000 -0.12500000  0.41666667       0.021
 
 position of ions in fractional coordinates (direct lattice) 
   0.50000000  0.50000000  0.50000000
   0.00000000  0.00000000  0.00000000
   0.19519813  0.80480187  0.50000000
   0.80480187  0.19519813  0.50000000
   0.30480187  0.30480187  0.00000000
   0.69519813  0.69519813  0.00000000
 
 position of ions in cartesian coordinates  (Angst):
   2.44283404  2.44283404  1.65515203
   0.00000000  0.00000000  0.00000000
   0.95367325  3.93199482  1.65515203
   3.93199482  0.95367325  1.65515203
   1.48916078  1.48916078  0.00000000
   3.39650729  3.39650729  0.00000000
 


--------------------------------------------------------------------------------------------------------


 k-point  1 :   0.1250 0.1250 0.0833  plane waves:    2642
 k-point  2 :   0.3750 0.1250 0.0833  plane waves:    2641
 k-point  3 :  -0.3750 0.1250 0.0833  plane waves:    2641
 k-point  4 :  -0.1250 0.1250 0.0833  plane waves:    2642
 k-point  5 :   0.1250 0.3750 0.0833  plane waves:    2641
 k-point  6 :   0.3750 0.3750 0.0833  plane waves:    2636
 k-point  7 :  -0.3750 0.3750 0.0833  plane waves:    2636
 k-point  8 :  -0.1250 0.3750 0.0833  plane waves:    2641
 k-point  9 :   0.1250-0.3750 0.0833  plane waves:    2641
 k-point 10 :   0.3750-0.3750 0.0833  plane waves:    2636
 k-point 11 :  -0.3750-0.3750 0.0833  plane waves:    2636
 k-point 12 :  -0.1250-0.3750 0.0833  plane waves:    2641
 k-point 13 :   0.1250-0.1250 0.0833  plane waves:    2642
 k-point 14 :   0.3750-0.1250 0.0833  plane waves:    2641
 k-point 15 :  -0.3750-0.1250 0.0833  plane waves:    2641
 k-point 16 :  -0.1250-0.1250 0.0833  plane waves:    2642
 k-point 17 :   0.1250 0.1250 0.2500  plane waves:    2639
 k-point 18 :   0.3750 0.1250 0.2500  plane waves:    2640
 k-point 19 :  -0.3750 0.1250 0.2500  plane waves:    2640
 k-point 20 :  -0.1250 0.1250 0.2500  plane waves:    2639
 k-point 21 :   0.1250 0.3750 0.2500  plane waves:    2640
 k-point 22 :   0.3750 0.3750 0.2500  plane waves:    2644
 k-point 23 :  -0.3750 0.3750 0.2500  plane waves:    2644
 k-point 24 :  -0.1250 0.3750 0.2500  plane waves:    2640
 k-point 25 :   0.1250-0.3750 0.2500  plane waves:    2640
 k-point 26 :   0.3750-0.3750 0.2500  plane waves:    2644
 k-point 27 :  -0.3750-0.3750 0.2500  plane waves:    2644
 k-point 28 :  -0.1250-0.3750 0.2500  plane waves:    2640
 k-point 29 :   0.1250-0.1250 0.2500  plane waves:    2639
 k-point 30 :   0.3750-0.1250 0.2500  plane waves:    2640
 k-point 31 :  -0.3750-0.1250 0.2500  plane waves:    2640
 k-point 32 :  -0.1250-0.1250 0.2500  plane waves:    2639
 k-point 33 :   0.1250 0.1250 0.4167  plane waves:    2636
 k-point 34 :   0.3750 0.1250 0.4167  plane waves:    2631
 k-point 35 :  -0.3750 0.1250 0.4167  plane waves:    2631
 k-point 36 :  -0.1250 0.1250 0.4167  plane waves:    2636
 k-point 37 :   0.1250 0.3750 0.4167  plane waves:    2631
 k-point 38 :   0.3750 0.3750 0.4167  plane waves:    2621
 k-point 39 :  -0.3750 0.3750 0.4167  plane waves:    2621
 k-point 40 :  -0.1250 0.3750 0.4167  plane waves:    2631
 k-point 41 :   0.1250-0.3750 0.4167  plane waves:    2631
 k-point 42 :   0.3750-0.3750 0.4167  plane waves:    2621
 k-point 43 :  -0.3750-0.3750 0.4167  plane waves:    2621
 k-point 44 :  -0.1250-0.3750 0.4167  plane waves:    2631
 k-point 45 :   0.1250-0.1250 0.4167  plane waves:    2636
 k-point 46 :   0.3750-0.1250 0.4167  plane waves:    2631
 k-point 47 :  -0.3750-0.1250 0.4167  plane waves:    2631
 k-point 48 :  -0.1250-0.1250 0.4167  plane waves:    2636

 maximum and minimum number of plane-waves per node :      2644     2621

 maximum number of plane-waves:      2644
 maximum index in each direction: 
   IXMAX=   10   IYMAX=   10   IZMAX=    6
   IXMIN=  -10   IYMIN=  -10   IZMIN=   -7


 serial   3D FFT for wavefunctions
 parallel 3D FFT for charge:
    minimum data exchange during FFTs selected (reduces bandwidth)


 total amount of memory used by VASP MPI-rank0    85348. kBytes
=======================================================================

   base      :      30000. kBytes
   nonl-proj :      36915. kBytes
   fftplans  :       1875. kBytes
   grid      :       3820. kBytes
   one-center:        186. kBytes
   wavefun   :      12552. kBytes
 
     INWAV:  cpu time    0.4574: real time    0.4574
 Broyden mixing: mesh for mixing (old mesh)
   NGX = 19   NGY = 19   NGZ = 13
  (NGX  = 60   NGY  = 60   NGZ  = 40)
  gives a total of   4693 points

 charge density for first step will be calculated from the start-wavefunctions


--------------------------------------------------------------------------------------------------------


 Maximum index for augmentation-charges         4247 (set IRDMAX)


--------------------------------------------------------------------------------------------------------


 initial charge from wavefunction
 First call to EWALD:  gamma=   0.413
 Maximum number of real-space cells 2x 2x 3
 Maximum number of reciprocal cells 3x 3x 2

    FEWALD:  cpu time    0.0011: real time    0.0011


--------------------------------------- Iteration      1(   1)  ---------------------------------------


    POTLOK:  cpu time    0.0348: real time    0.0348
    SETDIJ:  cpu time    2.5363: real time    2.5364
atom =   1  type =  1  l = 2
 
 onsite density matrix
 
spin component  1
 
  0.1158  0.0125 -0.0109  0.0128  0.0000
  0.0125  0.0803  0.0088  0.0352 -0.0140
 -0.0109  0.0088  0.0632  0.0088  0.0013
  0.0128  0.0352  0.0088  0.0787  0.0144
  0.0000 -0.0140  0.0013  0.0144  0.0900
 
spin component  2
 
  0.9294 -0.0045  0.0259 -0.0046 -0.0001
 -0.0045  0.9247 -0.0032  0.0082  0.0053
  0.0259 -0.0032  0.9306 -0.0031 -0.0005
 -0.0046  0.0082 -0.0031  0.9253 -0.0055
 -0.0001  0.0053 -0.0005 -0.0055  0.8976
 
 occupancies and eigenvectors
 
  o =  0.0367  v =  0.0027  0.6543 -0.0124 -0.6683  0.3535  0.0000  0.0000  0.0000  0.0000  0.0000      0.0000  0.0000  0.0000  0.0000  0.0000  0.0000  0.0000  0.0000  0.0000  0.0000
  o =  0.0565  v = -0.2539  0.1832 -0.9263  0.2081  0.0240  0.0000  0.0000  0.0000  0.0000  0.0000      0.0000  0.0000  0.0000  0.0000  0.0000  0.0000  0.0000  0.0000  0.0000  0.0000
  o =  0.0976  v = -0.0435  0.2833 -0.0048 -0.2164 -0.9333  0.0000  0.0000  0.0000  0.0000  0.0000      0.0000  0.0000  0.0000  0.0000  0.0000  0.0000  0.0000  0.0000  0.0000  0.0000
  o =  0.1041  v =  0.6518 -0.4579 -0.3762 -0.4696 -0.0585  0.0000  0.0000  0.0000  0.0000  0.0000      0.0000  0.0000  0.0000  0.0000  0.0000  0.0000  0.0000  0.0000  0.0000  0.0000
  o =  0.1332  v = -0.7133 -0.4984 -0.0137 -0.4926 -0.0037  0.0000  0.0000  0.0000  0.0000  0.0000      0.0000  0.0000  0.0000  0.0000  0.0000  0.0000  0.0000  0.0000  0.0000  0.0000
  o =  0.8949  v =  0.0000  0.0000  0.0000  0.0000  0.0000 -0.0116 -0.2328  0.0200  0.2334  0.9438      0.0000  0.0000  0.0000  0.0000  0.0000  0.0000  0.0000  0.0000  0.0000  0.0000
  o =  0.9040  v =  0.0000  0.0000  0.0000  0.0000  0.0000 -0.7201 -0.0256  0.6914 -0.0501 -0.0175      0.0000  0.0000  0.0000  0.0000  0.0000  0.0000  0.0000  0.0000  0.0000  0.0000
  o =  0.9195  v =  0.0000  0.0000  0.0000  0.0000  0.0000 -0.0133 -0.6887 -0.0009  0.6457 -0.3296      0.0000  0.0000  0.0000  0.0000  0.0000  0.0000  0.0000  0.0000  0.0000  0.0000
  o =  0.9309  v =  0.0000  0.0000  0.0000  0.0000  0.0000 -0.1669 -0.6542 -0.2481 -0.6946  0.0136      0.0000  0.0000  0.0000  0.0000  0.0000  0.0000  0.0000  0.0000  0.0000  0.0000
  o =  0.9583  v =  0.0000  0.0000  0.0000  0.0000  0.0000 -0.6733  0.2071 -0.6783  0.2090  0.0055      0.0000  0.0000  0.0000  0.0000  0.0000  0.0000  0.0000  0.0000  0.0000  0.0000
atom =   2  type =  1  l = 2
 
 onsite density matrix
 
spin component  1
 
  0.9319 -0.0044 -0.0079 -0.0045  0.0000
 -0.0044  0.9240 -0.0027 -0.0256  0.0048
 -0.0079 -0.0027  0.9319 -0.0027 -0.0005
 -0.0045 -0.0256 -0.0027  0.9247 -0.0049
  0.0000  0.0048 -0.0005 -0.0049  0.8977
 
spin component  2
 
  0.1183  0.0136 -0.0449  0.0138  0.0001
  0.0136  0.0802  0.0096  0.0129 -0.0144
 -0.0449  0.0096  0.0630  0.0095  0.0013
  0.0138  0.0129  0.0095  0.0785  0.0147
  0.0001 -0.0144  0.0013  0.0147  0.0903
 
 occupancies and eigenvectors
 
  o =  0.0305  v =  0.0000  0.0000  0.0000  0.0000  0.0000 -0.4863  0.2339 -0.8093  0.2316  0.0175      0.0000  0.0000  0.0000  0.0000  0.0000  0.0000  0.0000  0.0000  0.0000  0.0000
  o =  0.0545  v =  0.0000  0.0000  0.0000  0.0000  0.0000  0.0080  0.5947 -0.0025 -0.6303  0.4990      0.0000  0.0000  0.0000  0.0000  0.0000  0.0000  0.0000  0.0000  0.0000  0.0000
  o =  0.0975  v =  0.0000  0.0000  0.0000  0.0000  0.0000  0.0222 -0.6820 -0.3871 -0.6195  0.0279      0.0000  0.0000  0.0000  0.0000  0.0000  0.0000  0.0000  0.0000  0.0000  0.0000
  o =  0.1022  v =  0.0000  0.0000  0.0000  0.0000  0.0000 -0.0141  0.3238 -0.0255 -0.3801 -0.8659      0.0000  0.0000  0.0000  0.0000  0.0000  0.0000  0.0000  0.0000  0.0000  0.0000
  o =  0.1455  v =  0.0000  0.0000  0.0000  0.0000  0.0000 -0.8734 -0.1473  0.4411 -0.1443  0.0095      0.0000  0.0000  0.0000  0.0000  0.0000  0.0000  0.0000  0.0000  0.0000  0.0000
  o =  0.8966  v =  0.1391  0.3922  0.1108  0.5214  0.7367  0.0000  0.0000  0.0000  0.0000  0.0000      0.0000  0.0000  0.0000  0.0000  0.0000  0.0000  0.0000  0.0000  0.0000  0.0000
  o =  0.8969  v = -0.1533 -0.5719 -0.1043 -0.4448  0.6639  0.0000  0.0000  0.0000  0.0000  0.0000      0.0000  0.0000  0.0000  0.0000  0.0000  0.0000  0.0000  0.0000  0.0000  0.0000
  o =  0.9259  v = -0.6623  0.1800 -0.7053  0.1771  0.0099  0.0000  0.0000  0.0000  0.0000  0.0000      0.0000  0.0000  0.0000  0.0000  0.0000  0.0000  0.0000  0.0000  0.0000  0.0000
  o =  0.9399  v =  0.7200 -0.0437 -0.6923 -0.0206  0.0060  0.0000  0.0000  0.0000  0.0000  0.0000      0.0000  0.0000  0.0000  0.0000  0.0000  0.0000  0.0000  0.0000  0.0000  0.0000
  o =  0.9509  v =  0.0121  0.6963 -0.0092 -0.7061  0.1281  0.0000  0.0000  0.0000  0.0000  0.0000      0.0000  0.0000  0.0000  0.0000  0.0000  0.0000  0.0000  0.0000  0.0000  0.0000
     EDDAV:  cpu time    4.3373: real time    4.3570
 BZINTS: Fermi energy:  3.513229; 54.000000 electrons
         Band energy:-826.844248;  BLOECHL correction:  0.000000
       DOS:  cpu time    0.0058: real time    0.0058
    CHARGE:  cpu time    0.5615: real time    0.5615
    MIXING:  cpu time    0.0005: real time    0.0005
    --------------------------------------------
      LOOP:  cpu time    7.4763: real time    7.4959

 eigenvalue-minimisations  :  8736
 total energy-change (2. order) :-0.4587204E+02  (-0.1104619E+03)
 number of electron      54.0000009 magnetization       0.0000000
 augmentation part       20.6618120 magnetization       0.0067661

 Broyden mixing:
  rms(total) = 0.18698E+01    rms(broyden)= 0.18697E+01
  rms(prec ) = 0.20279E+01
  weight for this iteration     100.00

 Free energy of the ion-electron system (eV)
  ---------------------------------------------------
  alpha Z        PSCENC =       195.37131285
  Ewald energy   TEWEN  =     -4173.42284800
  -Hartree energ DENC   =     -2147.30033283
  -exchange      EXHF   =         0.00000000
  -V(xc)+E(xc)   XCENC  =       166.44541505
  PAW double counting   =      7638.46528166    -7587.59737279
  entropy T*S    EENTRO =         0.00000000
  eigenvalues    EBANDS =      -826.84424787
  atomic energy  EATOM  =      6689.01075358
  Solvation  Ediel_sol  =         0.00000000
  ---------------------------------------------------
  free energy    TOTEN  =       -45.87203835 eV

  energy without entropy =      -45.87203835  energy(sigma->0) =      -45.87203835


--------------------------------------------------------------------------------------------------------




--------------------------------------- Iteration      1(   2)  ---------------------------------------


    POTLOK:  cpu time    0.0330: real time    0.0330
    SETDIJ:  cpu time    5.1282: real time    5.1282
atom =   1  type =  1  l = 2
 
 onsite density matrix
 
spin component  1
 
  0.0113 -0.0021  0.0244 -0.0022 -0.0001
 -0.0021  0.0074 -0.0011  0.0162  0.0013
  0.0244 -0.0011  0.0055 -0.0013 -0.0002
 -0.0022  0.0162 -0.0013  0.0075 -0.0018
 -0.0001  0.0013 -0.0002 -0.0018 -0.0252
 
spin component  2
 
  1.0215  0.0074 -0.0014  0.0077  0.0001
  0.0074  0.9955  0.0049  0.0222 -0.0057
 -0.0014  0.0049  0.9880  0.0052  0.0006
  0.0077  0.0222  0.0052  0.9948  0.0064
  0.0001 -0.0057  0.0006  0.0064  1.0060
 
 occupancies and eigenvectors
 
  o = -0.0255  v = -0.0029 -0.0872  0.0089  0.0969  0.9914  0.0000  0.0000  0.0000  0.0000  0.0000      0.0000  0.0000  0.0000  0.0000  0.0000  0.0000  0.0000  0.0000  0.0000  0.0000
  o = -0.0162  v =  0.6652  0.0171 -0.7463  0.0106  0.0091  0.0000  0.0000  0.0000  0.0000  0.0000      0.0000  0.0000  0.0000  0.0000  0.0000  0.0000  0.0000  0.0000  0.0000  0.0000
  o = -0.0085  v =  0.0058 -0.7029 -0.0026  0.6993 -0.1301  0.0000  0.0000  0.0000  0.0000  0.0000      0.0000  0.0000  0.0000  0.0000  0.0000  0.0000  0.0000  0.0000  0.0000  0.0000
  o =  0.0225  v = -0.2183 -0.6719 -0.2194 -0.6728  0.0080  0.0000  0.0000  0.0000  0.0000  0.0000      0.0000  0.0000  0.0000  0.0000  0.0000  0.0000  0.0000  0.0000  0.0000  0.0000
  o =  0.0341  v =  0.7140 -0.2160  0.6283 -0.2208 -0.0010  0.0000  0.0000  0.0000  0.0000  0.0000      0.0000  0.0000  0.0000  0.0000  0.0000  0.0000  0.0000  0.0000  0.0000  0.0000
  o =  0.9709  v =  0.0000  0.0000  0.0000  0.0000  0.0000 -0.0063 -0.6782 -0.0068  0.6960 -0.2358      0.0000  0.0000  0.0000  0.0000  0.0000  0.0000  0.0000  0.0000  0.0000  0.0000
  o =  0.9859  v =  0.0000  0.0000  0.0000  0.0000  0.0000 -0.1157  0.1845 -0.9595  0.1774  0.0238      0.0000  0.0000  0.0000  0.0000  0.0000  0.0000  0.0000  0.0000  0.0000  0.0000
  o =  1.0080  v =  0.0000  0.0000  0.0000  0.0000  0.0000  0.0912 -0.2575 -0.0229  0.0745  0.9588      0.0000  0.0000  0.0000  0.0000  0.0000  0.0000  0.0000  0.0000  0.0000  0.0000
  o =  1.0104  v =  0.0000  0.0000  0.0000  0.0000  0.0000  0.6427 -0.4765 -0.2680 -0.5138 -0.1556      0.0000  0.0000  0.0000  0.0000  0.0000  0.0000  0.0000  0.0000  0.0000  0.0000
  o =  1.0306  v =  0.0000  0.0000  0.0000  0.0000  0.0000 -0.7518 -0.4612 -0.0841 -0.4633 -0.0184      0.0000  0.0000  0.0000  0.0000  0.0000  0.0000  0.0000  0.0000  0.0000  0.0000
atom =   2  type =  1  l = 2
 
 onsite density matrix
 
spin component  1
 
  1.0146  0.0056 -0.0278  0.0057  0.0000
  0.0056  1.0006  0.0083  0.0034 -0.0080
 -0.0278  0.0083  0.9893  0.0082  0.0008
  0.0057  0.0034  0.0082  0.9992  0.0085
  0.0000 -0.0080  0.0008  0.0085  1.0015
 
spin component  2
 
  0.0189 -0.0013 -0.0180 -0.0013  0.0001
 -0.0013  0.0027 -0.0024 -0.0233  0.0023
 -0.0180 -0.0024  0.0055 -0.0025 -0.0004
 -0.0013 -0.0233 -0.0025  0.0035 -0.0028
  0.0001  0.0023 -0.0004 -0.0028 -0.0218
 
 occupancies and eigenvectors
 
  o = -0.0222  v =  0.0000  0.0000  0.0000  0.0000  0.0000 -0.0552 -0.2139 -0.0944 -0.3064 -0.9211      0.0000  0.0000  0.0000  0.0000  0.0000  0.0000  0.0000  0.0000  0.0000  0.0000
  o = -0.0211  v =  0.0000  0.0000  0.0000  0.0000  0.0000 -0.1321 -0.6564 -0.1997 -0.6048  0.3821      0.0000  0.0000  0.0000  0.0000  0.0000  0.0000  0.0000  0.0000  0.0000  0.0000
  o = -0.0059  v =  0.0000  0.0000  0.0000  0.0000  0.0000  0.5533 -0.1869  0.7904 -0.1848 -0.0093      0.0000  0.0000  0.0000  0.0000  0.0000  0.0000  0.0000  0.0000  0.0000  0.0000
  o =  0.0266  v =  0.0000  0.0000  0.0000  0.0000  0.0000  0.0069  0.6989 -0.0049 -0.7113  0.0744      0.0000  0.0000  0.0000  0.0000  0.0000  0.0000  0.0000  0.0000  0.0000  0.0000
  o =  0.0315  v =  0.0000  0.0000  0.0000  0.0000  0.0000 -0.8206 -0.0002  0.5714 -0.0126 -0.0052      0.0000  0.0000  0.0000  0.0000  0.0000  0.0000  0.0000  0.0000  0.0000  0.0000
  o =  0.9661  v = -0.5074  0.2493 -0.7850  0.2530  0.0133  0.0000  0.0000  0.0000  0.0000  0.0000      0.0000  0.0000  0.0000  0.0000  0.0000  0.0000  0.0000  0.0000  0.0000  0.0000
  o =  0.9870  v =  0.0020  0.5198 -0.0121 -0.5789  0.6281  0.0000  0.0000  0.0000  0.0000  0.0000      0.0000  0.0000  0.0000  0.0000  0.0000  0.0000  0.0000  0.0000  0.0000  0.0000
  o =  1.0087  v =  0.1810  0.6913  0.3055  0.6291  0.0129  0.0000  0.0000  0.0000  0.0000  0.0000      0.0000  0.0000  0.0000  0.0000  0.0000  0.0000  0.0000  0.0000  0.0000  0.0000
  o =  1.0109  v =  0.0196 -0.4354  0.0081  0.4529  0.7777  0.0000  0.0000  0.0000  0.0000  0.0000      0.0000  0.0000  0.0000  0.0000  0.0000  0.0000  0.0000  0.0000  0.0000  0.0000
  o =  1.0324  v = -0.8422 -0.0106  0.5387 -0.0080  0.0144  0.0000  0.0000  0.0000  0.0000  0.0000      0.0000  0.0000  0.0000  0.0000  0.0000  0.0000  0.0000  0.0000  0.0000  0.0000
     EDDAV:  cpu time    3.8416: real time    3.8416
 BZINTS: Fermi energy:  0.546900; 54.000000 electrons
         Band energy:-816.993666;  BLOECHL correction:  0.000000
       DOS:  cpu time    0.0037: real time    0.0037
    CHARGE:  cpu time    0.5514: real time    0.5514
    MIXING:  cpu time    0.0006: real time    0.0006
    --------------------------------------------
      LOOP:  cpu time    9.5585: real time    9.5585

 eigenvalue-minimisations  :  7404
 total energy-change (2. order) :-0.1981216E+02  (-0.2037728E+02)
 number of electron      54.0000009 magnetization       0.0000000
 augmentation part       20.0319628 magnetization       0.0016748

 Broyden mixing:
  rms(total) = 0.20978E+01    rms(broyden)= 0.20978E+01
  rms(prec ) = 0.21164E+01
  weight for this iteration     100.00

 eigenvalues of (default mixing * dielectric matrix)
  average eigenvalue GAMMA=   0.2785
  0.2785

 Free energy of the ion-electron system (eV)
  ---------------------------------------------------
  alpha Z        PSCENC =       195.37131285
  Ewald energy   TEWEN  =     -4173.42284800
  -Hartree energ DENC   =     -2178.50836655
  -exchange      EXHF   =         0.00000000
  -V(xc)+E(xc)   XCENC  =       161.88501445
  PAW double counting   =      7486.10104886    -7429.12744583
  entropy T*S    EENTRO =         0.00000000
  eigenvalues    EBANDS =      -816.99366578
  atomic energy  EATOM  =      6689.01075358
  Solvation  Ediel_sol  =         0.00000000
  ---------------------------------------------------
  free energy    TOTEN  =       -65.68419641 eV

  energy without entropy =      -65.68419641  energy(sigma->0) =      -65.68419641


--------------------------------------------------------------------------------------------------------




--------------------------------------- Iteration      1(   3)  ---------------------------------------


    POTLOK:  cpu time    0.0325: real time    0.0325
    SETDIJ:  cpu time    5.1340: real time    5.1341
atom =   1  type =  1  l = 2
 
 onsite density matrix
 
spin component  1
 
  0.0316  0.0007  0.0162  0.0007 -0.0000
  0.0007  0.0211  0.0007  0.0175 -0.0008
  0.0162  0.0007  0.0179  0.0006  0.0001
  0.0007  0.0175  0.0006  0.0210  0.0008
 -0.0000 -0.0008  0.0001  0.0008  0.0026
 
spin component  2
 
  0.9974  0.0037  0.0092  0.0038  0.0000
  0.0037  0.9811  0.0024  0.0197 -0.0027
  0.0092  0.0024  0.9751  0.0025  0.0003
  0.0038  0.0197  0.0025  0.9807  0.0030
  0.0000 -0.0027  0.0003  0.0030  0.9756
 
 occupancies and eigenvectors
 
  o =  0.0019  v =  0.0071  0.3874 -0.0117 -0.3870  0.8366  0.0000  0.0000  0.0000  0.0000  0.0000      0.0000  0.0000  0.0000  0.0000  0.0000  0.0000  0.0000  0.0000  0.0000  0.0000
  o =  0.0043  v =  0.0014 -0.5903 -0.0021  0.5930  0.5476  0.0000  0.0000  0.0000  0.0000  0.0000      0.0000  0.0000  0.0000  0.0000  0.0000  0.0000  0.0000  0.0000  0.0000  0.0000
  o =  0.0071  v = -0.5521 -0.0009  0.8336 -0.0085  0.0128  0.0000  0.0000  0.0000  0.0000  0.0000      0.0000  0.0000  0.0000  0.0000  0.0000  0.0000  0.0000  0.0000  0.0000  0.0000
  o =  0.0382  v =  0.2481 -0.6770  0.1567 -0.6750  0.0013  0.0000  0.0000  0.0000  0.0000  0.0000      0.0000  0.0000  0.0000  0.0000  0.0000  0.0000  0.0000  0.0000  0.0000  0.0000
  o =  0.0428  v = -0.7960 -0.2080 -0.5295 -0.2069 -0.0001  0.0000  0.0000  0.0000  0.0000  0.0000      0.0000  0.0000  0.0000  0.0000  0.0000  0.0000  0.0000  0.0000  0.0000  0.0000
  o =  0.9601  v =  0.0000  0.0000  0.0000  0.0000  0.0000  0.0037  0.6801 -0.0013 -0.6889  0.2505      0.0000  0.0000  0.0000  0.0000  0.0000  0.0000  0.0000  0.0000  0.0000  0.0000
  o =  0.9717  v =  0.0000  0.0000  0.0000  0.0000  0.0000 -0.3265 -0.0283  0.9424 -0.0483 -0.0462      0.0000  0.0000  0.0000  0.0000  0.0000  0.0000  0.0000  0.0000  0.0000  0.0000
  o =  0.9767  v =  0.0000  0.0000  0.0000  0.0000  0.0000 -0.0198 -0.1817  0.0439  0.1721  0.9670      0.0000  0.0000  0.0000  0.0000  0.0000  0.0000  0.0000  0.0000  0.0000  0.0000
  o =  0.9945  v =  0.0000  0.0000  0.0000  0.0000  0.0000  0.6813 -0.5034  0.1955 -0.4942 -0.0016      0.0000  0.0000  0.0000  0.0000  0.0000  0.0000  0.0000  0.0000  0.0000  0.0000
  o =  1.0070  v =  0.0000  0.0000  0.0000  0.0000  0.0000 -0.6549 -0.5002 -0.2678 -0.4992 -0.0064      0.0000  0.0000  0.0000  0.0000  0.0000  0.0000  0.0000  0.0000  0.0000  0.0000
atom =   2  type =  1  l = 2
 
 onsite density matrix
 
spin component  1
 
  0.9953  0.0026 -0.0236  0.0027  0.0000
  0.0026  0.9825  0.0040 -0.0073 -0.0039
 -0.0236  0.0040  0.9760  0.0040  0.0003
  0.0027 -0.0073  0.0040  0.9819  0.0041
  0.0000 -0.0039  0.0003  0.0041  0.9738
 
spin component  2
 
  0.0341  0.0008 -0.0204  0.0009  0.0001
  0.0008  0.0200  0.0008 -0.0147 -0.0008
 -0.0204  0.0008  0.0181  0.0008  0.0000
  0.0009 -0.0147  0.0008  0.0201  0.0006
  0.0001 -0.0008  0.0000  0.0006  0.0034
 
 occupancies and eigenvectors
 
  o =  0.0030  v =  0.0000  0.0000  0.0000  0.0000  0.0000 -0.4463  0.4032 -0.6457  0.3908  0.2618      0.0000  0.0000  0.0000  0.0000  0.0000  0.0000  0.0000  0.0000  0.0000  0.0000
  o =  0.0034  v =  0.0000  0.0000  0.0000  0.0000  0.0000  0.1253 -0.0768  0.1838 -0.1201  0.9645      0.0000  0.0000  0.0000  0.0000  0.0000  0.0000  0.0000  0.0000  0.0000  0.0000
  o =  0.0065  v =  0.0000  0.0000  0.0000  0.0000  0.0000  0.3203  0.5769  0.4815  0.5766 -0.0156      0.0000  0.0000  0.0000  0.0000  0.0000  0.0000  0.0000  0.0000  0.0000  0.0000
  o =  0.0348  v =  0.0000  0.0000  0.0000  0.0000  0.0000  0.0043  0.7062 -0.0029 -0.7073 -0.0318      0.0000  0.0000  0.0000  0.0000  0.0000  0.0000  0.0000  0.0000  0.0000  0.0000
  o =  0.0481  v =  0.0000  0.0000  0.0000  0.0000  0.0000 -0.8261 -0.0021  0.5634 -0.0094 -0.0014      0.0000  0.0000  0.0000  0.0000  0.0000  0.0000  0.0000  0.0000  0.0000  0.0000
  o =  0.9575  v = -0.5196  0.2555 -0.7736  0.2571  0.0134  0.0000  0.0000  0.0000  0.0000  0.0000      0.0000  0.0000  0.0000  0.0000  0.0000  0.0000  0.0000  0.0000  0.0000  0.0000
  o =  0.9720  v = -0.0000  0.1794 -0.0085 -0.2536  0.9505  0.0000  0.0000  0.0000  0.0000  0.0000      0.0000  0.0000  0.0000  0.0000  0.0000  0.0000  0.0000  0.0000  0.0000  0.0000
  o =  0.9776  v = -0.2036 -0.6592 -0.3002 -0.6565 -0.0534  0.0000  0.0000  0.0000  0.0000  0.0000      0.0000  0.0000  0.0000  0.0000  0.0000  0.0000  0.0000  0.0000  0.0000  0.0000
  o =  0.9913  v =  0.0010  0.6840 -0.0002 -0.6623 -0.3058  0.0000  0.0000  0.0000  0.0000  0.0000      0.0000  0.0000  0.0000  0.0000  0.0000  0.0000  0.0000  0.0000  0.0000  0.0000
  o =  1.0112  v = -0.8298  0.0026  0.5580 -0.0008  0.0043  0.0000  0.0000  0.0000  0.0000  0.0000      0.0000  0.0000  0.0000  0.0000  0.0000  0.0000  0.0000  0.0000  0.0000  0.0000
     EDDAV:  cpu time    4.1887: real time    4.1887
 BZINTS: Fermi energy:  0.344933; 54.000000 electrons
         Band energy:-821.472443;  BLOECHL correction:  0.000000
       DOS:  cpu time    0.0037: real time    0.0037
    CHARGE:  cpu time    0.5517: real time    0.5517
    MIXING:  cpu time    0.0006: real time    0.0006
    --------------------------------------------
      LOOP:  cpu time    9.9112: real time    9.9113

 eigenvalue-minimisations  :  8448
 total energy-change (2. order) :-0.5781077E+00  (-0.3143880E+00)
 number of electron      54.0000009 magnetization      -0.0000000
 augmentation part       19.9755145 magnetization       0.0017497

 Broyden mixing:
  rms(total) = 0.16955E+01    rms(broyden)= 0.16955E+01
  rms(prec ) = 0.17175E+01
  weight for this iteration     100.00

 eigenvalues of (default mixing * dielectric matrix)
  average eigenvalue GAMMA=   1.0265
  1.4016  0.6514

 Free energy of the ion-electron system (eV)
  ---------------------------------------------------
  alpha Z        PSCENC =       195.37131285
  Ewald energy   TEWEN  =     -4173.42284800
  -Hartree energ DENC   =     -2179.20310389
  -exchange      EXHF   =         0.00000000
  -V(xc)+E(xc)   XCENC  =       166.73458412
  PAW double counting   =      7321.38014891    -7264.66070851
  entropy T*S    EENTRO =         0.00000000
  eigenvalues    EBANDS =      -821.47244315
  atomic energy  EATOM  =      6689.01075358
  Solvation  Ediel_sol  =         0.00000000
  ---------------------------------------------------
  free energy    TOTEN  =       -66.26230408 eV

  energy without entropy =      -66.26230408  energy(sigma->0) =      -66.26230408


--------------------------------------------------------------------------------------------------------




--------------------------------------- Iteration      1(   4)  ---------------------------------------


    POTLOK:  cpu time    0.0329: real time    0.0329
    SETDIJ:  cpu time    5.1069: real time    5.1070
atom =   1  type =  1  l = 2
 
 onsite density matrix
 
spin component  1
 
  0.0271 -0.0004  0.0225 -0.0004 -0.0000
 -0.0004  0.0218 -0.0003  0.0172  0.0008
  0.0225 -0.0003  0.0182 -0.0004 -0.0001
 -0.0004  0.0172 -0.0004  0.0217 -0.0010
 -0.0000  0.0008 -0.0001 -0.0010 -0.0028
 
spin component  2
 
  0.9928  0.0024  0.0086  0.0025  0.0000
  0.0024  0.9791  0.0018  0.0171 -0.0025
  0.0086  0.0018  0.9740  0.0019  0.0003
  0.0025  0.0171  0.0019  0.9789  0.0029
  0.0000 -0.0025  0.0003  0.0029  0.9748
 
 occupancies and eigenvectors
 
  o = -0.0030  v =  0.0123  0.1144 -0.0185 -0.1212 -0.9858  0.0000  0.0000  0.0000  0.0000  0.0000      0.0000  0.0000  0.0000  0.0000  0.0000  0.0000  0.0000  0.0000  0.0000  0.0000
  o = -0.0004  v =  0.6351 -0.0019 -0.7721  0.0011  0.0220  0.0000  0.0000  0.0000  0.0000  0.0000      0.0000  0.0000  0.0000  0.0000  0.0000  0.0000  0.0000  0.0000  0.0000  0.0000
  o =  0.0047  v = -0.0012  0.6975  0.0011 -0.6970  0.1666  0.0000  0.0000  0.0000  0.0000  0.0000      0.0000  0.0000  0.0000  0.0000  0.0000  0.0000  0.0000  0.0000  0.0000  0.0000
  o =  0.0389  v =  0.0905  0.7026  0.0736  0.7019 -0.0050  0.0000  0.0000  0.0000  0.0000  0.0000      0.0000  0.0000  0.0000  0.0000  0.0000  0.0000  0.0000  0.0000  0.0000  0.0000
  o =  0.0457  v = -0.7670  0.0821 -0.6310  0.0829  0.0016  0.0000  0.0000  0.0000  0.0000  0.0000      0.0000  0.0000  0.0000  0.0000  0.0000  0.0000  0.0000  0.0000  0.0000  0.0000
  o =  0.9608  v =  0.0000  0.0000  0.0000  0.0000  0.0000 -0.0031 -0.6785  0.0037  0.6854 -0.2643      0.0000  0.0000  0.0000  0.0000  0.0000  0.0000  0.0000  0.0000  0.0000  0.0000
  o =  0.9705  v =  0.0000  0.0000  0.0000  0.0000  0.0000  0.3537  0.0233 -0.9332  0.0448  0.0390      0.0000  0.0000  0.0000  0.0000  0.0000  0.0000  0.0000  0.0000  0.0000  0.0000
  o =  0.9759  v =  0.0000  0.0000  0.0000  0.0000  0.0000 -0.0191 -0.1966  0.0366  0.1767  0.9635      0.0000  0.0000  0.0000  0.0000  0.0000  0.0000  0.0000  0.0000  0.0000  0.0000
  o =  0.9919  v =  0.0000  0.0000  0.0000  0.0000  0.0000 -0.6740  0.5012 -0.2188  0.4967  0.0061      0.0000  0.0000  0.0000  0.0000  0.0000  0.0000  0.0000  0.0000  0.0000  0.0000
  o =  1.0004  v =  0.0000  0.0000  0.0000  0.0000  0.0000 -0.6483 -0.4993 -0.2827 -0.5004 -0.0123      0.0000  0.0000  0.0000  0.0000  0.0000  0.0000  0.0000  0.0000  0.0000  0.0000
atom =   2  type =  1  l = 2
 
 onsite density matrix
 
spin component  1
 
  0.9900  0.0026 -0.0205  0.0027  0.0001
  0.0026  0.9820  0.0033 -0.0071 -0.0029
 -0.0205  0.0033  0.9737  0.0032  0.0004
  0.0027 -0.0071  0.0032  0.9814  0.0031
  0.0001 -0.0029  0.0004  0.0031  0.9736
 
spin component  2
 
  0.0300 -0.0010 -0.0198 -0.0009 -0.0000
 -0.0010  0.0191 -0.0010 -0.0198  0.0007
 -0.0198 -0.0010  0.0187 -0.0010 -0.0002
 -0.0009 -0.0198 -0.0010  0.0194 -0.0009
 -0.0000  0.0007 -0.0002 -0.0009 -0.0019
 
 occupancies and eigenvectors
 
  o = -0.0020  v =  0.0000  0.0000  0.0000  0.0000  0.0000 -0.0626 -0.1496 -0.0848 -0.1858 -0.9654      0.0000  0.0000  0.0000  0.0000  0.0000  0.0000  0.0000  0.0000  0.0000  0.0000
  o = -0.0012  v =  0.0000  0.0000  0.0000  0.0000  0.0000  0.2063  0.6481  0.2652  0.6325 -0.2588      0.0000  0.0000  0.0000  0.0000  0.0000  0.0000  0.0000  0.0000  0.0000  0.0000
  o =  0.0045  v =  0.0000  0.0000  0.0000  0.0000  0.0000 -0.5622  0.2488 -0.7483  0.2486  0.0158      0.0000  0.0000  0.0000  0.0000  0.0000  0.0000  0.0000  0.0000  0.0000  0.0000
  o =  0.0390  v =  0.0000  0.0000  0.0000  0.0000  0.0000 -0.0002 -0.7040  0.0012  0.7097 -0.0276      0.0000  0.0000  0.0000  0.0000  0.0000  0.0000  0.0000  0.0000  0.0000  0.0000
  o =  0.0449  v =  0.0000  0.0000  0.0000  0.0000  0.0000  0.7984 -0.0042 -0.6020 -0.0028  0.0022      0.0000  0.0000  0.0000  0.0000  0.0000  0.0000  0.0000  0.0000  0.0000  0.0000
  o =  0.9577  v = -0.5324  0.2362 -0.7778  0.2355  0.0172  0.0000  0.0000  0.0000  0.0000  0.0000      0.0000  0.0000  0.0000  0.0000  0.0000  0.0000  0.0000  0.0000  0.0000  0.0000
  o =  0.9724  v = -0.0010  0.1210 -0.0130 -0.2370  0.9639  0.0000  0.0000  0.0000  0.0000  0.0000      0.0000  0.0000  0.0000  0.0000  0.0000  0.0000  0.0000  0.0000  0.0000  0.0000
  o =  0.9767  v = -0.1735 -0.6674 -0.2857 -0.6603 -0.0826  0.0000  0.0000  0.0000  0.0000  0.0000      0.0000  0.0000  0.0000  0.0000  0.0000  0.0000  0.0000  0.0000  0.0000  0.0000
  o =  0.9899  v =  0.0018  0.6957  0.0009 -0.6724 -0.2527  0.0000  0.0000  0.0000  0.0000  0.0000      0.0000  0.0000  0.0000  0.0000  0.0000  0.0000  0.0000  0.0000  0.0000  0.0000
  o =  1.0039  v = -0.8285 -0.0107  0.5596 -0.0142  0.0046  0.0000  0.0000  0.0000  0.0000  0.0000      0.0000  0.0000  0.0000  0.0000  0.0000  0.0000  0.0000  0.0000  0.0000  0.0000
     EDDAV:  cpu time    4.1227: real time    4.1228
 BZINTS: Fermi energy:  0.207622; 54.000000 electrons
         Band energy:-826.415903;  BLOECHL correction:  0.000000
       DOS:  cpu time    0.0037: real time    0.0037
    CHARGE:  cpu time    0.5511: real time    0.5511
    MIXING:  cpu time    0.0006: real time    0.0006
    --------------------------------------------
      LOOP:  cpu time    9.8180: real time    9.8180

 eigenvalue-minimisations  :  8172
 total energy-change (2. order) : 0.1295962E+00  (-0.8041849E-01)
 number of electron      54.0000009 magnetization      -0.0000000
 augmentation part       20.0222940 magnetization       0.0006120

 Broyden mixing:
  rms(total) = 0.56960E+00    rms(broyden)= 0.56959E+00
  rms(prec ) = 0.58111E+00
  weight for this iteration     100.00

 eigenvalues of (default mixing * dielectric matrix)
  average eigenvalue GAMMA=   1.1090
  1.7724  0.7773  0.7773

 Free energy of the ion-electron system (eV)
  ---------------------------------------------------
  alpha Z        PSCENC =       195.37131285
  Ewald energy   TEWEN  =     -4173.42284800
  -Hartree energ DENC   =     -2179.04470702
  -exchange      EXHF   =         0.00000000
  -V(xc)+E(xc)   XCENC  =       167.31838510
  PAW double counting   =      6848.69891665    -6787.64861759
  entropy T*S    EENTRO =         0.00000000
  eigenvalues    EBANDS =      -826.41590340
  atomic energy  EATOM  =      6689.01075358
  Solvation  Ediel_sol  =         0.00000000
  ---------------------------------------------------
  free energy    TOTEN  =       -66.13270784 eV

  energy without entropy =      -66.13270784  energy(sigma->0) =      -66.13270784


--------------------------------------------------------------------------------------------------------




--------------------------------------- Iteration      1(   5)  ---------------------------------------


    POTLOK:  cpu time    0.0329: real time    0.0330
    SETDIJ:  cpu time    5.0509: real time    5.0509
atom =   1  type =  1  l = 2
 
 onsite density matrix
 
spin component  1
 
  0.0490  0.0019  0.0133  0.0020  0.0000
  0.0019  0.0356  0.0014  0.0187 -0.0020
  0.0133  0.0014  0.0308  0.0014  0.0002
  0.0020  0.0187  0.0014  0.0355  0.0023
  0.0000 -0.0020  0.0002  0.0023  0.0271
 
spin component  2
 
  0.9667 -0.0015  0.0227 -0.0016 -0.0000
 -0.0015  0.9664 -0.0011  0.0140  0.0016
  0.0227 -0.0011  0.9625 -0.0011 -0.0002
 -0.0016  0.0140 -0.0011  0.9665 -0.0019
 -0.0000  0.0016 -0.0002 -0.0019  0.9421
 
 occupancies and eigenvectors
 
  o =  0.0160  v = -0.0025 -0.6792  0.0029  0.6841 -0.2660  0.0000  0.0000  0.0000  0.0000  0.0000      0.0000  0.0000  0.0000  0.0000  0.0000  0.0000  0.0000  0.0000  0.0000  0.0000
  o =  0.0238  v =  0.4645  0.0008 -0.8845  0.0211  0.0384  0.0000  0.0000  0.0000  0.0000  0.0000      0.0000  0.0000  0.0000  0.0000  0.0000  0.0000  0.0000  0.0000  0.0000  0.0000
  o =  0.0279  v = -0.0228 -0.1942  0.0340  0.1814  0.9632  0.0000  0.0000  0.0000  0.0000  0.0000      0.0000  0.0000  0.0000  0.0000  0.0000  0.0000  0.0000  0.0000  0.0000  0.0000
  o =  0.0516  v = -0.5469  0.5611 -0.2732  0.5580  0.0048  0.0000  0.0000  0.0000  0.0000  0.0000      0.0000  0.0000  0.0000  0.0000  0.0000  0.0000  0.0000  0.0000  0.0000  0.0000
  o =  0.0586  v = -0.6961 -0.4315 -0.3767 -0.4327 -0.0087  0.0000  0.0000  0.0000  0.0000  0.0000      0.0000  0.0000  0.0000  0.0000  0.0000  0.0000  0.0000  0.0000  0.0000  0.0000
  o =  0.9415  v =  0.0000  0.0000  0.0000  0.0000  0.0000  0.1836  0.1465 -0.2068 -0.1509 -0.9377      0.0000  0.0000  0.0000  0.0000  0.0000  0.0000  0.0000  0.0000  0.0000  0.0000
  o =  0.9419  v =  0.0000  0.0000  0.0000  0.0000  0.0000  0.6484 -0.0368 -0.7093  0.0506  0.2695      0.0000  0.0000  0.0000  0.0000  0.0000  0.0000  0.0000  0.0000  0.0000  0.0000
  o =  0.9529  v =  0.0000  0.0000  0.0000  0.0000  0.0000  0.0005  0.6922 -0.0011 -0.6876  0.2191      0.0000  0.0000  0.0000  0.0000  0.0000  0.0000  0.0000  0.0000  0.0000  0.0000
  o =  0.9796  v =  0.0000  0.0000  0.0000  0.0000  0.0000  0.2318  0.6686  0.2223  0.6706 -0.0071      0.0000  0.0000  0.0000  0.0000  0.0000  0.0000  0.0000  0.0000  0.0000  0.0000
  o =  0.9883  v =  0.0000  0.0000  0.0000  0.0000  0.0000 -0.7016  0.2258 -0.6362  0.2283  0.0015      0.0000  0.0000  0.0000  0.0000  0.0000  0.0000  0.0000  0.0000  0.0000  0.0000
atom =   2  type =  1  l = 2
 
 onsite density matrix
 
spin component  1
 
  0.9700 -0.0017 -0.0157 -0.0017 -0.0000
 -0.0017  0.9635 -0.0021 -0.0202  0.0018
 -0.0157 -0.0021  0.9627 -0.0021 -0.0003
 -0.0017 -0.0202 -0.0021  0.9640 -0.0021
 -0.0000  0.0018 -0.0003 -0.0021  0.9435
 
spin component  2
 
  0.0456  0.0021 -0.0223  0.0021  0.0000
  0.0021  0.0386  0.0027 -0.0109 -0.0023
 -0.0223  0.0027  0.0305  0.0026  0.0003
  0.0021 -0.0109  0.0026  0.0381  0.0026
  0.0000 -0.0023  0.0003  0.0026  0.0256
 
 occupancies and eigenvectors
 
  o =  0.0129  v =  0.0000  0.0000  0.0000  0.0000  0.0000 -0.5548  0.2204 -0.7714  0.2199  0.0172      0.0000  0.0000  0.0000  0.0000  0.0000  0.0000  0.0000  0.0000  0.0000  0.0000
  o =  0.0251  v =  0.0000  0.0000  0.0000  0.0000  0.0000 -0.0005  0.0457 -0.0089 -0.1556  0.9867      0.0000  0.0000  0.0000  0.0000  0.0000  0.0000  0.0000  0.0000  0.0000  0.0000
  o =  0.0290  v =  0.0000  0.0000  0.0000  0.0000  0.0000 -0.1770 -0.6697 -0.2566 -0.6696 -0.0770      0.0000  0.0000  0.0000  0.0000  0.0000  0.0000  0.0000  0.0000  0.0000  0.0000
  o =  0.0497  v =  0.0000  0.0000  0.0000  0.0000  0.0000  0.0014  0.7077  0.0007 -0.6922 -0.1419      0.0000  0.0000  0.0000  0.0000  0.0000  0.0000  0.0000  0.0000  0.0000  0.0000
  o =  0.0616  v =  0.0000  0.0000  0.0000  0.0000  0.0000 -0.8130 -0.0034  0.5823 -0.0053  0.0042      0.0000  0.0000  0.0000  0.0000  0.0000  0.0000  0.0000  0.0000  0.0000  0.0000
  o =  0.9418  v = -0.2553 -0.6310 -0.3220 -0.6383 -0.1596  0.0000  0.0000  0.0000  0.0000  0.0000      0.0000  0.0000  0.0000  0.0000  0.0000  0.0000  0.0000  0.0000  0.0000  0.0000
  o =  0.9433  v = -0.0348 -0.1554 -0.0375 -0.0598  0.9847  0.0000  0.0000  0.0000  0.0000  0.0000      0.0000  0.0000  0.0000  0.0000  0.0000  0.0000  0.0000  0.0000  0.0000  0.0000
  o =  0.9520  v =  0.5667 -0.2930  0.7123 -0.2921 -0.0168  0.0000  0.0000  0.0000  0.0000  0.0000      0.0000  0.0000  0.0000  0.0000  0.0000  0.0000  0.0000  0.0000  0.0000  0.0000
  o =  0.9825  v = -0.7825  0.0114  0.6224 -0.0116 -0.0029  0.0000  0.0000  0.0000  0.0000  0.0000      0.0000  0.0000  0.0000  0.0000  0.0000  0.0000  0.0000  0.0000  0.0000  0.0000
  o =  0.9841  v =  0.0121  0.7012 -0.0106 -0.7096  0.0676  0.0000  0.0000  0.0000  0.0000  0.0000      0.0000  0.0000  0.0000  0.0000  0.0000  0.0000  0.0000  0.0000  0.0000  0.0000
     EDDAV:  cpu time    3.9834: real time    3.9834
 BZINTS: Fermi energy:  0.183452; 54.000000 electrons
         Band energy:-826.424771;  BLOECHL correction:  0.000000
       DOS:  cpu time    0.0037: real time    0.0037
    CHARGE:  cpu time    0.5490: real time    0.5491
    MIXING:  cpu time    0.0007: real time    0.0007
    --------------------------------------------
      LOOP:  cpu time    9.6206: real time    9.6207

 eigenvalue-minimisations  :  7644
 total energy-change (2. order) :-0.6307969E-02  (-0.1041145E-01)
 number of electron      54.0000009 magnetization      -0.0000000
 augmentation part       20.0258329 magnetization       0.0003047

 Broyden mixing:
  rms(total) = 0.22139E+00    rms(broyden)= 0.22139E+00
  rms(prec ) = 0.24848E+00
  weight for this iteration     100.00

 eigenvalues of (default mixing * dielectric matrix)
  average eigenvalue GAMMA=   1.1243
  2.3183  0.7922  0.7922  0.5947

 Free energy of the ion-electron system (eV)
  ---------------------------------------------------
  alpha Z        PSCENC =       195.37131285
  Ewald energy   TEWEN  =     -4173.42284800
  -Hartree energ DENC   =     -2178.76421573
  -exchange      EXHF   =         0.00000000
  -V(xc)+E(xc)   XCENC  =       166.27675136
  PAW double counting   =      6619.35704522    -6557.54304413
  entropy T*S    EENTRO =         0.00000000
  eigenvalues    EBANDS =      -826.42477095
  atomic energy  EATOM  =      6689.01075358
  Solvation  Ediel_sol  =         0.00000000
  ---------------------------------------------------
  free energy    TOTEN  =       -66.13901581 eV

  energy without entropy =      -66.13901581  energy(sigma->0) =      -66.13901581


--------------------------------------------------------------------------------------------------------




--------------------------------------- Iteration      1(   6)  ---------------------------------------


    POTLOK:  cpu time    0.0330: real time    0.0330
    SETDIJ:  cpu time    5.0973: real time    5.0974
atom =   1  type =  1  l = 2
 
 onsite density matrix
 
spin component  1
 
  0.0360  0.0002  0.0196  0.0002  0.0000
  0.0002  0.0287  0.0001  0.0174 -0.0001
  0.0196  0.0001  0.0244  0.0001  0.0000
  0.0002  0.0174  0.0001  0.0287  0.0001
  0.0000 -0.0001  0.0000  0.0001  0.0104
 
spin component  2
 
  0.9793 -0.0001  0.0175 -0.0001 -0.0000
 -0.0001  0.9738 -0.0000  0.0152 -0.0001
  0.0175 -0.0000  0.9693 -0.0000  0.0000
 -0.0001  0.0152 -0.0000  0.9739  0.0001
 -0.0000 -0.0001  0.0000  0.0001  0.9582
 
 occupancies and eigenvectors
 
  o =  0.0098  v = -0.5981 -0.0009  0.8014  0.0014 -0.0092  0.0000  0.0000  0.0000  0.0000  0.0000      0.0000  0.0000  0.0000  0.0000  0.0000  0.0000  0.0000  0.0000  0.0000  0.0000
  o =  0.0104  v = -0.0057  0.0956  0.0074 -0.0961  0.9907  0.0000  0.0000  0.0000  0.0000  0.0000      0.0000  0.0000  0.0000  0.0000  0.0000  0.0000  0.0000  0.0000  0.0000  0.0000
  o =  0.0113  v =  0.0000 -0.7004 -0.0004  0.7007  0.1356  0.0000  0.0000  0.0000  0.0000  0.0000      0.0000  0.0000  0.0000  0.0000  0.0000  0.0000  0.0000  0.0000  0.0000  0.0000
  o =  0.0460  v =  0.0550 -0.7056  0.0416 -0.7052 -0.0003  0.0000  0.0000  0.0000  0.0000  0.0000      0.0000  0.0000  0.0000  0.0000  0.0000  0.0000  0.0000  0.0000  0.0000  0.0000
  o =  0.0507  v = -0.7995 -0.0486 -0.5967 -0.0489 -0.0002  0.0000  0.0000  0.0000  0.0000  0.0000      0.0000  0.0000  0.0000  0.0000  0.0000  0.0000  0.0000  0.0000  0.0000  0.0000
  o =  0.9561  v =  0.0000  0.0000  0.0000  0.0000  0.0000  0.6026  0.0010 -0.7980  0.0003  0.0033      0.0000  0.0000  0.0000  0.0000  0.0000  0.0000  0.0000  0.0000  0.0000  0.0000
  o =  0.9582  v =  0.0000  0.0000  0.0000  0.0000  0.0000 -0.0021  0.1705  0.0026 -0.1708  0.9704      0.0000  0.0000  0.0000  0.0000  0.0000  0.0000  0.0000  0.0000  0.0000  0.0000
  o =  0.9586  v =  0.0000  0.0000  0.0000  0.0000  0.0000 -0.0001 -0.6863  0.0003  0.6861  0.2413      0.0000  0.0000  0.0000  0.0000  0.0000  0.0000  0.0000  0.0000  0.0000  0.0000
  o =  0.9891  v =  0.0000  0.0000  0.0000  0.0000  0.0000  0.0202  0.7068  0.0164  0.7069  0.0002      0.0000  0.0000  0.0000  0.0000  0.0000  0.0000  0.0000  0.0000  0.0000  0.0000
  o =  0.9925  v =  0.0000  0.0000  0.0000  0.0000  0.0000 -0.7978  0.0182 -0.6024  0.0185 -0.0001      0.0000  0.0000  0.0000  0.0000  0.0000  0.0000  0.0000  0.0000  0.0000  0.0000
atom =   2  type =  1  l = 2
 
 onsite density matrix
 
spin component  1
 
  0.9793  0.0001 -0.0176  0.0001  0.0000
  0.0001  0.9739  0.0000 -0.0152  0.0000
 -0.0176  0.0000  0.9692  0.0000  0.0000
  0.0001 -0.0152  0.0000  0.9739 -0.0000
  0.0000  0.0000  0.0000 -0.0000  0.9583
 
spin component  2
 
  0.0359  0.0001 -0.0202  0.0001 -0.0000
  0.0001  0.0287  0.0001 -0.0168 -0.0002
 -0.0202  0.0001  0.0245  0.0001  0.0000
  0.0001 -0.0168  0.0001  0.0287  0.0002
 -0.0000 -0.0002  0.0000  0.0002  0.0104
 
 occupancies and eigenvectors
 
  o =  0.0092  v =  0.0000  0.0000  0.0000  0.0000  0.0000  0.6013 -0.0586  0.7947 -0.0586 -0.0051      0.0000  0.0000  0.0000  0.0000  0.0000  0.0000  0.0000  0.0000  0.0000  0.0000
  o =  0.0104  v =  0.0000  0.0000  0.0000  0.0000  0.0000  0.0030  0.0008  0.0035 -0.0100  0.9999      0.0000  0.0000  0.0000  0.0000  0.0000  0.0000  0.0000  0.0000  0.0000  0.0000
  o =  0.0119  v =  0.0000  0.0000  0.0000  0.0000  0.0000  0.0510  0.7043  0.0654  0.7050  0.0061      0.0000  0.0000  0.0000  0.0000  0.0000  0.0000  0.0000  0.0000  0.0000  0.0000
  o =  0.0456  v =  0.0000  0.0000  0.0000  0.0000  0.0000  0.0005  0.7074 -0.0004 -0.7067 -0.0077      0.0000  0.0000  0.0000  0.0000  0.0000  0.0000  0.0000  0.0000  0.0000  0.0000
  o =  0.0511  v =  0.0000  0.0000  0.0000  0.0000  0.0000 -0.7974  0.0013  0.6034  0.0004  0.0003      0.0000  0.0000  0.0000  0.0000  0.0000  0.0000  0.0000  0.0000  0.0000  0.0000
  o =  0.9559  v = -0.6008  0.0303 -0.7983  0.0301  0.0055  0.0000  0.0000  0.0000  0.0000  0.0000      0.0000  0.0000  0.0000  0.0000  0.0000  0.0000  0.0000  0.0000  0.0000  0.0000
  o =  0.9583  v =  0.0032 -0.0002  0.0045  0.0006  1.0000  0.0000  0.0000  0.0000  0.0000  0.0000      0.0000  0.0000  0.0000  0.0000  0.0000  0.0000  0.0000  0.0000  0.0000  0.0000
  o =  0.9587  v = -0.0245 -0.7065 -0.0351 -0.7064  0.0006  0.0000  0.0000  0.0000  0.0000  0.0000      0.0000  0.0000  0.0000  0.0000  0.0000  0.0000  0.0000  0.0000  0.0000  0.0000
  o =  0.9891  v =  0.0012  0.7070 -0.0007 -0.7072  0.0006  0.0000  0.0000  0.0000  0.0000  0.0000      0.0000  0.0000  0.0000  0.0000  0.0000  0.0000  0.0000  0.0000  0.0000  0.0000
  o =  0.9926  v = -0.7990 -0.0001  0.6013 -0.0021 -0.0002  0.0000  0.0000  0.0000  0.0000  0.0000      0.0000  0.0000  0.0000  0.0000  0.0000  0.0000  0.0000  0.0000  0.0000  0.0000
     EDDAV:  cpu time    3.9639: real time    3.9640
 BZINTS: Fermi energy:  0.196181; 54.000000 electrons
         Band energy:-827.718744;  BLOECHL correction:  0.000000
       DOS:  cpu time    0.0037: real time    0.0037
    CHARGE:  cpu time    0.5510: real time    0.5510
    MIXING:  cpu time    0.0007: real time    0.0007
    --------------------------------------------
      LOOP:  cpu time    9.6496: real time    9.6497

 eigenvalue-minimisations  :  7812
 total energy-change (2. order) : 0.4277323E-02  (-0.2467424E-02)
 number of electron      54.0000009 magnetization      -0.0000000
 augmentation part       20.0425825 magnetization      -0.0002311

 Broyden mixing:
  rms(total) = 0.10460E+00    rms(broyden)= 0.10460E+00
  rms(prec ) = 0.12141E+00
  weight for this iteration     100.00

 eigenvalues of (default mixing * dielectric matrix)
  average eigenvalue GAMMA=   1.1447
  2.3997  0.9554  0.9554  0.7712  0.6418

 Free energy of the ion-electron system (eV)
  ---------------------------------------------------
  alpha Z        PSCENC =       195.37131285
  Ewald energy   TEWEN  =     -4173.42284800
  -Hartree energ DENC   =     -2178.29370832
  -exchange      EXHF   =         0.00000000
  -V(xc)+E(xc)   XCENC  =       166.06850871
  PAW double counting   =      6586.22380184    -6523.37381550
  entropy T*S    EENTRO =         0.00000000
  eigenvalues    EBANDS =      -827.71874364
  atomic energy  EATOM  =      6689.01075358
  Solvation  Ediel_sol  =         0.00000000
  ---------------------------------------------------
  free energy    TOTEN  =       -66.13473848 eV

  energy without entropy =      -66.13473848  energy(sigma->0) =      -66.13473848


--------------------------------------------------------------------------------------------------------




--------------------------------------- Iteration      1(   7)  ---------------------------------------


    POTLOK:  cpu time    0.0326: real time    0.0326
    SETDIJ:  cpu time    5.0914: real time    5.0915
atom =   1  type =  1  l = 2
 
 onsite density matrix
 
spin component  1
 
  0.0355  0.0001  0.0195  0.0001 -0.0000
  0.0001  0.0283  0.0000  0.0171 -0.0001
  0.0195  0.0000  0.0242  0.0001  0.0000
  0.0001  0.0171  0.0001  0.0283  0.0001
 -0.0000 -0.0001  0.0000  0.0001  0.0101
 
spin component  2
 
  0.9800 -0.0000  0.0180 -0.0000  0.0000
 -0.0000  0.9746 -0.0000  0.0155  0.0000
  0.0180 -0.0000  0.9698 -0.0000 -0.0000
 -0.0000  0.0155 -0.0000  0.9746 -0.0000
  0.0000  0.0000 -0.0000 -0.0000  0.9586
 
 occupancies and eigenvectors
 
  o =  0.0095  v = -0.6012  0.0003  0.7991  0.0001 -0.0103  0.0000  0.0000  0.0000  0.0000  0.0000      0.0000  0.0000  0.0000  0.0000  0.0000  0.0000  0.0000  0.0000  0.0000  0.0000
  o =  0.0101  v =  0.0062 -0.0509 -0.0082  0.0511 -0.9973  0.0000  0.0000  0.0000  0.0000  0.0000      0.0000  0.0000  0.0000  0.0000  0.0000  0.0000  0.0000  0.0000  0.0000  0.0000
  o =  0.0112  v =  0.0006  0.7052 -0.0006 -0.7054 -0.0721  0.0000  0.0000  0.0000  0.0000  0.0000      0.0000  0.0000  0.0000  0.0000  0.0000  0.0000  0.0000  0.0000  0.0000  0.0000
  o =  0.0455  v =  0.0226 -0.7069  0.0174 -0.7067 -0.0001  0.0000  0.0000  0.0000  0.0000  0.0000      0.0000  0.0000  0.0000  0.0000  0.0000  0.0000  0.0000  0.0000  0.0000  0.0000
  o =  0.0502  v = -0.7988 -0.0201 -0.6010 -0.0202 -0.0001  0.0000  0.0000  0.0000  0.0000  0.0000      0.0000  0.0000  0.0000  0.0000  0.0000  0.0000  0.0000  0.0000  0.0000  0.0000
  o =  0.9562  v =  0.0000  0.0000  0.0000  0.0000  0.0000  0.6035  0.0003 -0.7973 -0.0003 -0.0006      0.0000  0.0000  0.0000  0.0000  0.0000  0.0000  0.0000  0.0000  0.0000  0.0000
  o =  0.9586  v =  0.0000  0.0000  0.0000  0.0000  0.0000 -0.0004  0.0229  0.0005 -0.0229 -0.9995      0.0000  0.0000  0.0000  0.0000  0.0000  0.0000  0.0000  0.0000  0.0000  0.0000
  o =  0.9590  v =  0.0000  0.0000  0.0000  0.0000  0.0000 -0.0003  0.7068  0.0003 -0.7067  0.0324      0.0000  0.0000  0.0000  0.0000  0.0000  0.0000  0.0000  0.0000  0.0000  0.0000
  o =  0.9901  v =  0.0000  0.0000  0.0000  0.0000  0.0000  0.0121  0.7070  0.0092  0.7071 -0.0000      0.0000  0.0000  0.0000  0.0000  0.0000  0.0000  0.0000  0.0000  0.0000  0.0000
  o =  0.9936  v =  0.0000  0.0000  0.0000  0.0000  0.0000 -0.7973  0.0107 -0.6035  0.0108  0.0000      0.0000  0.0000  0.0000  0.0000  0.0000  0.0000  0.0000  0.0000  0.0000  0.0000
atom =   2  type =  1  l = 2
 
 onsite density matrix
 
spin component  1
 
  0.9800 -0.0000 -0.0179 -0.0000  0.0000
 -0.0000  0.9746 -0.0000 -0.0156  0.0000
 -0.0179 -0.0000  0.9698 -0.0000 -0.0000
 -0.0000 -0.0156 -0.0000  0.9746 -0.0000
  0.0000  0.0000 -0.0000 -0.0000  0.9586
 
spin component  2
 
  0.0354  0.0001 -0.0198  0.0001 -0.0000
  0.0001  0.0284  0.0001 -0.0168 -0.0001
 -0.0198  0.0001  0.0242  0.0001  0.0000
  0.0001 -0.0168  0.0001  0.0284  0.0001
 -0.0000 -0.0001  0.0000  0.0001  0.0100
 
 occupancies and eigenvectors
 
  o =  0.0092  v =  0.0000  0.0000  0.0000  0.0000  0.0000  0.6022 -0.0496  0.7952 -0.0496 -0.0080      0.0000  0.0000  0.0000  0.0000  0.0000  0.0000  0.0000  0.0000  0.0000  0.0000
  o =  0.0100  v =  0.0000  0.0000  0.0000  0.0000  0.0000  0.0048  0.0000  0.0061 -0.0054  1.0000      0.0000  0.0000  0.0000  0.0000  0.0000  0.0000  0.0000  0.0000  0.0000  0.0000
  o =  0.0116  v =  0.0000  0.0000  0.0000  0.0000  0.0000  0.0430  0.7052  0.0555  0.7055  0.0032      0.0000  0.0000  0.0000  0.0000  0.0000  0.0000  0.0000  0.0000  0.0000  0.0000
  o =  0.0452  v =  0.0000  0.0000  0.0000  0.0000  0.0000  0.0003  0.7073 -0.0003 -0.7069 -0.0038      0.0000  0.0000  0.0000  0.0000  0.0000  0.0000  0.0000  0.0000  0.0000  0.0000
  o =  0.0504  v =  0.0000  0.0000  0.0000  0.0000  0.0000 -0.7972  0.0008  0.6037  0.0002  0.0001      0.0000  0.0000  0.0000  0.0000  0.0000  0.0000  0.0000  0.0000  0.0000  0.0000
  o =  0.9562  v =  0.6025  0.0121  0.7980  0.0121  0.0003  0.0000  0.0000  0.0000  0.0000  0.0000      0.0000  0.0000  0.0000  0.0000  0.0000  0.0000  0.0000  0.0000  0.0000  0.0000
  o =  0.9586  v = -0.0004  0.0053 -0.0003  0.0072  1.0000  0.0000  0.0000  0.0000  0.0000  0.0000      0.0000  0.0000  0.0000  0.0000  0.0000  0.0000  0.0000  0.0000  0.0000  0.0000
[...]
     18      -3.0993      1.00000
     19      -3.0367      1.00000
     20      -2.5284      1.00000
     21      -2.2183      1.00000
     22      -2.1179      1.00000
     23      -1.9588      1.00000
     24      -1.5148      1.00000
     25      -1.2225      1.00000
     26      -0.6860      1.00000
     27      -0.0584      1.00000
     28       8.7124      0.00000
     29       8.7429      0.00000
     30       8.8683      0.00000
     31       9.2739      0.00000
     32       9.8237      0.00000
     33      10.1627      0.00000
     34      11.0231      0.00000
     35      11.5134      0.00000
     36      12.7773      0.00000

 k-point    48 :      -0.1250   -0.1250    0.4167
  band No.  band energies     occupation 
      1     -49.4406      1.00000
      2     -49.4025      1.00000
      3     -49.3871      1.00000
      4     -42.7895      1.00000
      5     -42.7435      1.00000
      6     -42.7228      1.00000
      7     -22.6497      1.00000
      8     -22.5360      1.00000
      9     -22.4936      1.00000
     10     -22.3977      1.00000
     11      -5.0008      1.00000
     12      -4.4092      1.00000
     13      -4.1932      1.00000
     14      -4.0919      1.00000
     15      -4.0064      1.00000
     16      -3.6574      1.00000
     17      -3.2655      1.00000
     18      -3.1580      1.00000
     19      -2.8606      1.00000
     20      -2.5805      1.00000
     21      -2.3219      1.00000
     22      -2.3019      1.00000
     23      -1.9731      1.00000
     24      -1.4626      1.00000
     25      -1.0963      1.00000
     26      -0.6476      1.00000
     27      -0.3295      1.00000
     28       8.3412      0.00000
     29       8.6950      0.00000
     30       8.7553      0.00000
     31       9.1439      0.00000
     32       9.7238      0.00000
     33      10.0231      0.00000
     34      11.4093      0.00000
     35      12.5283      0.00000
     36      12.8580      0.00000


--------------------------------------------------------------------------------------------------------


 soft charge-density along one line, spin component           1
         0         1         2         3         4         5         6         7         8         9
 total charge-density along one line
 
 soft charge-density along one line, spin component           2
         0         1         2         3         4         5         6         7         8         9
 total charge-density along one line
 
 pseudopotential strength for first ion, spin component:           1
-45.241  -0.000  -0.031   7.824   0.000   0.011  -0.000   0.000
 -0.000 -45.206  -0.000   0.000   7.811   0.000   0.000  -0.000
 -0.031  -0.000 -45.241   0.011   0.000   7.824   0.000   0.000
  7.824   0.000   0.011   5.621   0.000   0.008   0.000   0.000
  0.000   7.811   0.000   0.000   5.609   0.000  -0.000   0.000
  0.011   0.000   7.824   0.008   0.000   5.621   0.000  -0.000
 -0.000   0.000   0.000   0.000  -0.000   0.000  -0.551   0.000
  0.000  -0.000   0.000   0.000   0.000  -0.000   0.000  -0.500
 -0.000   0.000   0.000  -0.000   0.000  -0.000  -0.081  -0.000
  0.000   0.000  -0.000  -0.000   0.000  -0.000   0.000  -0.098
  0.000  -0.000  -0.000   0.000  -0.000  -0.000  -0.000   0.000
 -0.000   0.000   0.000   0.000  -0.000   0.000  -0.991   0.000
  0.000  -0.000   0.000   0.000  -0.000  -0.000   0.000  -0.940
 -0.000   0.000   0.000   0.000   0.000  -0.000  -0.085  -0.000
  0.000   0.000  -0.000  -0.000   0.000  -0.000   0.000  -0.101
  0.000  -0.000  -0.000   0.000  -0.000  -0.000  -0.000   0.000
  0.000   0.000  -0.000  -0.000   0.000   0.000   0.009   0.000
  0.000   0.000  -0.000  -0.000   0.000   0.000   0.018   0.000
 pseudopotential strength for first ion, spin component:           2
-51.117   0.000  -0.007   9.856   0.000   0.012   0.000   0.000
  0.000 -51.115   0.000   0.000   9.843   0.000   0.000   0.000
 -0.007   0.000 -51.117   0.012   0.000   9.856  -0.000   0.000
  9.856   0.000   0.012   4.692   0.000   0.000  -0.000   0.000
  0.000   9.843   0.000   0.000   4.692   0.000  -0.000  -0.000
  0.012   0.000   9.856   0.000   0.000   4.692  -0.000  -0.000
  0.000   0.000  -0.000  -0.000  -0.000  -0.000  -9.984  -0.000
  0.000   0.000   0.000   0.000  -0.000  -0.000  -0.000  -9.943
  0.000  -0.000  -0.000  -0.000   0.000   0.000  -0.103  -0.000
  0.000  -0.000  -0.000  -0.000  -0.000  -0.000  -0.000  -0.110
 -0.000  -0.000  -0.000  -0.000  -0.000  -0.000   0.000  -0.000
  0.000   0.000  -0.000  -0.000  -0.000  -0.000 -10.529  -0.000
  0.000   0.000   0.000   0.000  -0.000  -0.000  -0.000 -10.487
  0.000  -0.000  -0.000  -0.000   0.000   0.000  -0.106  -0.000
  0.000  -0.000  -0.000  -0.000  -0.000  -0.000  -0.000  -0.112
 -0.000  -0.000  -0.000  -0.000  -0.000  -0.000   0.000  -0.000
  0.000   0.000  -0.000  -0.000  -0.000  -0.000   0.008   0.000
  0.000   0.000  -0.000  -0.000  -0.000  -0.000   0.016   0.000
 total augmentation occupancy for first ion, spin component:           1
  2.001   0.000   0.000  -0.012  -0.000   0.001   0.000   0.000  -0.000  -0.000  -0.000  -0.000  -0.000   0.000   0.000   0.000
  0.000   2.001   0.000  -0.000  -0.012  -0.000  -0.000  -0.000   0.000   0.000  -0.000   0.000   0.000  -0.000  -0.000   0.000
  0.000   0.000   2.001   0.001  -0.000  -0.012   0.000  -0.000   0.000  -0.000  -0.000   0.000   0.000  -0.000   0.000   0.000
 -0.012  -0.000   0.001   0.078  -0.000  -0.008   0.000  -0.000   0.000   0.000   0.000  -0.000   0.000  -0.000  -0.000  -0.000
 -0.000  -0.012  -0.000  -0.000   0.088  -0.000  -0.000  -0.000   0.000  -0.000  -0.000  -0.000   0.000  -0.000   0.000   0.000
  0.001  -0.000  -0.012  -0.008  -0.000   0.078   0.000  -0.000  -0.000  -0.000   0.000  -0.000   0.000   0.000   0.000  -0.000
  0.000  -0.000   0.000   0.000  -0.000   0.000   7.843   0.000   3.025   0.000   0.000  -5.812  -0.000  -2.837  -0.000  -0.000
  0.000  -0.000  -0.000  -0.000  -0.000  -0.000   0.000   6.714  -0.000   2.621   0.000  -0.000  -4.737  -0.000  -2.459  -0.000
 -0.000   0.000   0.000   0.000   0.000  -0.000   3.025  -0.000   6.102  -0.000   0.000  -2.838  -0.000  -4.185  -0.000  -0.000
 -0.000   0.000  -0.000   0.000  -0.000  -0.000   0.000   2.621  -0.000   6.714  -0.000  -0.000  -2.459  -0.000  -4.737   0.000
 -0.000  -0.000  -0.000   0.000  -0.000   0.000   0.000   0.000   0.000  -0.000   3.936  -0.000  -0.000  -0.000   0.000  -2.120
 -0.000   0.000   0.000  -0.000  -0.000  -0.000  -5.812  -0.000  -2.838  -0.000  -0.000   4.951   0.000   2.681   0.000   0.000
 -0.000   0.000   0.000   0.000   0.000   0.000  -0.000  -4.737  -0.000  -2.459  -0.000   0.000   3.923   0.000   2.326   0.000
  0.000  -0.000  -0.000  -0.000  -0.000   0.000  -2.837  -0.000  -4.185  -0.000  -0.000   2.681   0.000   3.420   0.000   0.000
  0.000  -0.000   0.000  -0.000   0.000   0.000  -0.000  -2.459  -0.000  -4.737   0.000   0.000   2.326   0.000   3.923  -0.000
  0.000   0.000   0.000  -0.000   0.000  -0.000  -0.000  -0.000  -0.000   0.000  -2.120   0.000   0.000   0.000  -0.000   1.438
  0.000   0.000  -0.000   0.000  -0.000  -0.000   0.363   0.000  -0.328   0.000  -0.000  -0.349  -0.000   0.311  -0.000   0.000
 -0.000  -0.000   0.000  -0.000  -0.000   0.000  -0.077  -0.000   0.075  -0.000   0.000   0.082   0.000  -0.075   0.000  -0.000
 total augmentation occupancy for first ion, spin component:           2
  0.004   0.000  -0.000   0.017  -0.000  -0.000   0.000   0.000   0.000  -0.000   0.000  -0.000  -0.000  -0.000   0.000  -0.000
  0.000   0.004   0.000  -0.000   0.017  -0.000   0.000   0.000   0.000   0.000   0.000  -0.000  -0.000  -0.000  -0.000  -0.000
 -0.000   0.000   0.004  -0.000  -0.000   0.017   0.000   0.000  -0.000  -0.000   0.000  -0.000  -0.000   0.000   0.000  -0.000
  0.017  -0.000  -0.000  -0.012   0.000   0.000   0.000   0.000   0.000   0.000  -0.000  -0.000  -0.000  -0.000  -0.000   0.000
 -0.000   0.017  -0.000   0.000  -0.012   0.000  -0.000  -0.000   0.000  -0.000  -0.000   0.000   0.000  -0.000   0.000   0.000
 -0.000  -0.000   0.017   0.000   0.000  -0.012  -0.000  -0.000  -0.000  -0.000  -0.000   0.000   0.000   0.000   0.000   0.000
  0.000   0.000   0.000   0.000  -0.000  -0.000  -5.581  -0.000  -1.732  -0.000   0.000   3.264   0.000   1.384   0.000  -0.000
  0.000   0.000   0.000   0.000  -0.000  -0.000  -0.000  -4.953   0.000  -1.497  -0.000   0.000   2.748  -0.000   1.197   0.000
  0.000   0.000  -0.000   0.000   0.000  -0.000  -1.732   0.000  -4.541   0.000   0.000   1.384  -0.000   2.427  -0.000  -0.000
 -0.000   0.000  -0.000   0.000  -0.000  -0.000  -0.000  -1.497   0.000  -4.953   0.000   0.000   1.197  -0.000   2.748  -0.000
  0.000   0.000   0.000  -0.000  -0.000  -0.000   0.000  -0.000   0.000   0.000  -3.401  -0.000   0.000  -0.000  -0.000   1.507
 -0.000  -0.000  -0.000  -0.000   0.000   0.000   3.264   0.000   1.384   0.000  -0.000  -2.078  -0.000  -1.047  -0.000   0.000
 -0.000  -0.000  -0.000  -0.000   0.000   0.000   0.000   2.748  -0.000   1.197   0.000  -0.000  -1.673   0.000  -0.906  -0.000
 -0.000  -0.000   0.000  -0.000  -0.000   0.000   1.384  -0.000   2.427  -0.000  -0.000  -1.047   0.000  -1.439   0.000   0.000
  0.000  -0.000   0.000  -0.000   0.000   0.000   0.000   1.197  -0.000   2.748  -0.000  -0.000  -0.906   0.000  -1.673   0.000
 -0.000  -0.000  -0.000   0.000   0.000   0.000  -0.000   0.000  -0.000  -0.000   1.507   0.000  -0.000   0.000   0.000  -0.735
 -0.000  -0.000  -0.000   0.000   0.000  -0.000  -0.088  -0.000   0.082  -0.000  -0.000   0.041   0.000  -0.037   0.000   0.000
  0.000   0.000   0.000  -0.000  -0.000   0.000   0.004   0.000  -0.011   0.000   0.000   0.000  -0.000   0.004  -0.000  -0.000


------------------------ aborting loop because EDIFF is reached ----------------------------------------


 


 total charge     
 
# of ion       s       p       d       tot
------------------------------------------
    1        0.167   6.142   4.965  11.273
    2        0.167   6.142   4.965  11.273
    3        1.729   4.410   0.000   6.139
    4        1.729   4.410   0.000   6.139
    5        1.729   4.410   0.000   6.139
    6        1.729   4.410   0.000   6.139
--------------------------------------------------
tot          7.249  29.923   9.929  47.102
 


 magnetization (x)
 
# of ion       s       p       d       tot
------------------------------------------
    1       -0.025  -0.020  -4.722  -4.767
    2        0.025   0.020   4.722   4.767
    3        0.002   0.010   0.000   0.012
    4        0.002   0.010   0.000   0.012
    5       -0.002  -0.010   0.000  -0.012
    6       -0.002  -0.010   0.000  -0.012
--------------------------------------------------
tot         -0.000   0.000   0.000   0.000
 
    CHARGE:  cpu time    0.0962: real time    0.0962
    FORLOC:  cpu time    0.0011: real time    0.0011
    FORNL :  cpu time    0.5487: real time    0.5487
    STRESS:  cpu time   10.2072: real time   10.2074
    FORCOR:  cpu time    0.0295: real time    0.0295
    FORHAR:  cpu time    0.0022: real time    0.0022
    MIXING:  cpu time    0.0013: real time    0.0013
    OFIELD:  cpu time    0.0000: real time    0.0000

  FORCE on cell =-STRESS in cart. coord.  units (eV):
  Direction    XX          YY          ZZ          XY          YZ          ZX
  --------------------------------------------------------------------------------------
  Alpha Z   195.37131   195.37131   195.37131
  Ewald   -1580.93646 -1580.93646 -1011.55306    -0.00000     0.00000     0.00000
  Hartree   598.45180   598.45180   983.25077    -0.00002     0.00009     0.00009
  E(xc)    -150.52247  -150.52247  -150.66165    -0.00000    -0.00002    -0.00002
  Local     158.92865   158.92866  -788.27372     0.00003    -0.00001    -0.00001
  n-local  -311.40578  -311.40578  -310.11485    -0.00000     0.00003     0.00003
  augment   158.32719   158.32719   157.78100    -0.00000    -0.00005    -0.00005
  Kinetic   931.80425   931.80425   924.22446    -0.00000    -0.00012    -0.00012
  Fock        0.00000     0.00000     0.00000     0.00000     0.00000     0.00000
  -------------------------------------------------------------------------------------
  Total       0.01850     0.01850     0.02427     0.00000    -0.00007    -0.00007
  in kB       0.37516     0.37515     0.49210     0.00001    -0.00143    -0.00143
  external pressure =        0.41 kB  Pullay stress =        0.00 kB


 VOLUME and BASIS-vectors are now :
 -----------------------------------------------------------------------------
  energy-cutoff  :      600.00
  volume of cell :       79.02
      direct lattice vectors                 reciprocal lattice vectors
     4.885668075  0.000000000  0.000000000     0.204680299  0.000000000  0.000000000
     0.000000000  4.885668075  0.000000000     0.000000000  0.204680299  0.000000000
     0.000000000  0.000000000  3.310304055     0.000000000  0.000000000  0.302087054

  length of vectors
     4.885668075  4.885668075  3.310304055     0.204680299  0.204680299  0.302087054


 FORCES acting on ions
    electron-ion (+dipol)            ewald-force                    non-local-force                 convergence-correction
 -----------------------------------------------------------------------------------------------
   0.527E-05 -.858E-05 -.454E-09   0.114E-12 0.142E-12 -.247E-13   -.612E-05 0.906E-05 0.387E-08   0.263E-08 -.125E-08 -.239E-08
   0.527E-05 0.858E-05 -.358E-09   -.284E-13 -.284E-13 -.261E-13   -.612E-05 -.906E-05 0.824E-09   0.502E-08 0.925E-08 0.137E-08
   -.342E+02 0.342E+02 -.288E-07   0.355E+02 -.355E+02 0.169E-13   -.135E+01 0.135E+01 0.436E-07   0.160E-05 -.152E-05 -.102E-07
   0.342E+02 -.342E+02 0.286E-07   -.355E+02 0.355E+02 0.169E-13   0.135E+01 -.135E+01 -.414E-07   -.160E-05 0.152E-05 0.928E-08
   0.342E+02 0.342E+02 -.169E-03   -.355E+02 -.355E+02 0.103E-13   0.135E+01 0.135E+01 0.295E-03   -.443E-05 -.455E-05 -.205E-05
   -.342E+02 -.342E+02 0.169E-03   0.355E+02 0.355E+02 0.106E-13   -.135E+01 -.135E+01 -.295E-03   0.443E-05 0.455E-05 0.205E-05
 -----------------------------------------------------------------------------------------------
   0.928E-05 -.326E-08 -.161E-08   0.000E+00 -.711E-14 0.397E-14   -.924E-05 -.692E-09 0.717E-08   0.562E-08 0.707E-08 -.162E-08
 
 
 POSITION                                       TOTAL-FORCE (eV/Angst)
 -----------------------------------------------------------------------------------
      2.44283      2.44283      1.65515        -0.000001      0.000001      0.000000
      0.00000      0.00000      0.00000        -0.000001     -0.000001      0.000000
      0.95367      3.93199      1.65515        -0.000735      0.000735      0.000000
      3.93199      0.95367      1.65515         0.000736     -0.000737     -0.000000
      1.48916      1.48916      0.00000         0.000737      0.000738      0.000124
      3.39651      3.39651      0.00000        -0.000736     -0.000736     -0.000124
 -----------------------------------------------------------------------------------
    total drift:                                0.000000      0.000000      0.000000


--------------------------------------------------------------------------------------------------------



  FREE ENERGIE OF THE ION-ELECTRON SYSTEM (eV)
  ---------------------------------------------------
  free  energy   TOTEN  =       -66.13208528 eV

  energy  without entropy=      -66.13208528  energy(sigma->0) =      -66.13208528
 


--------------------------------------------------------------------------------------------------------


    POTLOK:  cpu time    5.2501: real time    5.2502

 Total magnetic moment S=     1.0000000

 Fermi contact (isotropic) hyperfine coupling parameter (MHz) 
 -------------------------------------------------------------
  ion      A_pw      A_1PS     A_1AE     A_1c      A_tot
 -------------------------------------------------------------
   1   -1314.112 -1314.257  -409.815  1250.228  -409.671
   2    1314.112  1314.257   409.815 -1250.228   409.671
   3      26.587    26.530   210.216   -16.783   210.272
   4      26.587    26.530   210.217   -16.783   210.273
   5     -26.586   -26.530  -210.203    16.783  -210.260
   6     -26.586   -26.530  -210.203    16.783  -210.259
 -------------------------------------------------------------


 Dipolar hyperfine coupling parameters (MHz)
 ---------------------------------------------------------------------
  ion      A_xx      A_yy      A_zz      A_xy      A_xz      A_yz
 ---------------------------------------------------------------------
   1       7.997     7.997   -15.993     5.131     0.002     0.002
   2      -7.997    -7.997    15.993     5.131     0.001     0.001
   3     -50.902   -50.900   101.802     8.993    -0.003    -0.003
   4     -50.900   -50.902   101.802     8.995    -0.003    -0.003
   5      50.900    50.902  -101.803     8.994    -0.004    -0.004
   6      50.902    50.900  -101.803     8.993    -0.004    -0.004
 ---------------------------------------------------------------------


 Total hyperfine coupling parameters after diagonalization (MHz)
 (convention: |A_zz| > |A_xx| > |A_yy|)
 ----------------------------------------------------------------------
  ion      A_xx      A_yy      A_zz     asymmetry (A_yy - A_xx)/ A_zz 
 ----------------------------------------------------------------------
   1    -406.805  -396.543  -425.664      -0.024
   2     406.805   396.544   425.664      -0.024
   3     168.364   150.378   312.075      -0.058
   4     168.366   150.377   312.075      -0.058
   5    -168.353  -150.364  -312.062      -0.058
   6    -168.351  -150.365  -312.062      -0.058
 ---------------------------------------------------------------------



--------------------------------------------------------------------------------------------------------


 writing wavefunctions
     LOOP+:  cpu time  200.2278: real time  200.2496
    4ORBIT:  cpu time    0.0000: real time    0.0000
 


 total charge     
 
# of ion       s       p       d       tot
------------------------------------------
    1        0.167   6.142   4.965  11.273
    2        0.167   6.142   4.965  11.273
    3        1.729   4.410   0.000   6.139
    4        1.729   4.410   0.000   6.139
    5        1.729   4.410   0.000   6.139
    6        1.729   4.410   0.000   6.139
--------------------------------------------------
tot          7.249  29.923   9.929  47.102
 


 magnetization (x)
 
# of ion       s       p       d       tot
------------------------------------------
    1       -0.025  -0.020  -4.722  -4.767
    2        0.025   0.020   4.722   4.767
    3        0.002   0.010   0.000   0.012
    4        0.002   0.010   0.000   0.012
    5       -0.002  -0.010   0.000  -0.012
    6       -0.002  -0.010   0.000  -0.012
--------------------------------------------------
tot         -0.000   0.000   0.000   0.000
 
 BZINTS: Fermi energy:  0.232530; 54.000000 electrons
         Band energy:-826.171056;  BLOECHL correction:  0.000000

 total amount of memory used by VASP MPI-rank0    85348. kBytes
=======================================================================

   base      :      30000. kBytes
   nonl-proj :      36915. kBytes
   fftplans  :       1875. kBytes
   grid      :       3820. kBytes
   one-center:        186. kBytes
   wavefun   :      12552. kBytes
 
  
  
 General timing and accounting informations for this job:
 ========================================================
  
                  Total CPU time used (sec):      202.698
                            User time (sec):      136.648
                          System time (sec):       66.050
                         Elapsed time (sec):      202.822
  
                   Maximum memory used (kb):       96620.
                   Average memory used (kb):           0.
  
                          Minor page faults:        25187
                          Major page faults:            5
                 Voluntary context switches:          301
