 vasp.5.4.4.18Apr17-6-g9f103f2a35 (build Apr 27 2017 11:13:10) complex          
  
 executed on           IFC91_ompi date 2020.05.15  15:40:04
 running on   16 total cores
 distrk:  each k-point on   16 cores,    1 groups
 distr:  one band on NCORES_PER_BAND=   1 cores,   16 groups


--------------------------------------------------------------------------------------------------------


 INCAR:
 POTCAR:    PAW Mn_pv 02Aug2007                   
 POTCAR:    PAW F 31May2000                       

 ----------------------------------------------------------------------------- 
|                                                                             |
|           W    W    AA    RRRRR   N    N  II  N    N   GGGG   !!!           |
|           W    W   A  A   R    R  NN   N  II  NN   N  G    G  !!!           |
|           W    W  A    A  R    R  N N  N  II  N N  N  G       !!!           |
|           W WW W  AAAAAA  RRRRR   N  N N  II  N  N N  G  GGG   !            |
|           WW  WW  A    A  R   R   N   NN  II  N   NN  G    G                |
|           W    W  A    A  R    R  N    N  II  N    N   GGGG   !!!           |
|                                                                             |
|      For optimal performance we recommend to set                            |
|        NCORE= 4 - approx SQRT( number of cores)                             |
|      NCORE specifies how many cores store one orbital (NPAR=cpu/NCORE).     |
|      This setting can  greatly improve the performance of VASP for DFT.     |
|      The default,   NCORE=1            might be grossly inefficient         |
|      on modern multi-core architectures or massively parallel machines.     |
|      Do your own testing !!!!                                               |
|      Unfortunately you need to use the default for GW and RPA calculations. |
|      (for HF NCORE is supported but not extensively tested yet)             |
|                                                                             |
 ----------------------------------------------------------------------------- 

 POTCAR:    PAW Mn_pv 02Aug2007                   
   VRHFIN =Mn: 3p4s3d                                                           
   LEXCH  = CA                                                                  
   EATOM  =  2028.0466 eV,  149.0572 Ry                                         
                                                                                
   TITEL  = PAW Mn_pv 02Aug2007                                                 
   LULTRA =        F    use ultrasoft PP ?                                      
   IUNSCR =        1    unscreen: 0-lin 1-nonlin 2-no                           
   RPACOR =    2.080    partial core radius                                     
   POMASS =   54.938; ZVAL   =   13.000    mass and valenz                      
   RCORE  =    2.300    outmost cutoff radius                                   
   RWIGS  =    2.500; RWIGS  =    1.323    wigner-seitz radius (au A)           
   ENMAX  =  269.944; ENMIN  =  202.458 eV                                      
   ICORE  =        3    local potential                                         
   LCOR   =        T    correct aug charges                                     
   LPAW   =        T    paw PP                                                  
   EAUG   =  569.085                                                            
   DEXC   =    0.000                                                            
   RMAX   =    2.343    core radius for proj-oper                               
   RAUG   =    1.300    factor for augmentation sphere                          
   RDEP   =    2.338    radius for radial grids                                 
   RDEPT  =    1.798    core radius for aug-charge                              
                                                                                
   Atomic configuration                                                         
    8 entries                                                                   
     n  l   j            E        occ.                                          
     1  0  0.50     -6393.6057   2.0000                                         
     2  0  0.50      -735.9993   2.0000                                         
     2  1  1.50      -624.3417   6.0000                                         
     3  0  0.50       -80.9782   2.0000                                         
     3  1  1.50       -50.3144   6.0000                                         
     3  2  2.50        -3.6171   6.0000                                         
     4  0  0.50        -4.3304   1.0000                                         
     4  3  2.50        -1.3606   0.0000                                         
   Description                                                                  
     l       E           TYP  RCUT    TYP  RCUT                                 
     1    -50.3143634     23  2.000                                             
     1     -1.3605826     23  2.000                                             
     2     -3.6171470     23  2.300                                             
     2     -4.9777296     23  2.300                                             
     0     -4.3303688     23  2.300                                             
     0      7.3408788     23  2.300                                             
     3      9.5240782     23  2.300                                             
  local pseudopotential read in
  partial core-charges read in
  partial kinetic energy density read in
  atomic valenz-charges read in
  non local Contribution for L=           1  read in
    real space projection operators read in
  non local Contribution for L=           1  read in
    real space projection operators read in
  non local Contribution for L=           2  read in
    real space projection operators read in
  non local Contribution for L=           2  read in
    real space projection operators read in
  non local Contribution for L=           0  read in
    real space projection operators read in
  non local Contribution for L=           0  read in
    real space projection operators read in
    PAW grid and wavefunctions read in
 
   number of l-projection  operators is LMAX  =           6
   number of lm-projection operators is LMMAX =          18
 
 POTCAR:    PAW F 31May2000                       
   VRHFIN =F: s2p5                                                              
   LEXCH  = CA                                                                  
   EATOM  =   658.3685 eV,   48.3887 Ry                                         
                                                                                
   TITEL  = PAW F 31May2000                                                     
   LULTRA =        F    use ultrasoft PP ?                                      
   IUNSCR =        1    unscreen: 0-lin 1-nonlin 2-no                           
   RPACOR =    1.200    partial core radius                                     
   POMASS =   18.998; ZVAL   =    7.000    mass and valenz                      
   RCORE  =    1.520    outmost cutoff radius                                   
   RWIGS  =    1.500; RWIGS  =    0.794    wigner-seitz radius (au A)           
   ENMAX  =  400.000; ENMIN  =  300.000 eV                                      
   ICORE  =        2    local potential                                         
   LCOR   =        T    correct aug charges                                     
   LPAW   =        T    paw PP                                                  
   EAUG   =  613.614                                                            
   DEXC   =    0.000                                                            
   RMAX   =    1.555    core radius for proj-oper                               
   RAUG   =    1.300    factor for augmentation sphere                          
   RDEP   =    1.539    radius for radial grids                                 
   RDEPT  =    1.299    core radius for aug-charge                              
                                                                                
   Atomic configuration                                                         
    4 entries                                                                   
     n  l   j            E        occ.                                          
     1  0  0.50      -658.3386   2.0000                                         
     2  0  0.50       -29.6221   2.0000                                         
     2  1  0.50       -11.2952   5.0000                                         
     3  2  1.50       -12.2452   0.0000                                         
   Description                                                                  
     l       E           TYP  RCUT    TYP  RCUT                                 
     0    -29.6221019     23  1.200                                             
     0     -9.5240782     23  1.200                                             
     1    -11.2951545     23  1.520                                             
     1      1.3605826     23  1.520                                             
     2    -12.2452434      7  1.500                                             
  local pseudopotential read in
  partial core-charges read in
  partial kinetic energy density read in
  kinetic energy density of atom read in
  atomic valenz-charges read in
  non local Contribution for L=           0  read in
    real space projection operators read in
  non local Contribution for L=           0  read in
    real space projection operators read in
  non local Contribution for L=           1  read in
    real space projection operators read in
  non local Contribution for L=           1  read in
    real space projection operators read in
    PAW grid and wavefunctions read in
 
   number of l-projection  operators is LMAX  =           4
   number of lm-projection operators is LMMAX =           8
 
  PAW Mn_pv 02Aug2007                   :
 energy of atom  1       EATOM=-2028.0466
 kinetic energy error for atom=    0.0047 (will be added to EATOM!!)
  PAW F 31May2000                       :
 energy of atom  2       EATOM= -658.3685
 kinetic energy error for atom=    0.0252 (will be added to EATOM!!)
 
 
 POSCAR: Mn  F                                   
  positions in cartesian coordinates
  No initial velocities read in
 exchange correlation table for  LEXCH =        2
   RHO(1)=    0.500       N(1)  =     2000
   RHO(2)=  100.500       N(2)  =     4000
 


--------------------------------------------------------------------------------------------------------


 ion  position               nearest neighbor table
   1  0.500  0.500  0.500-   3 2.03   4 2.03   5 2.09   6 2.09   5 2.09   6 2.09
   2  0.000  0.000  0.000-   5 2.03   6 2.03   3 2.09   4 2.09   3 2.09   4 2.09
   3  0.198  0.802  0.500-   1 2.03   2 2.09   2 2.09
   4  0.802  0.198  0.500-   1 2.03   2 2.09   2 2.09
   5  0.302  0.302  0.000-   2 2.03   1 2.09   1 2.09
   6  0.698  0.698  0.000-   2 2.03   1 2.09   1 2.09
 

IMPORTANT INFORMATION: All symmetrisations will be switched off!
NOSYMM: (Re-)initialisation of all symmetry stuff for point group C_1.

 
 
 KPOINTS: KPOINTS created by Atomic Simulation Env

Automatic generation of k-mesh.
Space group operators:
 irot       det(A)        alpha          n_x          n_y          n_z        tau_x        tau_y        tau_z
    1     1.000000     0.000000     1.000000     0.000000     0.000000     0.000000     0.000000     0.000000
 
 Subroutine IBZKPT returns following result:
 ===========================================
 
 Found     48 irreducible k-points:
 
 Following reciprocal coordinates:
            Coordinates               Weight
  0.125000  0.125000  0.083333      2.000000
  0.375000  0.125000  0.083333      2.000000
 -0.375000  0.125000  0.083333      2.000000
 -0.125000  0.125000  0.083333      2.000000
  0.125000  0.375000  0.083333      2.000000
  0.375000  0.375000  0.083333      2.000000
 -0.375000  0.375000  0.083333      2.000000
 -0.125000  0.375000  0.083333      2.000000
  0.125000 -0.375000  0.083333      2.000000
  0.375000 -0.375000  0.083333      2.000000
 -0.375000 -0.375000  0.083333      2.000000
 -0.125000 -0.375000  0.083333      2.000000
  0.125000 -0.125000  0.083333      2.000000
  0.375000 -0.125000  0.083333      2.000000
 -0.375000 -0.125000  0.083333      2.000000
 -0.125000 -0.125000  0.083333      2.000000
  0.125000  0.125000  0.250000      2.000000
  0.375000  0.125000  0.250000      2.000000
 -0.375000  0.125000  0.250000      2.000000
 -0.125000  0.125000  0.250000      2.000000
  0.125000  0.375000  0.250000      2.000000
  0.375000  0.375000  0.250000      2.000000
 -0.375000  0.375000  0.250000      2.000000
 -0.125000  0.375000  0.250000      2.000000
  0.125000 -0.375000  0.250000      2.000000
  0.375000 -0.375000  0.250000      2.000000
 -0.375000 -0.375000  0.250000      2.000000
 -0.125000 -0.375000  0.250000      2.000000
  0.125000 -0.125000  0.250000      2.000000
  0.375000 -0.125000  0.250000      2.000000
 -0.375000 -0.125000  0.250000      2.000000
 -0.125000 -0.125000  0.250000      2.000000
  0.125000  0.125000  0.416667      2.000000
  0.375000  0.125000  0.416667      2.000000
 -0.375000  0.125000  0.416667      2.000000
 -0.125000  0.125000  0.416667      2.000000
  0.125000  0.375000  0.416667      2.000000
  0.375000  0.375000  0.416667      2.000000
 -0.375000  0.375000  0.416667      2.000000
 -0.125000  0.375000  0.416667      2.000000
  0.125000 -0.375000  0.416667      2.000000
  0.375000 -0.375000  0.416667      2.000000
 -0.375000 -0.375000  0.416667      2.000000
 -0.125000 -0.375000  0.416667      2.000000
  0.125000 -0.125000  0.416667      2.000000
  0.375000 -0.125000  0.416667      2.000000
 -0.375000 -0.125000  0.416667      2.000000
 -0.125000 -0.125000  0.416667      2.000000
 
 Following cartesian coordinates:
            Coordinates               Weight
  0.026245  0.026245  0.025928      2.000000
  0.078734  0.026245  0.025928      2.000000
 -0.078734  0.026245  0.025928      2.000000
 -0.026245  0.026245  0.025928      2.000000
  0.026245  0.078734  0.025928      2.000000
  0.078734  0.078734  0.025928      2.000000
 -0.078734  0.078734  0.025928      2.000000
 -0.026245  0.078734  0.025928      2.000000
  0.026245 -0.078734  0.025928      2.000000
  0.078734 -0.078734  0.025928      2.000000
 -0.078734 -0.078734  0.025928      2.000000
 -0.026245 -0.078734  0.025928      2.000000
  0.026245 -0.026245  0.025928      2.000000
  0.078734 -0.026245  0.025928      2.000000
 -0.078734 -0.026245  0.025928      2.000000
 -0.026245 -0.026245  0.025928      2.000000
  0.026245  0.026245  0.077784      2.000000
  0.078734  0.026245  0.077784      2.000000
 -0.078734  0.026245  0.077784      2.000000
 -0.026245  0.026245  0.077784      2.000000
  0.026245  0.078734  0.077784      2.000000
  0.078734  0.078734  0.077784      2.000000
 -0.078734  0.078734  0.077784      2.000000
 -0.026245  0.078734  0.077784      2.000000
  0.026245 -0.078734  0.077784      2.000000
  0.078734 -0.078734  0.077784      2.000000
 -0.078734 -0.078734  0.077784      2.000000
 -0.026245 -0.078734  0.077784      2.000000
  0.026245 -0.026245  0.077784      2.000000
  0.078734 -0.026245  0.077784      2.000000
 -0.078734 -0.026245  0.077784      2.000000
 -0.026245 -0.026245  0.077784      2.000000
  0.026245  0.026245  0.129639      2.000000
  0.078734  0.026245  0.129639      2.000000
 -0.078734  0.026245  0.129639      2.000000
 -0.026245  0.026245  0.129639      2.000000
  0.026245  0.078734  0.129639      2.000000
  0.078734  0.078734  0.129639      2.000000
 -0.078734  0.078734  0.129639      2.000000
 -0.026245  0.078734  0.129639      2.000000
  0.026245 -0.078734  0.129639      2.000000
  0.078734 -0.078734  0.129639      2.000000
 -0.078734 -0.078734  0.129639      2.000000
 -0.026245 -0.078734  0.129639      2.000000
  0.026245 -0.026245  0.129639      2.000000
  0.078734 -0.026245  0.129639      2.000000
 -0.078734 -0.026245  0.129639      2.000000
 -0.026245 -0.026245  0.129639      2.000000
 
 TETIRR: Found    288 inequivalent tetrahedra from      576


--------------------------------------------------------------------------------------------------------




 Dimension of arrays:
   k-points           NKPTS =     48   k-points in BZ     NKDIM =     48   number of bands    NBANDS=     32
   number of dos      NEDOS =    301   number of ions     NIONS =      6
   non local maximal  LDIM  =      6   non local SUM 2l+1 LMDIM =     18
   total plane-waves  NPLWV =  18000
   max r-space proj   IRMAX =      1   max aug-charges    IRDMAX=  60120
   dimension x,y,z NGX =    30 NGY =   30 NGZ =   20
   dimension x,y,z NGXF=    60 NGYF=   60 NGZF=   40
   support grid    NGXF=   120 NGYF=  120 NGZF=   80
   ions per type =               2   4
   NGX,Y,Z   is equivalent  to a cutoff of  10.47, 10.47, 10.34 a.u.
   NGXF,Y,Z  is equivalent  to a cutoff of  20.94, 20.94, 20.69 a.u.

 SYSTEM =  unknown system                          
 POSCAR =  Mn  F                                   

 Startparameter for this run:
   NWRITE =      2    write-flag & timer
   PREC   = normal    normal or accurate (medium, high low for compatibility)
   ISTART =      1    job   : 0-new  1-cont  2-samecut
   ICHARG =      0    charge: 1-file 2-atom 10-const
   ISPIN  =      2    spin polarized calculation?
   LNONCOLLINEAR =      F non collinear calculations
   LSORBIT =      F    spin-orbit coupling
   INIWAV =      1    electr: 0-lowe 1-rand  2-diag
   LASPH  =      T    aspherical Exc in radial PAW
   METAGGA=      F    non-selfconsistent MetaGGA calc.

 Electronic Relaxation 1
   ENCUT  =  600.0 eV  44.10 Ry    6.64 a.u.   9.51  9.51  6.42*2*pi/ulx,y,z
   ENINI  =  600.0     initial cutoff
   ENAUG  =  613.6 eV  augmentation charge cutoff
   NELM   =     60;   NELMIN=  2; NELMDL=  0     # of ELM steps 
   EDIFF  = 0.1E-05   stopping-criterion for ELM
   LREAL  =      F    real-space projection
   NLSPLINE    = F    spline interpolate recip. space projectors
   LCOMPAT=      F    compatible to vasp.4.4
   GGA_COMPAT  = T    GGA compatible to vasp.4.4-vasp.4.6
   LMAXPAW     = -100 max onsite density
   LMAXMIX     =    4 max onsite mixed and CHGCAR
   VOSKOWN=      0    Vosko Wilk Nusair interpolation
   ROPT   =    0.00000   0.00000
 Ionic relaxation
   EDIFFG = 0.1E-04   stopping-criterion for IOM
   NSW    =      0    number of steps for IOM
   NBLOCK =      1;   KBLOCK =      1    inner block; outer block 
   IBRION =     -1    ionic relax: 0-MD 1-quasi-New 2-CG
   NFREE  =      0    steps in history (QN), initial steepest desc. (CG)
   ISIF   =      2    stress and relaxation
   IWAVPR =     10    prediction:  0-non 1-charg 2-wave 3-comb
   ISYM   =      0    0-nonsym 1-usesym 2-fastsym
   LCORR  =      T    Harris-Foulkes like correction to forces

   POTIM  = 0.5000    time-step for ionic-motion
   TEIN   =    0.0    initial temperature
   TEBEG  =    0.0;   TEEND  =   0.0 temperature during run
   SMASS  =  -3.00    Nose mass-parameter (am)
   estimated Nose-frequenzy (Omega)   =  0.10E-29 period in steps =****** mass=  -0.518E-27a.u.
   SCALEE = 1.0000    scale energy and forces
   NPACO  =    256;   APACO  = 16.0  distance and # of slots for P.C.
   PSTRESS=    0.0 pullay stress

  Mass of Ions in am
   POMASS =  54.94 19.00
  Ionic Valenz
   ZVAL   =  13.00  7.00
  Atomic Wigner-Seitz radii
   RWIGS  =  -1.00 -1.00
  virtual crystal weights 
   VCA    =   1.00  1.00
   NELECT =      54.0000    total number of electrons
   NUPDOWN=      -1.0000    fix difference up-down

 DOS related values:
   EMIN   =  10.00;   EMAX   =-10.00  energy-range for DOS
   EFERMI =   0.00
   ISMEAR =    -5;   SIGMA  =   0.20  broadening in eV -4-tet -1-fermi 0-gaus

 Electronic relaxation 2 (details)
   IALGO  =     38    algorithm
   LDIAG  =      T    sub-space diagonalisation (order eigenvalues)
   LSUBROT=      F    optimize rotation matrix (better conditioning)
   TURBO    =      0    0=normal 1=particle mesh
   IRESTART =      0    0=no restart 2=restart with 2 vectors
   NREBOOT  =      0    no. of reboots
   NMIN     =      0    reboot dimension
   EREF     =   0.00    reference energy to select bands
   IMIX   =      4    mixing-type and parameters
     AMIX     =   0.40;   BMIX     =  1.00
     AMIX_MAG =   1.60;   BMIX_MAG =  1.00
     AMIN     =   0.10
     WC   =   100.;   INIMIX=   1;  MIXPRE=   1;  MAXMIX= -45

 Intra band minimization:
   WEIMIN = 0.0000     energy-eigenvalue tresh-hold
   EBREAK =  0.78E-08  absolut break condition
   DEPER  =   0.30     relativ break condition  

   TIME   =   0.40     timestep for ELM

  volume/ion in A,a.u.               =      12.15        82.00
  Fermi-wavevector in a.u.,A,eV,Ry     =   1.481182  2.799028 29.849814  2.193899
  Thomas-Fermi vector in A             =   2.595124
 
 Write flags
   LWAVE        =      T    write WAVECAR
   LDOWNSAMPLE  =      F    k-point downsampling of WAVECAR
   LCHARG       =      T    write CHGCAR
   LVTOT        =      F    write LOCPOT, total local potential
   LVHAR        =      F    write LOCPOT, Hartree potential only
   LELF         =      F    write electronic localiz. function (ELF)
   LORBIT       =     11    0 simple, 1 ext, 2 COOP (PROOUT), +10 PAW based schemes


 Dipole corrections
   LMONO  =      F    monopole corrections only (constant potential shift)
   LDIPOL =      F    correct potential (dipole corrections)
   IDIPOL =      0    1-x, 2-y, 3-z, 4-all directions 
   EPSILON=  1.0000000 bulk dielectric constant

 LDA+U is selected, type is set to LDAUTYPE =  2
   angular momentum for each species LDAUL =     2   -1
   U (eV)           for each species LDAUU =   0.0  0.0
   J (eV)           for each species LDAUJ =   0.0  0.0
 Exchange correlation treatment:
   GGA     =    --    GGA type
   LEXCH   =     2    internal setting for exchange type
   VOSKOWN=      0    Vosko Wilk Nusair interpolation
   LHFCALC =     F    Hartree Fock is set to
   LHFONE  =     F    Hartree Fock one center treatment
   AEXX    =    0.0000 exact exchange contribution

 Linear response parameters
   LEPSILON=     F    determine dielectric tensor
   LRPA    =     F    only Hartree local field effects (RPA)
   LNABLA  =     F    use nabla operator in PAW spheres
   LVEL    =     F    velocity operator in full k-point grid
   LINTERFAST=   F  fast interpolation
   KINTER  =     0    interpolate to denser k-point grid
   CSHIFT  =0.1000    complex shift for real part using Kramers Kronig
   OMEGAMAX=  -1.0    maximum frequency
   DEG_THRESHOLD= 0.2000000E-02 threshold for treating states as degnerate
   RTIME   =   -0.100 relaxation time in fs
  (WPLASMAI=    0.000 imaginary part of plasma frequency in eV, 0.658/RTIME)
   DFIELD  = 0.0000000 0.0000000 0.0000000 field for delta impulse in time
 
 Orbital magnetization related:
   ORBITALMAG=     F  switch on orbital magnetization
   LCHIMAG   =     F  perturbation theory with respect to B field
   DQ        =  0.001000  dq finite difference perturbation B field
   LLRAUG    =     F  two centre corrections for induced B field



--------------------------------------------------------------------------------------------------------


 Static calculation
 charge density and potential will be updated during run
 spin polarized calculation
 Variant of blocked Davidson
 Davidson routine will perform the subspace rotation
 perform sub-space diagonalisation
    after iterative eigenvector-optimisation
 modified Broyden-mixing scheme, WC =      100.0
 initial mixing is a Kerker type mixing with AMIX =  0.4000 and BMIX =      1.0000
 Hartree-type preconditioning will be used
 using additional bands            5
 reciprocal scheme for non local part
 use partial core corrections
 calculate Harris-corrections to forces 
   (improved forces if not selfconsistent)
 use of overlap-Matrix (Vanderbilt PP)
 Fermi weights with tetrahedron method with Bloechl corrections


--------------------------------------------------------------------------------------------------------


  energy-cutoff  :      600.00
  volume of cell :       72.91
      direct lattice vectors                 reciprocal lattice vectors
     4.762889507  0.000000000  0.000000000     0.209956582  0.000000000  0.000000000
     0.000000000  4.762889507  0.000000000     0.000000000  0.209956582  0.000000000
     0.000000000  0.000000000  3.214046596     0.000000000  0.000000000  0.311134257

  length of vectors
     4.762889507  4.762889507  3.214046596     0.209956582  0.209956582  0.311134257


 
 old parameters found on file WAVECAR:
  energy-cutoff  :      600.00
  volume of cell :       72.91
      direct lattice vectors                 reciprocal lattice vectors
     4.762889507  0.000000000  0.000000000     0.209956582  0.000000000  0.000000000
     0.000000000  4.762889507  0.000000000     0.000000000  0.209956582  0.000000000
     0.000000000  0.000000000  3.214046596     0.000000000  0.000000000  0.311134257

  length of vectors

 
 k-points in units of 2pi/SCALE and weight: KPOINTS created by Atomic Simulation Env
   0.02624457  0.02624457  0.02592785       0.021
   0.07873372  0.02624457  0.02592785       0.021
  -0.07873372  0.02624457  0.02592785       0.021
  -0.02624457  0.02624457  0.02592785       0.021
   0.02624457  0.07873372  0.02592785       0.021
   0.07873372  0.07873372  0.02592785       0.021
  -0.07873372  0.07873372  0.02592785       0.021
  -0.02624457  0.07873372  0.02592785       0.021
   0.02624457 -0.07873372  0.02592785       0.021
   0.07873372 -0.07873372  0.02592785       0.021
  -0.07873372 -0.07873372  0.02592785       0.021
  -0.02624457 -0.07873372  0.02592785       0.021
   0.02624457 -0.02624457  0.02592785       0.021
   0.07873372 -0.02624457  0.02592785       0.021
  -0.07873372 -0.02624457  0.02592785       0.021
  -0.02624457 -0.02624457  0.02592785       0.021
   0.02624457  0.02624457  0.07778356       0.021
   0.07873372  0.02624457  0.07778356       0.021
  -0.07873372  0.02624457  0.07778356       0.021
  -0.02624457  0.02624457  0.07778356       0.021
   0.02624457  0.07873372  0.07778356       0.021
   0.07873372  0.07873372  0.07778356       0.021
  -0.07873372  0.07873372  0.07778356       0.021
  -0.02624457  0.07873372  0.07778356       0.021
   0.02624457 -0.07873372  0.07778356       0.021
   0.07873372 -0.07873372  0.07778356       0.021
  -0.07873372 -0.07873372  0.07778356       0.021
  -0.02624457 -0.07873372  0.07778356       0.021
   0.02624457 -0.02624457  0.07778356       0.021
   0.07873372 -0.02624457  0.07778356       0.021
  -0.07873372 -0.02624457  0.07778356       0.021
  -0.02624457 -0.02624457  0.07778356       0.021
   0.02624457  0.02624457  0.12963927       0.021
   0.07873372  0.02624457  0.12963927       0.021
  -0.07873372  0.02624457  0.12963927       0.021
  -0.02624457  0.02624457  0.12963927       0.021
   0.02624457  0.07873372  0.12963927       0.021
   0.07873372  0.07873372  0.12963927       0.021
  -0.07873372  0.07873372  0.12963927       0.021
  -0.02624457  0.07873372  0.12963927       0.021
   0.02624457 -0.07873372  0.12963927       0.021
   0.07873372 -0.07873372  0.12963927       0.021
  -0.07873372 -0.07873372  0.12963927       0.021
  -0.02624457 -0.07873372  0.12963927       0.021
   0.02624457 -0.02624457  0.12963927       0.021
   0.07873372 -0.02624457  0.12963927       0.021
  -0.07873372 -0.02624457  0.12963927       0.021
  -0.02624457 -0.02624457  0.12963927       0.021
 
 k-points in reciprocal lattice and weights: KPOINTS created by Atomic Simulation Env
   0.12500000  0.12500000  0.08333333       0.021
   0.37500000  0.12500000  0.08333333       0.021
  -0.37500000  0.12500000  0.08333333       0.021
  -0.12500000  0.12500000  0.08333333       0.021
   0.12500000  0.37500000  0.08333333       0.021
   0.37500000  0.37500000  0.08333333       0.021
  -0.37500000  0.37500000  0.08333333       0.021
  -0.12500000  0.37500000  0.08333333       0.021
   0.12500000 -0.37500000  0.08333333       0.021
   0.37500000 -0.37500000  0.08333333       0.021
  -0.37500000 -0.37500000  0.08333333       0.021
  -0.12500000 -0.37500000  0.08333333       0.021
   0.12500000 -0.12500000  0.08333333       0.021
   0.37500000 -0.12500000  0.08333333       0.021
  -0.37500000 -0.12500000  0.08333333       0.021
  -0.12500000 -0.12500000  0.08333333       0.021
   0.12500000  0.12500000  0.25000000       0.021
   0.37500000  0.12500000  0.25000000       0.021
  -0.37500000  0.12500000  0.25000000       0.021
  -0.12500000  0.12500000  0.25000000       0.021
   0.12500000  0.37500000  0.25000000       0.021
   0.37500000  0.37500000  0.25000000       0.021
  -0.37500000  0.37500000  0.25000000       0.021
  -0.12500000  0.37500000  0.25000000       0.021
   0.12500000 -0.37500000  0.25000000       0.021
   0.37500000 -0.37500000  0.25000000       0.021
  -0.37500000 -0.37500000  0.25000000       0.021
  -0.12500000 -0.37500000  0.25000000       0.021
   0.12500000 -0.12500000  0.25000000       0.021
   0.37500000 -0.12500000  0.25000000       0.021
  -0.37500000 -0.12500000  0.25000000       0.021
  -0.12500000 -0.12500000  0.25000000       0.021
   0.12500000  0.12500000  0.41666667       0.021
   0.37500000  0.12500000  0.41666667       0.021
  -0.37500000  0.12500000  0.41666667       0.021
  -0.12500000  0.12500000  0.41666667       0.021
   0.12500000  0.37500000  0.41666667       0.021
   0.37500000  0.37500000  0.41666667       0.021
  -0.37500000  0.37500000  0.41666667       0.021
  -0.12500000  0.37500000  0.41666667       0.021
   0.12500000 -0.37500000  0.41666667       0.021
   0.37500000 -0.37500000  0.41666667       0.021
  -0.37500000 -0.37500000  0.41666667       0.021
  -0.12500000 -0.37500000  0.41666667       0.021
   0.12500000 -0.12500000  0.41666667       0.021
   0.37500000 -0.12500000  0.41666667       0.021
  -0.37500000 -0.12500000  0.41666667       0.021
  -0.12500000 -0.12500000  0.41666667       0.021
 
 position of ions in fractional coordinates (direct lattice) 
   0.50000000  0.50000000  0.50000000
   0.00000000  0.00000000  0.00000000
   0.19811861  0.80188139  0.50000000
   0.80188139  0.19811861  0.50000000
   0.30188139  0.30188139  0.00000000
   0.69811861  0.69811861  0.00000000
 
 position of ions in cartesian coordinates  (Angst):
   2.38144475  2.38144475  1.60702330
   0.00000000  0.00000000  0.00000000
   0.94361705  3.81927246  1.60702330
   3.81927246  0.94361705  1.60702330
   1.43782771  1.43782771  0.00000000
   3.32506180  3.32506180  0.00000000
 


--------------------------------------------------------------------------------------------------------


 k-point  1 :   0.1250 0.1250 0.0833  plane waves:    2448
 k-point  2 :   0.3750 0.1250 0.0833  plane waves:    2440
 k-point  3 :  -0.3750 0.1250 0.0833  plane waves:    2440
 k-point  4 :  -0.1250 0.1250 0.0833  plane waves:    2448
 k-point  5 :   0.1250 0.3750 0.0833  plane waves:    2440
 k-point  6 :   0.3750 0.3750 0.0833  plane waves:    2432
 k-point  7 :  -0.3750 0.3750 0.0833  plane waves:    2432
 k-point  8 :  -0.1250 0.3750 0.0833  plane waves:    2440
 k-point  9 :   0.1250-0.3750 0.0833  plane waves:    2440
 k-point 10 :   0.3750-0.3750 0.0833  plane waves:    2432
 k-point 11 :  -0.3750-0.3750 0.0833  plane waves:    2432
 k-point 12 :  -0.1250-0.3750 0.0833  plane waves:    2440
 k-point 13 :   0.1250-0.1250 0.0833  plane waves:    2448
 k-point 14 :   0.3750-0.1250 0.0833  plane waves:    2440
 k-point 15 :  -0.3750-0.1250 0.0833  plane waves:    2440
 k-point 16 :  -0.1250-0.1250 0.0833  plane waves:    2448
 k-point 17 :   0.1250 0.1250 0.2500  plane waves:    2446
 k-point 18 :   0.3750 0.1250 0.2500  plane waves:    2440
 k-point 19 :  -0.3750 0.1250 0.2500  plane waves:    2440
 k-point 20 :  -0.1250 0.1250 0.2500  plane waves:    2446
 k-point 21 :   0.1250 0.3750 0.2500  plane waves:    2440
 k-point 22 :   0.3750 0.3750 0.2500  plane waves:    2423
 k-point 23 :  -0.3750 0.3750 0.2500  plane waves:    2423
 k-point 24 :  -0.1250 0.3750 0.2500  plane waves:    2440
 k-point 25 :   0.1250-0.3750 0.2500  plane waves:    2440
 k-point 26 :   0.3750-0.3750 0.2500  plane waves:    2423
 k-point 27 :  -0.3750-0.3750 0.2500  plane waves:    2423
 k-point 28 :  -0.1250-0.3750 0.2500  plane waves:    2440
 k-point 29 :   0.1250-0.1250 0.2500  plane waves:    2446
 k-point 30 :   0.3750-0.1250 0.2500  plane waves:    2440
 k-point 31 :  -0.3750-0.1250 0.2500  plane waves:    2440
 k-point 32 :  -0.1250-0.1250 0.2500  plane waves:    2446
 k-point 33 :   0.1250 0.1250 0.4167  plane waves:    2434
 k-point 34 :   0.3750 0.1250 0.4167  plane waves:    2417
 k-point 35 :  -0.3750 0.1250 0.4167  plane waves:    2417
 k-point 36 :  -0.1250 0.1250 0.4167  plane waves:    2434
 k-point 37 :   0.1250 0.3750 0.4167  plane waves:    2417
 k-point 38 :   0.3750 0.3750 0.4167  plane waves:    2442
 k-point 39 :  -0.3750 0.3750 0.4167  plane waves:    2442
 k-point 40 :  -0.1250 0.3750 0.4167  plane waves:    2417
 k-point 41 :   0.1250-0.3750 0.4167  plane waves:    2417
 k-point 42 :   0.3750-0.3750 0.4167  plane waves:    2442
 k-point 43 :  -0.3750-0.3750 0.4167  plane waves:    2442
 k-point 44 :  -0.1250-0.3750 0.4167  plane waves:    2417
 k-point 45 :   0.1250-0.1250 0.4167  plane waves:    2434
 k-point 46 :   0.3750-0.1250 0.4167  plane waves:    2417
 k-point 47 :  -0.3750-0.1250 0.4167  plane waves:    2417
 k-point 48 :  -0.1250-0.1250 0.4167  plane waves:    2434

 maximum and minimum number of plane-waves per node :      2448     2417

 maximum number of plane-waves:      2448
 maximum index in each direction: 
   IXMAX=    9   IYMAX=    9   IZMAX=    6
   IXMIN=   -9   IYMIN=   -9   IZMIN=   -6


 serial   3D FFT for wavefunctions
 parallel 3D FFT for charge:
    minimum data exchange during FFTs selected (reduces bandwidth)


 total amount of memory used by VASP MPI-rank0    75784. kBytes
=======================================================================

   base      :      30000. kBytes
   nonl-proj :      34076. kBytes
   fftplans  :       1489. kBytes
   grid      :       2267. kBytes
   one-center:        186. kBytes
   wavefun   :       7766. kBytes
 
     INWAV:  cpu time    0.6471: real time    0.6471
 Broyden mixing: mesh for mixing (old mesh)
   NGX = 19   NGY = 19   NGZ = 13
  (NGX  = 60   NGY  = 60   NGZ  = 40)
  gives a total of   4693 points

 charge density for first step will be calculated from the start-wavefunctions


--------------------------------------------------------------------------------------------------------


 Maximum index for augmentation-charges         4436 (set IRDMAX)


--------------------------------------------------------------------------------------------------------


 initial charge from wavefunction
 First call to EWALD:  gamma=   0.424
 Maximum number of real-space cells 2x 2x 3
 Maximum number of reciprocal cells 3x 3x 2

    FEWALD:  cpu time    0.0011: real time    0.0011


--------------------------------------- Iteration      1(   1)  ---------------------------------------


    POTLOK:  cpu time    0.0068: real time    0.0068
    SETDIJ:  cpu time    0.4263: real time    0.4263
atom =   1  type =  1  l = 2
 
 onsite density matrix
 
spin component  1
 
  0.1556  0.0095  0.0039  0.0094 -0.0000
  0.0095  0.1132  0.0107  0.0446 -0.0142
  0.0039  0.0107  0.0824  0.0106  0.0014
  0.0094  0.0446  0.0106  0.1122  0.0145
 -0.0000 -0.0142  0.0014  0.0145  0.1042
 
spin component  2
 
  0.9102 -0.0050  0.0268 -0.0049 -0.0001
 -0.0050  0.8987 -0.0043  0.0157  0.0051
  0.0268 -0.0043  0.9117 -0.0040 -0.0004
 -0.0049  0.0157 -0.0040  0.8991 -0.0053
 -0.0001  0.0051 -0.0004 -0.0053  0.8722
 
 occupancies and eigenvectors
 
  o =  0.0590  v =  0.0008  0.6435 -0.0269 -0.6458  0.4100  0.0000  0.0000  0.0000  0.0000  0.0000      0.0000  0.0000  0.0000  0.0000  0.0000  0.0000  0.0000  0.0000  0.0000  0.0000
  o =  0.0794  v =  0.0170  0.1052 -0.9813  0.1591  0.0211  0.0000  0.0000  0.0000  0.0000  0.0000      0.0000  0.0000  0.0000  0.0000  0.0000  0.0000  0.0000  0.0000  0.0000  0.0000
  o =  0.1133  v =  0.0017 -0.2982  0.0331  0.2804  0.9118  0.0000  0.0000  0.0000  0.0000  0.0000      0.0000  0.0000  0.0000  0.0000  0.0000  0.0000  0.0000  0.0000  0.0000  0.0000
  o =  0.1439  v = -0.7628  0.4520  0.1083  0.4495  0.0071  0.0000  0.0000  0.0000  0.0000  0.0000      0.0000  0.0000  0.0000  0.0000  0.0000  0.0000  0.0000  0.0000  0.0000  0.0000
  o =  0.1720  v = -0.6464 -0.5306 -0.1535 -0.5263 -0.0049  0.0000  0.0000  0.0000  0.0000  0.0000      0.0000  0.0000  0.0000  0.0000  0.0000  0.0000  0.0000  0.0000  0.0000  0.0000
  o =  0.8685  v =  0.0000  0.0000  0.0000  0.0000  0.0000  0.0050  0.3146 -0.0098 -0.3167 -0.8948      0.0000  0.0000  0.0000  0.0000  0.0000  0.0000  0.0000  0.0000  0.0000  0.0000
  o =  0.8841  v =  0.0000  0.0000  0.0000  0.0000  0.0000  0.7187 -0.0178 -0.6923  0.0609 -0.0162      0.0000  0.0000  0.0000  0.0000  0.0000  0.0000  0.0000  0.0000  0.0000  0.0000
  o =  0.8869  v =  0.0000  0.0000  0.0000  0.0000  0.0000 -0.0463 -0.6417  0.0336  0.6212 -0.4461      0.0000  0.0000  0.0000  0.0000  0.0000  0.0000  0.0000  0.0000  0.0000  0.0000
  o =  0.9115  v =  0.0000  0.0000  0.0000  0.0000  0.0000  0.2046  0.6598  0.2551  0.6765 -0.0091      0.0000  0.0000  0.0000  0.0000  0.0000  0.0000  0.0000  0.0000  0.0000  0.0000
  o =  0.9409  v =  0.0000  0.0000  0.0000  0.0000  0.0000 -0.6630  0.2315 -0.6741  0.2290  0.0040      0.0000  0.0000  0.0000  0.0000  0.0000  0.0000  0.0000  0.0000  0.0000  0.0000
atom =   2  type =  1  l = 2
 
 onsite density matrix
 
spin component  1
 
  0.9128 -0.0031 -0.0110 -0.0035  0.0000
 -0.0031  0.8996 -0.0027 -0.0324  0.0063
 -0.0110 -0.0027  0.9140 -0.0023 -0.0004
 -0.0035 -0.0324 -0.0023  0.9001 -0.0064
  0.0000  0.0063 -0.0004 -0.0064  0.8704
 
spin component  2
 
  0.1620  0.0119 -0.0606  0.0121  0.0001
  0.0119  0.1089  0.0078  0.0064 -0.0147
 -0.0606  0.0078  0.0861  0.0072  0.0013
  0.0121  0.0064  0.0072  0.1079  0.0148
  0.0001 -0.0147  0.0013  0.0148  0.1065
 
 occupancies and eigenvectors
 
  o =  0.0479  v =  0.0000  0.0000  0.0000  0.0000  0.0000 -0.4828  0.1894 -0.8373  0.1716  0.0240      0.0000  0.0000  0.0000  0.0000  0.0000  0.0000  0.0000  0.0000  0.0000  0.0000
  o =  0.0833  v =  0.0000  0.0000  0.0000  0.0000  0.0000  0.0163  0.5069  0.0126 -0.5457  0.6670      0.0000  0.0000  0.0000  0.0000  0.0000  0.0000  0.0000  0.0000  0.0000  0.0000
  o =  0.1182  v =  0.0000  0.0000  0.0000  0.0000  0.0000  0.0188  0.6878  0.2822  0.6683  0.0182      0.0000  0.0000  0.0000  0.0000  0.0000  0.0000  0.0000  0.0000  0.0000  0.0000
  o =  0.1252  v =  0.0000  0.0000  0.0000  0.0000  0.0000  0.0067 -0.4765  0.0055  0.4676  0.7445      0.0000  0.0000  0.0000  0.0000  0.0000  0.0000  0.0000  0.0000  0.0000  0.0000
  o =  0.1967  v =  0.0000  0.0000  0.0000  0.0000  0.0000 -0.8754 -0.0839  0.4681 -0.0868  0.0053      0.0000  0.0000  0.0000  0.0000  0.0000  0.0000  0.0000  0.0000  0.0000  0.0000
  o =  0.8665  v = -0.1236 -0.6954 -0.1026 -0.6990 -0.0446  0.0000  0.0000  0.0000  0.0000  0.0000      0.0000  0.0000  0.0000  0.0000  0.0000  0.0000  0.0000  0.0000  0.0000  0.0000
  o =  0.8691  v = -0.0035 -0.1317  0.0040  0.0680  0.9889  0.0000  0.0000  0.0000  0.0000  0.0000      0.0000  0.0000  0.0000  0.0000  0.0000  0.0000  0.0000  0.0000  0.0000  0.0000
  o =  0.9033  v = -0.7148  0.1126 -0.6807  0.1137  0.0074  0.0000  0.0000  0.0000  0.0000  0.0000      0.0000  0.0000  0.0000  0.0000  0.0000  0.0000  0.0000  0.0000  0.0000  0.0000
  o =  0.9244  v =  0.6877 -0.0394 -0.7246  0.0240 -0.0015  0.0000  0.0000  0.0000  0.0000  0.0000      0.0000  0.0000  0.0000  0.0000  0.0000  0.0000  0.0000  0.0000  0.0000  0.0000
  o =  0.9335  v =  0.0304  0.6963 -0.0325 -0.7023  0.1412  0.0000  0.0000  0.0000  0.0000  0.0000      0.0000  0.0000  0.0000  0.0000  0.0000  0.0000  0.0000  0.0000  0.0000  0.0000
     EDDAV:  cpu time    1.9447: real time    1.9636
 BZINTS: Fermi energy:  4.754764; 54.000000 electrons
         Band energy:-732.192614;  BLOECHL correction: -0.003589
       DOS:  cpu time    0.0237: real time    0.0237
    CHARGE:  cpu time    0.0772: real time    0.0773
    MIXING:  cpu time    0.0005: real time    0.0005
    --------------------------------------------
      LOOP:  cpu time    2.4791: real time    2.4981

 eigenvalue-minimisations  :  7472
 total energy-change (2. order) :-0.2471686E+02  (-0.1227302E+03)
 number of electron      54.0000000 magnetization      -0.0011426
 augmentation part       20.5773384 magnetization      -0.0046519

 Broyden mixing:
  rms(total) = 0.22334E+01    rms(broyden)= 0.22333E+01
  rms(prec ) = 0.24067E+01
  weight for this iteration     100.00

 Free energy of the ion-electron system (eV)
  ---------------------------------------------------
  alpha Z        PSCENC =       208.96474121
  Ewald energy   TEWEN  =     -4289.10428141
  -Hartree energ DENC   =     -2050.13842461
  -exchange      EXHF   =         0.00000000
  -V(xc)+E(xc)   XCENC  =       294.07750263
  PAW double counting   =      7560.76029470    -7706.54085642
  entropy T*S    EENTRO =         0.00000000
  eigenvalues    EBANDS =      -732.19261358
  atomic energy  EATOM  =      6689.45677594
  Solvation  Ediel_sol  =         0.00000000
  ---------------------------------------------------
  free energy    TOTEN  =       -24.71686153 eV

  energy without entropy =      -24.71686153  energy(sigma->0) =      -24.71686153


--------------------------------------------------------------------------------------------------------




--------------------------------------- Iteration      1(   2)  ---------------------------------------


    POTLOK:  cpu time    0.0048: real time    0.0048
    SETDIJ:  cpu time    0.4265: real time    0.4265
atom =   1  type =  1  l = 2
 
 onsite density matrix
 
spin component  1
 
  0.0613  0.0048  0.0479  0.0049 -0.0002
  0.0048  0.0531 -0.0022  0.0373  0.0020
  0.0479 -0.0022  0.0576 -0.0020 -0.0002
  0.0049  0.0373 -0.0020  0.0536 -0.0029
 -0.0002  0.0020 -0.0002 -0.0029 -0.0075
 
spin component  2
 
  0.9954 -0.0040 -0.0068 -0.0037  0.0001
 -0.0040  0.9640  0.0044  0.0170 -0.0068
 -0.0068  0.0044  0.9461  0.0044  0.0009
 -0.0037  0.0170  0.0044  0.9638  0.0081
  0.0001 -0.0068  0.0009  0.0081  0.9789
 
 occupancies and eigenvectors
 
  o = -0.0080  v =  0.0008 -0.0957  0.0028  0.1040  0.9900  0.0000  0.0000  0.0000  0.0000  0.0000      0.0000  0.0000  0.0000  0.0000  0.0000  0.0000  0.0000  0.0000  0.0000  0.0000
  o =  0.0109  v =  0.6926 -0.0727 -0.7159 -0.0500 -0.0004  0.0000  0.0000  0.0000  0.0000  0.0000      0.0000  0.0000  0.0000  0.0000  0.0000  0.0000  0.0000  0.0000  0.0000  0.0000
  o =  0.0165  v =  0.0127  0.7021 -0.0104 -0.6978  0.1412  0.0000  0.0000  0.0000  0.0000  0.0000      0.0000  0.0000  0.0000  0.0000  0.0000  0.0000  0.0000  0.0000  0.0000  0.0000
  o =  0.0907  v = -0.0653  0.6914 -0.1819  0.6961 -0.0057  0.0000  0.0000  0.0000  0.0000  0.0000      0.0000  0.0000  0.0000  0.0000  0.0000  0.0000  0.0000  0.0000  0.0000  0.0000
  o =  0.1078  v = -0.7182 -0.1207 -0.6740 -0.1236  0.0038  0.0000  0.0000  0.0000  0.0000  0.0000      0.0000  0.0000  0.0000  0.0000  0.0000  0.0000  0.0000  0.0000  0.0000  0.0000
  o =  0.9437  v =  0.0000  0.0000  0.0000  0.0000  0.0000 -0.0295  0.6728 -0.2648 -0.6303  0.2812      0.0000  0.0000  0.0000  0.0000  0.0000  0.0000  0.0000  0.0000  0.0000  0.0000
  o =  0.9444  v =  0.0000  0.0000  0.0000  0.0000  0.0000  0.1108  0.0815  0.9456 -0.2887  0.0598      0.0000  0.0000  0.0000  0.0000  0.0000  0.0000  0.0000  0.0000  0.0000  0.0000
  o =  0.9792  v =  0.0000  0.0000  0.0000  0.0000  0.0000  0.3390  0.6940  0.0892  0.5581 -0.2899      0.0000  0.0000  0.0000  0.0000  0.0000  0.0000  0.0000  0.0000  0.0000  0.0000
  o =  0.9823  v =  0.0000  0.0000  0.0000  0.0000  0.0000 -0.1250 -0.0037 -0.0452 -0.3863 -0.9128      0.0000  0.0000  0.0000  0.0000  0.0000  0.0000  0.0000  0.0000  0.0000  0.0000
  o =  0.9986  v =  0.0000  0.0000  0.0000  0.0000  0.0000 -0.9254  0.2431  0.1604  0.2422  0.0153      0.0000  0.0000  0.0000  0.0000  0.0000  0.0000  0.0000  0.0000  0.0000  0.0000
atom =   2  type =  1  l = 2
 
 onsite density matrix
 
spin component  1
 
  0.9939  0.0076 -0.0247  0.0080  0.0000
  0.0076  0.9695  0.0069  0.0042 -0.0085
 -0.0247  0.0069  0.9462  0.0065  0.0011
  0.0080  0.0042  0.0065  0.9689  0.0092
  0.0000 -0.0085  0.0011  0.0092  0.9781
 
spin component  2
 
  0.0637 -0.0057 -0.0365 -0.0060  0.0001
 -0.0057  0.0443 -0.0038 -0.0388  0.0036
 -0.0365 -0.0038  0.0594 -0.0037 -0.0005
 -0.0060 -0.0388 -0.0037  0.0451 -0.0041
  0.0001  0.0036 -0.0005 -0.0041 -0.0075
 
 occupancies and eigenvectors
 
  o = -0.0079  v =  0.0000  0.0000  0.0000  0.0000  0.0000  0.0109 -0.0168  0.0165  0.0671  0.9974      0.0000  0.0000  0.0000  0.0000  0.0000  0.0000  0.0000  0.0000  0.0000  0.0000
  o =  0.0020  v =  0.0000  0.0000  0.0000  0.0000  0.0000 -0.2775 -0.6580 -0.2607 -0.6485  0.0399      0.0000  0.0000  0.0000  0.0000  0.0000  0.0000  0.0000  0.0000  0.0000  0.0000
  o =  0.0289  v =  0.0000  0.0000  0.0000  0.0000  0.0000  0.6246 -0.2715  0.6821 -0.2663 -0.0048      0.0000  0.0000  0.0000  0.0000  0.0000  0.0000  0.0000  0.0000  0.0000  0.0000
  o =  0.0838  v =  0.0000  0.0000  0.0000  0.0000  0.0000 -0.0095  0.7021  0.0117 -0.7094  0.0594      0.0000  0.0000  0.0000  0.0000  0.0000  0.0000  0.0000  0.0000  0.0000  0.0000
  o =  0.0982  v =  0.0000  0.0000  0.0000  0.0000  0.0000 -0.7298  0.0084  0.6829  0.0289 -0.0051      0.0000  0.0000  0.0000  0.0000  0.0000  0.0000  0.0000  0.0000  0.0000  0.0000
  o =  0.9315  v = -0.3971  0.2191 -0.8666  0.2070  0.0204  0.0000  0.0000  0.0000  0.0000  0.0000      0.0000  0.0000  0.0000  0.0000  0.0000  0.0000  0.0000  0.0000  0.0000  0.0000
  o =  0.9574  v =  0.0186  0.5742 -0.0028 -0.6346  0.5169  0.0000  0.0000  0.0000  0.0000  0.0000      0.0000  0.0000  0.0000  0.0000  0.0000  0.0000  0.0000  0.0000  0.0000  0.0000
  o =  0.9761  v = -0.0767  0.7027  0.3577  0.6095 -0.0275  0.0000  0.0000  0.0000  0.0000  0.0000      0.0000  0.0000  0.0000  0.0000  0.0000  0.0000  0.0000  0.0000  0.0000  0.0000
  o =  0.9857  v =  0.0021 -0.3286  0.0315  0.3993  0.8553  0.0000  0.0000  0.0000  0.0000  0.0000      0.0000  0.0000  0.0000  0.0000  0.0000  0.0000  0.0000  0.0000  0.0000  0.0000
  o =  1.0058  v = -0.9144 -0.1432  0.3464 -0.1530  0.0059  0.0000  0.0000  0.0000  0.0000  0.0000      0.0000  0.0000  0.0000  0.0000  0.0000  0.0000  0.0000  0.0000  0.0000  0.0000
     EDDAV:  cpu time    1.7613: real time    1.7614
 BZINTS: Fermi energy:  4.259944; 54.000000 electrons
         Band energy:-716.272581;  BLOECHL correction:  0.000000
       DOS:  cpu time    0.0048: real time    0.0048
    CHARGE:  cpu time    0.0749: real time    0.0749
    MIXING:  cpu time    0.0005: real time    0.0005
    --------------------------------------------
      LOOP:  cpu time    2.2728: real time    2.2728

 eigenvalue-minimisations  :  6656
 total energy-change (2. order) :-0.1713386E+02  (-0.1836300E+02)
 number of electron      54.0000000 magnetization      -0.0003777
 augmentation part       19.8209294 magnetization      -0.0027155

 Broyden mixing:
  rms(total) = 0.21496E+01    rms(broyden)= 0.21496E+01
  rms(prec ) = 0.21888E+01
  weight for this iteration     100.00

 eigenvalues of (default mixing * dielectric matrix)
  average eigenvalue GAMMA=   0.3316
  0.3316

 Free energy of the ion-electron system (eV)
  ---------------------------------------------------
  alpha Z        PSCENC =       208.96474121
  Ewald energy   TEWEN  =     -4289.10428141
  -Hartree energ DENC   =     -2081.54918786
  -exchange      EXHF   =         0.00000000
  -V(xc)+E(xc)   XCENC  =       295.80228842
  PAW double counting   =      7321.92515726    -7471.07363620
  entropy T*S    EENTRO =         0.00000000
  eigenvalues    EBANDS =      -716.27258091
  atomic energy  EATOM  =      6689.45677594
  Solvation  Ediel_sol  =         0.00000000
  ---------------------------------------------------
  free energy    TOTEN  =       -41.85072355 eV

  energy without entropy =      -41.85072355  energy(sigma->0) =      -41.85072355


--------------------------------------------------------------------------------------------------------




--------------------------------------- Iteration      1(   3)  ---------------------------------------


    POTLOK:  cpu time    0.0046: real time    0.0046
    SETDIJ:  cpu time    0.4264: real time    0.4264
atom =   1  type =  1  l = 2
 
 onsite density matrix
 
spin component  1
 
  0.0860  0.0005  0.0302  0.0007  0.0000
  0.0005  0.0651  0.0011  0.0291 -0.0021
  0.0302  0.0011  0.0620  0.0012  0.0003
  0.0007  0.0291  0.0012  0.0651  0.0023
  0.0000 -0.0021  0.0003  0.0023  0.0331
 
spin component  2
 
  0.9621  0.0002  0.0149  0.0003 -0.0001
  0.0002  0.9494  0.0003  0.0231 -0.0014
  0.0149  0.0003  0.9389  0.0004  0.0002
  0.0003  0.0231  0.0004  0.9496  0.0015
 -0.0001 -0.0014  0.0002  0.0015  0.9333
 
 occupancies and eigenvectors
 
  o =  0.0311  v =  0.0088  0.3780 -0.0148 -0.3795  0.8443  0.0000  0.0000  0.0000  0.0000  0.0000      0.0000  0.0000  0.0000  0.0000  0.0000  0.0000  0.0000  0.0000  0.0000  0.0000
  o =  0.0379  v =  0.0156 -0.5979 -0.0277  0.5960  0.5350  0.0000  0.0000  0.0000  0.0000  0.0000      0.0000  0.0000  0.0000  0.0000  0.0000  0.0000  0.0000  0.0000  0.0000  0.0000
  o =  0.0416  v = -0.5608 -0.0236  0.8270  0.0012  0.0314  0.0000  0.0000  0.0000  0.0000  0.0000      0.0000  0.0000  0.0000  0.0000  0.0000  0.0000  0.0000  0.0000  0.0000  0.0000
  o =  0.0940  v =  0.1126 -0.7010  0.0574 -0.7019 -0.0018  0.0000  0.0000  0.0000  0.0000  0.0000      0.0000  0.0000  0.0000  0.0000  0.0000  0.0000  0.0000  0.0000  0.0000  0.0000
  o =  0.1067  v = -0.8200 -0.0874 -0.5584 -0.0899 -0.0025  0.0000  0.0000  0.0000  0.0000  0.0000      0.0000  0.0000  0.0000  0.0000  0.0000  0.0000  0.0000  0.0000  0.0000  0.0000
  o =  0.9259  v =  0.0000  0.0000  0.0000  0.0000  0.0000 -0.0052 -0.6823  0.0071  0.6812 -0.2652      0.0000  0.0000  0.0000  0.0000  0.0000  0.0000  0.0000  0.0000  0.0000  0.0000
  o =  0.9316  v =  0.0000  0.0000  0.0000  0.0000  0.0000 -0.4373  0.0190  0.8940 -0.0291 -0.0912      0.0000  0.0000  0.0000  0.0000  0.0000  0.0000  0.0000  0.0000  0.0000  0.0000
  o =  0.9338  v =  0.0000  0.0000  0.0000  0.0000  0.0000 -0.0423 -0.1881  0.0872  0.1840  0.9599      0.0000  0.0000  0.0000  0.0000  0.0000  0.0000  0.0000  0.0000  0.0000  0.0000
  o =  0.9693  v =  0.0000  0.0000  0.0000  0.0000  0.0000 -0.8845  0.1269 -0.4312  0.1253  0.0010      0.0000  0.0000  0.0000  0.0000  0.0000  0.0000  0.0000  0.0000  0.0000  0.0000
  o =  0.9727  v =  0.0000  0.0000  0.0000  0.0000  0.0000  0.1570  0.6947  0.0849  0.6968  0.0018      0.0000  0.0000  0.0000  0.0000  0.0000  0.0000  0.0000  0.0000  0.0000  0.0000
atom =   2  type =  1  l = 2
 
 onsite density matrix
 
spin component  1
 
  0.9622  0.0001 -0.0212  0.0003  0.0001
  0.0001  0.9478  0.0010 -0.0167 -0.0014
 -0.0212  0.0010  0.9396  0.0009  0.0002
  0.0003 -0.0167  0.0009  0.9480  0.0015
  0.0001 -0.0014  0.0002  0.0015  0.9327
 
spin component  2
 
  0.0861  0.0011 -0.0386  0.0011  0.0000
  0.0011  0.0641  0.0014 -0.0208 -0.0022
 -0.0386  0.0014  0.0626  0.0013  0.0003
  0.0011 -0.0208  0.0013  0.0641  0.0023
  0.0000 -0.0022  0.0003  0.0023  0.0330
 
 occupancies and eigenvectors
 
  o =  0.0328  v =  0.0000  0.0000  0.0000  0.0000  0.0000 -0.1781  0.0863 -0.2427  0.0033  0.9497      0.0000  0.0000  0.0000  0.0000  0.0000  0.0000  0.0000  0.0000  0.0000  0.0000
  o =  0.0335  v =  0.0000  0.0000  0.0000  0.0000  0.0000 -0.5502  0.1498 -0.7416  0.1753 -0.3069      0.0000  0.0000  0.0000  0.0000  0.0000  0.0000  0.0000  0.0000  0.0000  0.0000
  o =  0.0439  v =  0.0000  0.0000  0.0000  0.0000  0.0000  0.1404  0.6873  0.1924  0.6861  0.0107      0.0000  0.0000  0.0000  0.0000  0.0000  0.0000  0.0000  0.0000  0.0000  0.0000
  o =  0.0851  v =  0.0000  0.0000  0.0000  0.0000  0.0000  0.0022  0.7055 -0.0006 -0.7060 -0.0614      0.0000  0.0000  0.0000  0.0000  0.0000  0.0000  0.0000  0.0000  0.0000  0.0000
  o =  0.1147  v =  0.0000  0.0000  0.0000  0.0000  0.0000 -0.8037  0.0003  0.5951 -0.0028  0.0013      0.0000  0.0000  0.0000  0.0000  0.0000  0.0000  0.0000  0.0000  0.0000  0.0000
  o =  0.9266  v = -0.4947  0.1845 -0.8292  0.1809  0.0310  0.0000  0.0000  0.0000  0.0000  0.0000      0.0000  0.0000  0.0000  0.0000  0.0000  0.0000  0.0000  0.0000  0.0000  0.0000
  o =  0.9315  v = -0.1389 -0.6764 -0.2126 -0.6829  0.1079  0.0000  0.0000  0.0000  0.0000  0.0000      0.0000  0.0000  0.0000  0.0000  0.0000  0.0000  0.0000  0.0000  0.0000  0.0000
  o =  0.9326  v =  0.0310  0.1126  0.0488  0.0237  0.9917  0.0000  0.0000  0.0000  0.0000  0.0000      0.0000  0.0000  0.0000  0.0000  0.0000  0.0000  0.0000  0.0000  0.0000  0.0000
  o =  0.9648  v =  0.0125  0.7039 -0.0075 -0.7074 -0.0630  0.0000  0.0000  0.0000  0.0000  0.0000      0.0000  0.0000  0.0000  0.0000  0.0000  0.0000  0.0000  0.0000  0.0000  0.0000
  o =  0.9749  v = -0.8572  0.0174  0.5146 -0.0033 -0.0004  0.0000  0.0000  0.0000  0.0000  0.0000      0.0000  0.0000  0.0000  0.0000  0.0000  0.0000  0.0000  0.0000  0.0000  0.0000
     EDDAV:  cpu time    2.2091: real time    2.2091
 BZINTS: Fermi energy:  3.832370; 54.000000 electrons
         Band energy:-722.558319;  BLOECHL correction:  0.000000
       DOS:  cpu time    0.0040: real time    0.0040
    CHARGE:  cpu time    0.0739: real time    0.0739
    MIXING:  cpu time    0.0005: real time    0.0005
    --------------------------------------------
      LOOP:  cpu time    2.7185: real time    2.7185

 eigenvalue-minimisations  :  8352
 total energy-change (2. order) :-0.1369907E+00  (-0.3530563E+00)
 number of electron      54.0000000 magnetization       0.0002474
 augmentation part       19.8794940 magnetization       0.0022815

 Broyden mixing:
  rms(total) = 0.14865E+01    rms(broyden)= 0.14865E+01
  rms(prec ) = 0.15008E+01
  weight for this iteration     100.00

 eigenvalues of (default mixing * dielectric matrix)
  average eigenvalue GAMMA=   1.1500
  1.7850  0.5149

 Free energy of the ion-electron system (eV)
  ---------------------------------------------------
  alpha Z        PSCENC =       208.96474121
  Ewald energy   TEWEN  =     -4289.10428141
  -Hartree energ DENC   =     -2078.75341214
  -exchange      EXHF   =         0.00000000
  -V(xc)+E(xc)   XCENC  =       295.61239982
  PAW double counting   =      7048.74372260    -7194.34934107
  entropy T*S    EENTRO =         0.00000000
  eigenvalues    EBANDS =      -722.55831923
  atomic energy  EATOM  =      6689.45677594
  Solvation  Ediel_sol  =         0.00000000
  ---------------------------------------------------
  free energy    TOTEN  =       -41.98771427 eV

  energy without entropy =      -41.98771427  energy(sigma->0) =      -41.98771427


--------------------------------------------------------------------------------------------------------




--------------------------------------- Iteration      1(   4)  ---------------------------------------


    POTLOK:  cpu time    0.0046: real time    0.0046
    SETDIJ:  cpu time    0.4262: real time    0.4262
atom =   1  type =  1  l = 2
 
 onsite density matrix
 
spin component  1
 
  0.0791  0.0001  0.0419  0.0001 -0.0001
  0.0001  0.0656 -0.0007  0.0309  0.0004
  0.0419 -0.0007  0.0612 -0.0007 -0.0000
  0.0001  0.0309 -0.0007  0.0657 -0.0005
 -0.0001  0.0004 -0.0000 -0.0005  0.0222
 
spin component  2
 
  0.9541  0.0000  0.0107  0.0001  0.0001
  0.0000  0.9469  0.0011  0.0164 -0.0015
  0.0107  0.0011  0.9369  0.0012  0.0002
  0.0001  0.0164  0.0012  0.9468  0.0016
  0.0001 -0.0015  0.0002  0.0016  0.9378
 
 occupancies and eigenvectors
 
  o =  0.0222  v = -0.0069  0.0355  0.0066 -0.0366 -0.9987  0.0000  0.0000  0.0000  0.0000  0.0000      0.0000  0.0000  0.0000  0.0000  0.0000  0.0000  0.0000  0.0000  0.0000  0.0000
  o =  0.0273  v =  0.6288 -0.0094 -0.7774 -0.0093 -0.0095  0.0000  0.0000  0.0000  0.0000  0.0000      0.0000  0.0000  0.0000  0.0000  0.0000  0.0000  0.0000  0.0000  0.0000  0.0000
  o =  0.0347  v =  0.0003  0.7068 -0.0005 -0.7056  0.0510  0.0000  0.0000  0.0000  0.0000  0.0000      0.0000  0.0000  0.0000  0.0000  0.0000  0.0000  0.0000  0.0000  0.0000  0.0000
  o =  0.0965  v =  0.0335  0.7061  0.0100  0.7072 -0.0009  0.0000  0.0000  0.0000  0.0000  0.0000      0.0000  0.0000  0.0000  0.0000  0.0000  0.0000  0.0000  0.0000  0.0000  0.0000
  o =  0.1129  v = -0.7768  0.0228 -0.6289  0.0229  0.0012  0.0000  0.0000  0.0000  0.0000  0.0000      0.0000  0.0000  0.0000  0.0000  0.0000  0.0000  0.0000  0.0000  0.0000  0.0000
  o =  0.9298  v =  0.0000  0.0000  0.0000  0.0000  0.0000 -0.0060 -0.6817  0.0106  0.6829 -0.2623      0.0000  0.0000  0.0000  0.0000  0.0000  0.0000  0.0000  0.0000  0.0000  0.0000
  o =  0.9316  v =  0.0000  0.0000  0.0000  0.0000  0.0000  0.4305  0.0206 -0.9012  0.0436  0.0134      0.0000  0.0000  0.0000  0.0000  0.0000  0.0000  0.0000  0.0000  0.0000  0.0000
  o =  0.9384  v =  0.0000  0.0000  0.0000  0.0000  0.0000  0.0133  0.1893 -0.0125 -0.1814 -0.9648      0.0000  0.0000  0.0000  0.0000  0.0000  0.0000  0.0000  0.0000  0.0000  0.0000
  o =  0.9591  v =  0.0000  0.0000  0.0000  0.0000  0.0000 -0.8895  0.1361 -0.4155  0.1326 -0.0051      0.0000  0.0000  0.0000  0.0000  0.0000  0.0000  0.0000  0.0000  0.0000  0.0000
  o =  0.9635  v =  0.0000  0.0000  0.0000  0.0000  0.0000 -0.1524 -0.6932 -0.1223 -0.6938 -0.0061      0.0000  0.0000  0.0000  0.0000  0.0000  0.0000  0.0000  0.0000  0.0000  0.0000
atom =   2  type =  1  l = 2
 
 onsite density matrix
 
spin component  1
 
  0.9546  0.0015 -0.0166  0.0015 -0.0000
  0.0015  0.9478  0.0011 -0.0118 -0.0018
 -0.0166  0.0011  0.9375  0.0010  0.0002
  0.0015 -0.0118  0.0010  0.9476  0.0019
 -0.0000 -0.0018  0.0002  0.0019  0.9384
 
spin component  2
 
  0.0791 -0.0012 -0.0403 -0.0011  0.0001
 -0.0012  0.0644 -0.0004 -0.0312  0.0006
 -0.0403 -0.0004  0.0612 -0.0004 -0.0001
 -0.0011 -0.0312 -0.0004  0.0646 -0.0007
  0.0001  0.0006 -0.0001 -0.0007  0.0216
 
 occupancies and eigenvectors
 
  o =  0.0216  v =  0.0000  0.0000  0.0000  0.0000  0.0000 -0.0016 -0.0086 -0.0002  0.0090  0.9999      0.0000  0.0000  0.0000  0.0000  0.0000  0.0000  0.0000  0.0000  0.0000  0.0000
  o =  0.0285  v =  0.0000  0.0000  0.0000  0.0000  0.0000  0.6032  0.1988  0.7469  0.1969  0.0010      0.0000  0.0000  0.0000  0.0000  0.0000  0.0000  0.0000  0.0000  0.0000  0.0000
  o =  0.0338  v =  0.0000  0.0000  0.0000  0.0000  0.0000 -0.1665  0.6799 -0.2251  0.6777 -0.0006      0.0000  0.0000  0.0000  0.0000  0.0000  0.0000  0.0000  0.0000  0.0000  0.0000
  o =  0.0957  v =  0.0000  0.0000  0.0000  0.0000  0.0000  0.0010  0.7057 -0.0019 -0.7084  0.0125      0.0000  0.0000  0.0000  0.0000  0.0000  0.0000  0.0000  0.0000  0.0000  0.0000
  o =  0.1115  v =  0.0000  0.0000  0.0000  0.0000  0.0000 -0.7800  0.0095  0.6257  0.0067 -0.0011      0.0000  0.0000  0.0000  0.0000  0.0000  0.0000  0.0000  0.0000  0.0000  0.0000
  o =  0.9267  v = -0.5095  0.1818 -0.8218  0.1785  0.0110  0.0000  0.0000  0.0000  0.0000  0.0000      0.0000  0.0000  0.0000  0.0000  0.0000  0.0000  0.0000  0.0000  0.0000  0.0000
  o =  0.9365  v = -0.1021 -0.6745 -0.2349 -0.6898  0.0605  0.0000  0.0000  0.0000  0.0000  0.0000      0.0000  0.0000  0.0000  0.0000  0.0000  0.0000  0.0000  0.0000  0.0000  0.0000
  o =  0.9381  v =  0.0159  0.1244  0.0213 -0.0444  0.9909  0.0000  0.0000  0.0000  0.0000  0.0000      0.0000  0.0000  0.0000  0.0000  0.0000  0.0000  0.0000  0.0000  0.0000  0.0000
  o =  0.9598  v =  0.0032 -0.7041 -0.0041  0.6999  0.1198  0.0000  0.0000  0.0000  0.0000  0.0000      0.0000  0.0000  0.0000  0.0000  0.0000  0.0000  0.0000  0.0000  0.0000  0.0000
  o =  0.9648  v = -0.8542 -0.0281  0.5187 -0.0222  0.0052  0.0000  0.0000  0.0000  0.0000  0.0000      0.0000  0.0000  0.0000  0.0000  0.0000  0.0000  0.0000  0.0000  0.0000  0.0000
     EDDAV:  cpu time    2.5204: real time    2.5204
 BZINTS: Fermi energy:  3.367761; 54.000000 electrons
         Band energy:-729.865904;  BLOECHL correction:  0.000000
       DOS:  cpu time    0.0040: real time    0.0040
    CHARGE:  cpu time    0.0735: real time    0.0735
    MIXING:  cpu time    0.0006: real time    0.0006
    --------------------------------------------
      LOOP:  cpu time    3.0293: real time    3.0293

 eigenvalue-minimisations  :  9712
 total energy-change (2. order) : 0.1181257E-01  (-0.1170974E+00)
 number of electron      54.0000000 magnetization       0.0002053
 augmentation part       19.9642125 magnetization      -0.0004802

 Broyden mixing:
  rms(total) = 0.32301E+00    rms(broyden)= 0.32300E+00
  rms(prec ) = 0.40129E+00
  weight for this iteration     100.00

 eigenvalues of (default mixing * dielectric matrix)
  average eigenvalue GAMMA=   1.2722
  2.2949  0.7608  0.7608

 Free energy of the ion-electron system (eV)
  ---------------------------------------------------
  alpha Z        PSCENC =       208.96474121
  Ewald energy   TEWEN  =     -4289.10428141
  -Hartree energ DENC   =     -2077.45154526
  -exchange      EXHF   =         0.00000000
  -V(xc)+E(xc)   XCENC  =       295.69530326
  PAW double counting   =      6523.93713553    -6663.60812708
  entropy T*S    EENTRO =         0.00000000
  eigenvalues    EBANDS =      -729.86590390
  atomic energy  EATOM  =      6689.45677594
  Solvation  Ediel_sol  =         0.00000000
  ---------------------------------------------------
  free energy    TOTEN  =       -41.97590170 eV

  energy without entropy =      -41.97590170  energy(sigma->0) =      -41.97590170


--------------------------------------------------------------------------------------------------------




--------------------------------------- Iteration      1(   5)  ---------------------------------------


    POTLOK:  cpu time    0.0046: real time    0.0046
    SETDIJ:  cpu time    0.4680: real time    0.4681
atom =   1  type =  1  l = 2
 
 onsite density matrix
 
spin component  1
 
  0.0902 -0.0009  0.0361 -0.0009  0.0001
 -0.0009  0.0738  0.0012  0.0282 -0.0015
  0.0361  0.0012  0.0657  0.0012  0.0002
 -0.0009  0.0282  0.0012  0.0737  0.0018
  0.0001 -0.0015  0.0002  0.0018  0.0408
 
spin component  2
 
  0.9423  0.0009  0.0209  0.0009 -0.0001
  0.0009  0.9431 -0.0013  0.0181  0.0015
  0.0209 -0.0013  0.9360 -0.0013 -0.0002
  0.0009  0.0181 -0.0013  0.9432 -0.0018
 -0.0001  0.0015 -0.0002 -0.0018  0.9203
 
 occupancies and eigenvectors
 
  o =  0.0397  v = -0.5312 -0.1282  0.7428  0.0856 -0.3771  0.0000  0.0000  0.0000  0.0000  0.0000      0.0000  0.0000  0.0000  0.0000  0.0000  0.0000  0.0000  0.0000  0.0000  0.0000
  o =  0.0399  v = -0.2379  0.2329  0.3289 -0.2575  0.8454  0.0000  0.0000  0.0000  0.0000  0.0000      0.0000  0.0000  0.0000  0.0000  0.0000  0.0000  0.0000  0.0000  0.0000  0.0000
  o =  0.0466  v = -0.0027 -0.6551  0.0016  0.6540  0.3783  0.0000  0.0000  0.0000  0.0000  0.0000      0.0000  0.0000  0.0000  0.0000  0.0000  0.0000  0.0000  0.0000  0.0000  0.0000
  o =  0.1021  v =  0.0178 -0.7072 -0.0298 -0.7061 -0.0036  0.0000  0.0000  0.0000  0.0000  0.0000      0.0000  0.0000  0.0000  0.0000  0.0000  0.0000  0.0000  0.0000  0.0000  0.0000
  o =  0.1161  v = -0.8129  0.0023 -0.5823  0.0018 -0.0023  0.0000  0.0000  0.0000  0.0000  0.0000      0.0000  0.0000  0.0000  0.0000  0.0000  0.0000  0.0000  0.0000  0.0000  0.0000
  o =  0.9179  v =  0.0000  0.0000  0.0000  0.0000  0.0000  0.6502 -0.0296 -0.7569 -0.0422 -0.0395      0.0000  0.0000  0.0000  0.0000  0.0000  0.0000  0.0000  0.0000  0.0000  0.0000
  o =  0.9193  v =  0.0000  0.0000  0.0000  0.0000  0.0000 -0.0297  0.2701  0.0273 -0.2730 -0.9224      0.0000  0.0000  0.0000  0.0000  0.0000  0.0000  0.0000  0.0000  0.0000  0.0000
  o =  0.9260  v =  0.0000  0.0000  0.0000  0.0000  0.0000 -0.0059 -0.6553  0.0043  0.6504 -0.3841      0.0000  0.0000  0.0000  0.0000  0.0000  0.0000  0.0000  0.0000  0.0000  0.0000
  o =  0.9602  v =  0.0000  0.0000  0.0000  0.0000  0.0000 -0.7490 -0.1449 -0.6300 -0.1451  0.0060      0.0000  0.0000  0.0000  0.0000  0.0000  0.0000  0.0000  0.0000  0.0000  0.0000
  o =  0.9615  v =  0.0000  0.0000  0.0000  0.0000  0.0000  0.1234 -0.6898  0.1714 -0.6925  0.0041      0.0000  0.0000  0.0000  0.0000  0.0000  0.0000  0.0000  0.0000  0.0000  0.0000
atom =   2  type =  1  l = 2
 
 onsite density matrix
 
spin component  1
 
  0.9425 -0.0023 -0.0135 -0.0023  0.0000
 -0.0023  0.9412 -0.0016 -0.0219  0.0020
 -0.0135 -0.0016  0.9361 -0.0015 -0.0003
 -0.0023 -0.0219 -0.0015  0.9414 -0.0022
  0.0000  0.0020 -0.0003 -0.0022  0.9200
 
spin component  2
 
  0.0897  0.0022 -0.0432  0.0022 -0.0000
  0.0022  0.0756  0.0016 -0.0244 -0.0021
 -0.0432  0.0016  0.0649  0.0015  0.0002
  0.0022 -0.0244  0.0015  0.0753  0.0022
 -0.0000 -0.0021  0.0002  0.0022  0.0410
 
 occupancies and eigenvectors
 
  o =  0.0317  v =  0.0000  0.0000  0.0000  0.0000  0.0000 -0.5930  0.1311 -0.7836  0.1298  0.0168      0.0000  0.0000  0.0000  0.0000  0.0000  0.0000  0.0000  0.0000  0.0000  0.0000
  o =  0.0409  v =  0.0000  0.0000  0.0000  0.0000  0.0000  0.0104  0.0249  0.0097 -0.0481  0.9984      0.0000  0.0000  0.0000  0.0000  0.0000  0.0000  0.0000  0.0000  0.0000  0.0000
  o =  0.0518  v =  0.0000  0.0000  0.0000  0.0000  0.0000 -0.0977 -0.6935 -0.1576 -0.6960 -0.0137      0.0000  0.0000  0.0000  0.0000  0.0000  0.0000  0.0000  0.0000  0.0000  0.0000
  o =  0.1000  v =  0.0000  0.0000  0.0000  0.0000  0.0000  0.0016  0.7079 -0.0005 -0.7044 -0.0516      0.0000  0.0000  0.0000  0.0000  0.0000  0.0000  0.0000  0.0000  0.0000  0.0000
  o =  0.1223  v =  0.0000  0.0000  0.0000  0.0000  0.0000 -0.7992 -0.0108  0.6009 -0.0132  0.0021      0.0000  0.0000  0.0000  0.0000  0.0000  0.0000  0.0000  0.0000  0.0000  0.0000
  o =  0.9176  v = -0.2882 -0.6367 -0.3150 -0.6386 -0.0679  0.0000  0.0000  0.0000  0.0000  0.0000      0.0000  0.0000  0.0000  0.0000  0.0000  0.0000  0.0000  0.0000  0.0000  0.0000
  o =  0.9198  v = -0.0156 -0.0958 -0.0066  0.0001  0.9953  0.0000  0.0000  0.0000  0.0000  0.0000      0.0000  0.0000  0.0000  0.0000  0.0000  0.0000  0.0000  0.0000  0.0000  0.0000
  o =  0.9272  v =  0.5467 -0.3004  0.7210 -0.3013 -0.0156  0.0000  0.0000  0.0000  0.0000  0.0000      0.0000  0.0000  0.0000  0.0000  0.0000  0.0000  0.0000  0.0000  0.0000  0.0000
  o =  0.9532  v = -0.7860  0.0313  0.6171  0.0197 -0.0052  0.0000  0.0000  0.0000  0.0000  0.0000      0.0000  0.0000  0.0000  0.0000  0.0000  0.0000  0.0000  0.0000  0.0000  0.0000
  o =  0.9634  v =  0.0055  0.7031 -0.0056 -0.7078  0.0678  0.0000  0.0000  0.0000  0.0000  0.0000      0.0000  0.0000  0.0000  0.0000  0.0000  0.0000  0.0000  0.0000  0.0000  0.0000
     EDDAV:  cpu time    2.3914: real time    2.3915
 BZINTS: Fermi energy:  3.443016; 54.000000 electrons
         Band energy:-730.300562;  BLOECHL correction:  0.000000
       DOS:  cpu time    0.0041: real time    0.0041
    CHARGE:  cpu time    0.0737: real time    0.0737
    MIXING:  cpu time    0.0006: real time    0.0006
    --------------------------------------------
      LOOP:  cpu time    2.9425: real time    2.9425

 eigenvalue-minimisations  :  9168
 total energy-change (2. order) : 0.3810182E-01  (-0.1753813E-01)
 number of electron      54.0000000 magnetization       0.0000597
 augmentation part       19.9655302 magnetization       0.0000739

 Broyden mixing:
  rms(total) = 0.12135E+00    rms(broyden)= 0.12134E+00
  rms(prec ) = 0.14131E+00
  weight for this iteration     100.00

 eigenvalues of (default mixing * dielectric matrix)
  average eigenvalue GAMMA=   1.1521
  2.4162  0.7859  0.7859  0.6203

 Free energy of the ion-electron system (eV)
  ---------------------------------------------------
  alpha Z        PSCENC =       208.96474121
  Ewald energy   TEWEN  =     -4289.10428141
  -Hartree energ DENC   =     -2078.64894049
  -exchange      EXHF   =         0.00000000
  -V(xc)+E(xc)   XCENC  =       295.65473971
  PAW double counting   =      6347.18382209    -6485.14409488
  entropy T*S    EENTRO =         0.00000000
  eigenvalues    EBANDS =      -730.30056204
  atomic energy  EATOM  =      6689.45677594
  Solvation  Ediel_sol  =         0.00000000
  ---------------------------------------------------
  free energy    TOTEN  =       -41.93779987 eV

  energy without entropy =      -41.93779987  energy(sigma->0) =      -41.93779987


--------------------------------------------------------------------------------------------------------




--------------------------------------- Iteration      1(   6)  ---------------------------------------


    POTLOK:  cpu time    0.0046: real time    0.0046
    SETDIJ:  cpu time    0.4260: real time    0.4260
atom =   1  type =  1  l = 2
 
 onsite density matrix
 
spin component  1
 
  0.0774  0.0000  0.0401  0.0000 -0.0000
  0.0000  0.0658 -0.0003  0.0284  0.0003
  0.0401 -0.0003  0.0610 -0.0003 -0.0000
  0.0000  0.0284 -0.0003  0.0659 -0.0003
 -0.0000  0.0003 -0.0000 -0.0003  0.0258
 
spin component  2
 
  0.9559 -0.0000  0.0170 -0.0000  0.0000
 -0.0000  0.9517  0.0002  0.0181 -0.0003
  0.0170  0.0002  0.9411  0.0002  0.0000
 -0.0000  0.0181  0.0002  0.9517  0.0003
  0.0000 -0.0003  0.0000  0.0003  0.9359
 
 occupancies and eigenvectors
 
  o =  0.0258  v = -0.0008 -0.0260  0.0018  0.0265  0.9993  0.0000  0.0000  0.0000  0.0000  0.0000      0.0000  0.0000  0.0000  0.0000  0.0000  0.0000  0.0000  0.0000  0.0000  0.0000
  o =  0.0282  v =  0.6322 -0.0039 -0.7748 -0.0031  0.0019  0.0000  0.0000  0.0000  0.0000  0.0000      0.0000  0.0000  0.0000  0.0000  0.0000  0.0000  0.0000  0.0000  0.0000  0.0000
  o =  0.0374  v = -0.0002 -0.7068  0.0004  0.7064 -0.0371  0.0000  0.0000  0.0000  0.0000  0.0000      0.0000  0.0000  0.0000  0.0000  0.0000  0.0000  0.0000  0.0000  0.0000  0.0000
  o =  0.0943  v =  0.0149  0.7069  0.0058  0.7072 -0.0004  0.0000  0.0000  0.0000  0.0000  0.0000      0.0000  0.0000  0.0000  0.0000  0.0000  0.0000  0.0000  0.0000  0.0000  0.0000
  o =  0.1101  v = -0.7746  0.0107 -0.6322  0.0109  0.0005  0.0000  0.0000  0.0000  0.0000  0.0000      0.0000  0.0000  0.0000  0.0000  0.0000  0.0000  0.0000  0.0000  0.0000  0.0000
  o =  0.9300  v =  0.0000  0.0000  0.0000  0.0000  0.0000 -0.5472 -0.0046  0.8370 -0.0056 -0.0032      0.0000  0.0000  0.0000  0.0000  0.0000  0.0000  0.0000  0.0000  0.0000  0.0000
  o =  0.9335  v =  0.0000  0.0000  0.0000  0.0000  0.0000  0.0001  0.6962 -0.0000 -0.6967  0.1732      0.0000  0.0000  0.0000  0.0000  0.0000  0.0000  0.0000  0.0000  0.0000  0.0000
  o =  0.9359  v =  0.0000  0.0000  0.0000  0.0000  0.0000  0.0025  0.1230 -0.0023 -0.1218 -0.9849      0.0000  0.0000  0.0000  0.0000  0.0000  0.0000  0.0000  0.0000  0.0000  0.0000
  o =  0.9670  v =  0.0000  0.0000  0.0000  0.0000  0.0000 -0.8362  0.0355 -0.5462  0.0352 -0.0007      0.0000  0.0000  0.0000  0.0000  0.0000  0.0000  0.0000  0.0000  0.0000  0.0000
  o =  0.9698  v =  0.0000  0.0000  0.0000  0.0000  0.0000  0.0379  0.7064  0.0334  0.7060  0.0009      0.0000  0.0000  0.0000  0.0000  0.0000  0.0000  0.0000  0.0000  0.0000  0.0000
atom =   2  type =  1  l = 2
 
 onsite density matrix
 
spin component  1
 
  0.9559  0.0004 -0.0183  0.0004 -0.0000
  0.0004  0.9518  0.0002 -0.0174 -0.0004
 -0.0183  0.0002  0.9407  0.0002  0.0000
  0.0004 -0.0174  0.0002  0.9517  0.0004
 -0.0000 -0.0004  0.0000  0.0004  0.9359
 
spin component  2
 
  0.0772 -0.0004 -0.0385 -0.0004  0.0000
 -0.0004  0.0657 -0.0002 -0.0291  0.0003
 -0.0385 -0.0002  0.0611 -0.0002 -0.0000
 -0.0004 -0.0291 -0.0002  0.0658 -0.0004
  0.0000  0.0003 -0.0000 -0.0004  0.0257
 
 occupancies and eigenvectors
 
  o =  0.0257  v =  0.0000  0.0000  0.0000  0.0000  0.0000  0.0028 -0.0043  0.0043  0.0059  1.0000      0.0000  0.0000  0.0000  0.0000  0.0000  0.0000  0.0000  0.0000  0.0000  0.0000
  o =  0.0298  v =  0.0000  0.0000  0.0000  0.0000  0.0000 -0.6281 -0.0645 -0.7728 -0.0640  0.0052      0.0000  0.0000  0.0000  0.0000  0.0000  0.0000  0.0000  0.0000  0.0000  0.0000
  o =  0.0367  v =  0.0000  0.0000  0.0000  0.0000  0.0000  0.0543 -0.7046  0.0729 -0.7038  0.0007      0.0000  0.0000  0.0000  0.0000  0.0000  0.0000  0.0000  0.0000  0.0000  0.0000
  o =  0.0949  v =  0.0000  0.0000  0.0000  0.0000  0.0000  0.0003 -0.7067  0.0001  0.7075 -0.0072      0.0000  0.0000  0.0000  0.0000  0.0000  0.0000  0.0000  0.0000  0.0000  0.0000
  o =  0.1085  v =  0.0000  0.0000  0.0000  0.0000  0.0000 -0.7762  0.0026  0.6305  0.0029 -0.0005      0.0000  0.0000  0.0000  0.0000  0.0000  0.0000  0.0000  0.0000  0.0000  0.0000
  o =  0.9284  v = -0.5529  0.0692 -0.8275  0.0688  0.0033  0.0000  0.0000  0.0000  0.0000  0.0000      0.0000  0.0000  0.0000  0.0000  0.0000  0.0000  0.0000  0.0000  0.0000  0.0000
  o =  0.9344  v = -0.0479 -0.7030 -0.0853 -0.7043  0.0117  0.0000  0.0000  0.0000  0.0000  0.0000      0.0000  0.0000  0.0000  0.0000  0.0000  0.0000  0.0000  0.0000  0.0000  0.0000
  o =  0.9359  v =  0.0031  0.0202  0.0033 -0.0042  0.9998  0.0000  0.0000  0.0000  0.0000  0.0000      0.0000  0.0000  0.0000  0.0000  0.0000  0.0000  0.0000  0.0000  0.0000  0.0000
  o =  0.9682  v = -0.8318 -0.0009  0.5549 -0.0097  0.0007  0.0000  0.0000  0.0000  0.0000  0.0000      0.0000  0.0000  0.0000  0.0000  0.0000  0.0000  0.0000  0.0000  0.0000  0.0000
  o =  0.9692  v = -0.0053 -0.7075  0.0032  0.7065  0.0173  0.0000  0.0000  0.0000  0.0000  0.0000      0.0000  0.0000  0.0000  0.0000  0.0000  0.0000  0.0000  0.0000  0.0000  0.0000
     EDDAV:  cpu time    2.4771: real time    2.4772
 BZINTS: Fermi energy:  3.527417; 54.000000 electrons
         Band energy:-728.368937;  BLOECHL correction:  0.000000
       DOS:  cpu time    0.0040: real time    0.0040
    CHARGE:  cpu time    0.0747: real time    0.0747
    MIXING:  cpu time    0.0007: real time    0.0007
    --------------------------------------------
      LOOP:  cpu time    2.9871: real time    2.9871

 eigenvalue-minimisations  :  9552
 total energy-change (2. order) : 0.3414192E-02  (-0.2493352E-02)
 number of electron      54.0000000 magnetization       0.0000200
 augmentation part       19.9492940 magnetization       0.0003538

 Broyden mixing:
  rms(total) = 0.28777E-01    rms(broyden)= 0.28774E-01
  rms(prec ) = 0.35558E-01
  weight for this iteration     100.00

 eigenvalues of (default mixing * dielectric matrix)
  average eigenvalue GAMMA=   1.1102
  2.4281  0.8545  0.8545  0.7821  0.6316

 Free energy of the ion-electron system (eV)
  ---------------------------------------------------
  alpha Z        PSCENC =       208.96474121
  Ewald energy   TEWEN  =     -4289.10428141
  -Hartree energ DENC   =     -2080.44318372
  -exchange      EXHF   =         0.00000000
  -V(xc)+E(xc)   XCENC  =       295.75584838
  PAW double counting   =      6351.24223325    -6489.43758252
  entropy T*S    EENTRO =         0.00000000
  eigenvalues    EBANDS =      -728.36893682
  atomic energy  EATOM  =      6689.45677594
  Solvation  Ediel_sol  =         0.00000000
  ---------------------------------------------------
  free energy    TOTEN  =       -41.93438568 eV

  energy without entropy =      -41.93438568  energy(sigma->0) =      -41.93438568


--------------------------------------------------------------------------------------------------------




--------------------------------------- Iteration      1(   7)  ---------------------------------------


    POTLOK:  cpu time    0.0045: real time    0.0045
    SETDIJ:  cpu time    0.4318: real time    0.4318
atom =   1  type =  1  l = 2
 
 onsite density matrix
 
spin component  1
 
  0.0803 -0.0000  0.0394 -0.0000 -0.0000
 -0.0000  0.0680  0.0000  0.0286 -0.0001
  0.0394  0.0000  0.0625  0.0000  0.0000
 -0.0000  0.0286  0.0000  0.0680  0.0001
 -0.0000 -0.0001  0.0000  0.0001  0.0289
 
spin component  2
 
  0.9530  0.0000  0.0176  0.0000 -0.0000
  0.0000  0.9496 -0.0001  0.0180  0.0001
  0.0176 -0.0001  0.9394 -0.0001 -0.0000
  0.0000  0.0180 -0.0001  0.9496 -0.0001
 -0.0000  0.0001 -0.0000 -0.0001  0.9328
 
 occupancies and eigenvectors
 
  o =  0.0289  v =  0.0023  0.0063 -0.0030 -0.0065  1.0000  0.0000  0.0000  0.0000  0.0000  0.0000      0.0000  0.0000  0.0000  0.0000  0.0000  0.0000  0.0000  0.0000  0.0000  0.0000
  o =  0.0310  v = -0.6244 -0.0006  0.7811 -0.0009  0.0038  0.0000  0.0000  0.0000  0.0000  0.0000      0.0000  0.0000  0.0000  0.0000  0.0000  0.0000  0.0000  0.0000  0.0000  0.0000
  o =  0.0394  v = -0.0001 -0.7071  0.0002  0.7071  0.0091  0.0000  0.0000  0.0000  0.0000  0.0000      0.0000  0.0000  0.0000  0.0000  0.0000  0.0000  0.0000  0.0000  0.0000  0.0000
  o =  0.0965  v =  0.0001 -0.7071 -0.0013 -0.7071 -0.0002  0.0000  0.0000  0.0000  0.0000  0.0000      0.0000  0.0000  0.0000  0.0000  0.0000  0.0000  0.0000  0.0000  0.0000  0.0000
  o =  0.1119  v = -0.7811  0.0005 -0.6244  0.0005 -0.0000  0.0000  0.0000  0.0000  0.0000  0.0000      0.0000  0.0000  0.0000  0.0000  0.0000  0.0000  0.0000  0.0000  0.0000  0.0000
  o =  0.9274  v =  0.0000  0.0000  0.0000  0.0000  0.0000  0.5656 -0.0027 -0.8247 -0.0016 -0.0001      0.0000  0.0000  0.0000  0.0000  0.0000  0.0000  0.0000  0.0000  0.0000  0.0000
  o =  0.9316  v =  0.0000  0.0000  0.0000  0.0000  0.0000 -0.0003 -0.7039  0.0007  0.7038  0.0961      0.0000  0.0000  0.0000  0.0000  0.0000  0.0000  0.0000  0.0000  0.0000  0.0000
  o =  0.9328  v =  0.0000  0.0000  0.0000  0.0000  0.0000  0.0005  0.0681  0.0001 -0.0678  0.9954      0.0000  0.0000  0.0000  0.0000  0.0000  0.0000  0.0000  0.0000  0.0000  0.0000
  o =  0.9651  v =  0.0000  0.0000  0.0000  0.0000  0.0000 -0.8246 -0.0085 -0.5655 -0.0084  0.0004      0.0000  0.0000  0.0000  0.0000  0.0000  0.0000  0.0000  0.0000  0.0000  0.0000
  o =  0.9676  v =  0.0000  0.0000  0.0000  0.0000  0.0000  0.0082 -0.7070  0.0092 -0.7071  0.0002      0.0000  0.0000  0.0000  0.0000  0.0000  0.0000  0.0000  0.0000  0.0000  0.0000
atom =   2  type =  1  l = 2
 
 onsite density matrix
 
spin component  1
 
  0.9530 -0.0001 -0.0172 -0.0001  0.0000
 -0.0001  0.9495 -0.0001 -0.0182  0.0001
 -0.0172 -0.0001  0.9394 -0.0001 -0.0000
 -0.0001 -0.0182 -0.0001  0.9495 -0.0001
  0.0000  0.0001 -0.0000 -0.0001  0.9328
 
spin component  2
 
  0.0803  0.0001 -0.0397  0.0001  0.0000
  0.0001  0.0681  0.0001 -0.0284 -0.0001
 -0.0397  0.0001  0.0624  0.0001  0.0000
  0.0001 -0.0284  0.0001  0.0681  0.0001
  0.0000 -0.0001  0.0000  0.0001  0.0289
 
 occupancies and eigenvectors
 
  o =  0.0289  v =  0.0000  0.0000  0.0000  0.0000  0.0000 -0.0031  0.0013 -0.0040 -0.0021  1.0000      0.0000  0.0000  0.0000  0.0000  0.0000  0.0000  0.0000  0.0000  0.0000  0.0000
  o =  0.0306  v =  0.0000  0.0000  0.0000  0.0000  0.0000  0.6248 -0.0122  0.7806 -0.0122  0.0050      0.0000  0.0000  0.0000  0.0000  0.0000  0.0000  0.0000  0.0000  0.0000  0.0000
  o =  0.0397  v =  0.0000  0.0000  0.0000  0.0000  0.0000 -0.0105 -0.7070 -0.0137 -0.7070 -0.0006      0.0000  0.0000  0.0000  0.0000  0.0000  0.0000  0.0000  0.0000  0.0000  0.0000
  o =  0.0964  v =  0.0000  0.0000  0.0000  0.0000  0.0000  0.0000 -0.7071 -0.0000  0.7071  0.0024      0.0000  0.0000  0.0000  0.0000  0.0000  0.0000  0.0000  0.0000  0.0000  0.0000
  o =  0.1121  v =  0.0000  0.0000  0.0000  0.0000  0.0000  0.7807  0.0003 -0.6249  0.0002 -0.0000      0.0000  0.0000  0.0000  0.0000  0.0000  0.0000  0.0000  0.0000  0.0000  0.0000
  o =  0.9277  v =  0.5614  0.0341  0.8261  0.0340  0.0016  0.0000  0.0000  0.0000  0.0000  0.0000      0.0000  0.0000  0.0000  0.0000  0.0000  0.0000  0.0000  0.0000  0.0000  0.0000
[...]
     17      -2.7297      1.00000
     18      -2.6480      1.00000
     19      -2.3507      1.00000
     20      -1.8678      1.00000
     21      -1.8171      1.00000
     22      -1.6906      1.00000
     23       1.9484      1.00000
     24       1.9593      1.00000
     25       2.1761      1.00000
     26       3.0051      1.00000
     27       3.3809      1.00000
     28       5.6214      0.00000
     29       5.6871      0.00000
     30       5.7855      0.00000
     31       6.6666      0.00000
     32       6.9256      0.00000

 k-point    46 :       0.3750   -0.1250    0.4167
  band No.  band energies     occupation 
      1     -45.6544      1.00000
      2     -45.6155      1.00000
      3     -45.5948      1.00000
      4     -41.2191      1.00000
      5     -41.2108      1.00000
      6     -41.1758      1.00000
      7     -20.5416      1.00000
      8     -20.4144      1.00000
      9     -20.3761      1.00000
     10     -20.3535      1.00000
     11      -4.1418      1.00000
     12      -4.0295      1.00000
     13      -3.6950      1.00000
     14      -3.6177      1.00000
     15      -3.2475      1.00000
     16      -3.0324      1.00000
     17      -2.8628      1.00000
     18      -2.6979      1.00000
     19      -2.0189      1.00000
     20      -1.8701      1.00000
     21      -1.6583      1.00000
     22      -1.5317      1.00000
     23       1.8788      1.00000
     24       1.9756      1.00000
     25       2.0981      1.00000
     26       2.9421      1.00000
     27       3.4921      1.00000
     28       5.5986      0.00000
     29       5.6760      0.00000
     30       5.8232      0.00000
     31       6.6693      0.00000
     32       7.1035      0.00000

 k-point    47 :      -0.3750   -0.1250    0.4167
  band No.  band energies     occupation 
      1     -45.6544      1.00000
      2     -45.6155      1.00000
      3     -45.5948      1.00000
      4     -41.2192      1.00000
      5     -41.2108      1.00000
      6     -41.1758      1.00000
      7     -20.5189      1.00000
      8     -20.4494      1.00000
      9     -20.3950      1.00000
     10     -20.3222      1.00000
     11      -4.2107      1.00000
     12      -3.9287      1.00000
     13      -3.8124      1.00000
     14      -3.6228      1.00000
     15      -3.2316      1.00000
     16      -2.9642      1.00000
     17      -2.8301      1.00000
     18      -2.6968      1.00000
     19      -2.0319      1.00000
     20      -1.8492      1.00000
     21      -1.6563      1.00000
     22      -1.5386      1.00000
     23       1.9039      1.00000
     24       1.9823      1.00000
     25       2.1031      1.00000
     26       2.8848      1.00000
     27       3.4198      1.00000
     28       5.6078      0.00000
     29       5.6528      0.00000
     30       5.8167      0.00000
     31       6.6738      0.00000
     32       7.2252      0.00000

 k-point    48 :      -0.1250   -0.1250    0.4167
  band No.  band energies     occupation 
      1     -45.6544      1.00000
      2     -45.6156      1.00000
      3     -45.5948      1.00000
      4     -41.2191      1.00000
      5     -41.2108      1.00000
      6     -41.1757      1.00000
      7     -20.5942      1.00000
      8     -20.4231      1.00000
      9     -20.3786      1.00000
     10     -20.2906      1.00000
     11      -4.1406      1.00000
     12      -3.8469      1.00000
     13      -3.6898      1.00000
     14      -3.4889      1.00000
     15      -3.3129      1.00000
     16      -3.0856      1.00000
     17      -2.6934      1.00000
     18      -2.5583      1.00000
     19      -2.3528      1.00000
     20      -1.8491      1.00000
     21      -1.7881      1.00000
     22      -1.7249      1.00000
     23       1.9656      1.00000
     24       1.9723      1.00000
     25       2.1824      1.00000
     26       2.9435      1.00000
     27       3.3058      1.00000
     28       5.6302      0.00000
     29       5.6625      0.00000
     30       5.7807      0.00000
     31       6.6859      0.00000
     32       7.0361      0.00000


--------------------------------------------------------------------------------------------------------


 soft charge-density along one line, spin component           1
         0         1         2         3         4         5         6         7         8         9
 total charge-density along one line
 
 soft charge-density along one line, spin component           2
         0         1         2         3         4         5         6         7         8         9
 total charge-density along one line
 
 pseudopotential strength for first ion, spin component:           1
-41.789  -0.000  -0.032   7.853   0.000   0.013   0.000   0.000
 -0.000 -41.767  -0.000   0.000   7.844   0.000  -0.000  -0.000
 -0.032  -0.000 -41.789   0.013   0.000   7.853  -0.000  -0.000
  7.853   0.000   0.013   5.356  -0.000  -0.005  -0.000  -0.000
  0.000   7.844   0.000  -0.000   5.360  -0.000  -0.000  -0.000
  0.013   0.000   7.853  -0.005  -0.000   5.356  -0.000  -0.000
  0.000  -0.000  -0.000  -0.000  -0.000  -0.000  -2.861  -0.000
  0.000  -0.000  -0.000  -0.000  -0.000  -0.000  -0.000  -2.848
  0.000   0.000  -0.000   0.000  -0.000  -0.000   0.026  -0.000
 -0.000   0.000  -0.000  -0.000   0.000  -0.000  -0.000  -0.007
  0.000  -0.000  -0.000   0.000  -0.000   0.000   0.000   0.000
  0.000  -0.000  -0.000  -0.000  -0.000  -0.000  -3.351  -0.000
  0.000  -0.000  -0.000  -0.000  -0.000  -0.000  -0.000  -3.339
  0.000   0.000  -0.000   0.000  -0.000  -0.000   0.026  -0.000
 -0.000   0.000  -0.000  -0.000   0.000  -0.000  -0.000  -0.007
  0.000  -0.000  -0.000   0.000  -0.000   0.000   0.000   0.000
 -0.000  -0.000   0.000  -0.000  -0.000   0.000   0.006   0.000
 -0.000  -0.000   0.000  -0.000  -0.000   0.000   0.012   0.000
 pseudopotential strength for first ion, spin component:           2
-44.758  -0.000  -0.026   9.291   0.000   0.009   0.000   0.000
 -0.000 -44.734  -0.000   0.000   9.282   0.000   0.000  -0.000
 -0.026  -0.000 -44.758   0.009   0.000   9.291  -0.000   0.000
  9.291   0.000   0.009   4.878  -0.000  -0.003   0.000   0.000
  0.000   9.282   0.000  -0.000   4.881  -0.000  -0.000  -0.000
  0.009   0.000   9.291  -0.003  -0.000   4.878  -0.000  -0.000
  0.000   0.000  -0.000   0.000  -0.000  -0.000  -5.543  -0.000
  0.000  -0.000   0.000   0.000  -0.000  -0.000  -0.000  -5.535
  0.000   0.000  -0.000   0.000  -0.000  -0.000   0.028  -0.000
  0.000   0.000  -0.000  -0.000   0.000  -0.000  -0.000  -0.005
  0.000  -0.000  -0.000   0.000  -0.000  -0.000  -0.000   0.000
  0.000   0.000  -0.000   0.000  -0.000  -0.000  -5.991  -0.000
  0.000  -0.000   0.000   0.000  -0.000  -0.000  -0.000  -5.982
  0.000   0.000  -0.000   0.000  -0.000  -0.000   0.028  -0.000
  0.000   0.000  -0.000  -0.000   0.000  -0.000  -0.000  -0.005
  0.000  -0.000  -0.000   0.000  -0.000  -0.000  -0.000   0.000
 -0.000  -0.000   0.000  -0.000  -0.000   0.000   0.004   0.000
 -0.000  -0.000   0.000  -0.000  -0.000   0.000   0.007   0.000
 total augmentation occupancy for first ion, spin component:           1
  1.998   0.000  -0.000  -0.014   0.000   0.000  -0.000  -0.000   0.000  -0.000   0.000   0.000   0.000  -0.000   0.000  -0.000
  0.000   1.998   0.000   0.000  -0.014   0.000  -0.000  -0.000  -0.000   0.000   0.000   0.000   0.000   0.000  -0.000  -0.000
 -0.000   0.000   1.998   0.000   0.000  -0.014  -0.000  -0.000   0.000  -0.000   0.000   0.000   0.000  -0.000   0.000  -0.000
 -0.014   0.000   0.000   0.101   0.000  -0.013  -0.000  -0.000  -0.000  -0.000  -0.000   0.000  -0.000   0.000   0.000   0.000
  0.000  -0.014   0.000   0.000   0.108   0.000  -0.000   0.000  -0.000  -0.000   0.000   0.000  -0.000   0.000   0.000   0.000
  0.000   0.000  -0.014  -0.013   0.000   0.101   0.000   0.000   0.000   0.000   0.000  -0.000  -0.000   0.000   0.000  -0.000
 -0.000  -0.000  -0.000  -0.000  -0.000   0.000   8.303   0.000   3.346   0.000   0.000  -6.482  -0.000  -3.206  -0.000  -0.000
 -0.000  -0.000  -0.000  -0.000   0.000   0.000   0.000   6.719   0.000   2.797  -0.000  -0.000  -4.944  -0.000  -2.646   0.000
  0.000  -0.000   0.000  -0.000  -0.000   0.000   3.346   0.000   6.012   0.000   0.000  -3.208  -0.000  -4.318  -0.000  -0.000
 -0.000   0.000  -0.000  -0.000  -0.000   0.000   0.000   2.797   0.000   6.719   0.000  -0.000  -2.646  -0.000  -4.944  -0.000
  0.000   0.000   0.000  -0.000   0.000   0.000   0.000  -0.000   0.000   0.000   3.857  -0.000   0.000  -0.000  -0.000  -2.200
  0.000   0.000   0.000   0.000   0.000  -0.000  -6.482  -0.000  -3.208  -0.000  -0.000   5.833   0.000   3.115   0.000   0.000
  0.000   0.000   0.000  -0.000  -0.000  -0.000  -0.000  -4.944  -0.000  -2.646   0.000   0.000   4.332   0.000   2.536  -0.000
 -0.000   0.000  -0.000   0.000   0.000   0.000  -3.206  -0.000  -4.318  -0.000  -0.000   3.115   0.000   3.769   0.000   0.000
  0.000  -0.000   0.000   0.000   0.000   0.000  -0.000  -2.646  -0.000  -4.944  -0.000   0.000   2.536   0.000   4.332   0.000
 -0.000  -0.000  -0.000   0.000   0.000  -0.000  -0.000   0.000  -0.000  -0.000  -2.200   0.000  -0.000   0.000   0.000   1.658
 -0.000  -0.000   0.000  -0.000  -0.000   0.000   0.336  -0.000  -0.152  -0.000   0.000  -0.377   0.000   0.168   0.000  -0.000
  0.000   0.000  -0.000   0.000   0.000  -0.000  -0.008   0.000   0.018   0.000  -0.000   0.042  -0.000  -0.030  -0.000   0.000
 total augmentation occupancy for first ion, spin component:           2
  0.004  -0.000  -0.000   0.016  -0.000  -0.001  -0.000  -0.000   0.000  -0.000   0.000   0.000  -0.000  -0.000   0.000  -0.000
 -0.000   0.004  -0.000  -0.000   0.017  -0.000  -0.000   0.000   0.000  -0.000   0.000   0.000  -0.000  -0.000   0.000  -0.000
 -0.000  -0.000   0.004  -0.001  -0.000   0.016  -0.000   0.000  -0.000   0.000   0.000   0.000  -0.000   0.000  -0.000  -0.000
  0.016  -0.000  -0.001  -0.009  -0.000  -0.001   0.000   0.000   0.000   0.000   0.000  -0.000  -0.000  -0.000  -0.000  -0.000
 -0.000   0.017  -0.000  -0.000  -0.008  -0.000   0.000  -0.000  -0.000   0.000  -0.000  -0.000   0.000  -0.000  -0.000   0.000
 -0.001  -0.000   0.016  -0.001  -0.000  -0.009  -0.000  -0.000  -0.000  -0.000  -0.000   0.000   0.000   0.000   0.000   0.000
 -0.000  -0.000  -0.000   0.000   0.000  -0.000  -5.199  -0.000  -1.628  -0.000  -0.000   2.861   0.000   1.219   0.000   0.000
 -0.000   0.000   0.000   0.000  -0.000  -0.000  -0.000  -4.459  -0.000  -1.436   0.000   0.000   2.277   0.000   1.073  -0.000
  0.000   0.000  -0.000   0.000  -0.000  -0.000  -1.628  -0.000  -3.973  -0.000  -0.000   1.220   0.000   1.929   0.000   0.000
 -0.000  -0.000   0.000   0.000   0.000  -0.000  -0.000  -1.436  -0.000  -4.459  -0.000   0.000   1.073   0.000   2.277   0.000
  0.000   0.000   0.000   0.000  -0.000  -0.000  -0.000   0.000  -0.000  -0.000  -3.079   0.000  -0.000   0.000   0.000   1.248
  0.000   0.000   0.000  -0.000  -0.000   0.000   2.861   0.000   1.220   0.000   0.000  -1.581  -0.000  -0.804  -0.000  -0.000
 -0.000  -0.000  -0.000  -0.000   0.000   0.000   0.000   2.277   0.000   1.073  -0.000  -0.000  -1.156  -0.000  -0.713   0.000
 -0.000  -0.000   0.000  -0.000  -0.000   0.000   1.219   0.000   1.929   0.000   0.000  -0.804  -0.000  -0.935  -0.000  -0.000
  0.000   0.000  -0.000  -0.000  -0.000   0.000   0.000   1.073   0.000   2.277   0.000  -0.000  -0.713  -0.000  -1.156  -0.000
 -0.000  -0.000  -0.000  -0.000   0.000   0.000   0.000  -0.000   0.000   0.000   1.248  -0.000   0.000  -0.000  -0.000  -0.488
 -0.000  -0.000   0.000  -0.000  -0.000  -0.000   0.006   0.000  -0.007   0.000  -0.000  -0.029  -0.000   0.022  -0.000   0.000
  0.000   0.000  -0.000   0.000   0.000  -0.000  -0.063  -0.000   0.011  -0.000   0.000   0.038   0.000  -0.004   0.000  -0.000


------------------------ aborting loop because EDIFF is reached ----------------------------------------


 


 total charge     
 
# of ion       s       p       d       tot
------------------------------------------
    1        0.184   6.175   5.009  11.369
    2        0.184   6.175   5.009  11.369
    3        1.723   4.350   0.000   6.074
    4        1.723   4.350   0.000   6.074
    5        1.723   4.350   0.000   6.074
    6        1.723   4.350   0.000   6.074
--------------------------------------------------
tot          7.262  29.753  10.018  47.033
 


 magnetization (x)
 
# of ion       s       p       d       tot
------------------------------------------
    1       -0.013  -0.012  -4.412  -4.436
    2        0.013   0.012   4.412   4.436
    3        0.003   0.029   0.000   0.032
    4        0.003   0.029   0.000   0.032
    5       -0.003  -0.029   0.000  -0.032
    6       -0.003  -0.029   0.000  -0.032
--------------------------------------------------
tot          0.000  -0.000   0.000   0.000
 
    CHARGE:  cpu time    0.0729: real time    0.0729
    FORLOC:  cpu time    0.0007: real time    0.0007
    FORNL :  cpu time    0.3918: real time    0.3918
    STRESS:  cpu time    1.3371: real time    1.3372
    FORCOR:  cpu time    0.0037: real time    0.0037
    FORHAR:  cpu time    0.0018: real time    0.0018
    MIXING:  cpu time    0.0007: real time    0.0007
    OFIELD:  cpu time    0.0000: real time    0.0000

  FORCE on cell =-STRESS in cart. coord.  units (eV):
  Direction    XX          YY          ZZ          XY          YZ          ZX
  --------------------------------------------------------------------------------------
  Alpha Z   208.96474   208.96474   208.96474
  Ewald   -1606.87243 -1606.87243 -1075.36291     0.00000    -0.00000    -0.00000
  Hartree   574.31829   574.31832   933.17656     0.00065     0.00026     0.00026
  E(xc)    -309.18671  -309.18671  -309.22782    -0.00000    -0.00000    -0.00000
  Local     182.07043   182.07035  -702.04680    -0.00127    -0.00064    -0.00065
  n-local  -237.95497  -237.95497  -237.28988     0.00025     0.00010     0.00011
  augment   266.72254   266.72241   266.36856    -0.00135    -0.00062    -0.00061
  Kinetic   921.93745   921.93746   915.41603    -0.00052    -0.00010    -0.00010
  Fock        0.00000     0.00000     0.00000     0.00000     0.00000     0.00000
  -------------------------------------------------------------------------------------
  Total      -0.00065    -0.00084    -0.00151    -0.00224    -0.00101    -0.00100
  in kB      -0.01430    -0.01844    -0.03315    -0.04918    -0.02224    -0.02191
  external pressure =       -0.02 kB  Pullay stress =        0.00 kB


 VOLUME and BASIS-vectors are now :
 -----------------------------------------------------------------------------
  energy-cutoff  :      600.00
  volume of cell :       72.91
      direct lattice vectors                 reciprocal lattice vectors
     4.762889507  0.000000000  0.000000000     0.209956582  0.000000000  0.000000000
     0.000000000  4.762889507  0.000000000     0.000000000  0.209956582  0.000000000
     0.000000000  0.000000000  3.214046596     0.000000000  0.000000000  0.311134257

  length of vectors
     4.762889507  4.762889507  3.214046596     0.209956582  0.209956582  0.311134257


 FORCES acting on ions
    electron-ion (+dipol)            ewald-force                    non-local-force                 convergence-correction
 -----------------------------------------------------------------------------------------------
   -.146E-06 0.147E-05 -.236E-08   -.284E-13 -.114E-12 0.122E-13   0.162E-06 -.144E-05 -.454E-08   0.482E-08 -.213E-07 0.662E-08
   -.143E-06 -.147E-05 -.761E-09   0.000E+00 0.568E-13 0.116E-13   0.171E-06 0.144E-05 -.239E-08   -.813E-08 0.197E-07 0.181E-08
   -.301E+02 0.301E+02 0.184E-04   0.311E+02 -.311E+02 -.959E-14   -.954E+00 0.954E+00 0.109E-04   -.677E-03 0.663E-03 -.282E-04
   0.301E+02 -.301E+02 -.184E-04   -.311E+02 0.311E+02 -.956E-14   0.954E+00 -.954E+00 -.109E-04   0.677E-03 -.663E-03 0.282E-04
   0.301E+02 0.301E+02 0.222E-03   -.311E+02 -.311E+02 -.714E-14   0.955E+00 0.955E+00 0.116E-03   -.570E-03 -.601E-03 -.305E-03
   -.301E+02 -.301E+02 -.222E-03   0.311E+02 0.311E+02 -.663E-14   -.955E+00 -.955E+00 -.116E-03   0.570E-03 0.601E-03 0.305E-03
 -----------------------------------------------------------------------------------------------
   -.196E-06 0.273E-08 -.260E-08   -.355E-14 -.355E-14 -.910E-14   0.206E-06 -.180E-08 -.593E-08   -.644E-08 0.116E-09 0.767E-08
 
 
 POSITION                                       TOTAL-FORCE (eV/Angst)
 -----------------------------------------------------------------------------------
      2.38144      2.38144      1.60702         0.000000      0.000000     -0.000000
      0.00000      0.00000      0.00000         0.000000     -0.000000     -0.000000
      0.94362      3.81927      1.60702         0.000165     -0.000167      0.000001
      3.81927      0.94362      1.60702        -0.000165      0.000167     -0.000001
      1.43783      1.43783      0.00000        -0.000130     -0.000128      0.000034
      3.32506      3.32506      0.00000         0.000130      0.000128     -0.000034
 -----------------------------------------------------------------------------------
    total drift:                                0.000000      0.000000     -0.000000


--------------------------------------------------------------------------------------------------------



  FREE ENERGIE OF THE ION-ELECTRON SYSTEM (eV)
  ---------------------------------------------------
  free  energy   TOTEN  =       -41.93394973 eV

  energy  without entropy=      -41.93394973  energy(sigma->0) =      -41.93394973
 


--------------------------------------------------------------------------------------------------------


    POTLOK:  cpu time    0.4361: real time    0.4362


--------------------------------------------------------------------------------------------------------


 writing wavefunctions
     LOOP+:  cpu time   30.8915: real time   30.9109
    4ORBIT:  cpu time    0.0000: real time    0.0000
 


 total charge     
 
# of ion       s       p       d       tot
------------------------------------------
    1        0.184   6.175   5.009  11.369
    2        0.184   6.175   5.009  11.369
    3        1.723   4.350   0.000   6.074
    4        1.723   4.350   0.000   6.074
    5        1.723   4.350   0.000   6.074
    6        1.723   4.350   0.000   6.074
--------------------------------------------------
tot          7.262  29.753  10.018  47.033
 


 magnetization (x)
 
# of ion       s       p       d       tot
------------------------------------------
    1       -0.013  -0.012  -4.412  -4.436
    2        0.013   0.012   4.412   4.436
    3        0.003   0.029   0.000   0.032
    4        0.003   0.029   0.000   0.032
    5       -0.003  -0.029   0.000  -0.032
    6       -0.003  -0.029   0.000  -0.032
--------------------------------------------------
tot          0.000  -0.000   0.000   0.000
 
 BZINTS: Fermi energy:  3.567360; 54.000000 electrons
         Band energy:-727.017882;  BLOECHL correction:  0.000000

 total amount of memory used by VASP MPI-rank0    75784. kBytes
=======================================================================

   base      :      30000. kBytes
   nonl-proj :      34076. kBytes
   fftplans  :       1489. kBytes
   grid      :       2267. kBytes
   one-center:        186. kBytes
   wavefun   :       7766. kBytes
 
  
  
 General timing and accounting informations for this job:
 ========================================================
  
                  Total CPU time used (sec):       33.167
                            User time (sec):       29.630
                          System time (sec):        3.536
                         Elapsed time (sec):       33.291
  
                   Maximum memory used (kb):       88532.
                   Average memory used (kb):           0.
  
                          Minor page faults:        15774
                          Major page faults:            7
                 Voluntary context switches:          350
