       N       E                     dE             d eps       ncg     rms          rms(c)
DAV:   1     0.956586241538E+03    0.95659E+03   -0.37539E+04  7296   0.200E+03
DAV:   2     0.402720268612E+03   -0.55387E+03   -0.53010E+03  8412   0.509E+02
DAV:   3     0.369526429828E+03   -0.33194E+02   -0.32891E+02  8412   0.134E+02
DAV:   4     0.369126273507E+03   -0.40016E+00   -0.39990E+00  8292   0.160E+01
DAV:   5     0.369119455711E+03   -0.68178E-02   -0.68175E-02  8544   0.194E+00    0.588E+01
DAV:   6    -0.687963218643E+02   -0.43792E+03   -0.28329E+02  8760   0.213E+02    0.628E+01
DAV:   7    -0.714882096600E+02   -0.26919E+01   -0.50851E+01  7644   0.453E+01    0.172E+01
DAV:   8    -0.686482039330E+02    0.28400E+01   -0.71121E+00  8760   0.218E+01    0.656E+00
DAV:   9    -0.681652821528E+02    0.48292E+00   -0.48910E+00  8520   0.190E+01    0.812E+00
DAV:  10    -0.681040888264E+02    0.61193E-01   -0.42948E-01  7716   0.565E+00    0.589E+00
DAV:  11    -0.680753992831E+02    0.28690E-01   -0.10834E+00  8616   0.761E+00    0.196E+00
DAV:  12    -0.680375160414E+02    0.37883E-01   -0.10147E-01  8952   0.321E+00    0.127E+00
DAV:  13    -0.680293417954E+02    0.81742E-02   -0.72199E-02  8268   0.158E+00    0.107E+00
DAV:  14    -0.680243888174E+02    0.49530E-02   -0.51543E-02  7212   0.252E+00    0.410E-01
DAV:  15    -0.680252337048E+02   -0.84489E-03   -0.37973E-03  7944   0.428E-01    0.396E-01
DAV:  16    -0.680245551904E+02    0.67851E-03   -0.26251E-03  7620   0.361E-01    0.155E-01
DAV:  17    -0.680244412010E+02    0.11399E-03   -0.31678E-03  7920   0.399E-01    0.109E-01
DAV:  18    -0.680242456348E+02    0.19557E-03   -0.14824E-04  7392   0.905E-02    0.346E-02
DAV:  19    -0.680242484688E+02   -0.28339E-05   -0.10130E-04  8556   0.619E-02    0.593E-03
DAV:  20    -0.680242617239E+02   -0.13255E-04   -0.62151E-06  8160   0.168E-02    0.688E-03
DAV:  21    -0.680242657272E+02   -0.40033E-05   -0.13554E-06  7548   0.823E-03    0.319E-03
DAV:  22    -0.680242656984E+02    0.28859E-07   -0.65375E-07  7824   0.451E-03
   1 F= -.68024266E+02 E0= -.68024266E+02  d E =-.680243E+02  mag=    -0.0000
