 vasp.5.4.4.18Apr17-6-g9f103f2a35 (build Apr 24 2018 11:19:41) complex          
  
 executed on         CrayXC-Intel date 2021.08.25  23:36:10
 running on  192 total cores
 distrk:  each k-point on   48 cores,    4 groups
 distr:  one band on NCORES_PER_BAND=  12 cores,    4 groups


--------------------------------------------------------------------------------------------------------


 INCAR:
 POTCAR:    PAW_PBE Mn_pv 02Aug2007               
 POTCAR:    PAW_PBE F 08Apr2002                   
 POTCAR:    PAW_PBE H 15Jun2001                   

 ----------------------------------------------------------------------------- 
|                                                                             |
|           W    W    AA    RRRRR   N    N  II  N    N   GGGG   !!!           |
|           W    W   A  A   R    R  NN   N  II  NN   N  G    G  !!!           |
|           W    W  A    A  R    R  N N  N  II  N N  N  G       !!!           |
|           W WW W  AAAAAA  RRRRR   N  N N  II  N  N N  G  GGG   !            |
|           WW  WW  A    A  R   R   N   NN  II  N   NN  G    G                |
|           W    W  A    A  R    R  N    N  II  N    N   GGGG   !!!           |
|                                                                             |
|      You have enabled k-point parallelism (KPAR>1).                         |
|      This developmental code was originally  written by Paul Kent at ORNL,  |
|      and carefully double checked in Vienna.                                |
|      GW as well as linear response parallelism added by Martijn Marsman     |
|      and Georg Kresse.                                                      |
|      Carefully verify results versus KPAR=1.                                |
|      Report problems to Paul Kent and Vienna.                               |
|                                                                             |
 ----------------------------------------------------------------------------- 

 POTCAR:    PAW_PBE Mn_pv 02Aug2007               
   VRHFIN =Mn: 3p4s3d                                                           
   LEXCH  = PE                                                                  
   EATOM  =  2025.2664 eV,  148.8529 Ry                                         
                                                                                
   TITEL  = PAW_PBE Mn_pv 02Aug2007                                             
   LULTRA =        F    use ultrasoft PP ?                                      
   IUNSCR =        1    unscreen: 0-lin 1-nonlin 2-no                           
   RPACOR =    2.080    partial core radius                                     
   POMASS =   54.938; ZVAL   =   13.000    mass and valenz                      
   RCORE  =    2.300    outmost cutoff radius                                   
   RWIGS  =    2.500; RWIGS  =    1.323    wigner-seitz radius (au A)           
   ENMAX  =  269.864; ENMIN  =  202.398 eV                                      
   ICORE  =        3    local potential                                         
   LCOR   =        T    correct aug charges                                     
   LPAW   =        T    paw PP                                                  
   EAUG   =  569.085                                                            
   DEXC   =    0.000                                                            
   RMAX   =    2.343    core radius for proj-oper                               
   RAUG   =    1.300    factor for augmentation sphere                          
   RDEP   =    2.338    radius for radial grids                                 
   RDEPT  =    1.798    core radius for aug-charge                              
                                                                                
   Atomic configuration                                                         
    8 entries                                                                   
     n  l   j            E        occ.                                          
     1  0  0.50     -6424.8287   2.0000                                         
     2  0  0.50      -739.1154   2.0000                                         
     2  1  1.50      -625.3949   6.0000                                         
     3  0  0.50       -81.6100   2.0000                                         
     3  1  1.50       -50.4667   6.0000                                         
     3  2  2.50        -3.3745   6.0000                                         
     4  0  0.50        -4.1331   1.0000                                         
     4  3  2.50        -1.3606   0.0000                                         
   Description                                                                  
     l       E           TYP  RCUT    TYP  RCUT                                 
     1    -50.4666628     23  2.000                                             
     1     -1.3605826     23  2.000                                             
     2     -3.3744729     23  2.300                                             
     2     -4.7350555     23  2.300                                             
     0     -4.1331431     23  2.300                                             
     0      7.6656591     23  2.300                                             
     3      9.5240782     23  2.300                                             
  local pseudopotential read in
  partial core-charges read in
  partial kinetic energy density read in
  atomic valenz-charges read in
  non local Contribution for L=           1  read in
    real space projection operators read in
  non local Contribution for L=           1  read in
    real space projection operators read in
  non local Contribution for L=           2  read in
    real space projection operators read in
  non local Contribution for L=           2  read in
    real space projection operators read in
  non local Contribution for L=           0  read in
    real space projection operators read in
  non local Contribution for L=           0  read in
    real space projection operators read in
    PAW grid and wavefunctions read in
 
   number of l-projection  operators is LMAX  =           6
   number of lm-projection operators is LMMAX =          18
 
 POTCAR:    PAW_PBE F 08Apr2002                   
   VRHFIN =F: s2p5                                                              
   LEXCH  = PE                                                                  
   EATOM  =   659.6475 eV,   48.4827 Ry                                         
                                                                                
   TITEL  = PAW_PBE F 08Apr2002                                                 
   LULTRA =        F    use ultrasoft PP ?                                      
   IUNSCR =        1    unscreen: 0-lin 1-nonlin 2-no                           
   RPACOR =    1.200    partial core radius                                     
   POMASS =   18.998; ZVAL   =    7.000    mass and valenz                      
   RCORE  =    1.520    outmost cutoff radius                                   
   RWIGS  =    1.500; RWIGS  =    0.794    wigner-seitz radius (au A)           
   ENMAX  =  400.000; ENMIN  =  300.000 eV                                      
   ICORE  =        2    local potential                                         
   LCOR   =        T    correct aug charges                                     
   LPAW   =        T    paw PP                                                  
   EAUG   =  613.614                                                            
   RMAX   =    1.555    core radius for proj-oper                               
   RAUG   =    1.300    factor for augmentation sphere                          
   RDEP   =    1.539    radius for radial grids                                 
   RDEPT  =    1.299    core radius for aug-charge                              
                                                                                
   Atomic configuration                                                         
    4 entries                                                                   
     n  l   j            E        occ.                                          
     1  0  0.50      -663.3661   2.0000                                         
     2  0  0.50       -29.8995   2.0000                                         
     2  1  0.50       -11.1114   5.0000                                         
     3  2  1.50       -10.8847   0.0000                                         
   Description                                                                  
     l       E           TYP  RCUT    TYP  RCUT                                 
     0    -29.8995018     23  1.200                                             
     0     -9.5240782     23  1.200                                             
     1    -11.1113914     23  1.520                                             
     1      1.3605826     23  1.520                                             
     2    -10.8846608      7  1.500                                             
  local pseudopotential read in
  partial core-charges read in
  partial kinetic energy density read in
  atomic valenz-charges read in
  non local Contribution for L=           0  read in
    real space projection operators read in
  non local Contribution for L=           0  read in
    real space projection operators read in
  non local Contribution for L=           1  read in
    real space projection operators read in
  non local Contribution for L=           1  read in
    real space projection operators read in
    PAW grid and wavefunctions read in
 
   number of l-projection  operators is LMAX  =           4
   number of lm-projection operators is LMMAX =           8
 
 POTCAR:    PAW_PBE H 15Jun2001                   
   VRHFIN =H: ultrasoft test                                                    
   LEXCH  = PE                                                                  
   EATOM  =    12.4884 eV,    0.9179 Ry                                         
                                                                                
   TITEL  = PAW_PBE H 15Jun2001                                                 
   LULTRA =        F    use ultrasoft PP ?                                      
   IUNSCR =        0    unscreen: 0-lin 1-nonlin 2-no                           
   RPACOR =    0.000    partial core radius                                     
   POMASS =    1.000; ZVAL   =    1.000    mass and valenz                      
   RCORE  =    1.100    outmost cutoff radius                                   
   RWIGS  =    0.700; RWIGS  =    0.370    wigner-seitz radius (au A)           
   ENMAX  =  250.000; ENMIN  =  200.000 eV                                      
   RCLOC  =    0.701    cutoff for local pot                                    
   LCOR   =        T    correct aug charges                                     
   LPAW   =        T    paw PP                                                  
   EAUG   =  400.000                                                            
   RMAX   =    1.123    core radius for proj-oper                               
   RAUG   =    1.200    factor for augmentation sphere                          
   RDEP   =    1.112    radius for radial grids                                 
   RDEPT  =    0.926    core radius for aug-charge                              
                                                                                
   Atomic configuration                                                         
    2 entries                                                                   
     n  l   j            E        occ.                                          
     1  0  0.50        -6.4927   1.0000                                         
     2  1  0.50        -3.4015   0.0000                                         
   Description                                                                  
     l       E           TYP  RCUT    TYP  RCUT                                 
     0     -6.4927494     23  1.100                                             
     0      6.8029130     23  1.100                                             
     1     -4.0817478     23  1.100                                             
  local pseudopotential read in
  atomic valenz-charges read in
  non local Contribution for L=           0  read in
    real space projection operators read in
  non local Contribution for L=           0  read in
    real space projection operators read in
  non local Contribution for L=           1  read in
    real space projection operators read in
    PAW grid and wavefunctions read in
 
   number of l-projection  operators is LMAX  =           3
   number of lm-projection operators is LMMAX =           5
 

 ----------------------------------------------------------------------------- 
|                                                                             |
|  ADVICE TO THIS USER RUNNING 'VASP/VAMP'   (HEAR YOUR MASTER'S VOICE ...):  |
|                                                                             |
|      You have a (more or less) 'large supercell' and for larger cells       |
|      it might be more efficient to use real space projection opertators     |
|      So try LREAL= Auto  in the INCAR   file.                               |
|      Mind:          For very  accurate calculation you might also keep the  |
|      reciprocal projection scheme          (i.e. LREAL=.FALSE.)             |
|                                                                             |
 ----------------------------------------------------------------------------- 


 ----------------------------------------------------------------------------- 
|                                                                             |
|  ADVICE TO THIS USER RUNNING 'VASP/VAMP'   (HEAR YOUR MASTER'S VOICE ...):  |
|                                                                             |
|      You enforced a specific xc-type in the INCAR file,                     |
|      a different type was found on the POTCAR file                          |
|          I HOPE YOU KNOW, WHAT YOU ARE  DOING                               |
|                                                                             |
 ----------------------------------------------------------------------------- 

  PAW_PBE Mn_pv 02Aug2007               :
 energy of atom  1       EATOM=-2025.2664
 kinetic energy error for atom=    0.0020 (will be added to EATOM!!)
  PAW_PBE F 08Apr2002                   :
 energy of atom  2       EATOM= -659.6475
 kinetic energy error for atom=    0.0140 (will be added to EATOM!!)
  PAW_PBE H 15Jun2001                   :
 energy of atom  3       EATOM=  -12.4884
 kinetic energy error for atom=    0.0002 (will be added to EATOM!!)
 
 
 POSCAR: Mn  F  H                                
  positions in direct lattice
  velocities in cartesian coordinates
 exchange correlation table for  LEXCH =       14
   RHO(1)=    0.500       N(1)  =     2000
   RHO(2)=  100.500       N(2)  =     4000
 


--------------------------------------------------------------------------------------------------------


 ion  position               nearest neighbor table
   1  0.161  0.157  0.125-  74 2.11  79 2.12  75 2.12  73 2.14  76 2.19  80 2.19
   2  0.001  0.991  0.010- 204 2.13 170 2.15 117 2.16  75 2.18 105 2.25 182 2.28   4 3.04
   3  0.166  0.166  0.375-  79 2.08  77 2.11  78 2.11  80 2.14  83 2.14  84 2.14
   4  0.001  0.991  0.240- 208 2.13 170 2.15 109 2.16  79 2.18 105 2.25 174 2.28   2 3.04
   5  0.166  0.166  0.625-  82 2.11  81 2.11  87 2.12  83 2.12  88 2.14  84 2.14
   6  0.999  0.999  0.497- 174 2.10 212 2.11  83 2.12 109 2.14 178 2.15 113 2.16
   7  0.166  0.166  0.875-  75 2.08  85 2.11  86 2.11  76 2.14  87 2.14  88 2.14
   8  0.999  0.999  0.753- 182 2.10 216 2.11  87 2.12 117 2.14 178 2.15 113 2.16
   9  0.167  0.500  0.125-  89 2.10  90 2.10  95 2.13  91 2.13  96 2.13  92 2.13
  10  0.001  0.332  0.000- 172 2.09  91 2.11  73 2.13  85 2.13 186 2.14 198 2.15
  11  0.166  0.500  0.375-  93 2.11  94 2.11  95 2.13  96 2.13  99 2.13 100 2.13
  12  0.001  0.332  0.250- 176 2.09  95 2.11  73 2.13  77 2.13 186 2.14 190 2.15
  13  0.166  0.500  0.625-  97 2.10  98 2.11  99 2.13 103 2.13 100 2.13 104 2.13
  14  1.000  0.334  0.500- 180 2.10  99 2.11  77 2.12 190 2.13 194 2.13  81 2.13
  15  0.166  0.500  0.875- 101 2.11 102 2.11  91 2.13  92 2.13 103 2.13 104 2.13
  16  1.000  0.334  0.750- 184 2.10 103 2.11  85 2.12 198 2.13 194 2.13  81 2.13
  17  0.168  0.841  0.125- 105 2.08 106 2.14 107 2.14 111 2.14 108 2.15 112 2.15
  18  0.000  0.668  0.001- 202 2.11 188 2.11 107 2.11 214 2.13 101 2.14  89 2.14
  19  0.167  0.833  0.375- 109 2.09 110 2.11 112 2.11 115 2.13 116 2.14 111 2.14
  20  0.000  0.668  0.249- 202 2.11 192 2.11 111 2.11 206 2.13  93 2.14  89 2.14
  21  0.166  0.834  0.625- 113 2.10 114 2.12 116 2.13 120 2.13 119 2.13 115 2.13
  22  1.000  0.668  0.500- 115 2.10 196 2.10 206 2.13 210 2.13  93 2.14  97 2.14
  23  0.167  0.833  0.875- 117 2.09 118 2.11 108 2.11 119 2.13 120 2.14 107 2.14
  24  1.000  0.668  0.750- 119 2.10 200 2.10 214 2.13 210 2.13 101 2.14  97 2.14
  25  0.502  0.166  0.125- 122 2.10 121 2.11 123 2.13 127 2.13 124 2.13 128 2.13
  26  0.335  0.000  1.000- 108 2.09 123 2.10  74 2.12  86 2.13 153 2.13 165 2.14
  27  0.501  0.167  0.375- 126 2.10 125 2.11 127 2.12 128 2.13 132 2.13 131 2.14
  28  0.335  0.000  0.250- 112 2.09 127 2.10  74 2.12  78 2.13 153 2.13 157 2.14
  29  0.499  0.168  0.625- 129 2.10 130 2.10 131 2.13 135 2.13 136 2.13 132 2.13
  30  0.333  0.001  0.500- 116 2.10 131 2.11 157 2.13  78 2.13  82 2.13 161 2.13
  31  0.501  0.167  0.875- 134 2.10 133 2.11 123 2.12 124 2.13 136 2.13 135 2.14
  32  0.333  0.001  0.750- 120 2.10 135 2.11 165 2.13  86 2.13  82 2.13 161 2.13
  33  0.501  0.501  0.125- 138 2.11 137 2.11 144 2.14 140 2.14 139 2.14 143 2.14
  34  0.332  0.331  0.001-  76 2.10 121 2.13  90 2.13 139 2.13 133 2.13 102 2.14
  35  0.500  0.500  0.373- 141 2.10 142 2.11 143 2.13 144 2.13 148 2.13 147 2.14
  36  0.332  0.331  0.249-  80 2.10 121 2.13  90 2.13 143 2.13 125 2.13  94 2.14
  37  0.499  0.499  0.625- 146 2.10 145 2.11 147 2.13 151 2.13 152 2.13 148 2.13
  38  0.332  0.333  0.499-  84 2.10 147 2.10  94 2.13 125 2.13 129 2.13  98 2.14
  39  0.500  0.500  0.877- 149 2.10 150 2.11 139 2.13 140 2.13 152 2.13 151 2.14
  40  0.332  0.333  0.751-  88 2.10 151 2.10 102 2.13 133 2.13 129 2.13  98 2.14
  41  0.500  0.833  0.125- 153 2.10 154 2.10 156 2.13 160 2.13 155 2.14 159 2.14
  42  0.333  0.668  0.000- 155 2.10  92 2.11 106 2.13 118 2.13 137 2.14 149 2.14
  43  0.502  0.834  0.375- 157 2.10 158 2.11 160 2.12 164 2.13 159 2.13 163 2.14
  44  0.333  0.668  0.250- 159 2.10  96 2.11 106 2.13 110 2.13 137 2.14 141 2.14
  45  0.498  0.832  0.625- 161 2.10 162 2.11 168 2.12 164 2.12 163 2.13 167 2.13
  46  0.333  0.666  0.500- 163 2.10 100 2.10 110 2.12 145 2.13 141 2.13 114 2.14
  47  0.502  0.834  0.875- 165 2.10 166 2.11 156 2.12 168 2.13 155 2.13 167 2.14
  48  0.333  0.666  0.750- 167 2.10 104 2.10 118 2.12 145 2.13 149 2.13 114 2.14
  49  0.834  0.168  0.125- 170 2.06 169 2.10 172 2.14 176 2.14 175 2.14 171 2.14
  50  0.670  0.998  1.000- 171 2.10 156 2.11 201 2.12 213 2.13 122 2.15 134 2.16
  51  0.836  0.165  0.374- 174 2.08 176 2.13 175 2.13 173 2.13 180 2.14 179 2.14
  52  0.670  0.998  0.250- 175 2.10 160 2.11 201 2.12 205 2.13 122 2.15 126 2.16
  53  0.834  0.165  0.625- 178 2.10 177 2.11 184 2.13 180 2.13 179 2.13 183 2.13
  54  0.664  0.001  0.501- 205 2.09 179 2.11 164 2.11 130 2.12 126 2.13 209 2.13
  55  0.836  0.165  0.876- 182 2.08 172 2.13 171 2.13 181 2.13 184 2.14 183 2.14
  56  0.664  0.001  0.749- 213 2.09 183 2.11 168 2.11 130 2.12 134 2.13 209 2.13
  57  0.835  0.500  0.125- 185 2.10 186 2.10 192 2.13 188 2.13 191 2.14 187 2.14
  58  0.668  0.334  1.000- 124 2.10 187 2.10 169 2.12 150 2.13 181 2.14 138 2.14
  59  0.834  0.500  0.375- 190 2.10 189 2.11 192 2.12 191 2.13 195 2.13 196 2.14
  60  0.668  0.334  0.250- 128 2.10 191 2.10 169 2.12 142 2.13 173 2.14 138 2.14
  61  0.833  0.500  0.625- 193 2.10 194 2.10 196 2.13 200 2.13 199 2.13 195 2.13
  62  0.668  0.333  0.500- 132 2.10 195 2.10 173 2.12 177 2.13 142 2.14 146 2.14
  63  0.834  0.500  0.875- 198 2.10 197 2.11 188 2.12 187 2.13 199 2.13 200 2.14
  64  0.668  0.333  0.750- 136 2.10 199 2.10 181 2.12 177 2.13 150 2.14 146 2.14
  65  0.852  0.848  0.125- 217 1.96 202 2.13 201 2.14 208 2.19 204 2.19 203 2.29 207 2.29
  66  0.670  0.669  0.001- 203 2.09 185 2.13 154 2.13 140 2.14 197 2.14 166 2.14
  67  0.827  0.830  0.377- 208 2.04 211 2.11 207 2.12 205 2.12 206 2.13 212 2.16
  68  0.670  0.669  0.249- 207 2.09 185 2.13 154 2.13 144 2.14 189 2.14 158 2.14
  69  0.833  0.835  0.625- 212 2.11 216 2.11 209 2.11 210 2.12 211 2.13 215 2.13
  70  0.665  0.665  0.500- 211 2.09 148 2.10 158 2.13 193 2.13 162 2.13 189 2.13
  71  0.827  0.830  0.873- 204 2.04 215 2.11 203 2.12 213 2.12 214 2.13 216 2.16
  72  0.665  0.665  0.750- 215 2.09 152 2.10 166 2.13 193 2.13 162 2.13 197 2.13
  73  0.066  0.267  0.125-  10 2.13  12 2.13   1 2.14
  74  0.275  0.069  0.125-   1 2.11  28 2.12  26 2.12
  75  0.095  0.105  0.994-   7 2.08   1 2.12   2 2.18
  76  0.230  0.230  0.002-  34 2.10   7 2.14   1 2.19
  77  0.066  0.271  0.376-   3 2.11  14 2.12  12 2.13
  78  0.268  0.065  0.375-   3 2.11  30 2.13  28 2.13
  79  0.095  0.105  0.256-   3 2.08   1 2.12   4 2.18
  80  0.230  0.230  0.248-  36 2.10   3 2.14   1 2.19
  81  0.065  0.269  0.625-   5 2.11  16 2.13  14 2.13
  82  0.269  0.066  0.625-   5 2.11  30 2.13  32 2.13
  83  0.102  0.100  0.501-   6 2.12   5 2.12   3 2.14
  84  0.231  0.232  0.500-  38 2.10   5 2.14   3 2.14
  85  0.066  0.270  0.874-   7 2.11  16 2.12  10 2.13
  86  0.269  0.065  0.875-   7 2.11  32 2.13  26 2.13
  87  0.102  0.100  0.749-   8 2.12   5 2.12   7 2.14
  88  0.231  0.232  0.750-  40 2.10   5 2.14   7 2.14
  89  0.066  0.602  0.125-   9 2.10  20 2.14  18 2.14
  90  0.268  0.399  0.125-   9 2.10  36 2.13  34 2.13
  91  0.102  0.435  0.000-  10 2.11  15 2.13   9 2.13
  92  0.232  0.565  0.000-  42 2.11  15 2.13   9 2.13
  93  0.066  0.603  0.375-  11 2.11  22 2.14  20 2.14
  94  0.268  0.398  0.374-  11 2.11  38 2.13  36 2.14
  95  0.102  0.435  0.250-  12 2.11  11 2.13   9 2.13
  96  0.232  0.565  0.250-  44 2.11  11 2.13   9 2.13
  97  0.065  0.602  0.625-  13 2.10  22 2.14  24 2.14
  98  0.268  0.399  0.625-  13 2.11  40 2.14  38 2.14
  99  0.101  0.436  0.500-  14 2.11  13 2.13  11 2.13
 100  0.232  0.564  0.500-  46 2.10  13 2.13  11 2.13
 101  0.066  0.603  0.875-  15 2.11  24 2.14  18 2.14
 102  0.268  0.398  0.876-  15 2.11  40 2.13  34 2.14
 103  0.101  0.436  0.750-  16 2.11  13 2.13  15 2.13
 104  0.232  0.564  0.750-  48 2.10  13 2.13  15 2.13
 105  0.112  0.971  0.125-  17 2.08   4 2.25   2 2.25
 106  0.267  0.733  0.125-  44 2.13  42 2.13  17 2.14
 107  0.100  0.772  0.003-  18 2.11  23 2.14  17 2.14
 108  0.240  0.893  0.996-  26 2.09  23 2.11  17 2.15
 109  0.065  0.933  0.372-  19 2.09   6 2.14   4 2.16
 110  0.266  0.730  0.376-  19 2.11  46 2.12  44 2.13
 111  0.100  0.772  0.247-  20 2.11  19 2.14  17 2.14
 112  0.240  0.893  0.254-  28 2.09  19 2.11  17 2.15
 113  0.064  0.935  0.625-  21 2.10   8 2.16   6 2.16
 114  0.269  0.732  0.625-  21 2.12  48 2.14  46 2.14
 115  0.102  0.768  0.500-  22 2.10  21 2.13  19 2.13
 116  0.232  0.899  0.500-  30 2.10  21 2.13  19 2.14
 117  0.065  0.933  0.878-  23 2.09   8 2.14   2 2.16
 118  0.266  0.730  0.874-  23 2.11  48 2.12  42 2.13
 119  0.102  0.768  0.750-  24 2.10  21 2.13  23 2.13
 120  0.232  0.899  0.750-  32 2.10  21 2.13  23 2.14
 121  0.400  0.268  0.125-  25 2.11  34 2.13  36 2.13
 122  0.603  0.064  0.125-  25 2.10  52 2.15  50 2.15
 123  0.437  0.102  1.000-  26 2.10  31 2.12  25 2.13
 124  0.565  0.233  0.000-  58 2.10  31 2.13  25 2.13
 125  0.398  0.268  0.375-  27 2.11  38 2.13  36 2.13
 126  0.602  0.066  0.374-  27 2.10  54 2.13  52 2.16
 127  0.437  0.102  0.250-  28 2.10  27 2.12  25 2.13
 128  0.565  0.233  0.250-  60 2.10  27 2.13  25 2.13
 129  0.398  0.270  0.625-  29 2.10  40 2.13  38 2.13
 130  0.601  0.068  0.625-  29 2.10  56 2.12  54 2.12
 131  0.435  0.102  0.500-  30 2.11  29 2.13  27 2.14
 132  0.565  0.233  0.500-  62 2.10  29 2.13  27 2.13
 133  0.398  0.268  0.875-  31 2.11  40 2.13  34 2.13
 134  0.602  0.066  0.876-  31 2.10  56 2.13  50 2.16
 135  0.435  0.102  0.750-  32 2.11  29 2.13  31 2.14
 136  0.565  0.233  0.750-  64 2.10  29 2.13  31 2.13
 137  0.399  0.603  0.125-  33 2.11  44 2.14  42 2.14
 138  0.602  0.399  0.125-  33 2.11  60 2.14  58 2.14
 139  0.435  0.434  0.001-  39 2.13  34 2.13  33 2.14
 140  0.566  0.566  1.000-  39 2.13  33 2.14  66 2.14
 141  0.398  0.601  0.374-  35 2.10  46 2.13  44 2.14
 142  0.602  0.399  0.375-  35 2.11  60 2.13  62 2.14
 143  0.435  0.434  0.249-  35 2.13  36 2.13  33 2.14
 144  0.566  0.566  0.251-  35 2.13  33 2.14  68 2.14
 145  0.399  0.601  0.625-  37 2.11  46 2.13  48 2.13
 146  0.602  0.398  0.625-  37 2.10  64 2.14  62 2.14
 147  0.434  0.435  0.499-  38 2.10  37 2.13  35 2.14
 148  0.564  0.564  0.500-  70 2.10  35 2.13  37 2.13
 149  0.398  0.601  0.876-  39 2.10  48 2.13  42 2.14
 150  0.602  0.399  0.875-  39 2.11  58 2.13  64 2.14
 151  0.434  0.435  0.751-  40 2.10  37 2.13  39 2.14
 152  0.564  0.564  0.750-  72 2.10  39 2.13  37 2.13
 153  0.400  0.935  0.125-  41 2.10  28 2.13  26 2.13
 154  0.600  0.731  0.125-  41 2.10  66 2.13  68 2.13
 155  0.435  0.769  0.999-  42 2.10  47 2.13  41 2.14
 156  0.565  0.899  0.001-  50 2.11  47 2.12  41 2.13
 157  0.401  0.937  0.376-  43 2.10  30 2.13  28 2.14
 158  0.604  0.733  0.375-  43 2.11  70 2.13  68 2.14
 159  0.435  0.769  0.251-  44 2.10  43 2.13  41 2.14
 160  0.565  0.899  0.249-  52 2.11  43 2.12  41 2.13
 161  0.397  0.934  0.625-  45 2.10  32 2.13  30 2.13
 162  0.599  0.730  0.625-  45 2.11  72 2.13  70 2.13
 163  0.435  0.767  0.498-  46 2.10  45 2.13  43 2.14
 164  0.562  0.900  0.502-  54 2.11  45 2.12  43 2.13
 165  0.401  0.937  0.874-  47 2.10  32 2.13  26 2.14
 166  0.604  0.733  0.875-  47 2.11  72 2.13  66 2.14
 167  0.435  0.767  0.752-  48 2.10  45 2.13  47 2.14
 168  0.562  0.900  0.748-  56 2.11  45 2.12  47 2.13
 169  0.731  0.268  0.125-  49 2.10  60 2.12  58 2.12
 170  0.940  0.076  0.125-  49 2.06   4 2.15   2 2.15
 171  0.768  0.102  1.000-  50 2.10  55 2.13  49 2.14
 172  0.896  0.236  0.999-  10 2.09  55 2.13  49 2.14
 173  0.732  0.267  0.375-  62 2.12  51 2.13  60 2.14
 174  0.939  0.068  0.374-  51 2.08   6 2.10   4 2.28
 175  0.768  0.102  0.250-  52 2.10  51 2.13  49 2.14
 176  0.896  0.236  0.251-  12 2.09  51 2.13  49 2.14
 177  0.732  0.267  0.625-  53 2.11  64 2.13  62 2.13
 178  0.935  0.064  0.625-  53 2.10   8 2.15   6 2.15
 179  0.769  0.101  0.499-  54 2.11  53 2.13  51 2.14
 180  0.898  0.232  0.501-  14 2.10  53 2.13  51 2.14
 181  0.732  0.267  0.875-  64 2.12  55 2.13  58 2.14
 182  0.939  0.068  0.877-  55 2.08   8 2.10   2 2.28
 183  0.769  0.101  0.751-  56 2.11  53 2.13  55 2.14
 184  0.898  0.232  0.749-  16 2.10  53 2.13  55 2.14
 185  0.731  0.599  0.125-  57 2.10  68 2.13  66 2.13
 186  0.937  0.399  0.125-  57 2.10  10 2.14  12 2.14
 187  0.769  0.435  0.000-  58 2.10  63 2.13  57 2.14
 188  0.900  0.565  0.999-  18 2.11  63 2.12  57 2.13
 189  0.733  0.602  0.375-  59 2.11  70 2.13  68 2.14
 190  0.936  0.399  0.375-  59 2.10  14 2.13  12 2.15
 191  0.769  0.435  0.250-  60 2.10  59 2.13  57 2.14
 192  0.900  0.565  0.251-  20 2.11  59 2.12  57 2.13
 193  0.729  0.599  0.625-  61 2.10  72 2.13  70 2.13
 194  0.935  0.399  0.625-  61 2.10  14 2.13  16 2.13
 195  0.769  0.435  0.500-  62 2.10  61 2.13  59 2.13
 196  0.898  0.566  0.500-  22 2.10  61 2.13  59 2.14
 197  0.733  0.602  0.875-  63 2.11  72 2.13  66 2.14
 198  0.936  0.399  0.875-  63 2.10  16 2.13  10 2.15
 199  0.769  0.435  0.750-  64 2.10  61 2.13  63 2.13
 200  0.898  0.566  0.750-  24 2.10  61 2.13  63 2.14
 201  0.734  0.935  0.125-  52 2.12  50 2.12  65 2.14
 202  0.931  0.726  0.125-  18 2.11  20 2.11  65 2.13
 203  0.772  0.769  0.005-  66 2.09  71 2.12  65 2.29
 204  0.880  0.915  0.980-  71 2.04   2 2.13  65 2.19
 205  0.721  0.929  0.379-  54 2.09  67 2.12  52 2.13
 206  0.934  0.732  0.375-  67 2.13  22 2.13  20 2.13
 207  0.772  0.769  0.245-  68 2.09  67 2.12  65 2.29
 208  0.880  0.915  0.270-  67 2.04   4 2.13  65 2.19
 209  0.730  0.935  0.625-  69 2.11  54 2.13  56 2.13
 210  0.935  0.732  0.625-  69 2.12  24 2.13  22 2.13
 211  0.767  0.765  0.504-  70 2.09  67 2.11  69 2.13
 212  0.897  0.898  0.500-  69 2.11   6 2.11  67 2.16
 213  0.721  0.929  0.871-  56 2.09  71 2.12  50 2.13
 214  0.934  0.732  0.875-  71 2.13  24 2.13  18 2.13
 215  0.767  0.765  0.746-  72 2.09  71 2.11  69 2.13
 216  0.897  0.898  0.750-  69 2.11   8 2.11  71 2.16
 217  0.975  0.902  0.125-  65 1.96
 

IMPORTANT INFORMATION: All symmetrisations will be switched off!
NOSYMM: (Re-)initialisation of all symmetry stuff for point group C_1.

 
 
 KPOINTS: KPOINTS created by Atomic Simulation Env

Automatic generation of k-mesh.
Space group operators:
 irot       det(A)        alpha          n_x          n_y          n_z        tau_x        tau_y        tau_z
    1     1.000000     0.000000     1.000000     0.000000     0.000000     0.000000     0.000000     0.000000
 
 Subroutine IBZKPT returns following result:
 ===========================================
 
 Found      4 irreducible k-points:
 
 Following reciprocal coordinates:
            Coordinates               Weight
  0.250000  0.250000  0.250000      2.000000
 -0.250000  0.250000  0.250000      2.000000
  0.250000 -0.250000  0.250000      2.000000
 -0.250000 -0.250000  0.250000      2.000000
 
 Following cartesian coordinates:
            Coordinates               Weight
  0.017066  0.017066  0.018935      2.000000
 -0.017066  0.017066  0.018935      2.000000
  0.017066 -0.017066  0.018935      2.000000
 -0.017066 -0.017066  0.018935      2.000000
 


--------------------------------------------------------------------------------------------------------




 Dimension of arrays:
   k-points           NKPTS =      4   k-points in BZ     NKDIM =      4   number of bands    NBANDS=   1168
   number of dos      NEDOS =   5001   number of ions     NIONS =    217
   non local maximal  LDIM  =      6   non local SUM 2l+1 LMDIM =     18
   total plane-waves  NPLWV = 829440
   max r-space proj   IRMAX =      1   max aug-charges    IRDMAX=  71248
   dimension x,y,z NGX =    96 NGY =   96 NGZ =   90
   dimension x,y,z NGXF=   192 NGYF=  192 NGZF=  180
   support grid    NGXF=   384 NGYF=  384 NGZF=  360
   ions per type =              72 144   1
   NGX,Y,Z   is equivalent  to a cutoff of  10.89, 10.89, 11.33 a.u.
   NGXF,Y,Z  is equivalent  to a cutoff of  21.79, 21.79, 22.66 a.u.

 SYSTEM =  unknown system                          
 POSCAR =  Mn  F  H                                

 Startparameter for this run:
   NWRITE =      2    write-flag & timer
   PREC   = normal    normal or accurate (medium, high low for compatibility)
   ISTART =      1    job   : 0-new  1-cont  2-samecut
   ICHARG =      1    charge: 1-file 2-atom 10-const
   ISPIN  =      2    spin polarized calculation?
   LNONCOLLINEAR =      F non collinear calculations
   LSORBIT =      F    spin-orbit coupling
   INIWAV =      1    electr: 0-lowe 1-rand  2-diag
   LASPH  =      T    aspherical Exc in radial PAW
   METAGGA=      F    non-selfconsistent MetaGGA calc.

 Electronic Relaxation 1
   ENCUT  =  700.0 eV  51.45 Ry    7.17 a.u.  31.60 31.60 28.48*2*pi/ulx,y,z
   ENINI  =  700.0     initial cutoff
   ENAUG  =  613.6 eV  augmentation charge cutoff
   NELM   =     60;   NELMIN=  2; NELMDL=  0     # of ELM steps 
   EDIFF  = 0.1E-06   stopping-criterion for ELM
   LREAL  =      F    real-space projection
   NLSPLINE    = F    spline interpolate recip. space projectors
   LCOMPAT=      F    compatible to vasp.4.4
   GGA_COMPAT  = T    GGA compatible to vasp.4.4-vasp.4.6
   LMAXPAW     = -100 max onsite density
   LMAXMIX     =    4 max onsite mixed and CHGCAR
   VOSKOWN=      0    Vosko Wilk Nusair interpolation
   ROPT   =    0.00000   0.00000   0.00000
 Ionic relaxation
   EDIFFG = -.5E-02   stopping-criterion for IOM
   NSW    =      0    number of steps for IOM
   NBLOCK =      1;   KBLOCK =      1    inner block; outer block 
   IBRION =     -1    ionic relax: 0-MD 1-quasi-New 2-CG
   NFREE  =      0    steps in history (QN), initial steepest desc. (CG)
   ISIF   =      2    stress and relaxation
   IWAVPR =     10    prediction:  0-non 1-charg 2-wave 3-comb
   ISYM   =      0    0-nonsym 1-usesym 2-fastsym
   LCORR  =      T    Harris-Foulkes like correction to forces

   POTIM  = 0.5000    time-step for ionic-motion
   TEIN   =    0.0    initial temperature
   TEBEG  =    0.0;   TEEND  =   0.0 temperature during run
   SMASS  =  -3.00    Nose mass-parameter (am)
   estimated Nose-frequenzy (Omega)   =  0.10E-29 period in steps =****** mass=  -0.490E-26a.u.
   SCALEE = 1.0000    scale energy and forces
   NPACO  =    256;   APACO  = 16.0  distance and # of slots for P.C.
   PSTRESS=    0.0 pullay stress

  Mass of Ions in am
   POMASS =  54.94 19.00  1.00
  Ionic Valenz
   ZVAL   =  13.00  7.00  1.00
  Atomic Wigner-Seitz radii
   RWIGS  =  -1.00 -1.00 -1.00
  virtual crystal weights 
   VCA    =   1.00  1.00  1.00
   NELECT =    1946.0000    total number of electrons
   NUPDOWN=      -1.0000    fix difference up-down

 DOS related values:
   EMIN   =  10.00;   EMAX   =-10.00  energy-range for DOS
   EFERMI =   0.00
   ISMEAR =     0;   SIGMA  =   0.01  broadening in eV -4-tet -1-fermi 0-gaus

 Electronic relaxation 2 (details)
   IALGO  =     68    algorithm
   LDIAG  =      T    sub-space diagonalisation (order eigenvalues)
   LSUBROT=      F    optimize rotation matrix (better conditioning)
   TURBO    =      0    0=normal 1=particle mesh
   IRESTART =      0    0=no restart 2=restart with 2 vectors
   NREBOOT  =      0    no. of reboots
   NMIN     =      0    reboot dimension
   EREF     =   0.00    reference energy to select bands
   IMIX   =      4    mixing-type and parameters
     AMIX     =   0.40;   BMIX     =  1.00
     AMIX_MAG =   1.60;   BMIX_MAG =  1.00
     AMIN     =   0.10
     WC   =   100.;   INIMIX=   1;  MIXPRE=   1;  MAXMIX= -45

 Intra band minimization:
   WEIMIN = 0.0000     energy-eigenvalue tresh-hold
   EBREAK =  0.21E-10  absolut break condition
   DEPER  =   0.30     relativ break condition  

   TIME   =   0.40     timestep for ELM

  volume/ion in A,a.u.               =      13.06        88.12
  Fermi-wavevector in a.u.,A,eV,Ry     =   1.444383  2.729488 28.385037  2.086241
  Thomas-Fermi vector in A             =   2.562684
 
 Write flags
   LWAVE        =      T    write WAVECAR
   LDOWNSAMPLE  =      F    k-point downsampling of WAVECAR
   LCHARG       =      T    write CHGCAR
   LVTOT        =      F    write LOCPOT, total local potential
   LVHAR        =      F    write LOCPOT, Hartree potential only
   LELF         =      F    write electronic localiz. function (ELF)
   LORBIT       =     11    0 simple, 1 ext, 2 COOP (PROOUT), +10 PAW based schemes


 Dipole corrections
   LMONO  =      F    monopole corrections only (constant potential shift)
   LDIPOL =      F    correct potential (dipole corrections)
   IDIPOL =      0    1-x, 2-y, 3-z, 4-all directions 
   EPSILON=  1.0000000 bulk dielectric constant

 LDA+U is selected, type is set to LDAUTYPE =  2
   angular momentum for each species LDAUL =     2   -1   -1
   U (eV)           for each species LDAUU =   4.0  0.0  0.0
   J (eV)           for each species LDAUJ =   0.0  0.0  0.0
 Exchange correlation treatment:
   GGA     =    PS    GGA type
   LEXCH   =    14    internal setting for exchange type
   VOSKOWN=      0    Vosko Wilk Nusair interpolation
   LHFCALC =     F    Hartree Fock is set to
   LHFONE  =     F    Hartree Fock one center treatment
   AEXX    =    0.0000 exact exchange contribution

 Linear response parameters
   LEPSILON=     F    determine dielectric tensor
   LRPA    =     F    only Hartree local field effects (RPA)
   LNABLA  =     F    use nabla operator in PAW spheres
   LVEL    =     F    velocity operator in full k-point grid
   LINTERFAST=   F  fast interpolation
   KINTER  =     0    interpolate to denser k-point grid
   CSHIFT  =0.1000    complex shift for real part using Kramers Kronig
   OMEGAMAX=  -1.0    maximum frequency
   DEG_THRESHOLD= 0.2000000E-02 threshold for treating states as degnerate
   RTIME   =   -0.100 relaxation time in fs
  (WPLASMAI=    0.000 imaginary part of plasma frequency in eV, 0.658/RTIME)
   DFIELD  = 0.0000000 0.0000000 0.0000000 field for delta impulse in time
 
 Orbital magnetization related:
   ORBITALMAG=     F  switch on orbital magnetization
   LCHIMAG   =     F  perturbation theory with respect to B field
   DQ        =  0.001000  dq finite difference perturbation B field
   LLRAUG    =     F  two centre corrections for induced B field



--------------------------------------------------------------------------------------------------------


 Static calculation
 charge density and potential will be updated during run
 spin polarized calculation
 RMM-DIIS sequential band-by-band and
  variant of blocked Davidson during initial phase
 perform sub-space diagonalisation
    before iterative eigenvector-optimisation
 modified Broyden-mixing scheme, WC =      100.0
 initial mixing is a Kerker type mixing with AMIX =  0.4000 and BMIX =      1.0000
 Hartree-type preconditioning will be used
 using additional bands          195
 reciprocal scheme for non local part
 use partial core corrections
 calculate Harris-corrections to forces 
   (improved forces if not selfconsistent)
 use gradient corrections 
 use of overlap-Matrix (Vanderbilt PP)
 Gauss-broadening in eV      SIGMA  =   0.01


--------------------------------------------------------------------------------------------------------


  energy-cutoff  :      700.00
  volume of cell :     2833.48
      direct lattice vectors                 reciprocal lattice vectors
    14.649432430  0.000000000  0.000000000     0.068262030  0.000000000  0.000000000
     0.000000000 14.649432430  0.000000000     0.000000000  0.068262030  0.000000000
     0.000000000  0.000000000 13.203190708     0.000000000  0.000000000  0.075739268

  length of vectors
    14.649432430 14.649432430 13.203190708     0.068262030  0.068262030  0.075739268


 
 old parameters found on file WAVECAR:
  energy-cutoff  :      700.00
  volume of cell :     2833.48
      direct lattice vectors                 reciprocal lattice vectors
    14.649432430  0.000000000  0.000000000     0.068262030  0.000000000  0.000000000
     0.000000000 14.649432430  0.000000000     0.000000000  0.068262030  0.000000000
     0.000000000  0.000000000 13.203190708     0.000000000  0.000000000  0.075739268

  length of vectors

 
 k-points in units of 2pi/SCALE and weight: KPOINTS created by Atomic Simulation Env
   0.01706551  0.01706551  0.01893482       0.250
  -0.01706551  0.01706551  0.01893482       0.250
   0.01706551 -0.01706551  0.01893482       0.250
  -0.01706551 -0.01706551  0.01893482       0.250
 
 k-points in reciprocal lattice and weights: KPOINTS created by Atomic Simulation Env
   0.25000000  0.25000000  0.25000000       0.250
  -0.25000000  0.25000000  0.25000000       0.250
   0.25000000 -0.25000000  0.25000000       0.250
  -0.25000000 -0.25000000  0.25000000       0.250
 
 position of ions in fractional coordinates (direct lattice) 
   0.16066407  0.15657071  0.12502899
   0.00079471  0.99122759  0.01002364
   0.16565918  0.16646384  0.37480966
   0.00083321  0.99124126  0.24001702
   0.16581630  0.16606908  0.62502863
   0.99896757  0.99937454  0.49694893
   0.16564817  0.16644806  0.87524961
   0.99896273  0.99937348  0.75309282
   0.16688305  0.50030896  0.12502759
   0.00124742  0.33247896  0.00028945
   0.16648948  0.50045922  0.37467997
   0.00125379  0.33247161  0.24976409
   0.16591014  0.50025174  0.62503088
   0.99950766  0.33376334  0.50011677
   0.16648872  0.50046415  0.87537686
   0.99951310  0.33375705  0.74993904
   0.16801058  0.84070701  0.12503057
   0.00007886  0.66835238  0.00058981
   0.16660036  0.83311092  0.37486295
   0.00007539  0.66835317  0.24947052
   0.16633243  0.83441498  0.62502734
   0.99960089  0.66769728  0.49979672
   0.16659130  0.83311189  0.87519297
   0.99959085  0.66770851  0.75026487
   0.50171156  0.16583912  0.12501971
   0.33477238  0.00036743  0.99992796
   0.50064396  0.16716303  0.37476566
   0.33477807  0.00035838  0.25011861
   0.49892199  0.16827347  0.62502081
   0.33322062  0.00053328  0.49974137
   0.50064850  0.16716217  0.87527750
   0.33322766  0.00052633  0.75030496
   0.50100281  0.50133569  0.12502341
   0.33201741  0.33110863  0.00103617
   0.49957655  0.49961542  0.37344498
   0.33201895  0.33111611  0.24901336
   0.49948363  0.49858859  0.62502513
   0.33221761  0.33346726  0.49943714
   0.49957164  0.49961178  0.87660277
   0.33220965  0.33346641  0.75061775
   0.50009170  0.83289673  0.12502124
   0.33253113  0.66823479  0.00044265
   0.50159503  0.83445404  0.37491941
   0.33252975  0.66823291  0.24960884
   0.49777031  0.83215506  0.62501911
   0.33335597  0.66604450  0.49988866
   0.50160298  0.83446057  0.87512340
   0.33335668  0.66605036  0.75016627
   0.83370834  0.16809201  0.12502197
   0.66968071  0.99805536  0.99998077
   0.83575299  0.16516965  0.37440782
   0.66965359  0.99807455  0.25005243
   0.83371031  0.16506128  0.62502151
   0.66443458  0.00124505  0.50063119
   0.83575318  0.16517476  0.87563376
   0.66441836  0.00125660  0.74939801
   0.83511558  0.50040969  0.12502587
   0.66762273  0.33351365  0.99978449
   0.83395082  0.50020742  0.37479863
   0.66762294  0.33351256  0.25026083
   0.83322472  0.50040103  0.62502628
   0.66771982  0.33277197  0.49978706
   0.83395051  0.50020758  0.87525249
   0.66771915  0.33277336  0.75025717
   0.85203759  0.84845879  0.12500013
   0.67018318  0.66905992  0.00133610
   0.82695044  0.82977939  0.37723645
   0.67018595  0.66906033  0.24870776
   0.83335776  0.83503009  0.62501708
   0.66503546  0.66522875  0.50010614
   0.82693816  0.82978805  0.87279459
   0.66503848  0.66522344  0.74993748
   0.06558248  0.26711929  0.12502129
   0.27517425  0.06917230  0.12502896
   0.09526158  0.10488235  0.99406542
   0.23044045  0.22957660  0.00227596
   0.06620049  0.27052042  0.37648821
   0.26849828  0.06518879  0.37464654
   0.09523388  0.10494450  0.25600000
   0.23044861  0.22958184  0.24777681
   0.06525745  0.26901666  0.62502636
   0.26911743  0.06598106  0.62502761
   0.10219929  0.10030240  0.50084919
   0.23148747  0.23165938  0.50019743
   0.06618508  0.27049926  0.87357505
   0.26850701  0.06519537  0.87539035
   0.10220345  0.10028980  0.74920114
   0.23147289  0.23166367  0.74986565
   0.06622595  0.60235418  0.12503282
   0.26837461  0.39872138  0.12502362
   0.10176307  0.43539341  0.00006971
   0.23211187  0.56542121  0.00008564
   0.06606916  0.60339530  0.37465062
   0.26751962  0.39801860  0.37404701
   0.10176689  0.43538908  0.24998400
   0.23211642  0.56541425  0.24996992
   0.06490800  0.60223052  0.62503631
   0.26754145  0.39862459  0.62502675
   0.10092826  0.43599527  0.49991364
   0.23219371  0.56429732  0.50025536
   0.06605992  0.60339497  0.87540159
   0.26751935  0.39802152  0.87600974
   0.10093635  0.43598578  0.75014789
   0.23219286  0.56430252  0.74980419
   0.11248101  0.97131957  0.12509000
   0.26686502  0.73312786  0.12502594
   0.10030836  0.77222068  0.00272557
   0.24032627  0.89309160  0.99571919
   0.06508647  0.93342334  0.37220685
   0.26634746  0.72960065  0.37605074
   0.10028721  0.77224124  0.24733646
   0.24036642  0.89305365  0.25433752
   0.06364027  0.93459781  0.62502392
   0.26857403  0.73205873  0.62502730
   0.10175904  0.76831935  0.50038156
   0.23186223  0.89870586  0.50001602
   0.06504242  0.93339318  0.87784704
   0.26635420  0.72961562  0.87400385
   0.10175885  0.76831914  0.74967217
   0.23185448  0.89871074  0.75004122
   0.39965273  0.26762592  0.12502623
   0.60320740  0.06441507  0.12500864
   0.43668332  0.10153947  0.99959893
   0.56521366  0.23301934  0.00009129
   0.39793990  0.26799718  0.37491484
   0.60223561  0.06635640  0.37391730
   0.43668993  0.10153211  0.25044171
   0.56521843  0.23301138  0.24995178
   0.39785513  0.26956487  0.62502992
   0.60088292  0.06770832  0.62500910
   0.43491106  0.10237096  0.50014875
   0.56466206  0.23287801  0.50008843
   0.39793782  0.26799286  0.87513076
   0.60224717  0.06636326  0.87613134
   0.43492488  0.10235913  0.74989447
   0.56466697  0.23287320  0.74995273
   0.39867937  0.60275156  0.12502572
   0.60244559  0.39949635  0.12502395
   0.43455719  0.43423877  0.00106757
   0.56631187  0.56637883  0.99952981
   0.39805940  0.60127783  0.37416143
   0.60207525  0.39871139  0.37523264
   0.43455810  0.43424322  0.24898289
   0.56631531  0.56637826  0.25051457
   0.39855379  0.60101464  0.62502860
   0.60210729  0.39815972  0.62502284
   0.43426443  0.43462428  0.49936453
   0.56379844  0.56417847  0.49955851
   0.39805539  0.60127571  0.87588903
   0.60207422  0.39871149  0.87481131
   0.43426138  0.43462200  0.75068329
   0.56379890  0.56417552  0.75049105
   0.39969472  0.93496014  0.12501873
   0.60042434  0.73063652  0.12502182
   0.43496606  0.76862020  0.99898058
   0.56513824  0.89873110  0.00100469
   0.40082437  0.93657958  0.37613636
   0.60359873  0.73306891  0.37463790
   0.43496200  0.76862055  0.25105953
   0.56513097  0.89873303  0.24904574
   0.39659648  0.93406905  0.62501888
   0.59884792  0.72979702  0.62502534
   0.43490650  0.76729071  0.49848651
   0.56221091  0.89967267  0.50231799
   0.40081625  0.93657201  0.87391898
   0.60360548  0.73307354  0.87540103
   0.43491101  0.76729201  0.75155764
   0.56218338  0.89969450  0.74771470
   0.73107351  0.26848161  0.12502309
   0.94009140  0.07594158  0.12502851
   0.76802870  0.10237461  0.99996328
   0.89571685  0.23623690  0.99937525
   0.73226090  0.26735950  0.37542070
   0.93907104  0.06771169  0.37351829
   0.76802567  0.10237378  0.25007563
   0.89572131  0.23623197  0.25067196
   0.73190222  0.26723235  0.62502285
   0.93513305  0.06412871  0.62502060
   0.76869487  0.10052230  0.49943836
   0.89807544  0.23230926  0.50082123
   0.73226067  0.26736233  0.87462217
   0.93909359  0.06774139  0.87651637
   0.76869655  0.10051743  0.75060544
   0.89807060  0.23231406  0.74921966
   0.73135387  0.59903800  0.12502164
   0.93682100  0.39942933  0.12503015
   0.76915734  0.43491686  0.00004598
   0.89993256  0.56465348  0.99926145
   0.73262566  0.60224929  0.37509196
   0.93575409  0.39935908  0.37497703
   0.76915385  0.43491939  0.25000445
   0.89993121  0.56465223  0.25078911
   0.72912478  0.59878453  0.62501952
   0.93495184  0.39944632  0.62503143
   0.76876119  0.43476431  0.49982962
   0.89842674  0.56566485  0.50032775
   0.73262288  0.60224614  0.87495592
   0.93575722  0.39936281  0.87506951
   0.76875913  0.43476738  0.75022072
   0.89841702  0.56567706  0.74972740
   0.73445124  0.93515810  0.12503563
   0.93121045  0.72641127  0.12502871
   0.77240940  0.76883147  0.00511084
   0.88017363  0.91526381  0.97962527
   0.72142477  0.92863962  0.37947135
   0.93433714  0.73223929  0.37506713
   0.77239911  0.76883894  0.24492774
   0.88031725  0.91515193  0.27038598
   0.72989814  0.93530795  0.62502079
   0.93488563  0.73231175  0.62502525
   0.76707129  0.76519828  0.50396029
   0.89664368  0.89809254  0.50006506
   0.72136019  0.92859399  0.87053530
   0.93434821  0.73227061  0.87500067
   0.76708616  0.76518097  0.74607372
   0.89663177  0.89810080  0.74997153
   0.97472221  0.90193628  0.12493732
 
 position of ions in cartesian coordinates  (Angst):
   2.35363742  2.29367210  1.65078154
   0.01164200 14.52092163  0.13234398
   2.42681299  2.43860070  4.94868340
   0.01220612 14.52112184  3.16899048
   2.42911463  2.43281781  8.25237217
  14.63430787 14.64026986  6.56131146
   2.42665171  2.43836958 11.55608748
  14.63423702 14.64025420  9.94322808
   2.44474192  7.32924232  1.65076318
   0.01827394  4.87062812  0.00382167
   2.43897638  7.33144357  4.94697114
   0.01836737  4.87052036  3.29768290
   2.43048932  7.32840407  8.25240186
  14.64221995  4.88944351  6.60313705
   2.43896532  7.33151577 11.55776757
  14.64229967  4.88935133  9.90158817
   2.46125963 12.31588060  1.65080244
   0.00115525  9.79098310  0.00778738
   2.44060065 12.20460207  4.94938706
   0.00110449  9.79099456  3.29380685
   2.43667577 12.22370593  8.25235516
  14.64358571  9.78138624  6.59891147
   2.44046801 12.20461628 11.55533967
  14.64343869  9.78155076  9.90589017
   7.34978953  2.42944897  1.65065908
   4.90422542  0.00538267 13.20223950
   7.33414983  2.44884351  4.94810253
   4.90430869  0.00525012  3.30236375
   7.30892392  2.46511083  8.25226902
   4.88149299  0.00781230  6.59818062
   7.33421637  2.44883090 11.55645574
   4.88159603  0.00771043  9.90641949
   7.33940681  7.34428330  1.65070793
   4.86386659  4.85055345  0.01368071
   7.31851285  7.31908234  4.93066534
   4.86388916  4.85066304  3.28777091
   7.31715175  7.30403992  8.25232602
   4.86679947  4.88510614  6.59416386
   7.31844091  7.31902903 11.57395356
   4.86668286  4.88509365  9.91054925
   7.32605951 12.20146430  1.65067923
   4.87139236  9.78926037  0.00584437
   7.34808249 12.22427801  4.95013243
   4.87137217  9.78923291  3.29563318
   7.29205253 12.19059933  8.25224654
   4.88347578  9.75717392  6.60012528
   7.34819897 12.22437378 11.55442109
   4.88348622  9.75725974  9.90458832
  12.21335405  2.46245259  1.65068893
   9.81044236 14.62094449 13.20293685
  12.24330694  2.41964166  4.94337787
   9.81004507 14.62122572  3.30148998
  12.21338281  2.41805413  8.25227823
   9.73358949  0.01823921  6.60992909
  12.24330967  2.41971648 11.56115946
   9.73335190  0.01840854  9.89444483
  12.23396927  7.33071794  1.65074042
   9.78029412  4.88578563 13.20034523
  12.21690626  7.32775473  4.94853785
   9.78029718  4.88576968  3.30424146
  12.20626930  7.33059113  8.25234123
   9.78171635  4.87492055  6.59878390
  12.21690165  7.32775710 11.55612559
   9.78170660  4.87494086  9.90578849
  12.48186706 12.42943966  1.65040057
   9.81780315  9.80134804  0.01764083
  12.11435457 12.15579708  4.98072481
   9.81784383  9.80135410  3.28373597
  12.20821817 12.23271694  8.25221970
   9.74239204  9.74522367  6.60299668
  12.11417475 12.15592399 11.52367341
   9.74243632  9.74514583  9.90156760
   0.96074604  3.91314597  1.65067989
   4.03114652  1.01333497  1.65078119
   1.39552805  1.53646683 13.12483529
   3.37582180  3.36316692  0.03004993
   0.96979965  3.96297065  4.97084563
   3.93334737  0.95497874  4.94652970
   1.39512233  1.53737732  3.38001677
   3.37594141  3.36324359  3.27144448
   0.95598464  3.94094135  8.25234227
   3.94241759  0.96658511  8.25235878
   1.49716161  1.46937324  6.61280743
   3.39116009  3.39367840  6.60420204
   0.96957392  3.96266060 11.53397792
   3.93347524  0.95507523 11.55794579
   1.49722260  1.46918868  9.89184554
   3.39094639  3.39374134  9.90061923
   0.97017254  8.82414683  1.65083219
   3.93153567  5.84104186  1.65071066
   1.49077122  6.37826630  0.00092045
   3.40030712  8.28309985  0.00113071
   0.96787573  8.83939868  4.94658355
   3.91901060  5.83074654  4.93861396
   1.49082721  6.37820289  3.30058647
   3.40037384  8.28299783  3.30040053
   0.95086529  8.82233528  8.25247356
   3.91933042  5.83962402  8.25234736
   1.47854173  6.38708327  6.60045509
   3.40150605  8.26663550  6.60496689
   0.96774029  8.83939385 11.55809411
   3.91900666  5.83078930 11.56612364
   1.47866019  6.38694416  9.90434560
   3.40149364  8.26671168  9.89980770
   1.64778291 14.22928047  1.65158717
   3.90942114 10.73990700  1.65074130
   1.46946055 11.31259472  0.03598617
   3.52064351 13.08328506 13.14667038
   0.95347984 13.67412210  4.91431809
   3.90183916 10.68823535  4.96506967
   1.46915066 11.31289582  3.26563043
   3.52123158 13.08272905  3.35806676
   0.93229385 13.69132744  8.25231005
   3.93445704 10.72424487  8.25235461
   1.49071216 11.25544239  6.60663314
   3.39665011 13.16553081  6.60180692
   0.95283461 13.67368035 11.59038188
   3.90193786 10.68845474 11.53963954
   1.49070934 11.25543933  9.89806468
   3.39653651 13.16560225  9.90293728
   5.85468560  3.92056790  1.65074509
   8.83664601  0.94364418  1.65051292
   6.39716278  1.48749558 13.19789526
   8.28005928  3.41360113  0.00120533
   5.82959370  3.92600654  4.95007218
   8.82240983  0.97208365  4.93690136
   6.39725965  1.48738777  3.30662962
   8.28012926  3.41348440  3.30016105
   5.82835178  3.94897229  8.25238921
   8.80259376  0.99188845  8.25211436
   6.37120014  1.49967645  6.60355936
   8.27197868  3.41153074  6.60276293
   5.82956314  3.92594336 11.55451836
   8.82257926  0.97218412 11.56772919
   6.37140262  1.49950311  9.90099968
   8.27205066  3.41146016  9.90176890
   5.84042653  8.82996825  1.65073838
   8.82548595  5.85239480  1.65071500
   6.36601620  6.36135159  0.01409536
   8.29614753  8.29712842 13.19698276
   5.83134436  8.80837892  4.94012472
   8.82006076  5.84089563  4.95426808
   6.36602956  6.36141667  3.28736852
   8.29619780  8.29712010  3.30759164
   5.83858675  8.80452338  8.25237187
   8.82053008  5.83281389  8.25229580
   6.36172748  6.36699909  6.59320510
   8.25932710  8.26489439  6.59576621
   5.83128549  8.80834789 11.56452991
   8.82004559  5.84089700 11.55030060
   6.36168273  6.36696561  9.91141458
   8.25933383  8.26485121  9.90887640
   5.85530075 13.69663543  1.65064610
   8.79587585 10.70341037  1.65068690
   6.37200590 11.25984966 13.18973117
   8.27895441 13.16590053  0.01326515
   5.87184953 13.72035932  4.96620013
   8.84237882 10.73904351  4.94641566
   6.37194642 11.25985482  3.31478690
   8.27884803 13.16592885  3.28819840
   5.80991336 13.68358146  8.25224352
   8.77278214 10.69111215  8.25232879
   6.37113334 11.24037334  6.58161247
   8.23607067 13.17969400  6.63220021
   5.87173058 13.72024837 11.53851892
   8.84247765 10.73911133 11.55808679
   6.37119946 11.24039246  9.92295885
   8.23566742 13.18001382  9.87221981
  10.70981193  3.93310323  1.65070373
  13.77180539  1.11250102  1.65077520
  11.25118458  1.49972992 13.20270590
  13.12174342  3.46073650 13.19494201
  10.72720662  3.91666489  4.95675104
  13.75685778  0.99193776  4.93163323
  11.25114009  1.49971775  3.30179620
  13.12180886  3.46066431  3.30966964
  10.72195205  3.91480218  8.25229585
  13.69916839  0.93944923  8.25226616
  11.26094352  1.47259459  6.59417995
  13.15629552  3.40319874  6.61243825
  10.72720322  3.91670635 11.54780333
  13.75718814  0.99237287 11.57281274
  11.26096812  1.47252337  9.91038677
  13.15622462  3.40326912  9.89209007
  10.71391904  8.77556675  1.65068451
  13.72389594  5.85141299  1.65079691
  11.26771852  6.37128510  0.00060704
  13.18350123  8.27185301 13.19343947
  10.73255015  8.82261031  4.95241069
  13.70826635  5.85038380  4.95089321
  11.26766740  6.37132226  3.30085649
  13.18348149  8.27183475  3.31121647
  10.68126421  8.77185351  8.25225189
  13.69651381  5.85166184  8.25240922
  11.26191505  6.36905043  6.59934582
  13.16144182  8.28666900  6.60592266
  10.73250937  8.82256417 11.55220981
  13.70831212  5.85043844 11.55370963
  11.26188496  6.36909542  9.90530724
  13.16129949  8.28684793  9.89879381
  10.75929384 13.69953535  1.65086931
  13.64170462 10.64151288  1.65077797
  11.31535936 11.26294473  0.06747942
  12.89404416 13.40809541 12.93417920
  10.56846341 13.60404332  5.01023257
  13.68750884 10.72688994  4.95208285
  11.31520856 11.26305408  3.23382771
  12.89614804 13.40645640  3.56995772
  10.69259351 13.70173056  8.25226867
  13.69554380 10.72795148  8.25232760
  11.23715907 11.20972055  6.65388376
  13.13532100 13.15654591  6.60245430
  10.56751730 13.60337497 11.49384353
  13.68767102 10.72734888 11.55280069
  11.23737688 11.20946692  9.85055364
  13.13514654 13.15666698  9.90201713
  14.27912716 13.21285465  1.64957122
 


--------------------------------------------------------------------------------------------------------


 k-point  1 :   0.2500 0.2500 0.2500  plane waves:  119170
 k-point  2 :  -0.2500 0.2500 0.2500  plane waves:  119170
 k-point  3 :   0.2500-0.2500 0.2500  plane waves:  119170
 k-point  4 :  -0.2500-0.2500 0.2500  plane waves:  119170

 maximum and minimum number of plane-waves per node :      9968     9893

 maximum number of plane-waves:    119170
 maximum index in each direction: 
   IXMAX=   31   IYMAX=   31   IZMAX=   28
   IXMIN=  -31   IYMIN=  -31   IZMIN=  -28


 parallel 3D FFT for wavefunctions:
    minimum data exchange during FFTs selected (reduces bandwidth)
 parallel 3D FFT for charge:
    minimum data exchange during FFTs selected (reduces bandwidth)


 total amount of memory used by VASP MPI-rank0   501409. kBytes
=======================================================================

   base      :      30000. kBytes
   nonl-proj :      51625. kBytes
   fftplans  :      22373. kBytes
   grid      :      17829. kBytes
   one-center:        590. kBytes
   wavefun   :     378992. kBytes
 
     INWAV:  cpu time   75.1875: real time   75.2337
 Broyden mixing: mesh for mixing (old mesh)
   NGX = 63   NGY = 63   NGZ = 57
  (NGX  =192   NGY  =192   NGZ  =180)
  gives a total of 226233 points

 initial charge density was supplied:
 number of electron    1946.0000035 magnetization       0.0000003
 keeping initial charge density in first step


--------------------------------------------------------------------------------------------------------


 Maximum index for augmentation-charges         2066 (set IRDMAX)


--------------------------------------------------------------------------------------------------------


 First call to EWALD:  gamma=   0.125
 Maximum number of real-space cells 3x 3x 3
 Maximum number of reciprocal cells 3x 3x 3

    FEWALD:  cpu time    0.1400: real time    0.1400


--------------------------------------- Iteration      1(   1)  ---------------------------------------


    POTLOK:  cpu time    0.2219: real time    0.2249
    SETDIJ:  cpu time    4.8985: real time    4.8987
atom =   1  type =  1  l = 2
 
 onsite density matrix
 
spin component  1
 
  0.9679  0.0000  0.0172 -0.0000 -0.0010
  0.0000  0.9612  0.0000  0.0156 -0.0000
  0.0172  0.0000  0.9592 -0.0000  0.0004
 -0.0000  0.0156 -0.0000  0.9643 -0.0000
 -0.0010 -0.0000  0.0004 -0.0000  0.9490
 
spin component  2
 
  0.0413  0.0000  0.0230 -0.0000 -0.0013
  0.0000  0.0326  0.0000  0.0197 -0.0000
  0.0230  0.0000  0.0324 -0.0000  0.0001
 -0.0000  0.0197 -0.0000  0.0374 -0.0000
 -0.0013 -0.0000  0.0001 -0.0000  0.0142
 
 occupancies and eigenvectors
 
  o =  0.0128  v =  0.0000  0.0000  0.0000  0.0000  0.0000  0.5415  0.0005 -0.6389 -0.0005  0.5464      0.0000  0.0000  0.0000  0.0000  0.0000  0.0000  0.0000  0.0000  0.0000  0.0000
  o =  0.0147  v =  0.0000  0.0000  0.0000  0.0000  0.0000  0.3352  0.0061 -0.4319 -0.0057 -0.8373      0.0000  0.0000  0.0000  0.0000  0.0000  0.0000  0.0000  0.0000  0.0000  0.0000
  o =  0.0151  v =  0.0000  0.0000  0.0000  0.0000  0.0000 -0.0033  0.7480  0.0040 -0.6636  0.0066      0.0000  0.0000  0.0000  0.0000  0.0000  0.0000  0.0000  0.0000  0.0000  0.0000
  o =  0.0549  v =  0.0000  0.0000  0.0000  0.0000  0.0000  0.0004  0.6636  0.0001  0.7481 -0.0002      0.0000  0.0000  0.0000  0.0000  0.0000  0.0000  0.0000  0.0000  0.0000  0.0000
  o =  0.0603  v =  0.0000  0.0000  0.0000  0.0000  0.0000 -0.7710  0.0001 -0.6366  0.0004  0.0198      0.0000  0.0000  0.0000  0.0000  0.0000  0.0000  0.0000  0.0000  0.0000  0.0000
  o =  0.9456  v = -0.5941 -0.0003  0.7568  0.0004 -0.2726  0.0000  0.0000  0.0000  0.0000  0.0000      0.0000  0.0000  0.0000  0.0000  0.0000  0.0000  0.0000  0.0000  0.0000  0.0000
  o =  0.9471  v = -0.0003  0.7420  0.0002 -0.6704 -0.0007  0.0000  0.0000  0.0000  0.0000  0.0000      0.0000  0.0000  0.0000  0.0000  0.0000  0.0000  0.0000  0.0000  0.0000  0.0000
  o =  0.9493  v =  0.1537 -0.0005 -0.2258  0.0003 -0.9620  0.0000  0.0000  0.0000  0.0000  0.0000      0.0000  0.0000  0.0000  0.0000  0.0000  0.0000  0.0000  0.0000  0.0000  0.0000
  o =  0.9784  v = -0.0002 -0.6704 -0.0000 -0.7420  0.0002  0.0000  0.0000  0.0000  0.0000  0.0000      0.0000  0.0000  0.0000  0.0000  0.0000  0.0000  0.0000  0.0000  0.0000  0.0000
  o =  0.9813  v = -0.7895  0.0000 -0.6134  0.0002  0.0178  0.0000  0.0000  0.0000  0.0000  0.0000      0.0000  0.0000  0.0000  0.0000  0.0000  0.0000  0.0000  0.0000  0.0000  0.0000
atom =   2  type =  1  l = 2
 
 onsite density matrix
 
spin component  1
 
  0.0359 -0.0070 -0.0170  0.0037  0.0006
 -0.0070  0.0462 -0.0041 -0.0068  0.0070
 -0.0170 -0.0041  0.0275 -0.0060 -0.0056
  0.0037 -0.0068 -0.0060  0.0358  0.0090
  0.0006  0.0070 -0.0056  0.0090  0.0198
 
spin component  2
 
  0.9612 -0.0033 -0.0145  0.0044  0.0003
 -0.0033  0.9601  0.0011 -0.0098 -0.0004
 -0.0145  0.0011  0.9509 -0.0024 -0.0034
  0.0044 -0.0098 -0.0024  0.9620  0.0060
  0.0003 -0.0004 -0.0034  0.0060  0.9483
 
 occupancies and eigenvectors
 
  o =  0.0116  v =  0.5502  0.1329  0.7473  0.0105  0.3479  0.0000  0.0000  0.0000  0.0000  0.0000      0.0000  0.0000  0.0000  0.0000  0.0000  0.0000  0.0000  0.0000  0.0000  0.0000
  o =  0.0133  v = -0.1822 -0.3203 -0.1769 -0.4326  0.8036  0.0000  0.0000  0.0000  0.0000  0.0000      0.0000  0.0000  0.0000  0.0000  0.0000  0.0000  0.0000  0.0000  0.0000  0.0000
  o =  0.0361  v =  0.4858 -0.0151 -0.1791 -0.7785 -0.3544  0.0000  0.0000  0.0000  0.0000  0.0000      0.0000  0.0000  0.0000  0.0000  0.0000  0.0000  0.0000  0.0000  0.0000  0.0000
  o =  0.0484  v =  0.2485  0.7775 -0.4709  0.1034  0.3183  0.0000  0.0000  0.0000  0.0000  0.0000      0.0000  0.0000  0.0000  0.0000  0.0000  0.0000  0.0000  0.0000  0.0000  0.0000
  o =  0.0558  v = -0.6052  0.5244  0.3955 -0.4427 -0.0794  0.0000  0.0000  0.0000  0.0000  0.0000      0.0000  0.0000  0.0000  0.0000  0.0000  0.0000  0.0000  0.0000  0.0000  0.0000
  o =  0.9396  v =  0.0000  0.0000  0.0000  0.0000  0.0000 -0.5283  0.0075 -0.7609  0.1194 -0.3572      0.0000  0.0000  0.0000  0.0000  0.0000  0.0000  0.0000  0.0000  0.0000  0.0000
  o =  0.9459  v =  0.0000  0.0000  0.0000  0.0000  0.0000 -0.2158 -0.3273 -0.2761 -0.4617  0.7463      0.0000  0.0000  0.0000  0.0000  0.0000  0.0000  0.0000  0.0000  0.0000  0.0000
  o =  0.9536  v =  0.0000  0.0000  0.0000  0.0000  0.0000 -0.1354  0.6880 -0.0730  0.4732  0.5283      0.0000  0.0000  0.0000  0.0000  0.0000  0.0000  0.0000  0.0000  0.0000  0.0000
  o =  0.9655  v =  0.0000  0.0000  0.0000  0.0000  0.0000  0.5731  0.4802 -0.4287 -0.4989 -0.0909      0.0000  0.0000  0.0000  0.0000  0.0000  0.0000  0.0000  0.0000  0.0000  0.0000
  o =  0.9780  v =  0.0000  0.0000  0.0000  0.0000  0.0000 -0.5723  0.4346  0.3945 -0.5476 -0.1677      0.0000  0.0000  0.0000  0.0000  0.0000  0.0000  0.0000  0.0000  0.0000  0.0000
atom =   3  type =  1  l = 2
 
 onsite density matrix
 
spin component  1
 
  0.9701  0.0006  0.0187  0.0014  0.0005
  0.0006  0.9643 -0.0006  0.0177  0.0002
  0.0187 -0.0006  0.9584 -0.0001  0.0002
  0.0014  0.0177 -0.0001  0.9655  0.0007
  0.0005  0.0002  0.0002  0.0007  0.9476
 
spin component  2
 
  0.0454  0.0011  0.0246  0.0021  0.0007
  0.0011  0.0380 -0.0003  0.0229  0.0003
  0.0246 -0.0003  0.0320  0.0006  0.0005
  0.0021  0.0229  0.0006  0.0399  0.0011
  0.0007  0.0003  0.0005  0.0011  0.0138
 
 occupancies and eigenvectors
 
  o =  0.0132  v =  0.0000  0.0000  0.0000  0.0000  0.0000  0.6061 -0.0469 -0.7900  0.0131 -0.0785      0.0000  0.0000  0.0000  0.0000  0.0000  0.0000  0.0000  0.0000  0.0000  0.0000
  o =  0.0137  v =  0.0000  0.0000  0.0000  0.0000  0.0000  0.0423  0.1445 -0.0754 -0.1688  0.9712      0.0000  0.0000  0.0000  0.0000  0.0000  0.0000  0.0000  0.0000  0.0000  0.0000
  o =  0.0162  v =  0.0000  0.0000  0.0000  0.0000  0.0000  0.0319  0.7054 -0.0063 -0.6718 -0.2236      0.0000  0.0000  0.0000  0.0000  0.0000  0.0000  0.0000  0.0000  0.0000  0.0000
  o =  0.0608  v =  0.0000  0.0000  0.0000  0.0000  0.0000  0.3755 -0.6100  0.3150 -0.6225 -0.0094      0.0000  0.0000  0.0000  0.0000  0.0000  0.0000  0.0000  0.0000  0.0000  0.0000
  o =  0.0654  v =  0.0000  0.0000  0.0000  0.0000  0.0000 -0.6991 -0.3274 -0.5206 -0.3639 -0.0245      0.0000  0.0000  0.0000  0.0000  0.0000  0.0000  0.0000  0.0000  0.0000  0.0000
  o =  0.9447  v = -0.5917  0.0234  0.8043  0.0213  0.0449  0.0000  0.0000  0.0000  0.0000  0.0000      0.0000  0.0000  0.0000  0.0000  0.0000  0.0000  0.0000  0.0000  0.0000  0.0000
  o =  0.9470  v =  0.0203  0.6169 -0.0147 -0.6105  0.4961  0.0000  0.0000  0.0000  0.0000  0.0000      0.0000  0.0000  0.0000  0.0000  0.0000  0.0000  0.0000  0.0000  0.0000  0.0000
  o =  0.9478  v =  0.0046 -0.3692 -0.0431  0.3325  0.8667  0.0000  0.0000  0.0000  0.0000  0.0000      0.0000  0.0000  0.0000  0.0000  0.0000  0.0000  0.0000  0.0000  0.0000  0.0000
  o =  0.9821  v =  0.3688 -0.6160  0.3063 -0.6251 -0.0093  0.0000  0.0000  0.0000  0.0000  0.0000      0.0000  0.0000  0.0000  0.0000  0.0000  0.0000  0.0000  0.0000  0.0000  0.0000
  o =  0.9844  v = -0.7166 -0.3212 -0.5072 -0.3544 -0.0223  0.0000  0.0000  0.0000  0.0000  0.0000      0.0000  0.0000  0.0000  0.0000  0.0000  0.0000  0.0000  0.0000  0.0000  0.0000
atom =   4  type =  1  l = 2
 
 onsite density matrix
 
spin component  1
 
  0.0360  0.0070 -0.0170 -0.0036  0.0005
  0.0070  0.0461  0.0041 -0.0068 -0.0069
 -0.0170  0.0041  0.0275  0.0060 -0.0056
 -0.0036 -0.0068  0.0060  0.0359 -0.0090
  0.0005 -0.0069 -0.0056 -0.0090  0.0197
 
spin component  2
 
  0.9613  0.0033 -0.0145 -0.0043  0.0003
  0.0033  0.9601 -0.0011 -0.0098  0.0004
 -0.0145 -0.0011  0.9509  0.0024 -0.0034
 -0.0043 -0.0098  0.0024  0.9621 -0.0060
  0.0003  0.0004 -0.0034 -0.0060  0.9483
 
 occupancies and eigenvectors
 
  o =  0.0116  v =  0.5498 -0.1323  0.7467 -0.0093  0.3502  0.0000  0.0000  0.0000  0.0000  0.0000      0.0000  0.0000  0.0000  0.0000  0.0000  0.0000  0.0000  0.0000  0.0000  0.0000
  o =  0.0133  v = -0.1829  0.3203 -0.1796  0.4328  0.8027  0.0000  0.0000  0.0000  0.0000  0.0000      0.0000  0.0000  0.0000  0.0000  0.0000  0.0000  0.0000  0.0000  0.0000  0.0000
  o =  0.0362  v =  0.4853  0.0202 -0.1768  0.7783 -0.3566  0.0000  0.0000  0.0000  0.0000  0.0000      0.0000  0.0000  0.0000  0.0000  0.0000  0.0000  0.0000  0.0000  0.0000  0.0000
  o =  0.0483  v =  0.2464 -0.7819 -0.4688 -0.0956  0.3148  0.0000  0.0000  0.0000  0.0000  0.0000      0.0000  0.0000  0.0000  0.0000  0.0000  0.0000  0.0000  0.0000  0.0000  0.0000
  o =  0.0558  v = -0.6067 -0.5179  0.3990  0.4447 -0.0821  0.0000  0.0000  0.0000  0.0000  0.0000      0.0000  0.0000  0.0000  0.0000  0.0000  0.0000  0.0000  0.0000  0.0000  0.0000
  o =  0.9396  v =  0.0000  0.0000  0.0000  0.0000  0.0000  0.5283  0.0069  0.7608  0.1186  0.3577      0.0000  0.0000  0.0000  0.0000  0.0000  0.0000  0.0000  0.0000  0.0000  0.0000
  o =  0.9459  v =  0.0000  0.0000  0.0000  0.0000  0.0000  0.2151 -0.3271  0.2765 -0.4616 -0.7465      0.0000  0.0000  0.0000  0.0000  0.0000  0.0000  0.0000  0.0000  0.0000  0.0000
  o =  0.9536  v =  0.0000  0.0000  0.0000  0.0000  0.0000 -0.1342 -0.6896 -0.0750 -0.4718  0.5275      0.0000  0.0000  0.0000  0.0000  0.0000  0.0000  0.0000  0.0000  0.0000  0.0000
  o =  0.9656  v =  0.0000  0.0000  0.0000  0.0000  0.0000  0.5737 -0.4782 -0.4283  0.5000 -0.0930      0.0000  0.0000  0.0000  0.0000  0.0000  0.0000  0.0000  0.0000  0.0000  0.0000
  o =  0.9780  v =  0.0000  0.0000  0.0000  0.0000  0.0000 -0.5722 -0.4344  0.3945  0.5479 -0.1673      0.0000  0.0000  0.0000  0.0000  0.0000  0.0000  0.0000  0.0000  0.0000  0.0000
atom =   5  type =  1  l = 2
 
 onsite density matrix
 
spin component  1
 
  0.9702 -0.0000  0.0189 -0.0000 -0.0002
 -0.0000  0.9651  0.0000  0.0175 -0.0000
  0.0189  0.0000  0.9585  0.0000 -0.0001
 -0.0000  0.0175  0.0000  0.9645  0.0000
 -0.0002 -0.0000 -0.0001  0.0000  0.9476
 
spin component  2
 
  0.0458 -0.0000  0.0251 -0.0000 -0.0002
 -0.0000  0.0388  0.0000  0.0224  0.0000
  0.0251  0.0000  0.0321  0.0000 -0.0002
 -0.0000  0.0224  0.0000  0.0380 -0.0000
 -0.0002  0.0000 -0.0002 -0.0000  0.0138
 
 occupancies and eigenvectors
 
  o =  0.0130  v =  0.0000  0.0000  0.0000  0.0000  0.0000 -0.6074 -0.0000  0.7944 -0.0000  0.0064      0.0000  0.0000  0.0000  0.0000  0.0000  0.0000  0.0000  0.0000  0.0000  0.0000
  o =  0.0138  v =  0.0000  0.0000  0.0000  0.0000  0.0000 -0.0086  0.0000  0.0015 -0.0000 -1.0000      0.0000  0.0000  0.0000  0.0000  0.0000  0.0000  0.0000  0.0000  0.0000  0.0000
  o =  0.0160  v =  0.0000  0.0000  0.0000  0.0000  0.0000  0.0000  0.7007 -0.0000 -0.7135  0.0000      0.0000  0.0000  0.0000  0.0000  0.0000  0.0000  0.0000  0.0000  0.0000  0.0000
  o =  0.0608  v =  0.0000  0.0000  0.0000  0.0000  0.0000  0.0001 -0.7135  0.0000 -0.7007 -0.0000      0.0000  0.0000  0.0000  0.0000  0.0000  0.0000  0.0000  0.0000  0.0000  0.0000
  o =  0.0649  v =  0.0000  0.0000  0.0000  0.0000  0.0000 -0.7944 -0.0001 -0.6074 -0.0001  0.0060      0.0000  0.0000  0.0000  0.0000  0.0000  0.0000  0.0000  0.0000  0.0000  0.0000
  o =  0.9446  v =  0.5932  0.0000 -0.8050  0.0001  0.0114  0.0000  0.0000  0.0000  0.0000  0.0000      0.0000  0.0000  0.0000  0.0000  0.0000  0.0000  0.0000  0.0000  0.0000  0.0000
  o =  0.9473  v = -0.0000 -0.7008  0.0000  0.7134 -0.0001  0.0000  0.0000  0.0000  0.0000  0.0000      0.0000  0.0000  0.0000  0.0000  0.0000  0.0000  0.0000  0.0000  0.0000  0.0000
  o =  0.9476  v = -0.0019 -0.0001  0.0127  0.0001  0.9999  0.0000  0.0000  0.0000  0.0000  0.0000      0.0000  0.0000  0.0000  0.0000  0.0000  0.0000  0.0000  0.0000  0.0000  0.0000
  o =  0.9823  v =  0.0001 -0.7134 -0.0000 -0.7008 -0.0000  0.0000  0.0000  0.0000  0.0000  0.0000      0.0000  0.0000  0.0000  0.0000  0.0000  0.0000  0.0000  0.0000  0.0000  0.0000
  o =  0.9842  v = -0.8050 -0.0001 -0.5932 -0.0000  0.0060  0.0000  0.0000  0.0000  0.0000  0.0000      0.0000  0.0000  0.0000  0.0000  0.0000  0.0000  0.0000  0.0000  0.0000  0.0000
atom =   6  type =  1  l = 2
 
 onsite density matrix
 
spin component  1
 
  0.0445  0.0010 -0.0247 -0.0005  0.0007
  0.0010  0.0380 -0.0010 -0.0214  0.0008
 -0.0247 -0.0010  0.0315  0.0004 -0.0005
 -0.0005 -0.0214  0.0004  0.0362 -0.0002
  0.0007  0.0008 -0.0005 -0.0002  0.0135
 
spin component  2
 
  0.9690  0.0007 -0.0189 -0.0002  0.0005
  0.0007  0.9647 -0.0003 -0.0165  0.0005
 -0.0189 -0.0003  0.9584  0.0000 -0.0003
 -0.0002 -0.0165  0.0000  0.9635 -0.0001
  0.0005  0.0005 -0.0003 -0.0001  0.9475
 
 occupancies and eigenvectors
 
  o =  0.0125  v = -0.6091 -0.0358 -0.7907 -0.0314  0.0394  0.0000  0.0000  0.0000  0.0000  0.0000      0.0000  0.0000  0.0000  0.0000  0.0000  0.0000  0.0000  0.0000  0.0000  0.0000
  o =  0.0134  v =  0.0172 -0.1389  0.0468 -0.1241  0.9812  0.0000  0.0000  0.0000  0.0000  0.0000      0.0000  0.0000  0.0000  0.0000  0.0000  0.0000  0.0000  0.0000  0.0000  0.0000
  o =  0.0158  v = -0.0344  0.6771 -0.0231  0.7104  0.1874  0.0000  0.0000  0.0000  0.0000  0.0000      0.0000  0.0000  0.0000  0.0000  0.0000  0.0000  0.0000  0.0000  0.0000  0.0000
  o =  0.0581  v =  0.2190 -0.6923 -0.1643  0.6676 -0.0096  0.0000  0.0000  0.0000  0.0000  0.0000      0.0000  0.0000  0.0000  0.0000  0.0000  0.0000  0.0000  0.0000  0.0000  0.0000
  o =  0.0640  v = -0.7613 -0.2042  0.5874  0.1822 -0.0205  0.0000  0.0000  0.0000  0.0000  0.0000      0.0000  0.0000  0.0000  0.0000  0.0000  0.0000  0.0000  0.0000  0.0000  0.0000
  o =  0.9440  v =  0.0000  0.0000  0.0000  0.0000  0.0000  0.6048 -0.0089  0.7960 -0.0034 -0.0218      0.0000  0.0000  0.0000  0.0000  0.0000  0.0000  0.0000  0.0000  0.0000  0.0000
  o =  0.9473  v =  0.0000  0.0000  0.0000  0.0000  0.0000  0.0018 -0.3875  0.0156 -0.3858  0.8371      0.0000  0.0000  0.0000  0.0000  0.0000  0.0000  0.0000  0.0000  0.0000  0.0000
  o =  0.9478  v =  0.0000  0.0000  0.0000  0.0000  0.0000  0.0028 -0.5760 -0.0262 -0.6076 -0.5462      0.0000  0.0000  0.0000  0.0000  0.0000  0.0000  0.0000  0.0000  0.0000  0.0000
  o =  0.9805  v =  0.0000  0.0000  0.0000  0.0000  0.0000  0.1734 -0.7003 -0.1369  0.6788 -0.0092      0.0000  0.0000  0.0000  0.0000  0.0000  0.0000  0.0000  0.0000  0.0000  0.0000
  o =  0.9835  v =  0.0000  0.0000  0.0000  0.0000  0.0000 -0.7773 -0.1661  0.5888  0.1456 -0.0191      0.0000  0.0000  0.0000  0.0000  0.0000  0.0000  0.0000  0.0000  0.0000  0.0000
atom =   7  type =  1  l = 2
 
 onsite density matrix
 
spin component  1
 
  0.9701 -0.0007  0.0187 -0.0014  0.0005
 -0.0007  0.9643  0.0006  0.0177 -0.0002
  0.0187  0.0006  0.9584  0.0001  0.0002
 -0.0014  0.0177  0.0001  0.9655 -0.0007
  0.0005 -0.0002  0.0002 -0.0007  0.9476
 
spin component  2
 
  0.0454 -0.0011  0.0246 -0.0021  0.0007
 -0.0011  0.0380  0.0003  0.0229 -0.0003
  0.0246  0.0003  0.0320 -0.0005  0.0005
 -0.0021  0.0229 -0.0005  0.0399 -0.0011
  0.0007 -0.0003  0.0005 -0.0011  0.0138
 
 occupancies and eigenvectors
 
  o =  0.0132  v =  0.0000  0.0000  0.0000  0.0000  0.0000  0.6062  0.0466 -0.7901 -0.0127 -0.0773      0.0000  0.0000  0.0000  0.0000  0.0000  0.0000  0.0000  0.0000  0.0000  0.0000
  o =  0.0137  v =  0.0000  0.0000  0.0000  0.0000  0.0000  0.0417 -0.1445 -0.0743  0.1686  0.9713      0.0000  0.0000  0.0000  0.0000  0.0000  0.0000  0.0000  0.0000  0.0000  0.0000
  o =  0.0162  v =  0.0000  0.0000  0.0000  0.0000  0.0000  0.0317 -0.7053 -0.0063  0.6721 -0.2234      0.0000  0.0000  0.0000  0.0000  0.0000  0.0000  0.0000  0.0000  0.0000  0.0000
  o =  0.0608  v =  0.0000  0.0000  0.0000  0.0000  0.0000  0.3746  0.6105  0.3143  0.6229 -0.0094      0.0000  0.0000  0.0000  0.0000  0.0000  0.0000  0.0000  0.0000  0.0000  0.0000
  o =  0.0653  v =  0.0000  0.0000  0.0000  0.0000  0.0000 -0.6996  0.3268 -0.5209  0.3630 -0.0242      0.0000  0.0000  0.0000  0.0000  0.0000  0.0000  0.0000  0.0000  0.0000  0.0000
  o =  0.9447  v =  0.5917  0.0235 -0.8043  0.0212 -0.0448  0.0000  0.0000  0.0000  0.0000  0.0000      0.0000  0.0000  0.0000  0.0000  0.0000  0.0000  0.0000  0.0000  0.0000  0.0000
  o =  0.9470  v = -0.0202  0.6170  0.0146 -0.6108 -0.4956  0.0000  0.0000  0.0000  0.0000  0.0000      0.0000  0.0000  0.0000  0.0000  0.0000  0.0000  0.0000  0.0000  0.0000  0.0000
  o =  0.9478  v =  0.0047  0.3686 -0.0428 -0.3323  0.8671  0.0000  0.0000  0.0000  0.0000  0.0000      0.0000  0.0000  0.0000  0.0000  0.0000  0.0000  0.0000  0.0000  0.0000  0.0000
  o =  0.9821  v =  0.3679  0.6165  0.3057  0.6254 -0.0093  0.0000  0.0000  0.0000  0.0000  0.0000      0.0000  0.0000  0.0000  0.0000  0.0000  0.0000  0.0000  0.0000  0.0000  0.0000
  o =  0.9844  v = -0.7170  0.3207 -0.5076  0.3534 -0.0220  0.0000  0.0000  0.0000  0.0000  0.0000      0.0000  0.0000  0.0000  0.0000  0.0000  0.0000  0.0000  0.0000  0.0000  0.0000
atom =   8  type =  1  l = 2
 
 onsite density matrix
 
spin component  1
 
  0.0445 -0.0010 -0.0247  0.0006  0.0007
 -0.0010  0.0380  0.0010 -0.0214 -0.0008
 -0.0247  0.0010  0.0315 -0.0004 -0.0005
  0.0006 -0.0214 -0.0004  0.0362  0.0002
  0.0007 -0.0008 -0.0005  0.0002  0.0135
 
spin component  2
 
  0.9690 -0.0007 -0.0189  0.0002  0.0005
 -0.0007  0.9647  0.0003 -0.0165 -0.0005
 -0.0189  0.0003  0.9584 -0.0000 -0.0003
  0.0002 -0.0165 -0.0000  0.9635  0.0001
  0.0005 -0.0005 -0.0003  0.0001  0.9475
 
 occupancies and eigenvectors
 
  o =  0.0125  v = -0.6091  0.0359 -0.7907  0.0316  0.0398  0.0000  0.0000  0.0000  0.0000  0.0000      0.0000  0.0000  0.0000  0.0000  0.0000  0.0000  0.0000  0.0000  0.0000  0.0000
  o =  0.0134  v =  0.0173  0.1391  0.0473  0.1244  0.9811  0.0000  0.0000  0.0000  0.0000  0.0000      0.0000  0.0000  0.0000  0.0000  0.0000  0.0000  0.0000  0.0000  0.0000  0.0000
  o =  0.0158  v = -0.0344 -0.6768 -0.0232 -0.7106  0.1878  0.0000  0.0000  0.0000  0.0000  0.0000      0.0000  0.0000  0.0000  0.0000  0.0000  0.0000  0.0000  0.0000  0.0000  0.0000
  o =  0.0581  v =  0.2192  0.6924 -0.1645 -0.6673 -0.0095  0.0000  0.0000  0.0000  0.0000  0.0000      0.0000  0.0000  0.0000  0.0000  0.0000  0.0000  0.0000  0.0000  0.0000  0.0000
  o =  0.0640  v = -0.7612  0.2044  0.5874 -0.1825 -0.0207  0.0000  0.0000  0.0000  0.0000  0.0000      0.0000  0.0000  0.0000  0.0000  0.0000  0.0000  0.0000  0.0000  0.0000  0.0000
  o =  0.9440  v =  0.0000  0.0000  0.0000  0.0000  0.0000 -0.6048 -0.0089 -0.7960 -0.0033  0.0222      0.0000  0.0000  0.0000  0.0000  0.0000  0.0000  0.0000  0.0000  0.0000  0.0000
  o =  0.9473  v =  0.0000  0.0000  0.0000  0.0000  0.0000  0.0018  0.3882  0.0159  0.3868  0.8363      0.0000  0.0000  0.0000  0.0000  0.0000  0.0000  0.0000  0.0000  0.0000  0.0000
  o =  0.9478  v =  0.0000  0.0000  0.0000  0.0000  0.0000 -0.0028 -0.5753  0.0263 -0.6072  0.5474      0.0000  0.0000  0.0000  0.0000  0.0000  0.0000  0.0000  0.0000  0.0000  0.0000
  o =  0.9805  v =  0.0000  0.0000  0.0000  0.0000  0.0000  0.1736  0.7004 -0.1372 -0.6785 -0.0091      0.0000  0.0000  0.0000  0.0000  0.0000  0.0000  0.0000  0.0000  0.0000  0.0000
  o =  0.9835  v =  0.0000  0.0000  0.0000  0.0000  0.0000 -0.7772  0.1664  0.5887 -0.1458 -0.0193      0.0000  0.0000  0.0000  0.0000  0.0000  0.0000  0.0000  0.0000  0.0000  0.0000
atom =   9  type =  1  l = 2
 
 onsite density matrix
 
spin component  1
 
  0.9702 -0.0000  0.0193  0.0000  0.0001
 -0.0000  0.9646 -0.0000  0.0172  0.0000
  0.0193 -0.0000  0.9587  0.0000  0.0001
  0.0000  0.0172  0.0000  0.9646  0.0000
  0.0001  0.0000  0.0001  0.0000  0.9478
 
spin component  2
 
  0.0463 -0.0000  0.0257  0.0000  0.0002
 -0.0000  0.0378 -0.0000  0.0218  0.0000
  0.0257 -0.0000  0.0323  0.0000  0.0002
  0.0000  0.0218  0.0000  0.0379  0.0000
  0.0002  0.0000  0.0002  0.0000  0.0140
 
 occupancies and eigenvectors
 
  o =  0.0127  v =  0.0000  0.0000  0.0000  0.0000  0.0000  0.6066  0.0000 -0.7950  0.0000 -0.0008      0.0000  0.0000  0.0000  0.0000  0.0000  0.0000  0.0000  0.0000  0.0000  0.0000
  o =  0.0140  v =  0.0000  0.0000  0.0000  0.0000  0.0000 -0.0034 -0.0000 -0.0035 -0.0000  1.0000      0.0000  0.0000  0.0000  0.0000  0.0000  0.0000  0.0000  0.0000  0.0000  0.0000
  o =  0.0161  v =  0.0000  0.0000  0.0000  0.0000  0.0000  0.0000  0.7079  0.0000 -0.7064  0.0000      0.0000  0.0000  0.0000  0.0000  0.0000  0.0000  0.0000  0.0000  0.0000  0.0000
  o =  0.0597  v =  0.0000  0.0000  0.0000  0.0000  0.0000  0.0000  0.7064  0.0000  0.7079  0.0000      0.0000  0.0000  0.0000  0.0000  0.0000  0.0000  0.0000  0.0000  0.0000  0.0000
  o =  0.0659  v =  0.0000  0.0000  0.0000  0.0000  0.0000 -0.7950  0.0000 -0.6066 -0.0000 -0.0048      0.0000  0.0000  0.0000  0.0000  0.0000  0.0000  0.0000  0.0000  0.0000  0.0000
  o =  0.9443  v =  0.5974  0.0000 -0.8019 -0.0000  0.0059  0.0000  0.0000  0.0000  0.0000  0.0000      0.0000  0.0000  0.0000  0.0000  0.0000  0.0000  0.0000  0.0000  0.0000  0.0000
  o =  0.9474  v =  0.0000  0.7077  0.0001 -0.7065 -0.0001  0.0000  0.0000  0.0000  0.0000  0.0000      0.0000  0.0000  0.0000  0.0000  0.0000  0.0000  0.0000  0.0000  0.0000  0.0000
  o =  0.9478  v = -0.0077  0.0001  0.0016 -0.0001  1.0000  0.0000  0.0000  0.0000  0.0000  0.0000      0.0000  0.0000  0.0000  0.0000  0.0000  0.0000  0.0000  0.0000  0.0000  0.0000
  o =  0.9818  v = -0.0000  0.7065  0.0000  0.7077  0.0000  0.0000  0.0000  0.0000  0.0000  0.0000      0.0000  0.0000  0.0000  0.0000  0.0000  0.0000  0.0000  0.0000  0.0000  0.0000
  o =  0.9846  v = -0.8019  0.0000 -0.5974 -0.0000 -0.0053  0.0000  0.0000  0.0000  0.0000  0.0000      0.0000  0.0000  0.0000  0.0000  0.0000  0.0000  0.0000  0.0000  0.0000  0.0000
atom =  10  type =  1  l = 2
 
 onsite density matrix
 
[...]
    1        0.161   6.142   4.941  11.244
    2        0.171   6.142   4.930  11.243
    3        0.168   6.153   4.956  11.276
    4        0.171   6.142   4.930  11.243
    5        0.167   6.152   4.955  11.275
    6        0.164   6.147   4.948  11.260
    7        0.168   6.153   4.956  11.276
    8        0.164   6.147   4.948  11.260
    9        0.167   6.152   4.955  11.274
   10        0.167   6.151   4.954  11.271
   11        0.167   6.151   4.954  11.271
   12        0.167   6.151   4.954  11.271
   13        0.167   6.152   4.956  11.275
   14        0.168   6.152   4.956  11.276
   15        0.167   6.151   4.954  11.271
   16        0.168   6.152   4.956  11.276
   17        0.167   6.148   4.945  11.259
   18        0.167   6.150   4.953  11.270
   19        0.168   6.153   4.956  11.277
   20        0.167   6.150   4.953  11.270
   21        0.167   6.151   4.954  11.271
   22        0.167   6.151   4.954  11.273
   23        0.168   6.153   4.956  11.277
   24        0.167   6.151   4.954  11.273
   25        0.166   6.150   4.953  11.269
   26        0.167   6.152   4.955  11.274
   27        0.167   6.152   4.955  11.274
   28        0.167   6.152   4.955  11.274
   29        0.168   6.153   4.957  11.277
   30        0.167   6.151   4.955  11.273
   31        0.167   6.152   4.955  11.274
   32        0.167   6.151   4.955  11.273
   33        0.165   6.148   4.950  11.264
   34        0.165   6.149   4.951  11.265
   35        0.166   6.150   4.953  11.270
   36        0.165   6.149   4.951  11.265
   37        0.166   6.150   4.953  11.270
   38        0.167   6.151   4.954  11.272
   39        0.166   6.150   4.953  11.270
   40        0.167   6.151   4.954  11.272
   41        0.167   6.152   4.956  11.275
   42        0.166   6.150   4.953  11.270
   43        0.166   6.151   4.954  11.271
   44        0.166   6.150   4.953  11.270
   45        0.168   6.153   4.957  11.277
   46        0.167   6.152   4.955  11.274
   47        0.166   6.151   4.954  11.271
   48        0.167   6.152   4.955  11.274
   49        0.168   6.152   4.956  11.277
   50        0.165   6.149   4.951  11.265
   51        0.167   6.150   4.953  11.270
   52        0.165   6.149   4.951  11.265
   53        0.167   6.151   4.954  11.271
   54        0.169   6.154   4.958  11.280
   55        0.167   6.150   4.953  11.270
   56        0.169   6.154   4.958  11.280
   57        0.166   6.151   4.954  11.271
   58        0.167   6.151   4.954  11.271
   59        0.167   6.152   4.955  11.274
   60        0.167   6.151   4.954  11.271
   61        0.167   6.152   4.956  11.275
   62        0.167   6.151   4.954  11.273
   63        0.167   6.152   4.955  11.274
   64        0.167   6.151   4.954  11.273
   65        0.172   6.141   4.927  11.240
   66        0.166   6.149   4.951  11.265
   67        0.172   6.158   4.962  11.291
   68        0.166   6.149   4.951  11.265
   69        0.168   6.154   4.959  11.281
   70        0.168   6.152   4.956  11.276
   71        0.172   6.158   4.962  11.291
   72        0.168   6.152   4.956  11.276
   73        1.726   4.365   0.000   6.090
   74        1.726   4.367   0.000   6.093
   75        1.727   4.367   0.000   6.094
   76        1.726   4.362   0.000   6.087
   77        1.726   4.368   0.000   6.094
   78        1.726   4.366   0.000   6.092
   79        1.727   4.367   0.000   6.094
   80        1.726   4.362   0.000   6.087
   81        1.726   4.366   0.000   6.092
   82        1.726   4.367   0.000   6.093
   83        1.726   4.367   0.000   6.092
   84        1.726   4.366   0.000   6.092
   85        1.726   4.368   0.000   6.094
   86        1.726   4.366   0.000   6.092
   87        1.726   4.367   0.000   6.092
   88        1.726   4.366   0.000   6.092
   89        1.726   4.366   0.000   6.092
   90        1.726   4.367   0.000   6.093
   91        1.726   4.367   0.000   6.093
   92        1.726   4.367   0.000   6.093
   93        1.726   4.366   0.000   6.091
   94        1.726   4.366   0.000   6.092
   95        1.726   4.367   0.000   6.093
   96        1.726   4.367   0.000   6.093
   97        1.726   4.366   0.000   6.092
   98        1.726   4.366   0.000   6.092
   99        1.726   4.367   0.000   6.093
  100        1.726   4.367   0.000   6.093
  101        1.726   4.366   0.000   6.091
  102        1.726   4.366   0.000   6.092
  103        1.726   4.367   0.000   6.093
  104        1.726   4.367   0.000   6.093
  105        1.732   4.348   0.000   6.080
  106        1.726   4.364   0.000   6.090
  107        1.726   4.363   0.000   6.089
  108        1.726   4.368   0.000   6.094
  109        1.726   4.365   0.000   6.090
  110        1.726   4.368   0.000   6.094
  111        1.726   4.363   0.000   6.089
  112        1.726   4.368   0.000   6.094
  113        1.725   4.363   0.000   6.088
  114        1.726   4.365   0.000   6.090
  115        1.726   4.367   0.000   6.093
  116        1.726   4.367   0.000   6.092
  117        1.726   4.365   0.000   6.090
  118        1.726   4.368   0.000   6.094
  119        1.726   4.367   0.000   6.093
  120        1.726   4.367   0.000   6.092
  121        1.726   4.367   0.000   6.092
  122        1.726   4.364   0.000   6.090
  123        1.726   4.368   0.000   6.094
  124        1.726   4.367   0.000   6.093
  125        1.726   4.366   0.000   6.092
  126        1.726   4.366   0.000   6.092
  127        1.726   4.368   0.000   6.094
  128        1.726   4.367   0.000   6.093
  129        1.726   4.368   0.000   6.093
  130        1.726   4.369   0.000   6.095
  131        1.726   4.366   0.000   6.092
  132        1.726   4.367   0.000   6.093
  133        1.726   4.366   0.000   6.092
  134        1.726   4.366   0.000   6.092
  135        1.726   4.366   0.000   6.092
  136        1.726   4.367   0.000   6.093
  137        1.726   4.365   0.000   6.091
  138        1.726   4.365   0.000   6.091
  139        1.726   4.364   0.000   6.089
  140        1.726   4.363   0.000   6.088
  141        1.726   4.366   0.000   6.092
  142        1.726   4.366   0.000   6.092
  143        1.726   4.364   0.000   6.089
  144        1.726   4.363   0.000   6.088
  145        1.726   4.367   0.000   6.092
  146        1.726   4.366   0.000   6.091
  147        1.726   4.366   0.000   6.092
  148        1.726   4.368   0.000   6.093
  149        1.726   4.366   0.000   6.092
  150        1.726   4.366   0.000   6.092
  151        1.726   4.366   0.000   6.092
  152        1.726   4.368   0.000   6.093
  153        1.726   4.368   0.000   6.094
  154        1.726   4.368   0.000   6.094
  155        1.726   4.366   0.000   6.092
  156        1.726   4.367   0.000   6.093
  157        1.726   4.367   0.000   6.093
  158        1.726   4.365   0.000   6.091
  159        1.726   4.366   0.000   6.092
  160        1.726   4.367   0.000   6.093
  161        1.726   4.367   0.000   6.093
  162        1.726   4.366   0.000   6.092
  163        1.726   4.367   0.000   6.092
  164        1.726   4.368   0.000   6.094
  165        1.726   4.367   0.000   6.093
  166        1.726   4.365   0.000   6.091
  167        1.726   4.367   0.000   6.092
  168        1.726   4.368   0.000   6.094
  169        1.726   4.369   0.000   6.095
  170        1.728   4.364   0.000   6.092
  171        1.726   4.367   0.000   6.092
  172        1.726   4.368   0.000   6.094
  173        1.726   4.365   0.000   6.090
  174        1.726   4.362   0.000   6.088
  175        1.726   4.367   0.000   6.092
  176        1.726   4.368   0.000   6.094
  177        1.726   4.366   0.000   6.092
  178        1.726   4.364   0.000   6.090
  179        1.726   4.365   0.000   6.091
  180        1.726   4.366   0.000   6.092
  181        1.726   4.365   0.000   6.090
  182        1.726   4.362   0.000   6.088
  183        1.726   4.365   0.000   6.091
  184        1.726   4.366   0.000   6.092
  185        1.726   4.368   0.000   6.094
  186        1.726   4.367   0.000   6.092
  187        1.726   4.367   0.000   6.092
  188        1.726   4.367   0.000   6.093
  189        1.726   4.366   0.000   6.091
  190        1.726   4.367   0.000   6.093
  191        1.726   4.367   0.000   6.092
  192        1.726   4.367   0.000   6.093
  193        1.726   4.368   0.000   6.093
  194        1.726   4.368   0.000   6.093
  195        1.726   4.367   0.000   6.092
  196        1.726   4.367   0.000   6.092
  197        1.726   4.366   0.000   6.091
  198        1.726   4.367   0.000   6.093
  199        1.726   4.367   0.000   6.092
  200        1.726   4.367   0.000   6.092
  201        1.726   4.366   0.000   6.092
  202        1.727   4.366   0.000   6.093
  203        1.726   4.358   0.000   6.084
  204        1.730   4.366   0.000   6.096
  205        1.726   4.370   0.000   6.096
  206        1.726   4.365   0.000   6.091
  207        1.726   4.358   0.000   6.084
  208        1.730   4.366   0.000   6.096
  209        1.726   4.366   0.000   6.092
  210        1.726   4.367   0.000   6.093
  211        1.726   4.370   0.000   6.095
  212        1.726   4.366   0.000   6.092
  213        1.726   4.370   0.000   6.096
  214        1.726   4.365   0.000   6.091
  215        1.726   4.370   0.000   6.095
  216        1.726   4.366   0.000   6.092
  217        0.543   0.006   0.000   0.548
--------------------------------------------------
tot        261.0971071.579 356.6191689.294
 


 magnetization (x)
 
# of ion       s       p       d       tot
------------------------------------------
    1        0.019   0.019   4.634   4.672
    2       -0.020  -0.019  -4.608  -4.647
    3        0.018   0.019   4.627   4.664
    4       -0.020  -0.019  -4.608  -4.647
    5        0.018   0.019   4.628   4.664
    6       -0.019  -0.018  -4.629  -4.666
    7        0.018   0.019   4.627   4.664
    8       -0.019  -0.018  -4.629  -4.666
    9        0.018   0.019   4.628   4.665
   10       -0.018  -0.019  -4.628  -4.665
   11        0.018   0.019   4.628   4.665
   12       -0.018  -0.019  -4.628  -4.665
   13        0.018   0.019   4.627   4.664
   14       -0.018  -0.019  -4.627  -4.664
   15        0.018   0.019   4.628   4.665
   16       -0.018  -0.019  -4.627  -4.664
   17        0.019   0.019   4.625   4.664
   18       -0.018  -0.019  -4.628  -4.665
   19        0.018   0.019   4.626   4.664
   20       -0.018  -0.019  -4.628  -4.665
   21        0.018   0.019   4.628   4.665
   22       -0.018  -0.019  -4.628  -4.665
   23        0.018   0.019   4.626   4.664
   24       -0.018  -0.019  -4.628  -4.665
   25        0.018   0.018   4.628   4.665
   26       -0.019  -0.019  -4.627  -4.664
   27        0.018   0.019   4.627   4.665
   28       -0.019  -0.019  -4.627  -4.664
   29        0.018   0.019   4.627   4.664
   30       -0.018  -0.019  -4.628  -4.665
   31        0.018   0.019   4.627   4.665
   32       -0.018  -0.019  -4.628  -4.665
   33        0.018   0.018   4.630   4.666
   34       -0.018  -0.018  -4.629  -4.666
   35        0.018   0.019   4.628   4.665
   36       -0.018  -0.018  -4.629  -4.666
   37        0.018   0.019   4.628   4.665
   38       -0.018  -0.019  -4.628  -4.665
   39        0.018   0.019   4.628   4.665
   40       -0.018  -0.019  -4.628  -4.665
   41        0.018   0.019   4.627   4.664
   42       -0.018  -0.019  -4.628  -4.665
   43        0.018   0.019   4.628   4.665
   44       -0.018  -0.019  -4.628  -4.665
   45        0.018   0.019   4.627   4.664
   46       -0.018  -0.019  -4.628  -4.665
   47        0.018   0.019   4.628   4.665
   48       -0.018  -0.019  -4.628  -4.665
   49        0.018   0.018   4.625   4.662
   50       -0.019  -0.019  -4.629  -4.667
   51        0.019   0.019   4.628   4.665
   52       -0.019  -0.019  -4.629  -4.667
   53        0.018   0.019   4.628   4.665
   54       -0.018  -0.019  -4.626  -4.663
   55        0.019   0.019   4.628   4.665
   56       -0.018  -0.019  -4.626  -4.663
   57        0.018   0.018   4.628   4.665
   58       -0.018  -0.019  -4.628  -4.665
   59        0.018   0.019   4.627   4.664
   60       -0.018  -0.019  -4.628  -4.665
   61        0.018   0.019   4.627   4.664
   62       -0.018  -0.019  -4.628  -4.665
   63        0.018   0.019   4.627   4.664
   64       -0.018  -0.019  -4.628  -4.665
   65        0.017   0.019   4.605   4.642
   66       -0.019  -0.019  -4.629  -4.666
   67        0.018   0.020   4.621   4.658
   68       -0.019  -0.019  -4.629  -4.666
   69        0.018   0.019   4.626   4.663
   70       -0.018  -0.019  -4.627  -4.664
   71        0.018   0.020   4.621   4.658
   72       -0.018  -0.019  -4.627  -4.664
   73       -0.002  -0.018   0.000  -0.020
   74       -0.002  -0.017   0.000  -0.019
   75        0.002   0.022   0.000   0.024
   76        0.002   0.012   0.000   0.014
   77       -0.002  -0.016   0.000  -0.018
   78       -0.002  -0.016   0.000  -0.018
   79        0.002   0.022   0.000   0.024
   80        0.002   0.012   0.000   0.014
   81       -0.002  -0.015   0.000  -0.017
   82       -0.002  -0.015   0.000  -0.017
   83        0.002   0.017   0.000   0.018
   84        0.002   0.013   0.000   0.015
   85       -0.002  -0.016   0.000  -0.018
   86       -0.002  -0.016   0.000  -0.018
   87        0.002   0.017   0.000   0.018
   88        0.002   0.013   0.000   0.015
   89       -0.002  -0.014   0.000  -0.016
   90       -0.002  -0.015   0.000  -0.017
   91        0.002   0.016   0.000   0.018
   92        0.002   0.015   0.000   0.017
   93       -0.002  -0.014   0.000  -0.016
   94       -0.002  -0.015   0.000  -0.017
   95        0.002   0.016   0.000   0.018
   96        0.002   0.015   0.000   0.017
   97       -0.002  -0.014   0.000  -0.016
   98       -0.002  -0.015   0.000  -0.017
   99        0.002   0.016   0.000   0.017
  100        0.002   0.015   0.000   0.017
  101       -0.002  -0.014   0.000  -0.016
  102       -0.002  -0.015   0.000  -0.017
  103        0.002   0.016   0.000   0.017
  104        0.002   0.015   0.000   0.017
  105       -0.002  -0.006   0.000  -0.008
  106       -0.002  -0.018   0.000  -0.020
  107        0.002   0.014   0.000   0.016
  108        0.002   0.015   0.000   0.017
  109       -0.002  -0.011   0.000  -0.013
  110       -0.002  -0.016   0.000  -0.018
  111        0.002   0.014   0.000   0.016
  112        0.002   0.015   0.000   0.017
  113       -0.002  -0.010   0.000  -0.012
  114       -0.002  -0.016   0.000  -0.018
  115        0.002   0.014   0.000   0.016
  116        0.002   0.015   0.000   0.017
  117       -0.002  -0.011   0.000  -0.013
  118       -0.002  -0.016   0.000  -0.018
  119        0.002   0.014   0.000   0.016
  120        0.002   0.015   0.000   0.017
  121       -0.002  -0.016   0.000  -0.018
  122       -0.002  -0.014   0.000  -0.015
  123        0.002   0.016   0.000   0.018
  124        0.002   0.015   0.000   0.017
  125       -0.002  -0.015   0.000  -0.017
  126       -0.002  -0.013   0.000  -0.015
  127        0.002   0.016   0.000   0.018
  128        0.002   0.015   0.000   0.017
  129       -0.002  -0.014   0.000  -0.016
  130       -0.002  -0.014   0.000  -0.016
  131        0.002   0.015   0.000   0.017
  132        0.002   0.015   0.000   0.017
  133       -0.002  -0.015   0.000  -0.017
  134       -0.002  -0.013   0.000  -0.015
  135        0.002   0.015   0.000   0.017
  136        0.002   0.015   0.000   0.017
  137       -0.002  -0.015   0.000  -0.017
  138       -0.002  -0.015   0.000  -0.017
  139        0.002   0.017   0.000   0.019
  140        0.002   0.018   0.000   0.019
  141       -0.002  -0.015   0.000  -0.016
  142       -0.002  -0.015   0.000  -0.017
  143        0.002   0.017   0.000   0.019
  144        0.002   0.018   0.000   0.019
  145       -0.002  -0.015   0.000  -0.017
  146       -0.002  -0.014   0.000  -0.016
  147        0.002   0.015   0.000   0.016
  148        0.002   0.014   0.000   0.016
  149       -0.002  -0.015   0.000  -0.016
  150       -0.002  -0.015   0.000  -0.017
  151        0.002   0.015   0.000   0.016
  152        0.002   0.014   0.000   0.016
  153       -0.002  -0.015   0.000  -0.017
  154       -0.002  -0.015   0.000  -0.017
  155        0.002   0.015   0.000   0.017
  156        0.002   0.017   0.000   0.018
  157       -0.002  -0.015   0.000  -0.017
  158       -0.002  -0.015   0.000  -0.016
  159        0.002   0.015   0.000   0.017
  160        0.002   0.017   0.000   0.018
  161       -0.002  -0.015   0.000  -0.017
  162       -0.002  -0.015   0.000  -0.017
  163        0.002   0.014   0.000   0.016
  164        0.002   0.016   0.000   0.018
  165       -0.002  -0.015   0.000  -0.017
  166       -0.002  -0.015   0.000  -0.016
  167        0.002   0.014   0.000   0.016
  168        0.002   0.016   0.000   0.018
  169       -0.002  -0.017   0.000  -0.019
  170       -0.003  -0.016   0.000  -0.018
  171        0.002   0.015   0.000   0.017
  172        0.002   0.015   0.000   0.016
  173       -0.002  -0.018   0.000  -0.020
  174       -0.001  -0.009   0.000  -0.010
  175        0.002   0.015   0.000   0.017
  176        0.002   0.015   0.000   0.016
  177       -0.002  -0.016   0.000  -0.018
  178       -0.002  -0.012   0.000  -0.014
  179        0.002   0.014   0.000   0.016
  180        0.002   0.014   0.000   0.016
  181       -0.002  -0.018   0.000  -0.020
  182       -0.001  -0.009   0.000  -0.010
  183        0.002   0.014   0.000   0.016
  184        0.002   0.014   0.000   0.016
  185       -0.002  -0.015   0.000  -0.017
  186       -0.002  -0.015   0.000  -0.017
  187        0.002   0.015   0.000   0.017
  188        0.002   0.016   0.000   0.018
  189       -0.002  -0.015   0.000  -0.016
  190       -0.002  -0.014   0.000  -0.016
  191        0.002   0.015   0.000   0.017
  192        0.002   0.016   0.000   0.018
  193       -0.002  -0.015   0.000  -0.017
  194       -0.002  -0.014   0.000  -0.016
  195        0.002   0.015   0.000   0.017
  196        0.002   0.015   0.000   0.017
  197       -0.002  -0.015   0.000  -0.016
  198       -0.002  -0.014   0.000  -0.016
  199        0.002   0.015   0.000   0.017
  200        0.002   0.015   0.000   0.017
  201       -0.002  -0.019   0.000  -0.021
  202       -0.002  -0.019   0.000  -0.020
  203        0.002   0.009   0.000   0.010
  204        0.001   0.020   0.000   0.021
  205       -0.002  -0.017   0.000  -0.019
  206       -0.002  -0.016   0.000  -0.018
  207        0.001   0.009   0.000   0.010
  208        0.001   0.020   0.000   0.021
  209       -0.002  -0.016   0.000  -0.018
  210       -0.002  -0.016   0.000  -0.018
  211        0.002   0.013   0.000   0.015
  212        0.002   0.017   0.000   0.019
  213       -0.002  -0.017   0.000  -0.019
  214       -0.002  -0.016   0.000  -0.018
  215        0.002   0.013   0.000   0.015
  216        0.002   0.017   0.000   0.019
  217        0.003  -0.000   0.000   0.002
--------------------------------------------------
tot         -0.002   0.028  -0.006   0.020
 

 total amount of memory used by VASP MPI-rank0   501409. kBytes
=======================================================================

   base      :      30000. kBytes
   nonl-proj :      51625. kBytes
   fftplans  :      22373. kBytes
   grid      :      17829. kBytes
   one-center:        590. kBytes
   wavefun   :     378992. kBytes
 
  
  
 General timing and accounting informations for this job:
 ========================================================
  
                  Total CPU time used (sec):     1025.317
                            User time (sec):     1002.297
                          System time (sec):       23.020
                         Elapsed time (sec):     1109.031
  
                   Maximum memory used (kb):      721256.
                   Average memory used (kb):           0.
  
                          Minor page faults:       237686
                          Major page faults:           23
                 Voluntary context switches:        10468
