       N       E                     dE             d eps       ncg     rms          rms(c)
DAV:   1     0.954024531191E+03    0.95402E+03   -0.37678E+04   876   0.199E+03
DAV:   2     0.402271254628E+03   -0.55175E+03   -0.52916E+03  1020   0.508E+02
DAV:   3     0.369533424881E+03   -0.32738E+02   -0.32524E+02   972   0.132E+02
DAV:   4     0.369125803628E+03   -0.40762E+00   -0.40721E+00  1056   0.162E+01
DAV:   5     0.369118914671E+03   -0.68890E-02   -0.68889E-02   972   0.193E+00    0.588E+01
DAV:   6    -0.688216244745E+02   -0.43794E+03   -0.28335E+02  1056   0.213E+02    0.628E+01
DAV:   7    -0.715024687144E+02   -0.26808E+01   -0.51627E+01   912   0.452E+01    0.172E+01
DAV:   8    -0.686531267574E+02    0.28493E+01   -0.71734E+00  1032   0.218E+01    0.660E+00
DAV:   9    -0.681659274867E+02    0.48720E+00   -0.49756E+00  1020   0.191E+01    0.817E+00
DAV:  10    -0.681089543580E+02    0.56973E-01   -0.43596E-01   960   0.562E+00    0.593E+00
DAV:  11    -0.680784244241E+02    0.30530E-01   -0.11123E+00  1020   0.778E+00    0.200E+00
DAV:  12    -0.680384124343E+02    0.40012E-01   -0.10660E-01  1056   0.326E+00    0.126E+00
DAV:  13    -0.680298987443E+02    0.85137E-02   -0.72560E-02   960   0.159E+00    0.105E+00
DAV:  14    -0.680249234105E+02    0.49753E-02   -0.52206E-02   864   0.250E+00    0.411E-01
DAV:  15    -0.680257526343E+02   -0.82922E-03   -0.38119E-03  1008   0.445E-01    0.400E-01
DAV:  16    -0.680250072881E+02    0.74535E-03   -0.28503E-03   948   0.366E-01    0.156E-01
DAV:  17    -0.680249201202E+02    0.87168E-04   -0.34380E-03   948   0.415E-01    0.114E-01
DAV:  18    -0.680247071119E+02    0.21301E-03   -0.19827E-04   864   0.103E-01    0.325E-02
DAV:  19    -0.680247087225E+02   -0.16106E-05   -0.10682E-04  1020   0.640E-02    0.697E-03
DAV:  20    -0.680247227164E+02   -0.13994E-04   -0.56728E-06   936   0.166E-02    0.742E-03
DAV:  21    -0.680247266106E+02   -0.38942E-05   -0.19776E-06   888   0.964E-03    0.329E-03
DAV:  22    -0.680247271489E+02   -0.53829E-06   -0.74391E-07   996   0.472E-03    0.151E-03
DAV:  23    -0.680247295397E+02   -0.23907E-05   -0.86023E-08   612   0.203E-03    0.700E-04
DAV:  24    -0.680247307701E+02   -0.12304E-05   -0.32666E-08   432   0.135E-03    0.443E-04
DAV:  25    -0.680247307591E+02    0.10959E-07   -0.33788E-09   432   0.428E-04
   1 F= -.68024731E+02 E0= -.68024731E+02  d E =-.680247E+02  mag=    -0.0000
