 vasp.5.4.4.18Apr17-6-g9f103f2a35 (build Apr 27 2017 11:13:10) complex          
  
 executed on           IFC91_ompi date 2020.05.13  11:17:17
 running on   12 total cores
 distrk:  each k-point on   12 cores,    1 groups
 distr:  one band on NCORES_PER_BAND=   1 cores,   12 groups


--------------------------------------------------------------------------------------------------------


 INCAR:
 POTCAR:    PAW Mn_pv 02Aug2007                   
 POTCAR:    PAW F 31May2000                       

 ----------------------------------------------------------------------------- 
|                                                                             |
|           W    W    AA    RRRRR   N    N  II  N    N   GGGG   !!!           |
|           W    W   A  A   R    R  NN   N  II  NN   N  G    G  !!!           |
|           W    W  A    A  R    R  N N  N  II  N N  N  G       !!!           |
|           W WW W  AAAAAA  RRRRR   N  N N  II  N  N N  G  GGG   !            |
|           WW  WW  A    A  R   R   N   NN  II  N   NN  G    G                |
|           W    W  A    A  R    R  N    N  II  N    N   GGGG   !!!           |
|                                                                             |
|      For optimal performance we recommend to set                            |
|        NCORE= 4 - approx SQRT( number of cores)                             |
|      NCORE specifies how many cores store one orbital (NPAR=cpu/NCORE).     |
|      This setting can  greatly improve the performance of VASP for DFT.     |
|      The default,   NCORE=1            might be grossly inefficient         |
|      on modern multi-core architectures or massively parallel machines.     |
|      Do your own testing !!!!                                               |
|      Unfortunately you need to use the default for GW and RPA calculations. |
|      (for HF NCORE is supported but not extensively tested yet)             |
|                                                                             |
 ----------------------------------------------------------------------------- 

 POTCAR:    PAW Mn_pv 02Aug2007                   
   VRHFIN =Mn: 3p4s3d                                                           
   LEXCH  = CA                                                                  
   EATOM  =  2028.0466 eV,  149.0572 Ry                                         
                                                                                
   TITEL  = PAW Mn_pv 02Aug2007                                                 
   LULTRA =        F    use ultrasoft PP ?                                      
   IUNSCR =        1    unscreen: 0-lin 1-nonlin 2-no                           
   RPACOR =    2.080    partial core radius                                     
   POMASS =   54.938; ZVAL   =   13.000    mass and valenz                      
   RCORE  =    2.300    outmost cutoff radius                                   
   RWIGS  =    2.500; RWIGS  =    1.323    wigner-seitz radius (au A)           
   ENMAX  =  269.944; ENMIN  =  202.458 eV                                      
   ICORE  =        3    local potential                                         
   LCOR   =        T    correct aug charges                                     
   LPAW   =        T    paw PP                                                  
   EAUG   =  569.085                                                            
   DEXC   =    0.000                                                            
   RMAX   =    2.343    core radius for proj-oper                               
   RAUG   =    1.300    factor for augmentation sphere                          
   RDEP   =    2.338    radius for radial grids                                 
   RDEPT  =    1.798    core radius for aug-charge                              
                                                                                
   Atomic configuration                                                         
    8 entries                                                                   
     n  l   j            E        occ.                                          
     1  0  0.50     -6393.6057   2.0000                                         
     2  0  0.50      -735.9993   2.0000                                         
     2  1  1.50      -624.3417   6.0000                                         
     3  0  0.50       -80.9782   2.0000                                         
     3  1  1.50       -50.3144   6.0000                                         
     3  2  2.50        -3.6171   6.0000                                         
     4  0  0.50        -4.3304   1.0000                                         
     4  3  2.50        -1.3606   0.0000                                         
   Description                                                                  
     l       E           TYP  RCUT    TYP  RCUT                                 
     1    -50.3143634     23  2.000                                             
     1     -1.3605826     23  2.000                                             
     2     -3.6171470     23  2.300                                             
     2     -4.9777296     23  2.300                                             
     0     -4.3303688     23  2.300                                             
     0      7.3408788     23  2.300                                             
     3      9.5240782     23  2.300                                             
  local pseudopotential read in
  partial core-charges read in
  partial kinetic energy density read in
  atomic valenz-charges read in
  non local Contribution for L=           1  read in
    real space projection operators read in
  non local Contribution for L=           1  read in
    real space projection operators read in
  non local Contribution for L=           2  read in
    real space projection operators read in
  non local Contribution for L=           2  read in
    real space projection operators read in
  non local Contribution for L=           0  read in
    real space projection operators read in
  non local Contribution for L=           0  read in
    real space projection operators read in
    PAW grid and wavefunctions read in
 
   number of l-projection  operators is LMAX  =           6
   number of lm-projection operators is LMMAX =          18
 
 POTCAR:    PAW F 31May2000                       
   VRHFIN =F: s2p5                                                              
   LEXCH  = CA                                                                  
   EATOM  =   658.3685 eV,   48.3887 Ry                                         
                                                                                
   TITEL  = PAW F 31May2000                                                     
   LULTRA =        F    use ultrasoft PP ?                                      
   IUNSCR =        1    unscreen: 0-lin 1-nonlin 2-no                           
   RPACOR =    1.200    partial core radius                                     
   POMASS =   18.998; ZVAL   =    7.000    mass and valenz                      
   RCORE  =    1.520    outmost cutoff radius                                   
   RWIGS  =    1.500; RWIGS  =    0.794    wigner-seitz radius (au A)           
   ENMAX  =  400.000; ENMIN  =  300.000 eV                                      
   ICORE  =        2    local potential                                         
   LCOR   =        T    correct aug charges                                     
   LPAW   =        T    paw PP                                                  
   EAUG   =  613.614                                                            
   DEXC   =    0.000                                                            
   RMAX   =    1.555    core radius for proj-oper                               
   RAUG   =    1.300    factor for augmentation sphere                          
   RDEP   =    1.539    radius for radial grids                                 
   RDEPT  =    1.299    core radius for aug-charge                              
                                                                                
   Atomic configuration                                                         
    4 entries                                                                   
     n  l   j            E        occ.                                          
     1  0  0.50      -658.3386   2.0000                                         
     2  0  0.50       -29.6221   2.0000                                         
     2  1  0.50       -11.2952   5.0000                                         
     3  2  1.50       -12.2452   0.0000                                         
   Description                                                                  
     l       E           TYP  RCUT    TYP  RCUT                                 
     0    -29.6221019     23  1.200                                             
     0     -9.5240782     23  1.200                                             
     1    -11.2951545     23  1.520                                             
     1      1.3605826     23  1.520                                             
     2    -12.2452434      7  1.500                                             
  local pseudopotential read in
  partial core-charges read in
  partial kinetic energy density read in
  kinetic energy density of atom read in
  atomic valenz-charges read in
  non local Contribution for L=           0  read in
    real space projection operators read in
  non local Contribution for L=           0  read in
    real space projection operators read in
  non local Contribution for L=           1  read in
    real space projection operators read in
  non local Contribution for L=           1  read in
    real space projection operators read in
    PAW grid and wavefunctions read in
 
   number of l-projection  operators is LMAX  =           4
   number of lm-projection operators is LMMAX =           8
 
  PAW Mn_pv 02Aug2007                   :
 energy of atom  1       EATOM=-2028.0466
 kinetic energy error for atom=    0.0009 (will be added to EATOM!!)
  PAW F 31May2000                       :
 energy of atom  2       EATOM= -658.3685
 kinetic energy error for atom=    0.0037 (will be added to EATOM!!)
 
 
 POSCAR: Mn  F                                   
  positions in cartesian coordinates
  No initial velocities read in
 exchange correlation table for  LEXCH =        2
   RHO(1)=    0.500       N(1)  =     2000
   RHO(2)=  100.500       N(2)  =     4000
 


--------------------------------------------------------------------------------------------------------


 ion  position               nearest neighbor table
   1  0.500  0.500  0.500-   3 2.07   4 2.07   5 2.10   6 2.10   5 2.10   6 2.10
   2  0.000  0.000  0.000-   5 2.07   6 2.07   3 2.10   4 2.10   3 2.10   4 2.10
   3  0.196  0.804  0.500-   1 2.07   2 2.10   2 2.10
   4  0.804  0.196  0.500-   1 2.07   2 2.10   2 2.10
   5  0.304  0.304  0.000-   2 2.07   1 2.10   1 2.10
   6  0.696  0.696  0.000-   2 2.07   1 2.10   1 2.10
 
  LATTYP: Found a simple tetragonal cell.
 ALAT       =     4.8027929674
 C/A-ratio  =     0.6770129349
  
  Lattice vectors:
  
 A1 = (   4.8027929674,   0.0000000000,   0.0000000000)
 A2 = (   0.0000000000,   4.8027929674,   0.0000000000)
 A3 = (   0.0000000000,   0.0000000000,   3.2515529624)


Analysis of symmetry for initial positions (statically):
=====================================================================
 Subroutine PRICEL returns:
 Original cell was already a primitive cell.
 

 Routine SETGRP: Setting up the symmetry group for a 
 simple tetragonal supercell.


 Subroutine GETGRP returns: Found 16 space group operations
 (whereof  8 operations were pure point group operations)
 out of a pool of 16 trial point group operations.


The static configuration has the point symmetry D_2h.
 The point group associated with its full space group is D_4h.


Analysis of symmetry for dynamics (positions and initial velocities):
=====================================================================
 Subroutine PRICEL returns:
 Original cell was already a primitive cell.
 

 Routine SETGRP: Setting up the symmetry group for a 
 simple tetragonal supercell.


 Subroutine GETGRP returns: Found 16 space group operations
 (whereof  8 operations were pure point group operations)
 out of a pool of 16 trial point group operations.


The dynamic configuration has the point symmetry D_2h.
 The point group associated with its full space group is D_4h.


Analysis of structural, dynamic, and magnetic symmetry:
=====================================================================
 Subroutine PRICEL returns:
 Original cell was already a primitive cell.
 

 Routine SETGRP: Setting up the symmetry group for a 
 simple tetragonal supercell.


 Subroutine GETGRP returns: Found 16 space group operations
 (whereof  8 operations were pure point group operations)
 out of a pool of 16 trial point group operations.


The magnetic configuration has the point symmetry D_2h.
 The point group associated with its full space group is D_4h.


 Subroutine INISYM returns: Found 16 space group operations
 (whereof  8 operations are pure point group operations),
 and found     1 'primitive' translations

 
 
 KPOINTS: KPOINTS created by Atomic Simulation Env

Automatic generation of k-mesh.
Space group operators:
 irot       det(A)        alpha          n_x          n_y          n_z        tau_x        tau_y        tau_z
    1     1.000000     0.000000     1.000000     0.000000     0.000000     0.000000     0.000000     0.000000
    2    -1.000000     0.000000     1.000000     0.000000     0.000000     0.000000     0.000000     0.000000
    3     1.000000   180.000000     0.000000     0.000000     1.000000     0.000000     0.000000     0.000000
    4    -1.000000   180.000000     0.000000     0.000000     1.000000     0.000000     0.000000     0.000000
    5     1.000000   180.000000     0.707107     0.707107     0.000000     0.000000     0.000000     0.000000
    6    -1.000000   180.000000     0.707107     0.707107     0.000000     0.000000     0.000000     0.000000
    7     1.000000   180.000000     0.707107    -0.707107     0.000000     0.000000     0.000000     0.000000
    8    -1.000000   180.000000     0.707107    -0.707107     0.000000     0.000000     0.000000     0.000000
    9     1.000000    90.000000     0.000000     0.000000    -1.000000     0.500000     0.500000     0.500000
   10    -1.000000    90.000000     0.000000     0.000000    -1.000000     0.500000     0.500000     0.500000
   11     1.000000    90.000000     0.000000     0.000000     1.000000     0.500000     0.500000     0.500000
   12    -1.000000    90.000000     0.000000     0.000000     1.000000     0.500000     0.500000     0.500000
   13     1.000000   180.000000     0.000000     1.000000     0.000000     0.500000     0.500000     0.500000
   14    -1.000000   180.000000     0.000000     1.000000     0.000000     0.500000     0.500000     0.500000
   15     1.000000   180.000000     1.000000     0.000000     0.000000     0.500000     0.500000     0.500000
   16    -1.000000   180.000000     1.000000     0.000000     0.000000     0.500000     0.500000     0.500000
 
 Subroutine IBZKPT returns following result:
 ===========================================
 
 Found      9 irreducible k-points:
 
 Following reciprocal coordinates:
            Coordinates               Weight
  0.125000  0.125000  0.083333      8.000000
  0.375000  0.125000  0.083333     16.000000
  0.375000  0.375000  0.083333      8.000000
  0.125000  0.125000  0.250000      8.000000
  0.375000  0.125000  0.250000     16.000000
  0.375000  0.375000  0.250000      8.000000
  0.125000  0.125000  0.416667      8.000000
  0.375000  0.125000  0.416667     16.000000
  0.375000  0.375000  0.416667      8.000000
 
 Following cartesian coordinates:
            Coordinates               Weight
  0.026027  0.026027  0.025629      8.000000
  0.078080  0.026027  0.025629     16.000000
  0.078080  0.078080  0.025629      8.000000
  0.026027  0.026027  0.076886      8.000000
  0.078080  0.026027  0.076886     16.000000
  0.078080  0.078080  0.076886      8.000000
  0.026027  0.026027  0.128144      8.000000
  0.078080  0.026027  0.128144     16.000000
  0.078080  0.078080  0.128144      8.000000
 
 TETIRR: Found    106 inequivalent tetrahedra from      576


--------------------------------------------------------------------------------------------------------




 Dimension of arrays:
   k-points           NKPTS =      9   k-points in BZ     NKDIM =      9   number of bands    NBANDS=     36
   number of dos      NEDOS =    301   number of ions     NIONS =      6
   non local maximal  LDIM  =      6   non local SUM 2l+1 LMDIM =     18
   total plane-waves  NPLWV =  31104
   max r-space proj   IRMAX =      1   max aug-charges    IRDMAX= 100853
   dimension x,y,z NGX =    36 NGY =   36 NGZ =   24
   dimension x,y,z NGXF=    72 NGYF=   72 NGZF=   48
   support grid    NGXF=   144 NGYF=  144 NGZF=   96
   ions per type =               2   4
   NGX,Y,Z   is equivalent  to a cutoff of  12.46, 12.46, 12.27 a.u.
   NGXF,Y,Z  is equivalent  to a cutoff of  24.92, 24.92, 24.54 a.u.

 SYSTEM =  unknown system                          
 POSCAR =  Mn  F                                   

 Startparameter for this run:
   NWRITE =      2    write-flag & timer
   PREC   = normal    normal or accurate (medium, high low for compatibility)
   ISTART =      0    job   : 0-new  1-cont  2-samecut
   ICHARG =      2    charge: 1-file 2-atom 10-const
   ISPIN  =      2    spin polarized calculation?
   LNONCOLLINEAR =      F non collinear calculations
   LSORBIT =      F    spin-orbit coupling
   INIWAV =      1    electr: 0-lowe 1-rand  2-diag
   LASPH  =      T    aspherical Exc in radial PAW
   METAGGA=      F    non-selfconsistent MetaGGA calc.

 Electronic Relaxation 1
   ENCUT  =  900.0 eV  66.15 Ry    8.13 a.u.  11.75 11.75  7.95*2*pi/ulx,y,z
   ENINI  =  900.0     initial cutoff
   ENAUG  =  613.6 eV  augmentation charge cutoff
   NELM   =     60;   NELMIN=  2; NELMDL= -5     # of ELM steps 
   EDIFF  = 0.1E-06   stopping-criterion for ELM
   LREAL  =      F    real-space projection
   NLSPLINE    = F    spline interpolate recip. space projectors
   LCOMPAT=      F    compatible to vasp.4.4
   GGA_COMPAT  = T    GGA compatible to vasp.4.4-vasp.4.6
   LMAXPAW     = -100 max onsite density
   LMAXMIX     =    4 max onsite mixed and CHGCAR
   VOSKOWN=      0    Vosko Wilk Nusair interpolation
   ROPT   =    0.00000   0.00000
 Ionic relaxation
   EDIFFG = -.5E-02   stopping-criterion for IOM
   NSW    =     50    number of steps for IOM
   NBLOCK =      1;   KBLOCK =     50    inner block; outer block 
   IBRION =      2    ionic relax: 0-MD 1-quasi-New 2-CG
   NFREE  =      1    steps in history (QN), initial steepest desc. (CG)
   ISIF   =      3    stress and relaxation
   IWAVPR =     11    prediction:  0-non 1-charg 2-wave 3-comb
   ISYM   =      2    0-nonsym 1-usesym 2-fastsym
   LCORR  =      T    Harris-Foulkes like correction to forces

   POTIM  = 0.5000    time-step for ionic-motion
   TEIN   =    0.0    initial temperature
   TEBEG  =    0.0;   TEEND  =   0.0 temperature during run
   SMASS  =  -3.00    Nose mass-parameter (am)
   estimated Nose-frequenzy (Omega)   =  0.10E-29 period in steps =****** mass=  -0.527E-27a.u.
   SCALEE = 1.0000    scale energy and forces
   NPACO  =    256;   APACO  = 16.0  distance and # of slots for P.C.
   PSTRESS=    0.0 pullay stress

  Mass of Ions in am
   POMASS =  54.94 19.00
  Ionic Valenz
   ZVAL   =  13.00  7.00
  Atomic Wigner-Seitz radii
   RWIGS  =  -1.00 -1.00
  virtual crystal weights 
   VCA    =   1.00  1.00
   NELECT =      54.0000    total number of electrons
   NUPDOWN=      -1.0000    fix difference up-down

 DOS related values:
   EMIN   =  10.00;   EMAX   =-10.00  energy-range for DOS
   EFERMI =   0.00
   ISMEAR =    -5;   SIGMA  =   0.20  broadening in eV -4-tet -1-fermi 0-gaus

 Electronic relaxation 2 (details)
   IALGO  =     38    algorithm
   LDIAG  =      T    sub-space diagonalisation (order eigenvalues)
   LSUBROT=      F    optimize rotation matrix (better conditioning)
   TURBO    =      0    0=normal 1=particle mesh
   IRESTART =      0    0=no restart 2=restart with 2 vectors
   NREBOOT  =      0    no. of reboots
   NMIN     =      0    reboot dimension
   EREF     =   0.00    reference energy to select bands
   IMIX   =      4    mixing-type and parameters
     AMIX     =   0.40;   BMIX     =  1.00
     AMIX_MAG =   1.60;   BMIX_MAG =  1.00
     AMIN     =   0.10
     WC   =   100.;   INIMIX=   1;  MIXPRE=   1;  MAXMIX= -45

 Intra band minimization:
   WEIMIN = 0.0010     energy-eigenvalue tresh-hold
   EBREAK =  0.69E-09  absolut break condition
   DEPER  =   0.30     relativ break condition  

   TIME   =   0.40     timestep for ELM

  volume/ion in A,a.u.               =      12.50        84.36
  Fermi-wavevector in a.u.,A,eV,Ry     =   1.467281  2.772759 29.292158  2.152913
  Thomas-Fermi vector in A             =   2.582917
 
 Write flags
   LWAVE        =      F    write WAVECAR
   LDOWNSAMPLE  =      F    k-point downsampling of WAVECAR
   LCHARG       =      F    write CHGCAR
   LVTOT        =      F    write LOCPOT, total local potential
   LVHAR        =      F    write LOCPOT, Hartree potential only
   LELF         =      F    write electronic localiz. function (ELF)
   LORBIT       =     11    0 simple, 1 ext, 2 COOP (PROOUT), +10 PAW based schemes


 Dipole corrections
   LMONO  =      F    monopole corrections only (constant potential shift)
   LDIPOL =      F    correct potential (dipole corrections)
   IDIPOL =      0    1-x, 2-y, 3-z, 4-all directions 
   EPSILON=  1.0000000 bulk dielectric constant

 LDA+U is selected, type is set to LDAUTYPE =  2
   angular momentum for each species LDAUL =     2   -1
   U (eV)           for each species LDAUU =   4.0  0.0
   J (eV)           for each species LDAUJ =   0.0  0.0
 Exchange correlation treatment:
   GGA     =    --    GGA type
   LEXCH   =     2    internal setting for exchange type
   VOSKOWN=      0    Vosko Wilk Nusair interpolation
   LHFCALC =     F    Hartree Fock is set to
   LHFONE  =     F    Hartree Fock one center treatment
   AEXX    =    0.0000 exact exchange contribution

 Linear response parameters
   LEPSILON=     F    determine dielectric tensor
   LRPA    =     F    only Hartree local field effects (RPA)
   LNABLA  =     F    use nabla operator in PAW spheres
   LVEL    =     F    velocity operator in full k-point grid
   LINTERFAST=   F  fast interpolation
   KINTER  =     0    interpolate to denser k-point grid
   CSHIFT  =0.1000    complex shift for real part using Kramers Kronig
   OMEGAMAX=  -1.0    maximum frequency
   DEG_THRESHOLD= 0.2000000E-02 threshold for treating states as degnerate
   RTIME   =   -0.100 relaxation time in fs
  (WPLASMAI=    0.000 imaginary part of plasma frequency in eV, 0.658/RTIME)
   DFIELD  = 0.0000000 0.0000000 0.0000000 field for delta impulse in time
 
 Orbital magnetization related:
   ORBITALMAG=     F  switch on orbital magnetization
   LCHIMAG   =     F  perturbation theory with respect to B field
   DQ        =  0.001000  dq finite difference perturbation B field
   LLRAUG    =     F  two centre corrections for induced B field



--------------------------------------------------------------------------------------------------------


 conjugate gradient relaxation of ions
 charge density and potential will be updated during run
 spin polarized calculation
 Variant of blocked Davidson
 Davidson routine will perform the subspace rotation
 perform sub-space diagonalisation
    after iterative eigenvector-optimisation
 modified Broyden-mixing scheme, WC =      100.0
 initial mixing is a Kerker type mixing with AMIX =  0.4000 and BMIX =      1.0000
 Hartree-type preconditioning will be used
 using additional bands            9
 reciprocal scheme for non local part
 use partial core corrections
 calculate Harris-corrections to forces 
   (improved forces if not selfconsistent)
 use of overlap-Matrix (Vanderbilt PP)
 Fermi weights with tetrahedron method with Bloechl corrections


--------------------------------------------------------------------------------------------------------


  energy-cutoff  :      900.00
  volume of cell :       75.00
      direct lattice vectors                 reciprocal lattice vectors
     4.802792967  0.000000000  0.000000000     0.208212181  0.000000000  0.000000000
     0.000000000  4.802792967  0.000000000     0.000000000  0.208212181  0.000000000
     0.000000000  0.000000000  3.251552962     0.000000000  0.000000000  0.307545352

  length of vectors
     4.802792967  4.802792967  3.251552962     0.208212181  0.208212181  0.307545352


 
 k-points in units of 2pi/SCALE and weight: KPOINTS created by Atomic Simulation Env
   0.02602652  0.02602652  0.02562878       0.083
   0.07807957  0.02602652  0.02562878       0.167
   0.07807957  0.07807957  0.02562878       0.083
   0.02602652  0.02602652  0.07688634       0.083
   0.07807957  0.02602652  0.07688634       0.167
   0.07807957  0.07807957  0.07688634       0.083
   0.02602652  0.02602652  0.12814390       0.083
   0.07807957  0.02602652  0.12814390       0.167
   0.07807957  0.07807957  0.12814390       0.083
 
 k-points in reciprocal lattice and weights: KPOINTS created by Atomic Simulation Env
   0.12500000  0.12500000  0.08333333       0.083
   0.37500000  0.12500000  0.08333333       0.167
   0.37500000  0.37500000  0.08333333       0.083
   0.12500000  0.12500000  0.25000000       0.083
   0.37500000  0.12500000  0.25000000       0.167
   0.37500000  0.37500000  0.25000000       0.083
   0.12500000  0.12500000  0.41666667       0.083
   0.37500000  0.12500000  0.41666667       0.167
   0.37500000  0.37500000  0.41666667       0.083
 
 position of ions in fractional coordinates (direct lattice) 
   0.50000000  0.50000000  0.50000000
   0.00000000  0.00000000  0.00000000
   0.19585592  0.80414408  0.50000000
   0.80414408  0.19585592  0.50000000
   0.30414408  0.30414408  0.00000000
   0.69585592  0.69585592  0.00000000
 
 position of ions in cartesian coordinates  (Angst):
   2.40139648  2.40139648  1.62577648
   0.00000000  0.00000000  0.00000000
   0.94065542  3.86213755  1.62577648
   3.86213755  0.94065542  1.62577648
   1.46074106  1.46074106  0.00000000
   3.34205191  3.34205191  0.00000000
 


--------------------------------------------------------------------------------------------------------


 k-point  1 :   0.1250 0.1250 0.0833  plane waves:    4593
 k-point  2 :   0.3750 0.1250 0.0833  plane waves:    4579
 k-point  3 :   0.3750 0.3750 0.0833  plane waves:    4599
 k-point  4 :   0.1250 0.1250 0.2500  plane waves:    4611
 k-point  5 :   0.3750 0.1250 0.2500  plane waves:    4591
 k-point  6 :   0.3750 0.3750 0.2500  plane waves:    4611
 k-point  7 :   0.1250 0.1250 0.4167  plane waves:    4604
 k-point  8 :   0.3750 0.1250 0.4167  plane waves:    4611
 k-point  9 :   0.3750 0.3750 0.4167  plane waves:    4607

 maximum and minimum number of plane-waves per node :      4611     4579

 maximum number of plane-waves:      4611
 maximum index in each direction: 
   IXMAX=   11   IYMAX=   11   IZMAX=    7
   IXMIN=  -12   IYMIN=  -12   IZMIN=   -8


 serial   3D FFT for wavefunctions
 parallel 3D FFT for charge:
    minimum data exchange during FFTs selected (reduces bandwidth)


 total amount of memory used by VASP MPI-rank0    54120. kBytes
=======================================================================

   base      :      30000. kBytes
   nonl-proj :      12418. kBytes
   fftplans  :       3220. kBytes
   grid      :       4243. kBytes
   one-center:        186. kBytes
   wavefun   :       4053. kBytes
 
     INWAV:  cpu time    0.0000: real time    0.0000
 Broyden mixing: mesh for mixing (old mesh)
   NGX = 23   NGY = 23   NGZ = 15
  (NGX  = 72   NGY  = 72   NGZ  = 48)
  gives a total of   7935 points

 initial charge density was supplied:
 charge density of overlapping atoms calculated
 number of electron      54.0000000 magnetization       0.0000000
 keeping initial charge density in first step


--------------------------------------------------------------------------------------------------------


 Maximum index for augmentation-charges         8337 (set IRDMAX)


--------------------------------------------------------------------------------------------------------


 First call to EWALD:  gamma=   0.420
 Maximum number of real-space cells 2x 2x 3
 Maximum number of reciprocal cells 3x 3x 2

    FEWALD:  cpu time    0.0010: real time    0.0010


--------------------------------------- Iteration      1(   1)  ---------------------------------------


    POTLOK:  cpu time    0.0100: real time    0.0100
    SETDIJ:  cpu time    0.2478: real time    0.2478
atom =   1  type =  1  l = 2
 
 onsite density matrix
 
spin component  1
 
  0.2837  0.0000  0.0000  0.0000  0.0000
  0.0000  0.2837  0.0000  0.0000  0.0000
  0.0000  0.0000  0.2837  0.0000  0.0000
  0.0000  0.0000  0.0000  0.2837  0.0000
  0.0000  0.0000  0.0000  0.0000  0.2837
 
spin component  2
 
  0.7701  0.0000  0.0000  0.0000  0.0000
  0.0000  0.7701  0.0000  0.0000  0.0000
  0.0000  0.0000  0.7701  0.0000  0.0000
  0.0000  0.0000  0.0000  0.7701  0.0000
  0.0000  0.0000  0.0000  0.0000  0.7701
 
 occupancies and eigenvectors
 
  o =  0.2837  v =  1.0000  0.0000  0.0000  0.0000  0.0000  0.0000  0.0000  0.0000  0.0000  0.0000      0.0000  0.0000  0.0000  0.0000  0.0000  0.0000  0.0000  0.0000  0.0000  0.0000
  o =  0.2837  v =  0.0000  1.0000  0.0000  0.0000  0.0000  0.0000  0.0000  0.0000  0.0000  0.0000      0.0000  0.0000  0.0000  0.0000  0.0000  0.0000  0.0000  0.0000  0.0000  0.0000
  o =  0.2837  v =  0.0000  0.0000  1.0000  0.0000  0.0000  0.0000  0.0000  0.0000  0.0000  0.0000      0.0000  0.0000  0.0000  0.0000  0.0000  0.0000  0.0000  0.0000  0.0000  0.0000
  o =  0.2837  v =  0.0000  0.0000  0.0000  1.0000  0.0000  0.0000  0.0000  0.0000  0.0000  0.0000      0.0000  0.0000  0.0000  0.0000  0.0000  0.0000  0.0000  0.0000  0.0000  0.0000
  o =  0.2837  v =  0.0000  0.0000  0.0000  0.0000  1.0000  0.0000  0.0000  0.0000  0.0000  0.0000      0.0000  0.0000  0.0000  0.0000  0.0000  0.0000  0.0000  0.0000  0.0000  0.0000
  o =  0.7701  v =  0.0000  0.0000  0.0000  0.0000  0.0000  1.0000  0.0000  0.0000  0.0000  0.0000      0.0000  0.0000  0.0000  0.0000  0.0000  0.0000  0.0000  0.0000  0.0000  0.0000
  o =  0.7701  v =  0.0000  0.0000  0.0000  0.0000  0.0000  0.0000  1.0000  0.0000  0.0000  0.0000      0.0000  0.0000  0.0000  0.0000  0.0000  0.0000  0.0000  0.0000  0.0000  0.0000
  o =  0.7701  v =  0.0000  0.0000  0.0000  0.0000  0.0000  0.0000  0.0000  1.0000  0.0000  0.0000      0.0000  0.0000  0.0000  0.0000  0.0000  0.0000  0.0000  0.0000  0.0000  0.0000
  o =  0.7701  v =  0.0000  0.0000  0.0000  0.0000  0.0000  0.0000  0.0000  0.0000  1.0000  0.0000      0.0000  0.0000  0.0000  0.0000  0.0000  0.0000  0.0000  0.0000  0.0000  0.0000
  o =  0.7701  v =  0.0000  0.0000  0.0000  0.0000  0.0000  0.0000  0.0000  0.0000  0.0000  1.0000      0.0000  0.0000  0.0000  0.0000  0.0000  0.0000  0.0000  0.0000  0.0000  0.0000
atom =   2  type =  1  l = 2
 
 onsite density matrix
 
spin component  1
 
  0.7701  0.0000  0.0000  0.0000  0.0000
  0.0000  0.7701  0.0000  0.0000  0.0000
  0.0000  0.0000  0.7701  0.0000  0.0000
  0.0000  0.0000  0.0000  0.7701  0.0000
  0.0000  0.0000  0.0000  0.0000  0.7701
 
spin component  2
 
  0.2837  0.0000  0.0000  0.0000  0.0000
  0.0000  0.2837  0.0000  0.0000  0.0000
  0.0000  0.0000  0.2837  0.0000  0.0000
  0.0000  0.0000  0.0000  0.2837  0.0000
  0.0000  0.0000  0.0000  0.0000  0.2837
 
 occupancies and eigenvectors
 
  o =  0.2837  v =  0.0000  0.0000  0.0000  0.0000  0.0000  1.0000  0.0000  0.0000  0.0000  0.0000      0.0000  0.0000  0.0000  0.0000  0.0000  0.0000  0.0000  0.0000  0.0000  0.0000
  o =  0.2837  v =  0.0000  0.0000  0.0000  0.0000  0.0000  0.0000  1.0000  0.0000  0.0000  0.0000      0.0000  0.0000  0.0000  0.0000  0.0000  0.0000  0.0000  0.0000  0.0000  0.0000
  o =  0.2837  v =  0.0000  0.0000  0.0000  0.0000  0.0000  0.0000  0.0000  1.0000  0.0000  0.0000      0.0000  0.0000  0.0000  0.0000  0.0000  0.0000  0.0000  0.0000  0.0000  0.0000
  o =  0.2837  v =  0.0000  0.0000  0.0000  0.0000  0.0000  0.0000  0.0000  0.0000  1.0000  0.0000      0.0000  0.0000  0.0000  0.0000  0.0000  0.0000  0.0000  0.0000  0.0000  0.0000
  o =  0.2837  v =  0.0000  0.0000  0.0000  0.0000  0.0000  0.0000  0.0000  0.0000  0.0000  1.0000      0.0000  0.0000  0.0000  0.0000  0.0000  0.0000  0.0000  0.0000  0.0000  0.0000
  o =  0.7701  v =  1.0000  0.0000  0.0000  0.0000  0.0000  0.0000  0.0000  0.0000  0.0000  0.0000      0.0000  0.0000  0.0000  0.0000  0.0000  0.0000  0.0000  0.0000  0.0000  0.0000
  o =  0.7701  v =  0.0000  1.0000  0.0000  0.0000  0.0000  0.0000  0.0000  0.0000  0.0000  0.0000      0.0000  0.0000  0.0000  0.0000  0.0000  0.0000  0.0000  0.0000  0.0000  0.0000
  o =  0.7701  v =  0.0000  0.0000  1.0000  0.0000  0.0000  0.0000  0.0000  0.0000  0.0000  0.0000      0.0000  0.0000  0.0000  0.0000  0.0000  0.0000  0.0000  0.0000  0.0000  0.0000
  o =  0.7701  v =  0.0000  0.0000  0.0000  1.0000  0.0000  0.0000  0.0000  0.0000  0.0000  0.0000      0.0000  0.0000  0.0000  0.0000  0.0000  0.0000  0.0000  0.0000  0.0000  0.0000
  o =  0.7701  v =  0.0000  0.0000  0.0000  0.0000  1.0000  0.0000  0.0000  0.0000  0.0000  0.0000      0.0000  0.0000  0.0000  0.0000  0.0000  0.0000  0.0000  0.0000  0.0000  0.0000
     EDDAV:  cpu time    0.6263: real time    0.6464
 BZINTS: Fermi energy: 20.729709; 54.011013 electrons
         Band energy:  59.803809;  BLOECHL correction: -0.175707
       DOS:  cpu time    0.0132: real time    0.0132
    --------------------------------------------
      LOOP:  cpu time    0.8973: real time    0.9174

 eigenvalue-minimisations  :  1296
 total energy-change (2. order) : 0.7870208E+03  (-0.4229416E+04)
 number of electron      54.0000000 magnetization       0.0000000
 augmentation part       54.0000000 magnetization       0.0000000

 Free energy of the ion-electron system (eV)
  ---------------------------------------------------
  alpha Z        PSCENC =       203.13634349
  Ewald energy   TEWEN  =     -4247.17488411
  -Hartree energ DENC   =     -2095.39188686
  -exchange      EXHF   =         0.00000000
  -V(xc)+E(xc)   XCENC  =       295.17385233
  PAW double counting   =      5431.03059579    -5549.10764102
  entropy T*S    EENTRO =         0.00000000
  eigenvalues    EBANDS =        59.80380863
  atomic energy  EATOM  =      6689.55061094
  Solvation  Ediel_sol  =         0.00000000
  ---------------------------------------------------
  free energy    TOTEN  =       787.02079919 eV

  energy without entropy =      787.02079919  energy(sigma->0) =      787.02079919


--------------------------------------------------------------------------------------------------------




--------------------------------------- Iteration      1(   2)  ---------------------------------------


     EDDAV:  cpu time    0.6854: real time    0.6854
 BZINTS: Fermi energy:  4.644501; 54.000000 electrons
         Band energy:-708.976054;  BLOECHL correction:  0.000000
       DOS:  cpu time    0.0021: real time    0.0021
    --------------------------------------------
      LOOP:  cpu time    0.6875: real time    0.6875

 eigenvalue-minimisations  :  1476
 total energy-change (2. order) :-0.7687799E+03  (-0.7418225E+03)
 number of electron      54.0000000 magnetization       0.0000000
 augmentation part       54.0000000 magnetization       0.0000000

 Free energy of the ion-electron system (eV)
  ---------------------------------------------------
  alpha Z        PSCENC =       203.13634349
  Ewald energy   TEWEN  =     -4247.17488411
  -Hartree energ DENC   =     -2095.39188686
  -exchange      EXHF   =         0.00000000
  -V(xc)+E(xc)   XCENC  =       295.17385233
  PAW double counting   =      5431.03059579    -5549.10764102
  entropy T*S    EENTRO =         0.00000000
  eigenvalues    EBANDS =      -708.97605411
  atomic energy  EATOM  =      6689.55061094
  Solvation  Ediel_sol  =         0.00000000
  ---------------------------------------------------
  free energy    TOTEN  =        18.24093645 eV

  energy without entropy =       18.24093645  energy(sigma->0) =       18.24093645


--------------------------------------------------------------------------------------------------------




--------------------------------------- Iteration      1(   3)  ---------------------------------------


     EDDAV:  cpu time    0.7264: real time    0.7264
 BZINTS: Fermi energy:  3.427803; 54.000000 electrons
         Band energy:-767.732329;  BLOECHL correction:  0.000000
       DOS:  cpu time    0.0020: real time    0.0020
    --------------------------------------------
      LOOP:  cpu time    0.7284: real time    0.7284

 eigenvalue-minimisations  :  1572
 total energy-change (2. order) :-0.5875628E+02  (-0.5846337E+02)
 number of electron      54.0000000 magnetization       0.0000000
 augmentation part       54.0000000 magnetization       0.0000000

 Free energy of the ion-electron system (eV)
  ---------------------------------------------------
  alpha Z        PSCENC =       203.13634349
  Ewald energy   TEWEN  =     -4247.17488411
  -Hartree energ DENC   =     -2095.39188686
  -exchange      EXHF   =         0.00000000
  -V(xc)+E(xc)   XCENC  =       295.17385233
  PAW double counting   =      5431.03059579    -5549.10764102
  entropy T*S    EENTRO =         0.00000000
  eigenvalues    EBANDS =      -767.73232937
  atomic energy  EATOM  =      6689.55061094
  Solvation  Ediel_sol  =         0.00000000
  ---------------------------------------------------
  free energy    TOTEN  =       -40.51533881 eV

  energy without entropy =      -40.51533881  energy(sigma->0) =      -40.51533881


--------------------------------------------------------------------------------------------------------




--------------------------------------- Iteration      1(   4)  ---------------------------------------


     EDDAV:  cpu time    0.6793: real time    0.6794
 BZINTS: Fermi energy:  3.463158; 54.000000 electrons
         Band energy:-768.647897;  BLOECHL correction:  0.000000
       DOS:  cpu time    0.0017: real time    0.0017
    --------------------------------------------
      LOOP:  cpu time    0.6810: real time    0.6811

 eigenvalue-minimisations  :  1452
 total energy-change (2. order) :-0.9155679E+00  (-0.9152247E+00)
 number of electron      54.0000000 magnetization       0.0000000
 augmentation part       54.0000000 magnetization       0.0000000

 Free energy of the ion-electron system (eV)
  ---------------------------------------------------
  alpha Z        PSCENC =       203.13634349
  Ewald energy   TEWEN  =     -4247.17488411
  -Hartree energ DENC   =     -2095.39188686
  -exchange      EXHF   =         0.00000000
  -V(xc)+E(xc)   XCENC  =       295.17385233
  PAW double counting   =      5431.03059579    -5549.10764102
  entropy T*S    EENTRO =         0.00000000
  eigenvalues    EBANDS =      -768.64789727
  atomic energy  EATOM  =      6689.55061094
  Solvation  Ediel_sol  =         0.00000000
  ---------------------------------------------------
  free energy    TOTEN  =       -41.43090671 eV

  energy without entropy =      -41.43090671  energy(sigma->0) =      -41.43090671


--------------------------------------------------------------------------------------------------------




--------------------------------------- Iteration      1(   5)  ---------------------------------------


     EDDAV:  cpu time    0.7102: real time    0.7102
 BZINTS: Fermi energy:  3.434090; 54.000000 electrons
         Band energy:-768.661649;  BLOECHL correction:  0.000000
       DOS:  cpu time    0.0017: real time    0.0017
    CHARGE:  cpu time    0.0720: real time    0.0720
    MIXING:  cpu time    0.0008: real time    0.0008
    --------------------------------------------
      LOOP:  cpu time    0.7847: real time    0.7847

 eigenvalue-minimisations  :  1536
 total energy-change (2. order) :-0.1375161E-01  (-0.1375150E-01)
 number of electron      54.0000002 magnetization      -0.0000000
 augmentation part       20.1173771 magnetization      -0.0000000

 Broyden mixing:
  rms(total) = 0.24586E+01    rms(broyden)= 0.24586E+01
  rms(prec ) = 0.31969E+01
  weight for this iteration     100.00

 Free energy of the ion-electron system (eV)
  ---------------------------------------------------
  alpha Z        PSCENC =       203.13634349
  Ewald energy   TEWEN  =     -4247.17488411
  -Hartree energ DENC   =     -2095.39188686
  -exchange      EXHF   =         0.00000000
  -V(xc)+E(xc)   XCENC  =       295.17385233
  PAW double counting   =      5431.03059579    -5549.10764102
  entropy T*S    EENTRO =         0.00000000
  eigenvalues    EBANDS =      -768.66164888
  atomic energy  EATOM  =      6689.55061094
  Solvation  Ediel_sol  =         0.00000000
  ---------------------------------------------------
  free energy    TOTEN  =       -41.44465832 eV

  energy without entropy =      -41.44465832  energy(sigma->0) =      -41.44465832


--------------------------------------------------------------------------------------------------------




--------------------------------------- Iteration      1(   6)  ---------------------------------------


    POTLOK:  cpu time    0.0078: real time    0.0078
    SETDIJ:  cpu time    0.2498: real time    0.2498
atom =   1  type =  1  l = 2
 
 onsite density matrix
 
spin component  1
 
 -0.0731  0.0000  0.0048  0.0000  0.0000
  0.0000 -0.0765  0.0000  0.0033  0.0000
  0.0048  0.0000 -0.0743  0.0000 -0.0000
  0.0000  0.0033  0.0000 -0.0765  0.0000
  0.0000  0.0000 -0.0000  0.0000 -0.0829
 
spin component  2
 
  1.1008  0.0000  0.0137  0.0000 -0.0000
  0.0000  1.0986  0.0000  0.0122  0.0000
  0.0137  0.0000  1.0920  0.0000  0.0000
  0.0000  0.0122  0.0000  1.0986  0.0000
 -0.0000  0.0000  0.0000  0.0000  1.0886
 
 occupancies and eigenvectors
 
  o = -0.0829  v =  0.0000  0.0000 -0.0000 -0.0000 -1.0000  0.0000  0.0000  0.0000  0.0000  0.0000      0.0000  0.0000  0.0000  0.0000  0.0000  0.0000  0.0000  0.0000  0.0000  0.0000
  o = -0.0798  v = -0.0000 -0.7071  0.0000  0.7071 -0.0000  0.0000  0.0000  0.0000  0.0000  0.0000      0.0000  0.0000  0.0000  0.0000  0.0000  0.0000  0.0000  0.0000  0.0000  0.0000
  o = -0.0786  v =  0.6647 -0.0000 -0.7471  0.0000  0.0000  0.0000  0.0000  0.0000  0.0000  0.0000      0.0000  0.0000  0.0000  0.0000  0.0000  0.0000  0.0000  0.0000  0.0000  0.0000
  o = -0.0732  v = -0.0000  0.7071 -0.0000  0.7071  0.0000  0.0000  0.0000  0.0000  0.0000  0.0000      0.0000  0.0000  0.0000  0.0000  0.0000  0.0000  0.0000  0.0000  0.0000  0.0000
  o = -0.0688  v =  0.7471  0.0000  0.6647  0.0000 -0.0000  0.0000  0.0000  0.0000  0.0000  0.0000      0.0000  0.0000  0.0000  0.0000  0.0000  0.0000  0.0000  0.0000  0.0000  0.0000
  o =  1.0820  v =  0.0000  0.0000  0.0000  0.0000  0.0000  0.5882 -0.0000 -0.8087  0.0000  0.0000      0.0000  0.0000  0.0000  0.0000  0.0000  0.0000  0.0000  0.0000  0.0000  0.0000
  o =  1.0863  v =  0.0000  0.0000  0.0000  0.0000  0.0000 -0.0000 -0.7071  0.0000  0.7071  0.0000      0.0000  0.0000  0.0000  0.0000  0.0000  0.0000  0.0000  0.0000  0.0000  0.0000
  o =  1.0886  v =  0.0000  0.0000  0.0000  0.0000  0.0000 -0.0000 -0.0000  0.0000 -0.0000  1.0000      0.0000  0.0000  0.0000  0.0000  0.0000  0.0000  0.0000  0.0000  0.0000  0.0000
  o =  1.1107  v =  0.0000  0.0000  0.0000  0.0000  0.0000  0.8087  0.0000  0.5882  0.0000  0.0000      0.0000  0.0000  0.0000  0.0000  0.0000  0.0000  0.0000  0.0000  0.0000  0.0000
  o =  1.1108  v =  0.0000  0.0000  0.0000  0.0000  0.0000  0.0000 -0.7071  0.0000 -0.7071 -0.0000      0.0000  0.0000  0.0000  0.0000  0.0000  0.0000  0.0000  0.0000  0.0000  0.0000
atom =   2  type =  1  l = 2
 
 onsite density matrix
 
spin component  1
 
  1.1008  0.0000 -0.0137  0.0000 -0.0000
  0.0000  1.0986  0.0000 -0.0122  0.0000
 -0.0137  0.0000  1.0920  0.0000  0.0000
  0.0000 -0.0122  0.0000  1.0986  0.0000
 -0.0000  0.0000  0.0000  0.0000  1.0886
 
spin component  2
 
 -0.0731  0.0000 -0.0048  0.0000  0.0000
  0.0000 -0.0765  0.0000 -0.0033  0.0000
 -0.0048  0.0000 -0.0743  0.0000  0.0000
  0.0000 -0.0033  0.0000 -0.0765  0.0000
  0.0000  0.0000  0.0000  0.0000 -0.0829
 
 occupancies and eigenvectors
 
  o = -0.0829  v =  0.0000  0.0000  0.0000  0.0000  0.0000  0.0000 -0.0000  0.0000 -0.0000 -1.0000      0.0000  0.0000  0.0000  0.0000  0.0000  0.0000  0.0000  0.0000  0.0000  0.0000
  o = -0.0798  v =  0.0000  0.0000  0.0000  0.0000  0.0000 -0.0000  0.7071 -0.0000  0.7071 -0.0000      0.0000  0.0000  0.0000  0.0000  0.0000  0.0000  0.0000  0.0000  0.0000  0.0000
  o = -0.0786  v =  0.0000  0.0000  0.0000  0.0000  0.0000  0.6647  0.0000  0.7471  0.0000  0.0000      0.0000  0.0000  0.0000  0.0000  0.0000  0.0000  0.0000  0.0000  0.0000  0.0000
  o = -0.0732  v =  0.0000  0.0000  0.0000  0.0000  0.0000 -0.0000 -0.7071 -0.0000  0.7071 -0.0000      0.0000  0.0000  0.0000  0.0000  0.0000  0.0000  0.0000  0.0000  0.0000  0.0000
  o = -0.0688  v =  0.0000  0.0000  0.0000  0.0000  0.0000  0.7471 -0.0000 -0.6647  0.0000 -0.0000      0.0000  0.0000  0.0000  0.0000  0.0000  0.0000  0.0000  0.0000  0.0000  0.0000
  o =  1.0820  v =  0.5882 -0.0000  0.8087 -0.0000 -0.0000  0.0000  0.0000  0.0000  0.0000  0.0000      0.0000  0.0000  0.0000  0.0000  0.0000  0.0000  0.0000  0.0000  0.0000  0.0000
  o =  1.0863  v = -0.0000 -0.7071 -0.0000 -0.7071  0.0000  0.0000  0.0000  0.0000  0.0000  0.0000      0.0000  0.0000  0.0000  0.0000  0.0000  0.0000  0.0000  0.0000  0.0000  0.0000
  o =  1.0886  v =  0.0000  0.0000  0.0000  0.0000  1.0000  0.0000  0.0000  0.0000  0.0000  0.0000      0.0000  0.0000  0.0000  0.0000  0.0000  0.0000  0.0000  0.0000  0.0000  0.0000
  o =  1.1107  v =  0.8087  0.0000 -0.5882 -0.0000 -0.0000  0.0000  0.0000  0.0000  0.0000  0.0000      0.0000  0.0000  0.0000  0.0000  0.0000  0.0000  0.0000  0.0000  0.0000  0.0000
  o =  1.1108  v =  0.0000 -0.7071 -0.0000  0.7071  0.0000  0.0000  0.0000  0.0000  0.0000  0.0000      0.0000  0.0000  0.0000  0.0000  0.0000  0.0000  0.0000  0.0000  0.0000  0.0000
     EDDAV:  cpu time    0.7379: real time    0.7380
 BZINTS: Fermi energy:  1.707016; 54.000000 electrons
         Band energy:-753.000471;  BLOECHL correction:  0.000000
       DOS:  cpu time    0.0017: real time    0.0017
    CHARGE:  cpu time    0.0720: real time    0.0720
    MIXING:  cpu time    0.0008: real time    0.0008
    --------------------------------------------
      LOOP:  cpu time    1.0700: real time    1.0701

 eigenvalue-minimisations  :  1608
 total energy-change (2. order) : 0.2081582E+01  (-0.1566821E+01)
 number of electron      54.0000002 magnetization      -0.0000000
 augmentation part       19.9656134 magnetization      -0.0000000

 Broyden mixing:
  rms(total) = 0.15817E+01    rms(broyden)= 0.15817E+01
  rms(prec ) = 0.16325E+01
  weight for this iteration     100.00

 eigenvalues of (default mixing * dielectric matrix)
  average eigenvalue GAMMA=   0.8104
  0.8104

 Free energy of the ion-electron system (eV)
  ---------------------------------------------------
  alpha Z        PSCENC =       203.13634349
  Ewald energy   TEWEN  =     -4247.17488411
  -Hartree energ DENC   =     -2118.07725999
  -exchange      EXHF   =         0.00000000
  -V(xc)+E(xc)   XCENC  =       295.78561652
  PAW double counting   =      5721.27314444    -5830.85617666
  entropy T*S    EENTRO =         0.00000000
  eigenvalues    EBANDS =      -753.00047123
  atomic energy  EATOM  =      6689.55061094
  Solvation  Ediel_sol  =         0.00000000
  ---------------------------------------------------
  free energy    TOTEN  =       -39.36307661 eV

  energy without entropy =      -39.36307661  energy(sigma->0) =      -39.36307661


--------------------------------------------------------------------------------------------------------




--------------------------------------- Iteration      1(   7)  ---------------------------------------


    POTLOK:  cpu time    0.0076: real time    0.0076
    SETDIJ:  cpu time    0.2493: real time    0.2493
atom =   1  type =  1  l = 2
 
 onsite density matrix
 
spin component  1
 
  0.1236  0.0000  0.0220  0.0000 -0.0000
  0.0000  0.1166  0.0000  0.0183  0.0000
  0.0220  0.0000  0.1113  0.0000  0.0000
  0.0000  0.0183  0.0000  0.1166  0.0000
 -0.0000  0.0000  0.0000  0.0000  0.0972
 
spin component  2
 
  0.8994  0.0000  0.0073  0.0000  0.0000
  0.0000  0.8973  0.0000  0.0063  0.0000
  0.0073  0.0000  0.8957  0.0000 -0.0000
  0.0000  0.0063  0.0000  0.8973  0.0000
  0.0000  0.0000 -0.0000  0.0000  0.8906
 
 occupancies and eigenvectors
 
  o =  0.0946  v = -0.6043 -0.0000  0.7967  0.0000 -0.0000  0.0000  0.0000  0.0000  0.0000  0.0000      0.0000  0.0000  0.0000  0.0000  0.0000  0.0000  0.0000  0.0000  0.0000  0.0000
  o =  0.0972  v = -0.0000  0.0000  0.0000  0.0000  1.0000  0.0000  0.0000  0.0000  0.0000  0.0000      0.0000  0.0000  0.0000  0.0000  0.0000  0.0000  0.0000  0.0000  0.0000  0.0000
  o =  0.0984  v =  0.0000  0.7071  0.0000 -0.7071 -0.0000  0.0000  0.0000  0.0000  0.0000  0.0000      0.0000  0.0000  0.0000  0.0000  0.0000  0.0000  0.0000  0.0000  0.0000  0.0000
  o =  0.1349  v =  0.0000 -0.7071  0.0000 -0.7071  0.0000  0.0000  0.0000  0.0000  0.0000  0.0000      0.0000  0.0000  0.0000  0.0000  0.0000  0.0000  0.0000  0.0000  0.0000  0.0000
  o =  0.1403  v = -0.7967 -0.0000 -0.6043  0.0000 -0.0000  0.0000  0.0000  0.0000  0.0000  0.0000      0.0000  0.0000  0.0000  0.0000  0.0000  0.0000  0.0000  0.0000  0.0000  0.0000
  o =  0.8900  v =  0.0000  0.0000  0.0000  0.0000  0.0000 -0.6127  0.0000  0.7903 -0.0000  0.0000      0.0000  0.0000  0.0000  0.0000  0.0000  0.0000  0.0000  0.0000  0.0000  0.0000
  o =  0.8906  v =  0.0000  0.0000  0.0000  0.0000  0.0000 -0.0000 -0.0000  0.0000  0.0000 -1.0000      0.0000  0.0000  0.0000  0.0000  0.0000  0.0000  0.0000  0.0000  0.0000  0.0000
  o =  0.8909  v =  0.0000  0.0000  0.0000  0.0000  0.0000 -0.0000 -0.7071  0.0000  0.7071  0.0000      0.0000  0.0000  0.0000  0.0000  0.0000  0.0000  0.0000  0.0000  0.0000  0.0000
  o =  0.9036  v =  0.0000  0.0000  0.0000  0.0000  0.0000 -0.0000 -0.7071 -0.0000 -0.7071 -0.0000      0.0000  0.0000  0.0000  0.0000  0.0000  0.0000  0.0000  0.0000  0.0000  0.0000
  o =  0.9051  v =  0.0000  0.0000  0.0000  0.0000  0.0000 -0.7903  0.0000 -0.6127  0.0000  0.0000      0.0000  0.0000  0.0000  0.0000  0.0000  0.0000  0.0000  0.0000  0.0000  0.0000
atom =   2  type =  1  l = 2
 
 onsite density matrix
 
spin component  1
 
  0.8994  0.0000 -0.0073  0.0000  0.0000
  0.0000  0.8973  0.0000 -0.0063  0.0000
 -0.0073  0.0000  0.8957  0.0000  0.0000
  0.0000 -0.0063  0.0000  0.8973  0.0000
  0.0000  0.0000  0.0000  0.0000  0.8906
 
spin component  2
 
  0.1236  0.0000 -0.0220  0.0000 -0.0000
  0.0000  0.1166  0.0000 -0.0183  0.0000
 -0.0220  0.0000  0.1113  0.0000 -0.0000
  0.0000 -0.0183  0.0000  0.1166  0.0000
 -0.0000  0.0000 -0.0000  0.0000  0.0972
 
 occupancies and eigenvectors
 
  o =  0.0946  v =  0.0000  0.0000  0.0000  0.0000  0.0000 -0.6043 -0.0000 -0.7967  0.0000 -0.0000      0.0000  0.0000  0.0000  0.0000  0.0000  0.0000  0.0000  0.0000  0.0000  0.0000
  o =  0.0972  v =  0.0000  0.0000  0.0000  0.0000  0.0000  0.0000 -0.0000  0.0000 -0.0000 -1.0000      0.0000  0.0000  0.0000  0.0000  0.0000  0.0000  0.0000  0.0000  0.0000  0.0000
  o =  0.0984  v =  0.0000  0.0000  0.0000  0.0000  0.0000  0.0000  0.7071  0.0000  0.7071 -0.0000      0.0000  0.0000  0.0000  0.0000  0.0000  0.0000  0.0000  0.0000  0.0000  0.0000
  o =  0.1349  v =  0.0000  0.0000  0.0000  0.0000  0.0000 -0.0000  0.7071 -0.0000 -0.7071 -0.0000      0.0000  0.0000  0.0000  0.0000  0.0000  0.0000  0.0000  0.0000  0.0000  0.0000
  o =  0.1403  v =  0.0000  0.0000  0.0000  0.0000  0.0000 -0.7967  0.0000  0.6043  0.0000 -0.0000      0.0000  0.0000  0.0000  0.0000  0.0000  0.0000  0.0000  0.0000  0.0000  0.0000
  o =  0.8900  v = -0.6127  0.0000 -0.7903  0.0000  0.0000  0.0000  0.0000  0.0000  0.0000  0.0000      0.0000  0.0000  0.0000  0.0000  0.0000  0.0000  0.0000  0.0000  0.0000  0.0000
  o =  0.8906  v =  0.0000 -0.0000 -0.0000 -0.0000 -1.0000  0.0000  0.0000  0.0000  0.0000  0.0000      0.0000  0.0000  0.0000  0.0000  0.0000  0.0000  0.0000  0.0000  0.0000  0.0000
  o =  0.8909  v =  0.0000 -0.7071  0.0000 -0.7071  0.0000  0.0000  0.0000  0.0000  0.0000  0.0000      0.0000  0.0000  0.0000  0.0000  0.0000  0.0000  0.0000  0.0000  0.0000  0.0000
  o =  0.9036  v =  0.0000  0.7071 -0.0000 -0.7071 -0.0000  0.0000  0.0000  0.0000  0.0000  0.0000      0.0000  0.0000  0.0000  0.0000  0.0000  0.0000  0.0000  0.0000  0.0000  0.0000
  o =  0.9051  v = -0.7903  0.0000  0.6127  0.0000 -0.0000  0.0000  0.0000  0.0000  0.0000  0.0000      0.0000  0.0000  0.0000  0.0000  0.0000  0.0000  0.0000  0.0000  0.0000  0.0000
     EDDAV:  cpu time    0.7079: real time    0.7080
 BZINTS: Fermi energy:  1.994547; 54.000000 electrons
         Band energy:-748.229372;  BLOECHL correction:  0.000000
       DOS:  cpu time    0.0018: real time    0.0018
    CHARGE:  cpu time    0.0720: real time    0.0720
    MIXING:  cpu time    0.0009: real time    0.0009
    --------------------------------------------
      LOOP:  cpu time    1.0395: real time    1.0395

 eigenvalue-minimisations  :  1524
 total energy-change (2. order) :-0.6389550E+00  (-0.1569964E+00)
 number of electron      54.0000002 magnetization       0.0000000
 augmentation part       19.9443590 magnetization       0.0000000

 Broyden mixing:
  rms(total) = 0.11765E+01    rms(broyden)= 0.11765E+01
  rms(prec ) = 0.12049E+01
  weight for this iteration     100.00

 eigenvalues of (default mixing * dielectric matrix)
  average eigenvalue GAMMA=   1.4367
  0.7011  2.1723

 Free energy of the ion-electron system (eV)
  ---------------------------------------------------
  alpha Z        PSCENC =       203.13634349
  Ewald energy   TEWEN  =     -4247.17488411
  -Hartree energ DENC   =     -2114.35262385
  -exchange      EXHF   =         0.00000000
  -V(xc)+E(xc)   XCENC  =       296.41970913
  PAW double counting   =      5971.71065244    -6091.06246747
  entropy T*S    EENTRO =         0.00000000
  eigenvalues    EBANDS =      -748.22937222
  atomic energy  EATOM  =      6689.55061094
  Solvation  Ediel_sol  =         0.00000000
  ---------------------------------------------------
  free energy    TOTEN  =       -40.00203166 eV

  energy without entropy =      -40.00203166  energy(sigma->0) =      -40.00203166


--------------------------------------------------------------------------------------------------------




--------------------------------------- Iteration      1(   8)  ---------------------------------------


    POTLOK:  cpu time    0.0077: real time    0.0077
    SETDIJ:  cpu time    0.2507: real time    0.2507
atom =   1  type =  1  l = 2
 
 onsite density matrix
 
spin component  1
 
 -0.0253  0.0000  0.0233  0.0000  0.0000
  0.0000 -0.0330  0.0000  0.0182  0.0000
  0.0233  0.0000 -0.0360  0.0000 -0.0000
  0.0000  0.0182  0.0000 -0.0330  0.0000
  0.0000  0.0000 -0.0000  0.0000 -0.0556
 
spin component  2
 
  1.0494  0.0000  0.0207  0.0000 -0.0000
  0.0000  1.0433  0.0000  0.0190  0.0000
  0.0207  0.0000  1.0354  0.0000  0.0000
  0.0000  0.0190  0.0000  1.0433  0.0000
 -0.0000  0.0000  0.0000  0.0000  1.0263
 
 occupancies and eigenvectors
 
  o = -0.0556  v =  0.0000  0.0000 -0.0000  0.0000 -1.0000  0.0000  0.0000  0.0000  0.0000  0.0000      0.0000  0.0000  0.0000  0.0000  0.0000  0.0000  0.0000  0.0000  0.0000  0.0000
  o = -0.0546  v = -0.6233  0.0000  0.7820  0.0000 -0.0000  0.0000  0.0000  0.0000  0.0000  0.0000      0.0000  0.0000  0.0000  0.0000  0.0000  0.0000  0.0000  0.0000  0.0000  0.0000
  o = -0.0512  v =  0.0000  0.7071  0.0000 -0.7071  0.0000  0.0000  0.0000  0.0000  0.0000  0.0000      0.0000  0.0000  0.0000  0.0000  0.0000  0.0000  0.0000  0.0000  0.0000  0.0000
  o = -0.0148  v =  0.0000  0.7071  0.0000  0.7071  0.0000  0.0000  0.0000  0.0000  0.0000  0.0000      0.0000  0.0000  0.0000  0.0000  0.0000  0.0000  0.0000  0.0000  0.0000  0.0000
  o = -0.0067  v =  0.7820  0.0000  0.6233  0.0000 -0.0000  0.0000  0.0000  0.0000  0.0000  0.0000      0.0000  0.0000  0.0000  0.0000  0.0000  0.0000  0.0000  0.0000  0.0000  0.0000
  o =  1.0205  v =  0.0000  0.0000  0.0000  0.0000  0.0000 -0.5827  0.0000  0.8127 -0.0000 -0.0000      0.0000  0.0000  0.0000  0.0000  0.0000  0.0000  0.0000  0.0000  0.0000  0.0000
  o =  1.0243  v =  0.0000  0.0000  0.0000  0.0000  0.0000 -0.0000 -0.7071  0.0000  0.7071  0.0000      0.0000  0.0000  0.0000  0.0000  0.0000  0.0000  0.0000  0.0000  0.0000  0.0000
  o =  1.0263  v =  0.0000  0.0000  0.0000  0.0000  0.0000 -0.0000  0.0000  0.0000 -0.0000  1.0000      0.0000  0.0000  0.0000  0.0000  0.0000  0.0000  0.0000  0.0000  0.0000  0.0000
  o =  1.0623  v =  0.0000  0.0000  0.0000  0.0000  0.0000  0.0000 -0.7071  0.0000 -0.7071 -0.0000      0.0000  0.0000  0.0000  0.0000  0.0000  0.0000  0.0000  0.0000  0.0000  0.0000
  o =  1.0642  v =  0.0000  0.0000  0.0000  0.0000  0.0000 -0.8127 -0.0000 -0.5827 -0.0000 -0.0000      0.0000  0.0000  0.0000  0.0000  0.0000  0.0000  0.0000  0.0000  0.0000  0.0000
atom =   2  type =  1  l = 2
 
 onsite density matrix
 
spin component  1
 
  1.0494  0.0000 -0.0207  0.0000 -0.0000
  0.0000  1.0433  0.0000 -0.0190  0.0000
 -0.0207  0.0000  1.0354  0.0000  0.0000
  0.0000 -0.0190  0.0000  1.0433  0.0000
 -0.0000  0.0000  0.0000  0.0000  1.0263
 
spin component  2
 
 -0.0253  0.0000 -0.0233  0.0000 -0.0000
  0.0000 -0.0330  0.0000 -0.0182  0.0000
 -0.0233  0.0000 -0.0360  0.0000 -0.0000
  0.0000 -0.0182  0.0000 -0.0330  0.0000
 -0.0000  0.0000 -0.0000  0.0000 -0.0556
 
 occupancies and eigenvectors
 
  o = -0.0556  v =  0.0000  0.0000  0.0000  0.0000  0.0000  0.0000 -0.0000  0.0000 -0.0000  1.0000      0.0000  0.0000  0.0000  0.0000  0.0000  0.0000  0.0000  0.0000  0.0000  0.0000
  o = -0.0546  v =  0.0000  0.0000  0.0000  0.0000  0.0000  0.6233  0.0000  0.7820  0.0000 -0.0000      0.0000  0.0000  0.0000  0.0000  0.0000  0.0000  0.0000  0.0000  0.0000  0.0000
  o = -0.0512  v =  0.0000  0.0000  0.0000  0.0000  0.0000 -0.0000  0.7071 -0.0000  0.7071  0.0000      0.0000  0.0000  0.0000  0.0000  0.0000  0.0000  0.0000  0.0000  0.0000  0.0000
  o = -0.0148  v =  0.0000  0.0000  0.0000  0.0000  0.0000  0.0000 -0.7071 -0.0000  0.7071  0.0000      0.0000  0.0000  0.0000  0.0000  0.0000  0.0000  0.0000  0.0000  0.0000  0.0000
  o = -0.0067  v =  0.0000  0.0000  0.0000  0.0000  0.0000  0.7820  0.0000 -0.6233 -0.0000  0.0000      0.0000  0.0000  0.0000  0.0000  0.0000  0.0000  0.0000  0.0000  0.0000  0.0000
  o =  1.0205  v = -0.5827  0.0000 -0.8127  0.0000 -0.0000  0.0000  0.0000  0.0000  0.0000  0.0000      0.0000  0.0000  0.0000  0.0000  0.0000  0.0000  0.0000  0.0000  0.0000  0.0000
  o =  1.0243  v =  0.0000  0.7071 -0.0000  0.7071  0.0000  0.0000  0.0000  0.0000  0.0000  0.0000      0.0000  0.0000  0.0000  0.0000  0.0000  0.0000  0.0000  0.0000  0.0000  0.0000
  o =  1.0263  v =  0.0000  0.0000  0.0000  0.0000 -1.0000  0.0000  0.0000  0.0000  0.0000  0.0000      0.0000  0.0000  0.0000  0.0000  0.0000  0.0000  0.0000  0.0000  0.0000  0.0000
  o =  1.0623  v =  0.0000 -0.7071 -0.0000  0.7071  0.0000  0.0000  0.0000  0.0000  0.0000  0.0000      0.0000  0.0000  0.0000  0.0000  0.0000  0.0000  0.0000  0.0000  0.0000  0.0000
  o =  1.0642  v = -0.8127  0.0000  0.5827  0.0000  0.0000  0.0000  0.0000  0.0000  0.0000  0.0000      0.0000  0.0000  0.0000  0.0000  0.0000  0.0000  0.0000  0.0000  0.0000  0.0000
     EDDAV:  cpu time    0.7060: real time    0.7061
 BZINTS: Fermi energy:  1.631644; 54.000000 electrons
         Band energy:-756.281662;  BLOECHL correction:  0.000000
       DOS:  cpu time    0.0018: real time    0.0018
    CHARGE:  cpu time    0.0722: real time    0.0722
    MIXING:  cpu time    0.0009: real time    0.0009
    --------------------------------------------
      LOOP:  cpu time    1.0393: real time    1.0393

 eigenvalue-minimisations  :  1524
 total energy-change (2. order) : 0.8612589E-01  (-0.5175061E-01)
 number of electron      54.0000002 magnetization       0.0000000
 augmentation part       19.9787895 magnetization       0.0000000

 Broyden mixing:
  rms(total) = 0.47348E+00    rms(broyden)= 0.47348E+00
  rms(prec ) = 0.50437E+00
  weight for this iteration     100.00

 eigenvalues of (default mixing * dielectric matrix)
  average eigenvalue GAMMA=   1.2465
  2.0872  1.0198  0.6326

 Free energy of the ion-electron system (eV)
  ---------------------------------------------------
  alpha Z        PSCENC =       203.13634349
  Ewald energy   TEWEN  =     -4247.17488411
  -Hartree energ DENC   =     -2108.88415771
  -exchange      EXHF   =         0.00000000
  -V(xc)+E(xc)   XCENC  =       295.75237381
  PAW double counting   =      6240.04620864    -6356.06073862
  entropy T*S    EENTRO =         0.00000000
  eigenvalues    EBANDS =      -756.28166219
  atomic energy  EATOM  =      6689.55061094
  Solvation  Ediel_sol  =         0.00000000
  ---------------------------------------------------
  free energy    TOTEN  =       -39.91590577 eV

  energy without entropy =      -39.91590577  energy(sigma->0) =      -39.91590577


--------------------------------------------------------------------------------------------------------




--------------------------------------- Iteration      1(   9)  ---------------------------------------


    POTLOK:  cpu time    0.0076: real time    0.0076
    SETDIJ:  cpu time    0.2492: real time    0.2492
atom =   1  type =  1  l = 2
 
 onsite density matrix
 
spin component  1
 
  0.0491  0.0000  0.0273  0.0000 -0.0000
  0.0000  0.0397  0.0000  0.0229  0.0000
  0.0273  0.0000  0.0339  0.0000  0.0000
  0.0000  0.0229  0.0000  0.0397  0.0000
 -0.0000  0.0000  0.0000  0.0000  0.0144
 
spin component  2
 
  0.9741  0.0000  0.0239  0.0000 -0.0000
  0.0000  0.9672  0.0000  0.0205  0.0000
  0.0239  0.0000  0.9603  0.0000 -0.0000
  0.0000  0.0205  0.0000  0.9672  0.0000
 -0.0000  0.0000 -0.0000  0.0000  0.9464
 
 occupancies and eigenvectors
 
  o =  0.0132  v = -0.6052  0.0000  0.7961 -0.0000 -0.0000  0.0000  0.0000  0.0000  0.0000  0.0000      0.0000  0.0000  0.0000  0.0000  0.0000  0.0000  0.0000  0.0000  0.0000  0.0000
  o =  0.0144  v = -0.0000 -0.0000  0.0000  0.0000  1.0000  0.0000  0.0000  0.0000  0.0000  0.0000      0.0000  0.0000  0.0000  0.0000  0.0000  0.0000  0.0000  0.0000  0.0000  0.0000
  o =  0.0168  v =  0.0000  0.7071 -0.0000 -0.7071  0.0000  0.0000  0.0000  0.0000  0.0000  0.0000      0.0000  0.0000  0.0000  0.0000  0.0000  0.0000  0.0000  0.0000  0.0000  0.0000
  o =  0.0626  v = -0.0000 -0.7071 -0.0000 -0.7071 -0.0000  0.0000  0.0000  0.0000  0.0000  0.0000      0.0000  0.0000  0.0000  0.0000  0.0000  0.0000  0.0000  0.0000  0.0000  0.0000
  o =  0.0698  v = -0.7961  0.0000 -0.6052  0.0000 -0.0000  0.0000  0.0000  0.0000  0.0000  0.0000      0.0000  0.0000  0.0000  0.0000  0.0000  0.0000  0.0000  0.0000  0.0000  0.0000
  o =  0.9423  v =  0.0000  0.0000  0.0000  0.0000  0.0000 -0.6005  0.0000  0.7996  0.0000 -0.0000      0.0000  0.0000  0.0000  0.0000  0.0000  0.0000  0.0000  0.0000  0.0000  0.0000
  o =  0.9464  v =  0.0000  0.0000  0.0000  0.0000  0.0000  0.0000 -0.0000 -0.0000  0.0000 -1.0000      0.0000  0.0000  0.0000  0.0000  0.0000  0.0000  0.0000  0.0000  0.0000  0.0000
  o =  0.9467  v =  0.0000  0.0000  0.0000  0.0000  0.0000  0.0000 -0.7071  0.0000  0.7071  0.0000      0.0000  0.0000  0.0000  0.0000  0.0000  0.0000  0.0000  0.0000  0.0000  0.0000
  o =  0.9877  v =  0.0000  0.0000  0.0000  0.0000  0.0000  0.0000 -0.7071  0.0000 -0.7071  0.0000      0.0000  0.0000  0.0000  0.0000  0.0000  0.0000  0.0000  0.0000  0.0000  0.0000
  o =  0.9921  v =  0.0000  0.0000  0.0000  0.0000  0.0000 -0.7996  0.0000 -0.6005  0.0000  0.0000      0.0000  0.0000  0.0000  0.0000  0.0000  0.0000  0.0000  0.0000  0.0000  0.0000
atom =   2  type =  1  l = 2
 
 onsite density matrix
 
spin component  1
 
  0.9741  0.0000 -0.0239  0.0000 -0.0000
  0.0000  0.9672  0.0000 -0.0205  0.0000
 -0.0239  0.0000  0.9603  0.0000  0.0000
  0.0000 -0.0205  0.0000  0.9672  0.0000
 -0.0000  0.0000  0.0000  0.0000  0.9464
 
spin component  2
 
  0.0491  0.0000 -0.0273  0.0000 -0.0000
  0.0000  0.0397  0.0000 -0.0229  0.0000
 -0.0273  0.0000  0.0339  0.0000  0.0000
  0.0000 -0.0229  0.0000  0.0397  0.0000
 -0.0000  0.0000  0.0000  0.0000  0.0144
 
 occupancies and eigenvectors
 
  o =  0.0132  v =  0.0000  0.0000  0.0000  0.0000  0.0000 -0.6052  0.0000 -0.7961  0.0000  0.0000      0.0000  0.0000  0.0000  0.0000  0.0000  0.0000  0.0000  0.0000  0.0000  0.0000
  o =  0.0144  v =  0.0000  0.0000  0.0000  0.0000  0.0000 -0.0000 -0.0000 -0.0000  0.0000 -1.0000      0.0000  0.0000  0.0000  0.0000  0.0000  0.0000  0.0000  0.0000  0.0000  0.0000
  o =  0.0168  v =  0.0000  0.0000  0.0000  0.0000  0.0000  0.0000 -0.7071  0.0000 -0.7071  0.0000      0.0000  0.0000  0.0000  0.0000  0.0000  0.0000  0.0000  0.0000  0.0000  0.0000
  o =  0.0626  v =  0.0000  0.0000  0.0000  0.0000  0.0000  0.0000 -0.7071  0.0000  0.7071  0.0000      0.0000  0.0000  0.0000  0.0000  0.0000  0.0000  0.0000  0.0000  0.0000  0.0000
  o =  0.0698  v =  0.0000  0.0000  0.0000  0.0000  0.0000 -0.7961  0.0000  0.6052  0.0000  0.0000      0.0000  0.0000  0.0000  0.0000  0.0000  0.0000  0.0000  0.0000  0.0000  0.0000
  o =  0.9423  v = -0.6005  0.0000 -0.7996  0.0000  0.0000  0.0000  0.0000  0.0000  0.0000  0.0000      0.0000  0.0000  0.0000  0.0000  0.0000  0.0000  0.0000  0.0000  0.0000  0.0000
  o =  0.9464  v = -0.0000 -0.0000 -0.0000 -0.0000 -1.0000  0.0000  0.0000  0.0000  0.0000  0.0000      0.0000  0.0000  0.0000  0.0000  0.0000  0.0000  0.0000  0.0000  0.0000  0.0000
  o =  0.9467  v =  0.0000 -0.7071  0.0000 -0.7071  0.0000  0.0000  0.0000  0.0000  0.0000  0.0000      0.0000  0.0000  0.0000  0.0000  0.0000  0.0000  0.0000  0.0000  0.0000  0.0000
  o =  0.9877  v =  0.0000 -0.7071 -0.0000  0.7071  0.0000  0.0000  0.0000  0.0000  0.0000  0.0000      0.0000  0.0000  0.0000  0.0000  0.0000  0.0000  0.0000  0.0000  0.0000  0.0000
  o =  0.9921  v = -0.7996 -0.0000  0.6005  0.0000  0.0000  0.0000  0.0000  0.0000  0.0000  0.0000      0.0000  0.0000  0.0000  0.0000  0.0000  0.0000  0.0000  0.0000  0.0000  0.0000
     EDDAV:  cpu time    0.6828: real time    0.6828
 BZINTS: Fermi energy:  1.756039; 54.000000 electrons
         Band energy:-752.486085;  BLOECHL correction:  0.000000
       DOS:  cpu time    0.0020: real time    0.0020
    CHARGE:  cpu time    0.0720: real time    0.0720
    MIXING:  cpu time    0.0010: real time    0.0010
    --------------------------------------------
      LOOP:  cpu time    1.0147: real time    1.0147

 eigenvalue-minimisations  :  1464
 total energy-change (2. order) :-0.2716121E+00  (-0.7336313E-02)
 number of electron      54.0000002 magnetization      -0.0000000
 augmentation part       19.9680385 magnetization      -0.0000000

 Broyden mixing:
  rms(total) = 0.13576E+00    rms(broyden)= 0.13576E+00
  rms(prec ) = 0.14525E+00
  weight for this iteration     100.00

 eigenvalues of (default mixing * dielectric matrix)
  average eigenvalue GAMMA=   1.2170
  2.6242  0.8093  0.8093  0.6253

 Free energy of the ion-electron system (eV)
  ---------------------------------------------------
  alpha Z        PSCENC =       203.13634349
  Ewald energy   TEWEN  =     -4247.17488411
  -Hartree energ DENC   =     -2109.06125393
  -exchange      EXHF   =         0.00000000
  -V(xc)+E(xc)   XCENC  =       296.04050268
  PAW double counting   =      6372.29214837    -6492.48489999
  entropy T*S    EENTRO =         0.00000000
  eigenvalues    EBANDS =      -752.48608532
  atomic energy  EATOM  =      6689.55061094
  Solvation  Ediel_sol  =         0.00000000
  ---------------------------------------------------
  free energy    TOTEN  =       -40.18751787 eV

  energy without entropy =      -40.18751787  energy(sigma->0) =      -40.18751787


--------------------------------------------------------------------------------------------------------




--------------------------------------- Iteration      1(  10)  ---------------------------------------


    POTLOK:  cpu time    0.0076: real time    0.0076
    SETDIJ:  cpu time    0.2496: real time    0.2496
atom =   1  type =  1  l = 2
 
 onsite density matrix
 
spin component  1
 
  0.0541  0.0000  0.0296  0.0000 -0.0000
  0.0000  0.0444  0.0000  0.0244  0.0000
  0.0296  0.0000  0.0381  0.0000 -0.0000
  0.0000  0.0244  0.0000  0.0444  0.0000
 -0.0000  0.0000 -0.0000  0.0000  0.0171
 
spin component  2
 
  0.9694  0.0000  0.0214  0.0000  0.0000
  0.0000  0.9629  0.0000  0.0188  0.0000
  0.0214  0.0000  0.9564  0.0000  0.0000
  0.0000  0.0188  0.0000  0.9629  0.0000
  0.0000  0.0000  0.0000  0.0000  0.9443
 
 occupancies and eigenvectors
 
  o =  0.0155  v = -0.6079  0.0000  0.7940  0.0000  0.0000  0.0000  0.0000  0.0000  0.0000  0.0000      0.0000  0.0000  0.0000  0.0000  0.0000  0.0000  0.0000  0.0000  0.0000  0.0000
  o =  0.0171  v = -0.0000 -0.0000  0.0000  0.0000 -1.0000  0.0000  0.0000  0.0000  0.0000  0.0000      0.0000  0.0000  0.0000  0.0000  0.0000  0.0000  0.0000  0.0000  0.0000  0.0000
  o =  0.0200  v =  0.0000 -0.7071  0.0000  0.7071  0.0000  0.0000  0.0000  0.0000  0.0000  0.0000      0.0000  0.0000  0.0000  0.0000  0.0000  0.0000  0.0000  0.0000  0.0000  0.0000
  o =  0.0688  v =  0.0000 -0.7071  0.0000 -0.7071  0.0000  0.0000  0.0000  0.0000  0.0000  0.0000      0.0000  0.0000  0.0000  0.0000  0.0000  0.0000  0.0000  0.0000  0.0000  0.0000
  o =  0.0768  v = -0.7940  0.0000 -0.6079  0.0000  0.0000  0.0000  0.0000  0.0000  0.0000  0.0000      0.0000  0.0000  0.0000  0.0000  0.0000  0.0000  0.0000  0.0000  0.0000  0.0000
  o =  0.9405  v =  0.0000  0.0000  0.0000  0.0000  0.0000 -0.5956  0.0000  0.8033  0.0000 -0.0000      0.0000  0.0000  0.0000  0.0000  0.0000  0.0000  0.0000  0.0000  0.0000  0.0000
  o =  0.9441  v =  0.0000  0.0000  0.0000  0.0000  0.0000  0.0000  0.7071  0.0000 -0.7071  0.0000      0.0000  0.0000  0.0000  0.0000  0.0000  0.0000  0.0000  0.0000  0.0000  0.0000
  o =  0.9443  v =  0.0000  0.0000  0.0000  0.0000  0.0000 -0.0000 -0.0000  0.0000  0.0000  1.0000      0.0000  0.0000  0.0000  0.0000  0.0000  0.0000  0.0000  0.0000  0.0000  0.0000
  o =  0.9818  v =  0.0000  0.0000  0.0000  0.0000  0.0000  0.0000 -0.7071  0.0000 -0.7071 -0.0000      0.0000  0.0000  0.0000  0.0000  0.0000  0.0000  0.0000  0.0000  0.0000  0.0000
  o =  0.9853  v =  0.0000  0.0000  0.0000  0.0000  0.0000 -0.8033  0.0000 -0.5956  0.0000 -0.0000      0.0000  0.0000  0.0000  0.0000  0.0000  0.0000  0.0000  0.0000  0.0000  0.0000
atom =   2  type =  1  l = 2
 
 onsite density matrix
 
spin component  1
 
  0.9694  0.0000 -0.0214  0.0000 -0.0000
  0.0000  0.9629  0.0000 -0.0188  0.0000
 -0.0214  0.0000  0.9564  0.0000  0.0000
  0.0000 -0.0188  0.0000  0.9629  0.0000
 -0.0000  0.0000  0.0000  0.0000  0.9443
 
spin component  2
 
  0.0541  0.0000 -0.0296  0.0000 -0.0000
  0.0000  0.0444  0.0000 -0.0244  0.0000
 -0.0296  0.0000  0.0381  0.0000  0.0000
  0.0000 -0.0244  0.0000  0.0444  0.0000
 -0.0000  0.0000  0.0000  0.0000  0.0171
 
 occupancies and eigenvectors
 
  o =  0.0155  v =  0.0000  0.0000  0.0000  0.0000  0.0000 -0.6079  0.0000 -0.7940  0.0000  0.0000      0.0000  0.0000  0.0000  0.0000  0.0000  0.0000  0.0000  0.0000  0.0000  0.0000
  o =  0.0171  v =  0.0000  0.0000  0.0000  0.0000  0.0000 -0.0000 -0.0000 -0.0000  0.0000 -1.0000      0.0000  0.0000  0.0000  0.0000  0.0000  0.0000  0.0000  0.0000  0.0000  0.0000
  o =  0.0200  v =  0.0000  0.0000  0.0000  0.0000  0.0000  0.0000 -0.7071  0.0000 -0.7071  0.0000      0.0000  0.0000  0.0000  0.0000  0.0000  0.0000  0.0000  0.0000  0.0000  0.0000
  o =  0.0688  v =  0.0000  0.0000  0.0000  0.0000  0.0000  0.0000 -0.7071  0.0000  0.7071  0.0000      0.0000  0.0000  0.0000  0.0000  0.0000  0.0000  0.0000  0.0000  0.0000  0.0000
  o =  0.0768  v =  0.0000  0.0000  0.0000  0.0000  0.0000 -0.7940  0.0000  0.6079  0.0000  0.0000      0.0000  0.0000  0.0000  0.0000  0.0000  0.0000  0.0000  0.0000  0.0000  0.0000
  o =  0.9405  v = -0.5956  0.0000 -0.8033  0.0000  0.0000  0.0000  0.0000  0.0000  0.0000  0.0000      0.0000  0.0000  0.0000  0.0000  0.0000  0.0000  0.0000  0.0000  0.0000  0.0000
  o =  0.9441  v =  0.0000  0.7071  0.0000  0.7071 -0.0000  0.0000  0.0000  0.0000  0.0000  0.0000      0.0000  0.0000  0.0000  0.0000  0.0000  0.0000  0.0000  0.0000  0.0000  0.0000
  o =  0.9443  v = -0.0000 -0.0000 -0.0000  0.0000 -1.0000  0.0000  0.0000  0.0000  0.0000  0.0000      0.0000  0.0000  0.0000  0.0000  0.0000  0.0000  0.0000  0.0000  0.0000  0.0000
  o =  0.9818  v =  0.0000  0.7071  0.0000 -0.7071 -0.0000  0.0000  0.0000  0.0000  0.0000  0.0000      0.0000  0.0000  0.0000  0.0000  0.0000  0.0000  0.0000  0.0000  0.0000  0.0000
  o =  0.9853  v = -0.8033  0.0000  0.5956  0.0000  0.0000  0.0000  0.0000  0.0000  0.0000  0.0000      0.0000  0.0000  0.0000  0.0000  0.0000  0.0000  0.0000  0.0000  0.0000  0.0000
     EDDAV:  cpu time    0.7144: real time    0.7147
 BZINTS: Fermi energy:  1.805634; 54.000000 electrons
         Band energy:-751.802941;  BLOECHL correction:  0.000000
       DOS:  cpu time    0.0018: real time    0.0018
    CHARGE:  cpu time    0.0724: real time    0.0724
    MIXING:  cpu time    0.0011: real time    0.0011
    --------------------------------------------
      LOOP:  cpu time    1.0469: real time    1.0472

 eigenvalue-minimisations  :  1524
 total energy-change (2. order) :-0.4224423E-03  (-0.1571045E-02)
 number of electron      54.0000002 magnetization       0.0000000
 augmentation part       19.9647240 magnetization       0.0000000

 Broyden mixing:
  rms(total) = 0.25213E-01    rms(broyden)= 0.25213E-01
  rms(prec ) = 0.27889E-01
  weight for this iteration     100.00

 eigenvalues of (default mixing * dielectric matrix)
  average eigenvalue GAMMA=   1.1613
  2.5348  0.9677  0.9677  0.7302  0.6062

 Free energy of the ion-electron system (eV)
  ---------------------------------------------------
  alpha Z        PSCENC =       203.13634349
  Ewald energy   TEWEN  =     -4247.17488411
  -Hartree energ DENC   =     -2109.74732516
  -exchange      EXHF   =         0.00000000
  -V(xc)+E(xc)   XCENC  =       296.13475120
  PAW double counting   =      6360.37742005    -6480.66191581
  entropy T*S    EENTRO =         0.00000000
  eigenvalues    EBANDS =      -751.80294090
  atomic energy  EATOM  =      6689.55061094
  Solvation  Ediel_sol  =         0.00000000
  ---------------------------------------------------
  free energy    TOTEN  =       -40.18794032 eV

  energy without entropy =      -40.18794032  energy(sigma->0) =      -40.18794032


--------------------------------------------------------------------------------------------------------




--------------------------------------- Iteration      1(  11)  ---------------------------------------


    POTLOK:  cpu time    0.0078: real time    0.0078
    SETDIJ:  cpu time    0.2580: real time    0.2580
atom =   1  type =  1  l = 2
 
 onsite density matrix
 
spin component  1
 
  0.0527  0.0000  0.0293  0.0000  0.0000
  0.0000  0.0429  0.0000  0.0242  0.0000
  0.0293  0.0000  0.0367  0.0000  0.0000
  0.0000  0.0242  0.0000  0.0429  0.0000
  0.0000  0.0000  0.0000  0.0000  0.0160
 
spin component  2
 
  0.9717  0.0000  0.0214  0.0000 -0.0000
  0.0000  0.9653  0.0000  0.0188  0.0000
  0.0214  0.0000  0.9587  0.0000 -0.0000
  0.0000  0.0188  0.0000  0.9653  0.0000
 -0.0000  0.0000 -0.0000  0.0000  0.9467
 
 occupancies and eigenvectors
 
  o =  0.0143  v = -0.6071  0.0000  0.7946  0.0000 -0.0000  0.0000  0.0000  0.0000  0.0000  0.0000      0.0000  0.0000  0.0000  0.0000  0.0000  0.0000  0.0000  0.0000  0.0000  0.0000
  o =  0.0160  v = -0.0000 -0.0000  0.0000  0.0000  1.0000  0.0000  0.0000  0.0000  0.0000  0.0000      0.0000  0.0000  0.0000  0.0000  0.0000  0.0000  0.0000  0.0000  0.0000  0.0000
  o =  0.0187  v =  0.0000 -0.7071  0.0000  0.7071 -0.0000  0.0000  0.0000  0.0000  0.0000  0.0000      0.0000  0.0000  0.0000  0.0000  0.0000  0.0000  0.0000  0.0000  0.0000  0.0000
  o =  0.0671  v =  0.0000 -0.7071  0.0000 -0.7071 -0.0000  0.0000  0.0000  0.0000  0.0000  0.0000      0.0000  0.0000  0.0000  0.0000  0.0000  0.0000  0.0000  0.0000  0.0000  0.0000
  o =  0.0751  v = -0.7946  0.0000 -0.6071  0.0000 -0.0000  0.0000  0.0000  0.0000  0.0000  0.0000      0.0000  0.0000  0.0000  0.0000  0.0000  0.0000  0.0000  0.0000  0.0000  0.0000
  o =  0.9428  v =  0.0000  0.0000  0.0000  0.0000  0.0000 -0.5960  0.0000  0.8030  0.0000  0.0000      0.0000  0.0000  0.0000  0.0000  0.0000  0.0000  0.0000  0.0000  0.0000  0.0000
  o =  0.9465  v =  0.0000  0.0000  0.0000  0.0000  0.0000  0.0000  0.7071  0.0000 -0.7071 -0.0000      0.0000  0.0000  0.0000  0.0000  0.0000  0.0000  0.0000  0.0000  0.0000  0.0000
  o =  0.9467  v =  0.0000  0.0000  0.0000  0.0000  0.0000 -0.0000 -0.0000  0.0000  0.0000 -1.0000      0.0000  0.0000  0.0000  0.0000  0.0000  0.0000  0.0000  0.0000  0.0000  0.0000
  o =  0.9841  v =  0.0000  0.0000  0.0000  0.0000  0.0000  0.0000  0.7071  0.0000  0.7071 -0.0000      0.0000  0.0000  0.0000  0.0000  0.0000  0.0000  0.0000  0.0000  0.0000  0.0000
  o =  0.9876  v =  0.0000  0.0000  0.0000  0.0000  0.0000 -0.8030  0.0000 -0.5960  0.0000  0.0000      0.0000  0.0000  0.0000  0.0000  0.0000  0.0000  0.0000  0.0000  0.0000  0.0000
atom =   2  type =  1  l = 2
 
 onsite density matrix
 
spin component  1
 
  0.9717  0.0000 -0.0214  0.0000 -0.0000
  0.0000  0.9653  0.0000 -0.0188  0.0000
 -0.0214  0.0000  0.9587  0.0000  0.0000
  0.0000 -0.0188  0.0000  0.9653  0.0000
 -0.0000  0.0000  0.0000  0.0000  0.9467
 
spin component  2
 
  0.0527  0.0000 -0.0293  0.0000  0.0000
  0.0000  0.0429  0.0000 -0.0242  0.0000
 -0.0293  0.0000  0.0367  0.0000  0.0000
  0.0000 -0.0242  0.0000  0.0429  0.0000
  0.0000  0.0000  0.0000  0.0000  0.0160
 
 occupancies and eigenvectors
 
  o =  0.0143  v =  0.0000  0.0000  0.0000  0.0000  0.0000 -0.6071  0.0000 -0.7946  0.0000  0.0000      0.0000  0.0000  0.0000  0.0000  0.0000  0.0000  0.0000  0.0000  0.0000  0.0000
  o =  0.0160  v =  0.0000  0.0000  0.0000  0.0000  0.0000 -0.0000 -0.0000 -0.0000 -0.0000 -1.0000      0.0000  0.0000  0.0000  0.0000  0.0000  0.0000  0.0000  0.0000  0.0000  0.0000
  o =  0.0187  v =  0.0000  0.0000  0.0000  0.0000  0.0000 -0.0000  0.7071 -0.0000  0.7071 -0.0000      0.0000  0.0000  0.0000  0.0000  0.0000  0.0000  0.0000  0.0000  0.0000  0.0000
  o =  0.0671  v =  0.0000  0.0000  0.0000  0.0000  0.0000  0.0000 -0.7071 -0.0000  0.7071  0.0000      0.0000  0.0000  0.0000  0.0000  0.0000  0.0000  0.0000  0.0000  0.0000  0.0000
  o =  0.0751  v =  0.0000  0.0000  0.0000  0.0000  0.0000 -0.7946 -0.0000  0.6071  0.0000  0.0000      0.0000  0.0000  0.0000  0.0000  0.0000  0.0000  0.0000  0.0000  0.0000  0.0000
  o =  0.9428  v = -0.5960  0.0000 -0.8030  0.0000 -0.0000  0.0000  0.0000  0.0000  0.0000  0.0000      0.0000  0.0000  0.0000  0.0000  0.0000  0.0000  0.0000  0.0000  0.0000  0.0000
  o =  0.9465  v =  0.0000  0.7071  0.0000  0.7071 -0.0000  0.0000  0.0000  0.0000  0.0000  0.0000      0.0000  0.0000  0.0000  0.0000  0.0000  0.0000  0.0000  0.0000  0.0000  0.0000
[...]
  band No.  band energies     occupation 
      1     -46.0143      1.00000
      2     -45.9839      1.00000
      3     -45.9577      1.00000
      4     -41.4258      1.00000
      5     -41.4051      1.00000
      6     -41.3710      1.00000
      7     -20.5980      1.00000
      8     -20.4478      1.00000
      9     -20.3999      1.00000
     10     -20.2909      1.00000
     11      -4.3348      1.00000
     12      -4.0447      1.00000
     13      -3.6813      1.00000
     14      -3.6010      1.00000
     15      -3.4909      1.00000
     16      -3.2266      1.00000
     17      -2.7380      1.00000
     18      -2.5199      1.00000
     19      -2.4994      1.00000
     20      -1.9826      1.00000
     21      -1.8363      1.00000
     22      -1.7800      1.00000
     23      -0.0617      1.00000
     24       0.1347      1.00000
     25       0.4648      1.00000
     26       1.0391      1.00000
     27       1.3831      1.00000
     28       7.0249      0.00000
     29       7.0374      0.00000
     30       7.1523      0.00000
     31       7.9625      0.00000
     32       8.1725      0.00000
     33       8.8409      0.00000
     34      11.0083      0.00000
     35      12.4153      0.00000
     36      12.6591      0.00000

 k-point     8 :       0.3750    0.1250    0.4167
  band No.  band energies     occupation 
      1     -46.0143      1.00000
      2     -45.9839      1.00000
      3     -45.9578      1.00000
      4     -41.4258      1.00000
      5     -41.4050      1.00000
      6     -41.3710      1.00000
      7     -20.5309      1.00000
      8     -20.4650      1.00000
      9     -20.4148      1.00000
     10     -20.3253      1.00000
     11      -4.2337      1.00000
     12      -4.0963      1.00000
     13      -4.0144      1.00000
     14      -3.7017      1.00000
     15      -3.4619      1.00000
     16      -3.0448      1.00000
     17      -2.8659      1.00000
     18      -2.6988      1.00000
     19      -2.2382      1.00000
     20      -1.9406      1.00000
     21      -1.7162      1.00000
     22      -1.5905      1.00000
     23      -0.0523      1.00000
     24       0.0663      1.00000
     25       0.3569      1.00000
     26       0.9867      1.00000
     27       1.5865      1.00000
     28       7.0195      0.00000
     29       7.0264      0.00000
     30       7.2710      0.00000
     31       7.8866      0.00000
     32       8.4070      0.00000
     33       9.3892      0.00000
     34      10.7719      0.00000
     35      11.3873      0.00000
     36      12.4426      0.00000

 k-point     9 :       0.3750    0.3750    0.4167
  band No.  band energies     occupation 
      1     -46.0143      1.00000
      2     -45.9839      1.00000
      3     -45.9578      1.00000
      4     -41.4259      1.00000
      5     -41.4050      1.00000
      6     -41.3711      1.00000
      7     -20.5041      1.00000
      8     -20.4943      1.00000
      9     -20.4178      1.00000
     10     -20.3147      1.00000
     11      -4.5054      1.00000
     12      -4.2667      1.00000
     13      -3.9795      1.00000
     14      -3.9228      1.00000
     15      -3.5042      1.00000
     16      -3.0264      1.00000
     17      -2.7285      1.00000
     18      -2.4754      1.00000
     19      -2.0174      1.00000
     20      -1.7537      1.00000
     21      -1.6390      1.00000
     22      -1.5315      1.00000
     23      -0.0520      1.00000
     24       0.0649      1.00000
     25       0.3159      1.00000
     26       1.0373      1.00000
     27       1.5411      1.00000
     28       7.0220      0.00000
     29       7.0458      0.00000
     30       7.3034      0.00000
     31       7.8614      0.00000
     32       8.2886      0.00000
     33       9.8953      0.00000
     34      11.3373      0.00000
     35      11.3597      0.00000
     36      11.5219      0.00000


--------------------------------------------------------------------------------------------------------


 soft charge-density along one line, spin component           1
         0         1         2         3         4         5         6         7         8         9
 total charge-density along one line
 
 soft charge-density along one line, spin component           2
         0         1         2         3         4         5         6         7         8         9
 total charge-density along one line
 
 pseudopotential strength for first ion, spin component:           1
-41.923  -0.000  -0.031   7.915   0.000   0.012   0.000   0.000
 -0.000 -41.897  -0.000   0.000   7.904   0.000   0.000  -0.000
 -0.031  -0.000 -41.923   0.012   0.000   7.915  -0.000   0.000
  7.915   0.000   0.012   5.343  -0.000  -0.004  -0.000  -0.000
  0.000   7.904   0.000  -0.000   5.348  -0.000  -0.000  -0.000
  0.012   0.000   7.915  -0.004  -0.000   5.343  -0.000  -0.000
  0.000   0.000  -0.000  -0.000  -0.000  -0.000  -1.405  -0.000
  0.000  -0.000   0.000  -0.000  -0.000  -0.000  -0.000  -1.361
  0.000   0.000  -0.000   0.000  -0.000  -0.000  -0.074   0.000
  0.000  -0.000   0.000  -0.000  -0.000  -0.000  -0.000  -0.090
  0.000  -0.000  -0.000   0.000   0.000   0.000   0.000   0.000
  0.000   0.000  -0.000  -0.000  -0.000  -0.000  -1.848  -0.000
  0.000  -0.000   0.000  -0.000  -0.000  -0.000  -0.000  -1.802
  0.000   0.000  -0.000   0.000  -0.000  -0.000  -0.078   0.000
  0.000  -0.000   0.000  -0.000  -0.000  -0.000  -0.000  -0.092
  0.000  -0.000  -0.000   0.000   0.000   0.000   0.000   0.000
 -0.000  -0.000   0.000  -0.000  -0.000   0.000   0.006   0.000
 -0.000  -0.000   0.000  -0.000  -0.000   0.000   0.012   0.000
 pseudopotential strength for first ion, spin component:           2
-44.993  -0.000  -0.023   9.400   0.000   0.008   0.000   0.000
 -0.000 -44.974  -0.000   0.000   9.394   0.000   0.000  -0.000
 -0.023  -0.000 -44.993   0.008   0.000   9.400  -0.000   0.000
  9.400   0.000   0.008   4.849  -0.000  -0.003   0.000  -0.000
  0.000   9.394   0.000  -0.000   4.851  -0.000  -0.000  -0.000
  0.008   0.000   9.400  -0.003  -0.000   4.849  -0.000  -0.000
  0.000   0.000  -0.000   0.000  -0.000  -0.000  -7.410  -0.000
  0.000  -0.000   0.000  -0.000  -0.000  -0.000  -0.000  -7.379
  0.000   0.000  -0.000   0.000  -0.000  -0.000  -0.052   0.000
  0.000  -0.000   0.000  -0.000  -0.000  -0.000  -0.000  -0.073
  0.000  -0.000  -0.000   0.000   0.000  -0.000   0.000   0.000
  0.000   0.000  -0.000   0.000  -0.000  -0.000  -7.903  -0.000
  0.000  -0.000   0.000  -0.000  -0.000  -0.000  -0.000  -7.871
  0.000   0.000  -0.000   0.000  -0.000  -0.000  -0.054   0.000
  0.000  -0.000   0.000  -0.000  -0.000  -0.000  -0.000  -0.075
  0.000  -0.000  -0.000   0.000   0.000  -0.000   0.000   0.000
 -0.000  -0.000   0.000  -0.000  -0.000   0.000   0.004   0.000
 -0.000  -0.000   0.000  -0.000  -0.000   0.000   0.007   0.000
 total augmentation occupancy for first ion, spin component:           1
  1.998   0.000  -0.000  -0.014   0.000   0.000   0.000   0.000   0.000   0.000   0.000   0.000   0.000   0.000   0.000   0.000
  0.000   1.998   0.000   0.000  -0.013   0.000   0.000   0.000   0.000   0.000   0.000   0.000   0.000   0.000   0.000   0.000
 -0.000   0.000   1.998   0.000   0.000  -0.014   0.000   0.000   0.000   0.000   0.000   0.000   0.000   0.000   0.000   0.000
 -0.014   0.000   0.000   0.096   0.000  -0.010   0.000   0.000   0.000   0.000   0.000   0.000   0.000   0.000   0.000   0.000
  0.000  -0.013   0.000   0.000   0.107   0.000   0.000   0.000   0.000   0.000   0.000   0.000   0.000   0.000   0.000   0.000
  0.000   0.000  -0.014  -0.010   0.000   0.096   0.000   0.000   0.000   0.000   0.000   0.000   0.000   0.000   0.000   0.000
  0.000   0.000   0.000   0.000   0.000   0.000   8.308   0.000   3.345   0.000   0.000  -6.379   0.000  -3.173   0.000   0.000
  0.000   0.000   0.000   0.000   0.000   0.000   0.000   6.958   0.000   2.891   0.000   0.000  -5.092   0.000  -2.731   0.000
  0.000   0.000   0.000   0.000   0.000   0.000   3.345   0.000   6.275   0.000   0.000  -3.174   0.000  -4.471   0.000   0.000
  0.000   0.000   0.000   0.000   0.000   0.000   0.000   2.891   0.000   6.958   0.000   0.000  -2.731   0.000  -5.092   0.000
  0.000   0.000   0.000   0.000   0.000   0.000   0.000   0.000  -0.000   0.000   3.948   0.000   0.000  -0.000   0.000  -2.220
  0.000   0.000   0.000   0.000   0.000   0.000  -6.379   0.000  -3.174   0.000  -0.000   5.620   0.000   3.045   0.000   0.000
  0.000   0.000   0.000   0.000   0.000   0.000   0.000  -5.092   0.000  -2.731   0.000   0.000   4.384   0.000   2.608   0.000
  0.000   0.000   0.000   0.000   0.000   0.000  -3.173   0.000  -4.471   0.000   0.000   3.045   0.000   3.813   0.000   0.000
  0.000   0.000   0.000   0.000   0.000   0.000   0.000  -2.731   0.000  -5.092   0.000   0.000   2.608   0.000   4.384   0.000
  0.000   0.000   0.000   0.000   0.000   0.000   0.000   0.000   0.000   0.000  -2.220   0.000   0.000   0.000   0.000   1.612
  0.000   0.000   0.000   0.000   0.000   0.000   0.258   0.000  -0.231   0.000   0.000  -0.287   0.000   0.240   0.000  -0.000
  0.000   0.000   0.000   0.000   0.000   0.000  -0.007   0.000   0.026   0.000   0.000   0.032   0.000  -0.038   0.000   0.000
 total augmentation occupancy for first ion, spin component:           2
  0.004   0.000  -0.000   0.016   0.000  -0.000   0.000   0.000   0.000   0.000   0.000   0.000   0.000   0.000   0.000   0.000
  0.000   0.004   0.000   0.000   0.017   0.000   0.000   0.000   0.000   0.000   0.000   0.000   0.000   0.000   0.000   0.000
 -0.000   0.000   0.004  -0.000   0.000   0.016   0.000   0.000   0.000   0.000   0.000   0.000   0.000   0.000   0.000   0.000
  0.016   0.000  -0.000  -0.009   0.000  -0.000   0.000   0.000   0.000   0.000   0.000   0.000   0.000   0.000   0.000   0.000
  0.000   0.017   0.000   0.000  -0.009   0.000   0.000   0.000   0.000   0.000   0.000   0.000   0.000   0.000   0.000   0.000
 -0.000   0.000   0.016  -0.000   0.000  -0.009   0.000   0.000   0.000   0.000   0.000   0.000   0.000   0.000   0.000   0.000
  0.000   0.000   0.000   0.000   0.000   0.000  -5.645   0.000  -1.850   0.000   0.000   3.314   0.000   1.460   0.000   0.000
  0.000   0.000   0.000   0.000   0.000   0.000   0.000  -4.896   0.000  -1.627   0.000   0.000   2.705   0.000   1.283   0.000
  0.000   0.000   0.000   0.000   0.000   0.000  -1.850   0.000  -4.429   0.000  -0.000   1.460   0.000   2.346   0.000  -0.000
  0.000   0.000   0.000   0.000   0.000   0.000   0.000  -1.627   0.000  -4.896   0.000   0.000   1.283   0.000   2.705   0.000
  0.000   0.000   0.000   0.000   0.000   0.000   0.000   0.000   0.000   0.000  -3.276   0.000   0.000  -0.000   0.000   1.424
  0.000   0.000   0.000   0.000   0.000   0.000   3.314   0.000   1.460   0.000   0.000  -2.084   0.000  -1.076   0.000   0.000
  0.000   0.000   0.000   0.000   0.000   0.000   0.000   2.705   0.000   1.283   0.000   0.000  -1.613   0.000  -0.946   0.000
  0.000   0.000   0.000   0.000   0.000   0.000   1.460   0.000   2.346   0.000  -0.000  -1.076   0.000  -1.358   0.000  -0.000
  0.000   0.000   0.000   0.000   0.000   0.000   0.000   1.283   0.000   2.705   0.000   0.000  -0.946   0.000  -1.613   0.000
  0.000   0.000   0.000   0.000   0.000   0.000   0.000   0.000   0.000   0.000   1.424  -0.000   0.000   0.000   0.000  -0.669
  0.000   0.000   0.000   0.000   0.000   0.000   0.007   0.000   0.024   0.000   0.000  -0.015   0.000  -0.005   0.000   0.000
  0.000   0.000   0.000   0.000   0.000   0.000  -0.046   0.000   0.012   0.000   0.000   0.027   0.000  -0.006   0.000  -0.000


------------------------ aborting loop because EDIFF is reached ----------------------------------------


 


 total charge     
 
# of ion       s       p       d       tot
------------------------------------------
    1        0.178   6.171   4.978  11.327
    2        0.183   6.166   4.985  11.334
    3        1.721   4.365   0.000   6.086
    4        1.721   4.365   0.000   6.086
    5        1.721   4.361   0.000   6.081
    6        1.721   4.361   0.000   6.081
--------------------------------------------------
tot          7.244  29.788   9.964  46.995
 


 magnetization (x)
 
# of ion       s       p       d       tot
------------------------------------------
    1       -0.014  -0.015  -4.599  -4.628
    2        0.014   0.013   4.596   4.624
    3        0.002   0.021   0.000   0.023
    4        0.002   0.021   0.000   0.023
    5       -0.002  -0.017   0.000  -0.019
    6       -0.002  -0.017   0.000  -0.019
--------------------------------------------------
tot         -0.001   0.007  -0.003   0.003
 
    CHARGE:  cpu time    0.0738: real time    0.0738
    FORLOC:  cpu time    0.0013: real time    0.0013
    FORNL :  cpu time    0.3542: real time    0.3542
    STRESS:  cpu time    1.0924: real time    1.0925
    FORCOR:  cpu time    0.0068: real time    0.0068
    FORHAR:  cpu time    0.0036: real time    0.0036
    MIXING:  cpu time    0.0012: real time    0.0012
    OFIELD:  cpu time    0.0000: real time    0.0000

  FORCE on cell =-STRESS in cart. coord.  units (eV):
  Direction    XX          YY          ZZ          XY          YZ          ZX
  --------------------------------------------------------------------------------------
  Alpha Z   203.13634   203.13634   203.13634
  Ewald   -1604.80634 -1604.80634 -1037.56540    -0.00000     0.00000     0.00000
  Hartree   576.56446   576.56446   956.94767    -0.00000    -0.00000    -0.00000
  E(xc)    -309.45732  -309.45732  -309.50193    -0.00000    -0.00000    -0.00000
  Local     183.65957   183.65957  -756.70685     0.00000    -0.00000    -0.00000
  n-local  -238.06486  -238.41215  -237.19372     0.02648     0.12004     0.12126
  augment   267.16306   267.16306   266.54766     0.00000    -0.00000    -0.00000
  Kinetic   921.59972   922.37196   914.32399    -0.50836    -0.94895    -1.00737
  Fock        0.00000     0.00000     0.00000     0.00000     0.00000     0.00000
  -------------------------------------------------------------------------------------
  Total       0.00712     0.00712    -0.01225    -0.00000     0.00000     0.00000
  in kB       0.15218     0.15218    -0.26169    -0.00000     0.00000     0.00000
  external pressure =        0.01 kB  Pullay stress =        0.00 kB


 VOLUME and BASIS-vectors are now :
 -----------------------------------------------------------------------------
  energy-cutoff  :      900.00
  volume of cell :       75.00
      direct lattice vectors                 reciprocal lattice vectors
     4.802792967  0.000000000  0.000000000     0.208212181  0.000000000  0.000000000
     0.000000000  4.802792967  0.000000000     0.000000000  0.208212181  0.000000000
     0.000000000  0.000000000  3.251552962     0.000000000  0.000000000  0.307545352

  length of vectors
     4.802792967  4.802792967  3.251552962     0.208212181  0.208212181  0.307545352


 FORCES acting on ions
    electron-ion (+dipol)            ewald-force                    non-local-force                 convergence-correction
 -----------------------------------------------------------------------------------------------
   0.212E-11 0.524E-11 0.446E-11   0.568E-13 -.142E-12 0.235E-13   0.000E+00 0.000E+00 0.000E+00   -.305E-13 -.858E-13 -.633E-13
   -.125E-13 -.583E-13 -.574E-14   0.199E-12 0.114E-12 0.226E-13   0.000E+00 0.000E+00 0.000E+00   -.119E-12 -.165E-13 0.230E-13
   -.341E+02 0.341E+02 0.231E-11   0.354E+02 -.354E+02 -.149E-13   -.130E+01 0.130E+01 -.434E-18   -.294E-04 0.294E-04 -.511E-13
   0.341E+02 -.341E+02 0.566E-11   -.354E+02 0.354E+02 -.150E-13   0.130E+01 -.130E+01 0.434E-18   0.294E-04 -.294E-04 0.285E-13
   0.341E+02 0.341E+02 -.177E-07   -.354E+02 -.354E+02 -.870E-14   0.130E+01 0.130E+01 -.434E-18   0.294E-04 0.294E-04 0.345E-11
   -.341E+02 -.341E+02 0.176E-07   0.354E+02 0.354E+02 -.884E-14   -.130E+01 -.130E+01 0.434E-18   -.294E-04 -.294E-04 -.343E-11
 -----------------------------------------------------------------------------------------------
   0.251E-11 0.438E-11 0.363E-11   0.711E-14 0.711E-14 -.129E-14   0.000E+00 0.222E-15 0.000E+00   -.279E-12 -.210E-12 -.484E-13
 
 
 POSITION                                       TOTAL-FORCE (eV/Angst)
 -----------------------------------------------------------------------------------
      2.40140      2.40140      1.62578         0.000000     -0.000000      0.000000
      0.00000      0.00000      0.00000         0.000000     -0.000000      0.000000
      0.94066      3.86214      1.62578        -0.002328      0.002328     -0.000000
      3.86214      0.94066      1.62578         0.002328     -0.002328      0.000000
      1.46074      1.46074      0.00000         0.002328      0.002328     -0.000000
      3.34205      3.34205      0.00000        -0.002328     -0.002328      0.000000
 -----------------------------------------------------------------------------------
    total drift:                                0.000000      0.000000      0.000000


--------------------------------------------------------------------------------------------------------



  FREE ENERGIE OF THE ION-ELECTRON SYSTEM (eV)
  ---------------------------------------------------
  free  energy   TOTEN  =       -40.18794601 eV

  energy  without entropy=      -40.18794601  energy(sigma->0) =      -40.18794601
 


--------------------------------------------------------------------------------------------------------


    POTLOK:  cpu time    0.2563: real time    0.2563


--------------------------------------------------------------------------------------------------------




--------------------------------------------------------------------------------------------------------


  
 reached required accuracy - stopping structural energy minimisation
     LOOP+:  cpu time   16.7726: real time   16.7938
    4ORBIT:  cpu time    0.0000: real time    0.0000
 


 total charge     
 
# of ion       s       p       d       tot
------------------------------------------
    1        0.178   6.171   4.978  11.327
    2        0.183   6.166   4.985  11.334
    3        1.721   4.365   0.000   6.086
    4        1.721   4.365   0.000   6.086
    5        1.721   4.361   0.000   6.081
    6        1.721   4.361   0.000   6.081
--------------------------------------------------
tot          7.244  29.788   9.964  46.995
 


 magnetization (x)
 
# of ion       s       p       d       tot
------------------------------------------
    1       -0.014  -0.015  -4.599  -4.628
    2        0.014   0.013   4.596   4.624
    3        0.002   0.021   0.000   0.023
    4        0.002   0.021   0.000   0.023
    5       -0.002  -0.017   0.000  -0.019
    6       -0.002  -0.017   0.000  -0.019
--------------------------------------------------
tot         -0.001   0.007  -0.003   0.003
 
 BZINTS: Fermi energy:  1.758467; 54.000000 electrons
         Band energy:-751.601411;  BLOECHL correction:  0.000000

 total amount of memory used by VASP MPI-rank0    54120. kBytes
=======================================================================

   base      :      30000. kBytes
   nonl-proj :      12418. kBytes
   fftplans  :       3220. kBytes
   grid      :       4243. kBytes
   one-center:        186. kBytes
   wavefun   :       4053. kBytes
 
  
  
 General timing and accounting informations for this job:
 ========================================================
  
                  Total CPU time used (sec):       17.991
                            User time (sec):       16.034
                          System time (sec):        1.957
                         Elapsed time (sec):       18.056
  
                   Maximum memory used (kb):       80508.
                   Average memory used (kb):           0.
  
                          Minor page faults:        14616
                          Major page faults:            8
                 Voluntary context switches:          266
