 vasp.5.4.4.18Apr17-6-g9f103f2a35 (build Apr 27 2017 11:13:10) complex          
  
 executed on           IFC91_ompi date 2020.05.13  10:34:07
 running on   12 total cores
 distrk:  each k-point on   12 cores,    1 groups
 distr:  one band on NCORES_PER_BAND=   1 cores,   12 groups


--------------------------------------------------------------------------------------------------------


 INCAR:
 POTCAR:    PAW_PBE Mn_pv 02Aug2007               
 POTCAR:    PAW_PBE F 08Apr2002                   

 ----------------------------------------------------------------------------- 
|                                                                             |
|           W    W    AA    RRRRR   N    N  II  N    N   GGGG   !!!           |
|           W    W   A  A   R    R  NN   N  II  NN   N  G    G  !!!           |
|           W    W  A    A  R    R  N N  N  II  N N  N  G       !!!           |
|           W WW W  AAAAAA  RRRRR   N  N N  II  N  N N  G  GGG   !            |
|           WW  WW  A    A  R   R   N   NN  II  N   NN  G    G                |
|           W    W  A    A  R    R  N    N  II  N    N   GGGG   !!!           |
|                                                                             |
|      For optimal performance we recommend to set                            |
|        NCORE= 4 - approx SQRT( number of cores)                             |
|      NCORE specifies how many cores store one orbital (NPAR=cpu/NCORE).     |
|      This setting can  greatly improve the performance of VASP for DFT.     |
|      The default,   NCORE=1            might be grossly inefficient         |
|      on modern multi-core architectures or massively parallel machines.     |
|      Do your own testing !!!!                                               |
|      Unfortunately you need to use the default for GW and RPA calculations. |
|      (for HF NCORE is supported but not extensively tested yet)             |
|                                                                             |
 ----------------------------------------------------------------------------- 

 POTCAR:    PAW_PBE Mn_pv 02Aug2007               
   VRHFIN =Mn: 3p4s3d                                                           
   LEXCH  = PE                                                                  
   EATOM  =  2025.2664 eV,  148.8529 Ry                                         
                                                                                
   TITEL  = PAW_PBE Mn_pv 02Aug2007                                             
   LULTRA =        F    use ultrasoft PP ?                                      
   IUNSCR =        1    unscreen: 0-lin 1-nonlin 2-no                           
   RPACOR =    2.080    partial core radius                                     
   POMASS =   54.938; ZVAL   =   13.000    mass and valenz                      
   RCORE  =    2.300    outmost cutoff radius                                   
   RWIGS  =    2.500; RWIGS  =    1.323    wigner-seitz radius (au A)           
   ENMAX  =  269.864; ENMIN  =  202.398 eV                                      
   ICORE  =        3    local potential                                         
   LCOR   =        T    correct aug charges                                     
   LPAW   =        T    paw PP                                                  
   EAUG   =  569.085                                                            
   DEXC   =    0.000                                                            
   RMAX   =    2.343    core radius for proj-oper                               
   RAUG   =    1.300    factor for augmentation sphere                          
   RDEP   =    2.338    radius for radial grids                                 
   RDEPT  =    1.798    core radius for aug-charge                              
                                                                                
   Atomic configuration                                                         
    8 entries                                                                   
     n  l   j            E        occ.                                          
     1  0  0.50     -6424.8287   2.0000                                         
     2  0  0.50      -739.1154   2.0000                                         
     2  1  1.50      -625.3949   6.0000                                         
     3  0  0.50       -81.6100   2.0000                                         
     3  1  1.50       -50.4667   6.0000                                         
     3  2  2.50        -3.3745   6.0000                                         
     4  0  0.50        -4.1331   1.0000                                         
     4  3  2.50        -1.3606   0.0000                                         
   Description                                                                  
     l       E           TYP  RCUT    TYP  RCUT                                 
     1    -50.4666628     23  2.000                                             
     1     -1.3605826     23  2.000                                             
     2     -3.3744729     23  2.300                                             
     2     -4.7350555     23  2.300                                             
     0     -4.1331431     23  2.300                                             
     0      7.6656591     23  2.300                                             
     3      9.5240782     23  2.300                                             
  local pseudopotential read in
  partial core-charges read in
  partial kinetic energy density read in
  atomic valenz-charges read in
  non local Contribution for L=           1  read in
    real space projection operators read in
  non local Contribution for L=           1  read in
    real space projection operators read in
  non local Contribution for L=           2  read in
    real space projection operators read in
  non local Contribution for L=           2  read in
    real space projection operators read in
  non local Contribution for L=           0  read in
    real space projection operators read in
  non local Contribution for L=           0  read in
    real space projection operators read in
    PAW grid and wavefunctions read in
 
   number of l-projection  operators is LMAX  =           6
   number of lm-projection operators is LMMAX =          18
 
 POTCAR:    PAW_PBE F 08Apr2002                   
   VRHFIN =F: s2p5                                                              
   LEXCH  = PE                                                                  
   EATOM  =   659.6475 eV,   48.4827 Ry                                         
                                                                                
   TITEL  = PAW_PBE F 08Apr2002                                                 
   LULTRA =        F    use ultrasoft PP ?                                      
   IUNSCR =        1    unscreen: 0-lin 1-nonlin 2-no                           
   RPACOR =    1.200    partial core radius                                     
   POMASS =   18.998; ZVAL   =    7.000    mass and valenz                      
   RCORE  =    1.520    outmost cutoff radius                                   
   RWIGS  =    1.500; RWIGS  =    0.794    wigner-seitz radius (au A)           
   ENMAX  =  400.000; ENMIN  =  300.000 eV                                      
   ICORE  =        2    local potential                                         
   LCOR   =        T    correct aug charges                                     
   LPAW   =        T    paw PP                                                  
   EAUG   =  613.614                                                            
   RMAX   =    1.555    core radius for proj-oper                               
   RAUG   =    1.300    factor for augmentation sphere                          
   RDEP   =    1.539    radius for radial grids                                 
   RDEPT  =    1.299    core radius for aug-charge                              
                                                                                
   Atomic configuration                                                         
    4 entries                                                                   
     n  l   j            E        occ.                                          
     1  0  0.50      -663.3661   2.0000                                         
     2  0  0.50       -29.8995   2.0000                                         
     2  1  0.50       -11.1114   5.0000                                         
     3  2  1.50       -10.8847   0.0000                                         
   Description                                                                  
     l       E           TYP  RCUT    TYP  RCUT                                 
     0    -29.8995018     23  1.200                                             
     0     -9.5240782     23  1.200                                             
     1    -11.1113914     23  1.520                                             
     1      1.3605826     23  1.520                                             
     2    -10.8846608      7  1.500                                             
  local pseudopotential read in
  partial core-charges read in
  partial kinetic energy density read in
  atomic valenz-charges read in
  non local Contribution for L=           0  read in
    real space projection operators read in
  non local Contribution for L=           0  read in
    real space projection operators read in
  non local Contribution for L=           1  read in
    real space projection operators read in
  non local Contribution for L=           1  read in
    real space projection operators read in
    PAW grid and wavefunctions read in
 
   number of l-projection  operators is LMAX  =           4
   number of lm-projection operators is LMMAX =           8
 
  PAW_PBE Mn_pv 02Aug2007               :
 energy of atom  1       EATOM=-2025.2664
 kinetic energy error for atom=    0.0047 (will be added to EATOM!!)
  PAW_PBE F 08Apr2002                   :
 energy of atom  2       EATOM= -659.6475
 kinetic energy error for atom=    0.0256 (will be added to EATOM!!)
 
 
 POSCAR: Mn  F                                   
  positions in cartesian coordinates
  No initial velocities read in

 METAGGA = SCAN     LMAXTAU =  6    LMIXTAU =  F

 exchange correlation table for  LEXCH =        8
   RHO(1)=    0.500       N(1)  =     2000
   RHO(2)=  100.500       N(2)  =     4000
 


--------------------------------------------------------------------------------------------------------


 ion  position               nearest neighbor table
   1  0.500  0.500  0.500-   3 2.09   4 2.09   5 2.13   6 2.13   5 2.13   6 2.13
   2  0.000  0.000  0.000-   5 2.09   6 2.09   3 2.13   4 2.13   3 2.13   4 2.13
   3  0.196  0.804  0.500-   1 2.09   2 2.13   2 2.13
   4  0.804  0.196  0.500-   1 2.09   2 2.13   2 2.13
   5  0.304  0.304  0.000-   2 2.09   1 2.13   1 2.13
   6  0.696  0.696  0.000-   2 2.09   1 2.13   1 2.13
 
  LATTYP: Found a simple tetragonal cell.
 ALAT       =     4.8668221850
 C/A-ratio  =     0.6775716558
  
  Lattice vectors:
  
 A1 = (   4.8668221850,   0.0000000000,   0.0000000000)
 A2 = (   0.0000000000,   4.8668221850,   0.0000000000)
 A3 = (   0.0000000000,   0.0000000000,   3.2976207663)


Analysis of symmetry for initial positions (statically):
=====================================================================
 Subroutine PRICEL returns:
 Original cell was already a primitive cell.
 

 Routine SETGRP: Setting up the symmetry group for a 
 simple tetragonal supercell.


 Subroutine GETGRP returns: Found 16 space group operations
 (whereof  8 operations were pure point group operations)
 out of a pool of 16 trial point group operations.


The static configuration has the point symmetry D_2h.
 The point group associated with its full space group is D_4h.


Analysis of symmetry for dynamics (positions and initial velocities):
=====================================================================
 Subroutine PRICEL returns:
 Original cell was already a primitive cell.
 

 Routine SETGRP: Setting up the symmetry group for a 
 simple tetragonal supercell.


 Subroutine GETGRP returns: Found 16 space group operations
 (whereof  8 operations were pure point group operations)
 out of a pool of 16 trial point group operations.


The dynamic configuration has the point symmetry D_2h.
 The point group associated with its full space group is D_4h.


Analysis of structural, dynamic, and magnetic symmetry:
=====================================================================
 Subroutine PRICEL returns:
 Original cell was already a primitive cell.
 

 Routine SETGRP: Setting up the symmetry group for a 
 simple tetragonal supercell.


 Subroutine GETGRP returns: Found 16 space group operations
 (whereof  8 operations were pure point group operations)
 out of a pool of 16 trial point group operations.


The magnetic configuration has the point symmetry D_2h.
 The point group associated with its full space group is D_4h.


 Subroutine INISYM returns: Found 16 space group operations
 (whereof  8 operations are pure point group operations),
 and found     1 'primitive' translations

 
 
 KPOINTS: KPOINTS created by Atomic Simulation Env

Automatic generation of k-mesh.
Space group operators:
 irot       det(A)        alpha          n_x          n_y          n_z        tau_x        tau_y        tau_z
    1     1.000000     0.000000     1.000000     0.000000     0.000000     0.000000     0.000000     0.000000
    2    -1.000000     0.000000     1.000000     0.000000     0.000000     0.000000     0.000000     0.000000
    3     1.000000   180.000000     0.000000     0.000000     1.000000     0.000000     0.000000     0.000000
    4    -1.000000   180.000000     0.000000     0.000000     1.000000     0.000000     0.000000     0.000000
    5     1.000000   180.000000     0.707107     0.707107     0.000000     0.000000     0.000000     0.000000
    6    -1.000000   180.000000     0.707107     0.707107     0.000000     0.000000     0.000000     0.000000
    7     1.000000   180.000000     0.707107    -0.707107     0.000000     0.000000     0.000000     0.000000
    8    -1.000000   180.000000     0.707107    -0.707107     0.000000     0.000000     0.000000     0.000000
    9     1.000000    90.000000     0.000000     0.000000    -1.000000     0.500000     0.500000     0.500000
   10    -1.000000    90.000000     0.000000     0.000000    -1.000000     0.500000     0.500000     0.500000
   11     1.000000    90.000000     0.000000     0.000000     1.000000     0.500000     0.500000     0.500000
   12    -1.000000    90.000000     0.000000     0.000000     1.000000     0.500000     0.500000     0.500000
   13     1.000000   180.000000     0.000000     1.000000     0.000000     0.500000     0.500000     0.500000
   14    -1.000000   180.000000     0.000000     1.000000     0.000000     0.500000     0.500000     0.500000
   15     1.000000   180.000000     1.000000     0.000000     0.000000     0.500000     0.500000     0.500000
   16    -1.000000   180.000000     1.000000     0.000000     0.000000     0.500000     0.500000     0.500000
 
 Subroutine IBZKPT returns following result:
 ===========================================
 
 Found      9 irreducible k-points:
 
 Following reciprocal coordinates:
            Coordinates               Weight
  0.125000  0.125000  0.083333      8.000000
  0.375000  0.125000  0.083333     16.000000
  0.375000  0.375000  0.083333      8.000000
  0.125000  0.125000  0.250000      8.000000
  0.375000  0.125000  0.250000     16.000000
  0.375000  0.375000  0.250000      8.000000
  0.125000  0.125000  0.416667      8.000000
  0.375000  0.125000  0.416667     16.000000
  0.375000  0.375000  0.416667      8.000000
 
 Following cartesian coordinates:
            Coordinates               Weight
  0.025684  0.025684  0.025271      8.000000
  0.077052  0.025684  0.025271     16.000000
  0.077052  0.077052  0.025271      8.000000
  0.025684  0.025684  0.075812      8.000000
  0.077052  0.025684  0.075812     16.000000
  0.077052  0.077052  0.075812      8.000000
  0.025684  0.025684  0.126354      8.000000
  0.077052  0.025684  0.126354     16.000000
  0.077052  0.077052  0.126354      8.000000
 
 TETIRR: Found    106 inequivalent tetrahedra from      576


--------------------------------------------------------------------------------------------------------




 Dimension of arrays:
   k-points           NKPTS =      9   k-points in BZ     NKDIM =      9   number of bands    NBANDS=     36
   number of dos      NEDOS =    301   number of ions     NIONS =      6
   non local maximal  LDIM  =      6   non local SUM 2l+1 LMDIM =     18
   total plane-waves  NPLWV =  18000
   max r-space proj   IRMAX =      1   max aug-charges    IRDMAX=  56133
   dimension x,y,z NGX =    30 NGY =   30 NGZ =   20
   dimension x,y,z NGXF=    60 NGYF=   60 NGZF=   40
   support grid    NGXF=   120 NGYF=  120 NGZF=   80
   ions per type =               2   4
   NGX,Y,Z   is equivalent  to a cutoff of  10.25, 10.25, 10.08 a.u.
   NGXF,Y,Z  is equivalent  to a cutoff of  20.50, 20.50, 20.17 a.u.

 SYSTEM =  unknown system                          
 POSCAR =  Mn  F                                   

 Startparameter for this run:
   NWRITE =      2    write-flag & timer
   PREC   = normal    normal or accurate (medium, high low for compatibility)
   ISTART =      0    job   : 0-new  1-cont  2-samecut
   ICHARG =      2    charge: 1-file 2-atom 10-const
   ISPIN  =      2    spin polarized calculation?
   LNONCOLLINEAR =      F non collinear calculations
   LSORBIT =      F    spin-orbit coupling
   INIWAV =      1    electr: 0-lowe 1-rand  2-diag
   LASPH  =      T    aspherical Exc in radial PAW
   METAGGA=      F    non-selfconsistent MetaGGA calc.

 Electronic Relaxation 1
   ENCUT  =  600.0 eV  44.10 Ry    6.64 a.u.   9.72  9.72  6.59*2*pi/ulx,y,z
   ENINI  =  600.0     initial cutoff
   ENAUG  =  613.6 eV  augmentation charge cutoff
   NELM   =     60;   NELMIN=  2; NELMDL= -5     # of ELM steps 
   EDIFF  = 0.1E-05   stopping-criterion for ELM
   LREAL  =      F    real-space projection
   NLSPLINE    = F    spline interpolate recip. space projectors
   LCOMPAT=      F    compatible to vasp.4.4
   GGA_COMPAT  = T    GGA compatible to vasp.4.4-vasp.4.6
   LMAXPAW     = -100 max onsite density
   LMAXMIX     =    4 max onsite mixed and CHGCAR
   VOSKOWN=      0    Vosko Wilk Nusair interpolation
   ROPT   =    0.00000   0.00000
 Ionic relaxation
   EDIFFG = 0.1E-04   stopping-criterion for IOM
   NSW    =      0    number of steps for IOM
   NBLOCK =      1;   KBLOCK =      1    inner block; outer block 
   IBRION =     -1    ionic relax: 0-MD 1-quasi-New 2-CG
   NFREE  =      0    steps in history (QN), initial steepest desc. (CG)
   ISIF   =      2    stress and relaxation
   IWAVPR =     10    prediction:  0-non 1-charg 2-wave 3-comb
   ISYM   =      2    0-nonsym 1-usesym 2-fastsym
   LCORR  =      T    Harris-Foulkes like correction to forces

   POTIM  = 0.5000    time-step for ionic-motion
   TEIN   =    0.0    initial temperature
   TEBEG  =    0.0;   TEEND  =   0.0 temperature during run
   SMASS  =  -3.00    Nose mass-parameter (am)
   estimated Nose-frequenzy (Omega)   =  0.10E-29 period in steps =****** mass=  -0.541E-27a.u.
   SCALEE = 1.0000    scale energy and forces
   NPACO  =    256;   APACO  = 16.0  distance and # of slots for P.C.
   PSTRESS=    0.0 pullay stress

  Mass of Ions in am
   POMASS =  54.94 19.00
  Ionic Valenz
   ZVAL   =  13.00  7.00
  Atomic Wigner-Seitz radii
   RWIGS  =  -1.00 -1.00
  virtual crystal weights 
   VCA    =   1.00  1.00
   NELECT =      54.0000    total number of electrons
   NUPDOWN=      -1.0000    fix difference up-down

 DOS related values:
   EMIN   =  10.00;   EMAX   =-10.00  energy-range for DOS
   EFERMI =   0.00
   ISMEAR =    -5;   SIGMA  =   0.20  broadening in eV -4-tet -1-fermi 0-gaus

 Electronic relaxation 2 (details)
   IALGO  =     38    algorithm
   LDIAG  =      T    sub-space diagonalisation (order eigenvalues)
   LSUBROT=      F    optimize rotation matrix (better conditioning)
   TURBO    =      0    0=normal 1=particle mesh
   IRESTART =      0    0=no restart 2=restart with 2 vectors
   NREBOOT  =      0    no. of reboots
   NMIN     =      0    reboot dimension
   EREF     =   0.00    reference energy to select bands
   IMIX   =      4    mixing-type and parameters
     AMIX     =   0.40;   BMIX     =  1.00
     AMIX_MAG =   1.60;   BMIX_MAG =  1.00
     AMIN     =   0.10
     WC   =   100.;   INIMIX=   1;  MIXPRE=   1;  MAXMIX= -45

 Intra band minimization:
   WEIMIN = 0.0000     energy-eigenvalue tresh-hold
   EBREAK =  0.69E-08  absolut break condition
   DEPER  =   0.30     relativ break condition  

   TIME   =   0.40     timestep for ELM

  volume/ion in A,a.u.               =      13.02        87.85
  Fermi-wavevector in a.u.,A,eV,Ry     =   1.447579  2.735527 28.510793  2.095484
  Thomas-Fermi vector in A             =   2.565518
 
 Write flags
   LWAVE        =      T    write WAVECAR
   LDOWNSAMPLE  =      F    k-point downsampling of WAVECAR
   LCHARG       =      T    write CHGCAR
   LVTOT        =      F    write LOCPOT, total local potential
   LVHAR        =      F    write LOCPOT, Hartree potential only
   LELF         =      F    write electronic localiz. function (ELF)
   LORBIT       =     11    0 simple, 1 ext, 2 COOP (PROOUT), +10 PAW based schemes


 Dipole corrections
   LMONO  =      F    monopole corrections only (constant potential shift)
   LDIPOL =      F    correct potential (dipole corrections)
   IDIPOL =      0    1-x, 2-y, 3-z, 4-all directions 
   EPSILON=  1.0000000 bulk dielectric constant

 LDA+U is selected, type is set to LDAUTYPE =  2
   angular momentum for each species LDAUL =     2   -1
   U (eV)           for each species LDAUU =   2.0  0.0
   J (eV)           for each species LDAUJ =   0.0  0.0
 Exchange correlation treatment:
   GGA     =    --    GGA type
   LEXCH   =     8    internal setting for exchange type
   VOSKOWN=      0    Vosko Wilk Nusair interpolation
   LHFCALC =     F    Hartree Fock is set to
   LHFONE  =     F    Hartree Fock one center treatment
   AEXX    =    0.0000 exact exchange contribution

 Linear response parameters
   LEPSILON=     F    determine dielectric tensor
   LRPA    =     F    only Hartree local field effects (RPA)
   LNABLA  =     F    use nabla operator in PAW spheres
   LVEL    =     F    velocity operator in full k-point grid
   LINTERFAST=   F  fast interpolation
   KINTER  =     0    interpolate to denser k-point grid
   CSHIFT  =0.1000    complex shift for real part using Kramers Kronig
   OMEGAMAX=  -1.0    maximum frequency
   DEG_THRESHOLD= 0.2000000E-02 threshold for treating states as degnerate
   RTIME   =   -0.100 relaxation time in fs
  (WPLASMAI=    0.000 imaginary part of plasma frequency in eV, 0.658/RTIME)
   DFIELD  = 0.0000000 0.0000000 0.0000000 field for delta impulse in time
 
 Orbital magnetization related:
   ORBITALMAG=     F  switch on orbital magnetization
   LCHIMAG   =     F  perturbation theory with respect to B field
   DQ        =  0.001000  dq finite difference perturbation B field
   LLRAUG    =     F  two centre corrections for induced B field



--------------------------------------------------------------------------------------------------------


 Static calculation
 charge density and potential will be updated during run
 spin polarized calculation
 Variant of blocked Davidson
 Davidson routine will perform the subspace rotation
 perform sub-space diagonalisation
    after iterative eigenvector-optimisation
 modified Broyden-mixing scheme, WC =      100.0
 initial mixing is a Kerker type mixing with AMIX =  0.4000 and BMIX =      1.0000
 Hartree-type preconditioning will be used
 using additional bands            9
 reciprocal scheme for non local part
 use partial core corrections
 calculate Harris-corrections to forces 
   (improved forces if not selfconsistent)
 use gradient corrections 
 use of overlap-Matrix (Vanderbilt PP)
 Fermi weights with tetrahedron method with Bloechl corrections


--------------------------------------------------------------------------------------------------------


  energy-cutoff  :      600.00
  volume of cell :       78.11
      direct lattice vectors                 reciprocal lattice vectors
     4.866822185  0.000000000  0.000000000     0.205472886  0.000000000  0.000000000
     0.000000000  4.866822185  0.000000000     0.000000000  0.205472886  0.000000000
     0.000000000  0.000000000  3.297620766     0.000000000  0.000000000  0.303248939

  length of vectors
     4.866822185  4.866822185  3.297620766     0.205472886  0.205472886  0.303248939


 
 k-points in units of 2pi/SCALE and weight: KPOINTS created by Atomic Simulation Env
   0.02568411  0.02568411  0.02527074       0.083
   0.07705233  0.02568411  0.02527074       0.167
   0.07705233  0.07705233  0.02527074       0.083
   0.02568411  0.02568411  0.07581223       0.083
   0.07705233  0.02568411  0.07581223       0.167
   0.07705233  0.07705233  0.07581223       0.083
   0.02568411  0.02568411  0.12635372       0.083
   0.07705233  0.02568411  0.12635372       0.167
   0.07705233  0.07705233  0.12635372       0.083
 
 k-points in reciprocal lattice and weights: KPOINTS created by Atomic Simulation Env
   0.12500000  0.12500000  0.08333333       0.083
   0.37500000  0.12500000  0.08333333       0.167
   0.37500000  0.37500000  0.08333333       0.083
   0.12500000  0.12500000  0.25000000       0.083
   0.37500000  0.12500000  0.25000000       0.167
   0.37500000  0.37500000  0.25000000       0.083
   0.12500000  0.12500000  0.41666667       0.083
   0.37500000  0.12500000  0.41666667       0.167
   0.37500000  0.37500000  0.41666667       0.083
 
 position of ions in fractional coordinates (direct lattice) 
   0.50000000  0.50000000  0.50000000
   0.00000000  0.00000000  0.00000000
   0.19565982  0.80434018  0.50000000
   0.80434018  0.19565982  0.50000000
   0.30434018  0.30434018  0.00000000
   0.69565982  0.69565982  0.00000000
 
 position of ions in cartesian coordinates  (Angst):
   2.43341109  2.43341109  1.64881038
   0.00000000  0.00000000  0.00000000
   0.95224153  3.91458066  1.64881038
   3.91458066  0.95224153  1.64881038
   1.48116956  1.48116956  0.00000000
   3.38565262  3.38565262  0.00000000
 


--------------------------------------------------------------------------------------------------------


 k-point  1 :   0.1250 0.1250 0.0833  plane waves:    2611
 k-point  2 :   0.3750 0.1250 0.0833  plane waves:    2617
 k-point  3 :   0.3750 0.3750 0.0833  plane waves:    2603
 k-point  4 :   0.1250 0.1250 0.2500  plane waves:    2606
 k-point  5 :   0.3750 0.1250 0.2500  plane waves:    2598
 k-point  6 :   0.3750 0.3750 0.2500  plane waves:    2615
 k-point  7 :   0.1250 0.1250 0.4167  plane waves:    2604
 k-point  8 :   0.3750 0.1250 0.4167  plane waves:    2603
 k-point  9 :   0.3750 0.3750 0.4167  plane waves:    2596

 maximum and minimum number of plane-waves per node :      2617     2596

 maximum number of plane-waves:      2617
 maximum index in each direction: 
   IXMAX=    9   IYMAX=    9   IZMAX=    6
   IXMIN=  -10   IYMIN=  -10   IZMIN=   -7


 serial   3D FFT for wavefunctions
 parallel 3D FFT for charge:
    minimum data exchange during FFTs selected (reduces bandwidth)


 total amount of memory used by VASP MPI-rank0    45277. kBytes
=======================================================================

   base      :      30000. kBytes
   nonl-proj :       7064. kBytes
   fftplans  :       1875. kBytes
   grid      :       3820. kBytes
   one-center:        186. kBytes
   wavefun   :       2332. kBytes
 
     INWAV:  cpu time    0.0000: real time    0.0000
 Broyden mixing: mesh for mixing (old mesh)
   NGX = 19   NGY = 19   NGZ = 13
  (NGX  = 60   NGY  = 60   NGZ  = 40)
  gives a total of   4693 points

 initial charge density was supplied:
 charge density of overlapping atoms calculated
 number of electron      54.0000000 magnetization       0.0000000
 keeping initial charge density in first step


--------------------------------------------------------------------------------------------------------


 Maximum index for augmentation-charges         4287 (set IRDMAX)


--------------------------------------------------------------------------------------------------------


 First call to EWALD:  gamma=   0.415
 Maximum number of real-space cells 2x 2x 3
 Maximum number of reciprocal cells 3x 3x 2

    FEWALD:  cpu time    0.0010: real time    0.0010


--------------------------------------- Iteration      1(   1)  ---------------------------------------


    POTLOK:  cpu time    0.0355: real time    0.0355
    SETDIJ:  cpu time    0.7786: real time    0.7786
atom =   1  type =  1  l = 2
 
 onsite density matrix
 
spin component  1
 
  0.2835  0.0000  0.0000  0.0000  0.0000
  0.0000  0.2835  0.0000  0.0000  0.0000
  0.0000  0.0000  0.2835  0.0000  0.0000
  0.0000  0.0000  0.0000  0.2835  0.0000
  0.0000  0.0000  0.0000  0.0000  0.2835
 
spin component  2
 
  0.7694  0.0000  0.0000  0.0000  0.0000
  0.0000  0.7694  0.0000  0.0000  0.0000
  0.0000  0.0000  0.7694  0.0000  0.0000
  0.0000  0.0000  0.0000  0.7694  0.0000
  0.0000  0.0000  0.0000  0.0000  0.7694
 
 occupancies and eigenvectors
 
  o =  0.2835  v =  1.0000  0.0000  0.0000  0.0000  0.0000  0.0000  0.0000  0.0000  0.0000  0.0000      0.0000  0.0000  0.0000  0.0000  0.0000  0.0000  0.0000  0.0000  0.0000  0.0000
  o =  0.2835  v =  0.0000  1.0000  0.0000  0.0000  0.0000  0.0000  0.0000  0.0000  0.0000  0.0000      0.0000  0.0000  0.0000  0.0000  0.0000  0.0000  0.0000  0.0000  0.0000  0.0000
  o =  0.2835  v =  0.0000  0.0000  1.0000  0.0000  0.0000  0.0000  0.0000  0.0000  0.0000  0.0000      0.0000  0.0000  0.0000  0.0000  0.0000  0.0000  0.0000  0.0000  0.0000  0.0000
  o =  0.2835  v =  0.0000  0.0000  0.0000  1.0000  0.0000  0.0000  0.0000  0.0000  0.0000  0.0000      0.0000  0.0000  0.0000  0.0000  0.0000  0.0000  0.0000  0.0000  0.0000  0.0000
  o =  0.2835  v =  0.0000  0.0000  0.0000  0.0000  1.0000  0.0000  0.0000  0.0000  0.0000  0.0000      0.0000  0.0000  0.0000  0.0000  0.0000  0.0000  0.0000  0.0000  0.0000  0.0000
  o =  0.7694  v =  0.0000  0.0000  0.0000  0.0000  0.0000  1.0000  0.0000  0.0000  0.0000  0.0000      0.0000  0.0000  0.0000  0.0000  0.0000  0.0000  0.0000  0.0000  0.0000  0.0000
  o =  0.7694  v =  0.0000  0.0000  0.0000  0.0000  0.0000  0.0000  1.0000  0.0000  0.0000  0.0000      0.0000  0.0000  0.0000  0.0000  0.0000  0.0000  0.0000  0.0000  0.0000  0.0000
  o =  0.7694  v =  0.0000  0.0000  0.0000  0.0000  0.0000  0.0000  0.0000  1.0000  0.0000  0.0000      0.0000  0.0000  0.0000  0.0000  0.0000  0.0000  0.0000  0.0000  0.0000  0.0000
  o =  0.7694  v =  0.0000  0.0000  0.0000  0.0000  0.0000  0.0000  0.0000  0.0000  1.0000  0.0000      0.0000  0.0000  0.0000  0.0000  0.0000  0.0000  0.0000  0.0000  0.0000  0.0000
  o =  0.7694  v =  0.0000  0.0000  0.0000  0.0000  0.0000  0.0000  0.0000  0.0000  0.0000  1.0000      0.0000  0.0000  0.0000  0.0000  0.0000  0.0000  0.0000  0.0000  0.0000  0.0000
atom =   2  type =  1  l = 2
 
 onsite density matrix
 
spin component  1
 
  0.7694  0.0000  0.0000  0.0000  0.0000
  0.0000  0.7694  0.0000  0.0000  0.0000
  0.0000  0.0000  0.7694  0.0000  0.0000
  0.0000  0.0000  0.0000  0.7694  0.0000
  0.0000  0.0000  0.0000  0.0000  0.7694
 
spin component  2
 
  0.2835  0.0000  0.0000  0.0000  0.0000
  0.0000  0.2835  0.0000  0.0000  0.0000
  0.0000  0.0000  0.2835  0.0000  0.0000
  0.0000  0.0000  0.0000  0.2835  0.0000
  0.0000  0.0000  0.0000  0.0000  0.2835
 
 occupancies and eigenvectors
 
  o =  0.2835  v =  0.0000  0.0000  0.0000  0.0000  0.0000  1.0000  0.0000  0.0000  0.0000  0.0000      0.0000  0.0000  0.0000  0.0000  0.0000  0.0000  0.0000  0.0000  0.0000  0.0000
  o =  0.2835  v =  0.0000  0.0000  0.0000  0.0000  0.0000  0.0000  1.0000  0.0000  0.0000  0.0000      0.0000  0.0000  0.0000  0.0000  0.0000  0.0000  0.0000  0.0000  0.0000  0.0000
  o =  0.2835  v =  0.0000  0.0000  0.0000  0.0000  0.0000  0.0000  0.0000  1.0000  0.0000  0.0000      0.0000  0.0000  0.0000  0.0000  0.0000  0.0000  0.0000  0.0000  0.0000  0.0000
  o =  0.2835  v =  0.0000  0.0000  0.0000  0.0000  0.0000  0.0000  0.0000  0.0000  1.0000  0.0000      0.0000  0.0000  0.0000  0.0000  0.0000  0.0000  0.0000  0.0000  0.0000  0.0000
  o =  0.2835  v =  0.0000  0.0000  0.0000  0.0000  0.0000  0.0000  0.0000  0.0000  0.0000  1.0000      0.0000  0.0000  0.0000  0.0000  0.0000  0.0000  0.0000  0.0000  0.0000  0.0000
  o =  0.7694  v =  1.0000  0.0000  0.0000  0.0000  0.0000  0.0000  0.0000  0.0000  0.0000  0.0000      0.0000  0.0000  0.0000  0.0000  0.0000  0.0000  0.0000  0.0000  0.0000  0.0000
  o =  0.7694  v =  0.0000  1.0000  0.0000  0.0000  0.0000  0.0000  0.0000  0.0000  0.0000  0.0000      0.0000  0.0000  0.0000  0.0000  0.0000  0.0000  0.0000  0.0000  0.0000  0.0000
  o =  0.7694  v =  0.0000  0.0000  1.0000  0.0000  0.0000  0.0000  0.0000  0.0000  0.0000  0.0000      0.0000  0.0000  0.0000  0.0000  0.0000  0.0000  0.0000  0.0000  0.0000  0.0000
  o =  0.7694  v =  0.0000  0.0000  0.0000  1.0000  0.0000  0.0000  0.0000  0.0000  0.0000  0.0000      0.0000  0.0000  0.0000  0.0000  0.0000  0.0000  0.0000  0.0000  0.0000  0.0000
  o =  0.7694  v =  0.0000  0.0000  0.0000  0.0000  1.0000  0.0000  0.0000  0.0000  0.0000  0.0000      0.0000  0.0000  0.0000  0.0000  0.0000  0.0000  0.0000  0.0000  0.0000  0.0000
     EDDAV:  cpu time    0.6942: real time    0.7131
 BZINTS: Fermi energy: 25.509671; 54.000000 electrons
         Band energy: 366.644489;  BLOECHL correction: -0.218932
       DOS:  cpu time    0.0067: real time    0.0067
    --------------------------------------------
      LOOP:  cpu time    1.5150: real time    1.5339

 eigenvalue-minimisations  :  1308
 total energy-change (2. order) : 0.9654526E+03  (-0.3765676E+04)
 number of electron      54.0000000 magnetization       0.0000000
 augmentation part       54.0000000 magnetization       0.0000000

 Free energy of the ion-electron system (eV)
  ---------------------------------------------------
  alpha Z        PSCENC =       197.64458944
  Ewald energy   TEWEN  =     -4190.19045671
  -Hartree energ DENC   =     -2138.72393121
  -exchange      EXHF   =         0.00000000
  -V(xc)+E(xc)   XCENC  =        -3.96111562
  PAW double counting   =      5566.43601843    -5521.40777705
  entropy T*S    EENTRO =         0.00000000
  eigenvalues    EBANDS =       366.64448916
  atomic energy  EATOM  =      6689.01075358
  Solvation  Ediel_sol  =         0.00000000
  ---------------------------------------------------
  free energy    TOTEN  =       965.45257001 eV

  energy without entropy =      965.45257001  energy(sigma->0) =      965.45257001


--------------------------------------------------------------------------------------------------------




--------------------------------------- Iteration      1(   2)  ---------------------------------------


     EDDAV:  cpu time    0.7531: real time    0.7532
 BZINTS: Fermi energy: 12.286246; 54.000000 electrons
         Band energy:-189.908597;  BLOECHL correction: -0.010286
       DOS:  cpu time    0.0063: real time    0.0063
    --------------------------------------------
      LOOP:  cpu time    0.7595: real time    0.7595

 eigenvalue-minimisations  :  1488
 total energy-change (2. order) :-0.5565531E+03  (-0.5336128E+03)
 number of electron      54.0000000 magnetization       0.0000000
 augmentation part       54.0000000 magnetization       0.0000000

 Free energy of the ion-electron system (eV)
  ---------------------------------------------------
  alpha Z        PSCENC =       197.64458944
  Ewald energy   TEWEN  =     -4190.19045671
  -Hartree energ DENC   =     -2138.72393121
  -exchange      EXHF   =         0.00000000
  -V(xc)+E(xc)   XCENC  =        -3.96111562
  PAW double counting   =      5566.43601843    -5521.40777705
  entropy T*S    EENTRO =         0.00000000
  eigenvalues    EBANDS =      -189.90859744
  atomic energy  EATOM  =      6689.01075358
  Solvation  Ediel_sol  =         0.00000000
  ---------------------------------------------------
  free energy    TOTEN  =       408.89948341 eV

  energy without entropy =      408.89948341  energy(sigma->0) =      408.89948341


--------------------------------------------------------------------------------------------------------




--------------------------------------- Iteration      1(   3)  ---------------------------------------


     EDDAV:  cpu time    0.7346: real time    0.7346
 BZINTS: Fermi energy:  9.870371; 54.000000 electrons
         Band energy:-226.022410;  BLOECHL correction:  0.000000
       DOS:  cpu time    0.0013: real time    0.0013
    --------------------------------------------
      LOOP:  cpu time    0.7360: real time    0.7360

 eigenvalue-minimisations  :  1440
 total energy-change (2. order) :-0.3611381E+02  (-0.3582280E+02)
 number of electron      54.0000000 magnetization       0.0000000
 augmentation part       54.0000000 magnetization       0.0000000

 Free energy of the ion-electron system (eV)
  ---------------------------------------------------
  alpha Z        PSCENC =       197.64458944
  Ewald energy   TEWEN  =     -4190.19045671
  -Hartree energ DENC   =     -2138.72393121
  -exchange      EXHF   =         0.00000000
  -V(xc)+E(xc)   XCENC  =        -3.96111562
  PAW double counting   =      5566.43601843    -5521.40777705
  entropy T*S    EENTRO =         0.00000000
  eigenvalues    EBANDS =      -226.02240950
  atomic energy  EATOM  =      6689.01075358
  Solvation  Ediel_sol  =         0.00000000
  ---------------------------------------------------
  free energy    TOTEN  =       372.78567135 eV

  energy without entropy =      372.78567135  energy(sigma->0) =      372.78567135


--------------------------------------------------------------------------------------------------------




--------------------------------------- Iteration      1(   4)  ---------------------------------------


     EDDAV:  cpu time    0.7759: real time    0.7759
 BZINTS: Fermi energy:  9.825053; 54.000000 electrons
         Band energy:-226.517581;  BLOECHL correction:  0.000000
       DOS:  cpu time    0.0011: real time    0.0011
    --------------------------------------------
      LOOP:  cpu time    0.7770: real time    0.7770

 eigenvalue-minimisations  :  1572
 total energy-change (2. order) :-0.4951710E+00  (-0.4946361E+00)
 number of electron      54.0000000 magnetization       0.0000000
 augmentation part       54.0000000 magnetization       0.0000000

 Free energy of the ion-electron system (eV)
  ---------------------------------------------------
  alpha Z        PSCENC =       197.64458944
  Ewald energy   TEWEN  =     -4190.19045671
  -Hartree energ DENC   =     -2138.72393121
  -exchange      EXHF   =         0.00000000
  -V(xc)+E(xc)   XCENC  =        -3.96111562
  PAW double counting   =      5566.43601843    -5521.40777705
  entropy T*S    EENTRO =         0.00000000
  eigenvalues    EBANDS =      -226.51758052
  atomic energy  EATOM  =      6689.01075358
  Solvation  Ediel_sol  =         0.00000000
  ---------------------------------------------------
  free energy    TOTEN  =       372.29050033 eV

  energy without entropy =      372.29050033  energy(sigma->0) =      372.29050033


--------------------------------------------------------------------------------------------------------




--------------------------------------- Iteration      1(   5)  ---------------------------------------


     EDDAV:  cpu time    0.7402: real time    0.7402
 BZINTS: Fermi energy:  9.947798; 54.000000 electrons
         Band energy:-226.525150;  BLOECHL correction:  0.000000
       DOS:  cpu time    0.0013: real time    0.0013
    CHARGE:  cpu time    0.1462: real time    0.1462
    MIXING:  cpu time    0.0005: real time    0.0005
    --------------------------------------------
      LOOP:  cpu time    0.8883: real time    0.8883

 eigenvalue-minimisations  :  1464
 total energy-change (2. order) :-0.7569377E-02  (-0.7569186E-02)
 number of electron      54.0000011 magnetization      -0.0000000
 augmentation part       22.6205543 magnetization      -0.0000000

 Broyden mixing:
  rms(total) = 0.58973E+01    rms(broyden)= 0.58968E+01
  rms(prec ) = 0.61086E+01
  weight for this iteration     100.00

 Free energy of the ion-electron system (eV)
  ---------------------------------------------------
  alpha Z        PSCENC =       197.64458944
  Ewald energy   TEWEN  =     -4190.19045671
  -Hartree energ DENC   =     -2138.72393121
  -exchange      EXHF   =         0.00000000
  -V(xc)+E(xc)   XCENC  =        -3.96111562
  PAW double counting   =      5566.43601843    -5521.40777705
  entropy T*S    EENTRO =         0.00000000
  eigenvalues    EBANDS =      -226.52514990
  atomic energy  EATOM  =      6689.01075358
  Solvation  Ediel_sol  =         0.00000000
  ---------------------------------------------------
  free energy    TOTEN  =       372.28293095 eV

  energy without entropy =      372.28293095  energy(sigma->0) =      372.28293095


--------------------------------------------------------------------------------------------------------




--------------------------------------- Iteration      1(   6)  ---------------------------------------


    POTLOK:  cpu time    0.0328: real time    0.0328
    SETDIJ:  cpu time    0.7937: real time    0.7937
atom =   1  type =  1  l = 2
 
 onsite density matrix
 
spin component  1
 
  0.0129  0.0000  0.0602  0.0000 -0.0000
  0.0000 -0.0127  0.0000  0.0562  0.0000
  0.0602  0.0000 -0.0225  0.0000 -0.0000
  0.0000  0.0562  0.0000 -0.0127  0.0000
 -0.0000  0.0000 -0.0000  0.0000 -0.0823
 
spin component  2
 
  1.0713  0.0000 -0.0279  0.0000  0.0000
  0.0000  1.0841  0.0000 -0.0264  0.0000
 -0.0279  0.0000  1.0876  0.0000  0.0000
  0.0000 -0.0264  0.0000  1.0841  0.0000
  0.0000  0.0000  0.0000  0.0000  1.1171
 
 occupancies and eigenvectors
 
  o = -0.0823  v =  0.0000 -0.0000 -0.0000  0.0000 -1.0000  0.0000  0.0000  0.0000  0.0000  0.0000      0.0000  0.0000  0.0000  0.0000  0.0000  0.0000  0.0000  0.0000  0.0000  0.0000
  o = -0.0689  v =  0.0000  0.7071  0.0000 -0.7071 -0.0000  0.0000  0.0000  0.0000  0.0000  0.0000      0.0000  0.0000  0.0000  0.0000  0.0000  0.0000  0.0000  0.0000  0.0000  0.0000
  o = -0.0675  v = -0.5988 -0.0000  0.8009  0.0000 -0.0000  0.0000  0.0000  0.0000  0.0000  0.0000      0.0000  0.0000  0.0000  0.0000  0.0000  0.0000  0.0000  0.0000  0.0000  0.0000
  o =  0.0435  v =  0.0000 -0.7071  0.0000 -0.7071  0.0000  0.0000  0.0000  0.0000  0.0000  0.0000      0.0000  0.0000  0.0000  0.0000  0.0000  0.0000  0.0000  0.0000  0.0000  0.0000
  o =  0.0579  v =  0.8009 -0.0000  0.5988  0.0000 -0.0000  0.0000  0.0000  0.0000  0.0000  0.0000      0.0000  0.0000  0.0000  0.0000  0.0000  0.0000  0.0000  0.0000  0.0000  0.0000
  o =  1.0504  v =  0.0000  0.0000  0.0000  0.0000  0.0000  0.8003  0.0000  0.5995  0.0000 -0.0000      0.0000  0.0000  0.0000  0.0000  0.0000  0.0000  0.0000  0.0000  0.0000  0.0000
  o =  1.0577  v =  0.0000  0.0000  0.0000  0.0000  0.0000  0.0000 -0.7071  0.0000 -0.7071 -0.0000      0.0000  0.0000  0.0000  0.0000  0.0000  0.0000  0.0000  0.0000  0.0000  0.0000
  o =  1.1085  v =  0.0000  0.0000  0.0000  0.0000  0.0000  0.5995 -0.0000 -0.8003  0.0000  0.0000      0.0000  0.0000  0.0000  0.0000  0.0000  0.0000  0.0000  0.0000  0.0000  0.0000
  o =  1.1105  v =  0.0000  0.0000  0.0000  0.0000  0.0000  0.0000 -0.7071  0.0000  0.7071 -0.0000      0.0000  0.0000  0.0000  0.0000  0.0000  0.0000  0.0000  0.0000  0.0000  0.0000
  o =  1.1171  v =  0.0000  0.0000  0.0000  0.0000  0.0000  0.0000  0.0000 -0.0000  0.0000 -1.0000      0.0000  0.0000  0.0000  0.0000  0.0000  0.0000  0.0000  0.0000  0.0000  0.0000
atom =   2  type =  1  l = 2
 
 onsite density matrix
 
spin component  1
 
  1.0713  0.0000  0.0279  0.0000 -0.0000
  0.0000  1.0841  0.0000  0.0264  0.0000
  0.0279  0.0000  1.0876  0.0000  0.0000
  0.0000  0.0264  0.0000  1.0841  0.0000
 -0.0000  0.0000  0.0000  0.0000  1.1171
 
spin component  2
 
  0.0129  0.0000 -0.0602  0.0000  0.0000
  0.0000 -0.0127  0.0000 -0.0562  0.0000
 -0.0602  0.0000 -0.0225  0.0000 -0.0000
  0.0000 -0.0562  0.0000 -0.0127  0.0000
  0.0000  0.0000 -0.0000  0.0000 -0.0823
 
 occupancies and eigenvectors
 
  o = -0.0823  v =  0.0000  0.0000  0.0000  0.0000  0.0000  0.0000  0.0000  0.0000  0.0000  1.0000      0.0000  0.0000  0.0000  0.0000  0.0000  0.0000  0.0000  0.0000  0.0000  0.0000
  o = -0.0689  v =  0.0000  0.0000  0.0000  0.0000  0.0000 -0.0000  0.7071 -0.0000  0.7071 -0.0000      0.0000  0.0000  0.0000  0.0000  0.0000  0.0000  0.0000  0.0000  0.0000  0.0000
  o = -0.0675  v =  0.0000  0.0000  0.0000  0.0000  0.0000 -0.5988 -0.0000 -0.8009 -0.0000  0.0000      0.0000  0.0000  0.0000  0.0000  0.0000  0.0000  0.0000  0.0000  0.0000  0.0000
  o =  0.0435  v =  0.0000  0.0000  0.0000  0.0000  0.0000 -0.0000 -0.7071  0.0000  0.7071 -0.0000      0.0000  0.0000  0.0000  0.0000  0.0000  0.0000  0.0000  0.0000  0.0000  0.0000
  o =  0.0579  v =  0.0000  0.0000  0.0000  0.0000  0.0000  0.8009 -0.0000 -0.5988  0.0000  0.0000      0.0000  0.0000  0.0000  0.0000  0.0000  0.0000  0.0000  0.0000  0.0000  0.0000
  o =  1.0504  v =  0.8003  0.0000 -0.5995  0.0000  0.0000  0.0000  0.0000  0.0000  0.0000  0.0000      0.0000  0.0000  0.0000  0.0000  0.0000  0.0000  0.0000  0.0000  0.0000  0.0000
  o =  1.0577  v =  0.0000  0.7071  0.0000 -0.7071 -0.0000  0.0000  0.0000  0.0000  0.0000  0.0000      0.0000  0.0000  0.0000  0.0000  0.0000  0.0000  0.0000  0.0000  0.0000  0.0000
  o =  1.1085  v =  0.5995 -0.0000  0.8003  0.0000 -0.0000  0.0000  0.0000  0.0000  0.0000  0.0000      0.0000  0.0000  0.0000  0.0000  0.0000  0.0000  0.0000  0.0000  0.0000  0.0000
  o =  1.1105  v =  0.0000 -0.7071  0.0000 -0.7071  0.0000  0.0000  0.0000  0.0000  0.0000  0.0000      0.0000  0.0000  0.0000  0.0000  0.0000  0.0000  0.0000  0.0000  0.0000  0.0000
  o =  1.1171  v =  0.0000  0.0000  0.0000  0.0000  1.0000  0.0000  0.0000  0.0000  0.0000  0.0000      0.0000  0.0000  0.0000  0.0000  0.0000  0.0000  0.0000  0.0000  0.0000  0.0000
     EDDAV:  cpu time    0.7722: real time    0.7722
 BZINTS: Fermi energy:  5.624056; 54.000000 electrons
         Band energy:-748.002681;  BLOECHL correction:  0.000000
       DOS:  cpu time    0.0012: real time    0.0012
    CHARGE:  cpu time    0.1454: real time    0.1454
    MIXING:  cpu time    0.0005: real time    0.0005
    --------------------------------------------
      LOOP:  cpu time    1.7458: real time    1.7459

 eigenvalue-minimisations  :  1572
 total energy-change (2. order) :-0.4388552E+03  (-0.2730370E+02)
 number of electron      54.0000010 magnetization      -0.0000000
 augmentation part       19.9430083 magnetization      -0.0000000

 Broyden mixing:
  rms(total) = 0.60984E+01    rms(broyden)= 0.60983E+01
  rms(prec ) = 0.64488E+01
  weight for this iteration     100.00

 eigenvalues of (default mixing * dielectric matrix)
  average eigenvalue GAMMA=   0.4238
  0.4238

 Free energy of the ion-electron system (eV)
  ---------------------------------------------------
  alpha Z        PSCENC =       197.64458944
  Ewald energy   TEWEN  =     -4190.19045671
  -Hartree energ DENC   =     -2205.48570017
  -exchange      EXHF   =         0.00000000
  -V(xc)+E(xc)   XCENC  =       144.81029834
  PAW double counting   =      6415.90783773    -6370.26686471
  entropy T*S    EENTRO =         0.00000000
  eigenvalues    EBANDS =      -748.00268091
  atomic energy  EATOM  =      6689.01075358
  Solvation  Ediel_sol  =         0.00000000
  ---------------------------------------------------
  free energy    TOTEN  =       -66.57222342 eV

  energy without entropy =      -66.57222342  energy(sigma->0) =      -66.57222342


--------------------------------------------------------------------------------------------------------




--------------------------------------- Iteration      1(   7)  ---------------------------------------


    POTLOK:  cpu time    0.0325: real time    0.0325
    SETDIJ:  cpu time    0.7795: real time    0.7796
atom =   1  type =  1  l = 2
 
 onsite density matrix
 
spin component  1
 
  0.0534  0.0000  0.0220  0.0000  0.0000
  0.0000  0.0424  0.0000  0.0201  0.0000
  0.0220  0.0000  0.0393  0.0000 -0.0000
  0.0000  0.0201  0.0000  0.0424  0.0000
  0.0000  0.0000 -0.0000  0.0000  0.0146
 
spin component  2
 
  1.0133  0.0000  0.0134  0.0000  0.0000
  0.0000  1.0116  0.0000  0.0124  0.0000
  0.0134  0.0000  1.0084  0.0000  0.0000
  0.0000  0.0124  0.0000  1.0116  0.0000
  0.0000  0.0000  0.0000  0.0000  1.0018
 
 occupancies and eigenvectors
 
  o =  0.0146  v =  0.0000  0.0000 -0.0000  0.0000 -1.0000  0.0000  0.0000  0.0000  0.0000  0.0000      0.0000  0.0000  0.0000  0.0000  0.0000  0.0000  0.0000  0.0000  0.0000  0.0000
  o =  0.0223  v =  0.0000 -0.7071  0.0000  0.7071 -0.0000  0.0000  0.0000  0.0000  0.0000  0.0000      0.0000  0.0000  0.0000  0.0000  0.0000  0.0000  0.0000  0.0000  0.0000  0.0000
  o =  0.0232  v = -0.5895  0.0000  0.8078  0.0000 -0.0000  0.0000  0.0000  0.0000  0.0000  0.0000      0.0000  0.0000  0.0000  0.0000  0.0000  0.0000  0.0000  0.0000  0.0000  0.0000
  o =  0.0624  v =  0.0000 -0.7071  0.0000 -0.7071 -0.0000  0.0000  0.0000  0.0000  0.0000  0.0000      0.0000  0.0000  0.0000  0.0000  0.0000  0.0000  0.0000  0.0000  0.0000  0.0000
  o =  0.0694  v = -0.8078 -0.0000 -0.5895  0.0000  0.0000  0.0000  0.0000  0.0000  0.0000  0.0000      0.0000  0.0000  0.0000  0.0000  0.0000  0.0000  0.0000  0.0000  0.0000  0.0000
  o =  0.9972  v =  0.0000  0.0000  0.0000  0.0000  0.0000 -0.6401  0.0000  0.7683 -0.0000 -0.0000      0.0000  0.0000  0.0000  0.0000  0.0000  0.0000  0.0000  0.0000  0.0000  0.0000
  o =  0.9992  v =  0.0000  0.0000  0.0000  0.0000  0.0000 -0.0000 -0.7071  0.0000  0.7071  0.0000      0.0000  0.0000  0.0000  0.0000  0.0000  0.0000  0.0000  0.0000  0.0000  0.0000
  o =  1.0018  v =  0.0000  0.0000  0.0000  0.0000  0.0000 -0.0000  0.0000  0.0000 -0.0000  1.0000      0.0000  0.0000  0.0000  0.0000  0.0000  0.0000  0.0000  0.0000  0.0000  0.0000
  o =  1.0240  v =  0.0000  0.0000  0.0000  0.0000  0.0000 -0.0000 -0.7071 -0.0000 -0.7071 -0.0000      0.0000  0.0000  0.0000  0.0000  0.0000  0.0000  0.0000  0.0000  0.0000  0.0000
  o =  1.0245  v =  0.0000  0.0000  0.0000  0.0000  0.0000 -0.7683  0.0000 -0.6401  0.0000 -0.0000      0.0000  0.0000  0.0000  0.0000  0.0000  0.0000  0.0000  0.0000  0.0000  0.0000
atom =   2  type =  1  l = 2
 
 onsite density matrix
 
spin component  1
 
  1.0133  0.0000 -0.0134  0.0000  0.0000
  0.0000  1.0116  0.0000 -0.0124  0.0000
 -0.0134  0.0000  1.0084  0.0000  0.0000
  0.0000 -0.0124  0.0000  1.0116  0.0000
  0.0000  0.0000  0.0000  0.0000  1.0018
 
spin component  2
 
  0.0534  0.0000 -0.0220  0.0000  0.0000
  0.0000  0.0424  0.0000 -0.0201  0.0000
 -0.0220  0.0000  0.0393  0.0000  0.0000
  0.0000 -0.0201  0.0000  0.0424  0.0000
  0.0000  0.0000  0.0000  0.0000  0.0146
 
 occupancies and eigenvectors
 
  o =  0.0146  v =  0.0000  0.0000  0.0000  0.0000  0.0000 -0.0000 -0.0000 -0.0000  0.0000  1.0000      0.0000  0.0000  0.0000  0.0000  0.0000  0.0000  0.0000  0.0000  0.0000  0.0000
  o =  0.0223  v =  0.0000  0.0000  0.0000  0.0000  0.0000  0.0000 -0.7071  0.0000 -0.7071  0.0000      0.0000  0.0000  0.0000  0.0000  0.0000  0.0000  0.0000  0.0000  0.0000  0.0000
  o =  0.0232  v =  0.0000  0.0000  0.0000  0.0000  0.0000 -0.5895 -0.0000 -0.8078 -0.0000 -0.0000      0.0000  0.0000  0.0000  0.0000  0.0000  0.0000  0.0000  0.0000  0.0000  0.0000
  o =  0.0624  v =  0.0000  0.0000  0.0000  0.0000  0.0000  0.0000  0.7071 -0.0000 -0.7071  0.0000      0.0000  0.0000  0.0000  0.0000  0.0000  0.0000  0.0000  0.0000  0.0000  0.0000
  o =  0.0694  v =  0.0000  0.0000  0.0000  0.0000  0.0000 -0.8078  0.0000  0.5895 -0.0000  0.0000      0.0000  0.0000  0.0000  0.0000  0.0000  0.0000  0.0000  0.0000  0.0000  0.0000
  o =  0.9972  v = -0.6401  0.0000 -0.7683  0.0000  0.0000  0.0000  0.0000  0.0000  0.0000  0.0000      0.0000  0.0000  0.0000  0.0000  0.0000  0.0000  0.0000  0.0000  0.0000  0.0000
  o =  0.9992  v = -0.0000 -0.7071 -0.0000 -0.7071 -0.0000  0.0000  0.0000  0.0000  0.0000  0.0000      0.0000  0.0000  0.0000  0.0000  0.0000  0.0000  0.0000  0.0000  0.0000  0.0000
  o =  1.0018  v =  0.0000 -0.0000  0.0000 -0.0000  1.0000  0.0000  0.0000  0.0000  0.0000  0.0000      0.0000  0.0000  0.0000  0.0000  0.0000  0.0000  0.0000  0.0000  0.0000  0.0000
  o =  1.0240  v = -0.0000 -0.7071  0.0000  0.7071 -0.0000  0.0000  0.0000  0.0000  0.0000  0.0000      0.0000  0.0000  0.0000  0.0000  0.0000  0.0000  0.0000  0.0000  0.0000  0.0000
  o =  1.0245  v = -0.7683  0.0000  0.6401 -0.0000  0.0000  0.0000  0.0000  0.0000  0.0000  0.0000      0.0000  0.0000  0.0000  0.0000  0.0000  0.0000  0.0000  0.0000  0.0000  0.0000
     EDDAV:  cpu time    0.6987: real time    0.6987
 BZINTS: Fermi energy:  3.801002; 54.000000 electrons
         Band energy:-785.290236;  BLOECHL correction:  0.000000
       DOS:  cpu time    0.0014: real time    0.0014
    CHARGE:  cpu time    0.1452: real time    0.1452
    MIXING:  cpu time    0.0006: real time    0.0006
    --------------------------------------------
      LOOP:  cpu time    1.6578: real time    1.6578

 eigenvalue-minimisations  :  1344
 total energy-change (2. order) :-0.4061224E+01  (-0.4918760E+01)
 number of electron      54.0000010 magnetization      -0.0000000
 augmentation part       19.7537989 magnetization      -0.0000000

 Broyden mixing:
  rms(total) = 0.16334E+01    rms(broyden)= 0.16332E+01
  rms(prec ) = 0.23828E+01
  weight for this iteration     100.00

 eigenvalues of (default mixing * dielectric matrix)
  average eigenvalue GAMMA=   0.7070
  0.7070  0.7070

 Free energy of the ion-electron system (eV)
  ---------------------------------------------------
  alpha Z        PSCENC =       197.64458944
  Ewald energy   TEWEN  =     -4190.19045671
  -Hartree energ DENC   =     -2192.39553631
  -exchange      EXHF   =         0.00000000
  -V(xc)+E(xc)   XCENC  =       166.62748666
  PAW double counting   =      6489.22157330    -6445.26162157
  entropy T*S    EENTRO =         0.00000000
  eigenvalues    EBANDS =      -785.29023580
  atomic energy  EATOM  =      6689.01075358
  Solvation  Ediel_sol  =         0.00000000
  ---------------------------------------------------
  free energy    TOTEN  =       -70.63344741 eV

  energy without entropy =      -70.63344741  energy(sigma->0) =      -70.63344741


--------------------------------------------------------------------------------------------------------




--------------------------------------- Iteration      1(   8)  ---------------------------------------


    POTLOK:  cpu time    0.0331: real time    0.0331
    SETDIJ:  cpu time    0.7789: real time    0.7789
atom =   1  type =  1  l = 2
 
 onsite density matrix
 
spin component  1
 
  0.0542  0.0000  0.0231  0.0000  0.0000
  0.0000  0.0440  0.0000  0.0214  0.0000
  0.0231  0.0000  0.0419  0.0000 -0.0000
  0.0000  0.0214  0.0000  0.0440  0.0000
  0.0000  0.0000 -0.0000  0.0000  0.0192
 
spin component  2
 
  0.9885  0.0000  0.0136  0.0000 -0.0000
  0.0000  0.9868  0.0000  0.0110  0.0000
  0.0136  0.0000  0.9813  0.0000 -0.0000
  0.0000  0.0110  0.0000  0.9868  0.0000
 -0.0000  0.0000 -0.0000  0.0000  0.9750
 
 occupancies and eigenvectors
 
  o =  0.0192  v =  0.0000  0.0000 -0.0000  0.0000 -1.0000  0.0000  0.0000  0.0000  0.0000  0.0000      0.0000  0.0000  0.0000  0.0000  0.0000  0.0000  0.0000  0.0000  0.0000  0.0000
  o =  0.0226  v =  0.0000  0.7071  0.0000 -0.7071  0.0000  0.0000  0.0000  0.0000  0.0000  0.0000      0.0000  0.0000  0.0000  0.0000  0.0000  0.0000  0.0000  0.0000  0.0000  0.0000
  o =  0.0242  v = -0.6095  0.0000  0.7928  0.0000 -0.0000  0.0000  0.0000  0.0000  0.0000  0.0000      0.0000  0.0000  0.0000  0.0000  0.0000  0.0000  0.0000  0.0000  0.0000  0.0000
  o =  0.0654  v =  0.0000  0.7071  0.0000  0.7071  0.0000  0.0000  0.0000  0.0000  0.0000  0.0000      0.0000  0.0000  0.0000  0.0000  0.0000  0.0000  0.0000  0.0000  0.0000  0.0000
  o =  0.0719  v = -0.7928 -0.0000 -0.6095  0.0000  0.0000  0.0000  0.0000  0.0000  0.0000  0.0000      0.0000  0.0000  0.0000  0.0000  0.0000  0.0000  0.0000  0.0000  0.0000  0.0000
  o =  0.9708  v =  0.0000  0.0000  0.0000  0.0000  0.0000 -0.6103  0.0000  0.7921  0.0000 -0.0000      0.0000  0.0000  0.0000  0.0000  0.0000  0.0000  0.0000  0.0000  0.0000  0.0000
  o =  0.9750  v =  0.0000  0.0000  0.0000  0.0000  0.0000  0.0000 -0.0000 -0.0000  0.0000 -1.0000      0.0000  0.0000  0.0000  0.0000  0.0000  0.0000  0.0000  0.0000  0.0000  0.0000
  o =  0.9759  v =  0.0000  0.0000  0.0000  0.0000  0.0000  0.0000  0.7071  0.0000 -0.7071 -0.0000      0.0000  0.0000  0.0000  0.0000  0.0000  0.0000  0.0000  0.0000  0.0000  0.0000
  o =  0.9978  v =  0.0000  0.0000  0.0000  0.0000  0.0000  0.0000  0.7071  0.0000  0.7071 -0.0000      0.0000  0.0000  0.0000  0.0000  0.0000  0.0000  0.0000  0.0000  0.0000  0.0000
  o =  0.9990  v =  0.0000  0.0000  0.0000  0.0000  0.0000 -0.7921  0.0000 -0.6103  0.0000  0.0000      0.0000  0.0000  0.0000  0.0000  0.0000  0.0000  0.0000  0.0000  0.0000  0.0000
atom =   2  type =  1  l = 2
 
 onsite density matrix
 
spin component  1
 
  0.9885  0.0000 -0.0136  0.0000 -0.0000
  0.0000  0.9868  0.0000 -0.0110  0.0000
 -0.0136  0.0000  0.9813  0.0000  0.0000
  0.0000 -0.0110  0.0000  0.9868  0.0000
 -0.0000  0.0000  0.0000  0.0000  0.9750
 
spin component  2
 
  0.0542  0.0000 -0.0231  0.0000  0.0000
  0.0000  0.0440  0.0000 -0.0214  0.0000
 -0.0231  0.0000  0.0419  0.0000 -0.0000
  0.0000 -0.0214  0.0000  0.0440  0.0000
  0.0000  0.0000 -0.0000  0.0000  0.0192
 
 occupancies and eigenvectors
 
  o =  0.0192  v =  0.0000  0.0000  0.0000  0.0000  0.0000  0.0000 -0.0000  0.0000  0.0000  1.0000      0.0000  0.0000  0.0000  0.0000  0.0000  0.0000  0.0000  0.0000  0.0000  0.0000
  o =  0.0226  v =  0.0000  0.0000  0.0000  0.0000  0.0000  0.0000 -0.7071  0.0000 -0.7071 -0.0000      0.0000  0.0000  0.0000  0.0000  0.0000  0.0000  0.0000  0.0000  0.0000  0.0000
  o =  0.0242  v =  0.0000  0.0000  0.0000  0.0000  0.0000 -0.6095 -0.0000 -0.7928  0.0000  0.0000      0.0000  0.0000  0.0000  0.0000  0.0000  0.0000  0.0000  0.0000  0.0000  0.0000
  o =  0.0654  v =  0.0000  0.0000  0.0000  0.0000  0.0000  0.0000  0.7071  0.0000 -0.7071  0.0000      0.0000  0.0000  0.0000  0.0000  0.0000  0.0000  0.0000  0.0000  0.0000  0.0000
  o =  0.0719  v =  0.0000  0.0000  0.0000  0.0000  0.0000 -0.7928  0.0000  0.6095  0.0000 -0.0000      0.0000  0.0000  0.0000  0.0000  0.0000  0.0000  0.0000  0.0000  0.0000  0.0000
  o =  0.9708  v = -0.6103  0.0000 -0.7921  0.0000 -0.0000  0.0000  0.0000  0.0000  0.0000  0.0000      0.0000  0.0000  0.0000  0.0000  0.0000  0.0000  0.0000  0.0000  0.0000  0.0000
  o =  0.9750  v =  0.0000 -0.0000  0.0000  0.0000 -1.0000  0.0000  0.0000  0.0000  0.0000  0.0000      0.0000  0.0000  0.0000  0.0000  0.0000  0.0000  0.0000  0.0000  0.0000  0.0000
  o =  0.9759  v =  0.0000 -0.7071  0.0000 -0.7071  0.0000  0.0000  0.0000  0.0000  0.0000  0.0000      0.0000  0.0000  0.0000  0.0000  0.0000  0.0000  0.0000  0.0000  0.0000  0.0000
  o =  0.9978  v =  0.0000 -0.7071  0.0000  0.7071  0.0000  0.0000  0.0000  0.0000  0.0000  0.0000      0.0000  0.0000  0.0000  0.0000  0.0000  0.0000  0.0000  0.0000  0.0000  0.0000
  o =  0.9990  v = -0.7921  0.0000  0.6103  0.0000  0.0000  0.0000  0.0000  0.0000  0.0000  0.0000      0.0000  0.0000  0.0000  0.0000  0.0000  0.0000  0.0000  0.0000  0.0000  0.0000
     EDDAV:  cpu time    0.8021: real time    0.8021
 BZINTS: Fermi energy:  2.436788; 54.000000 electrons
         Band energy:-796.170308;  BLOECHL correction:  0.000000
       DOS:  cpu time    0.0011: real time    0.0011
    CHARGE:  cpu time    0.1452: real time    0.1452
    MIXING:  cpu time    0.0006: real time    0.0006
    --------------------------------------------
      LOOP:  cpu time    1.7611: real time    1.7611

 eigenvalue-minimisations  :  1668
 total energy-change (2. order) : 0.2675749E+01  (-0.5774696E+00)
 number of electron      54.0000009 magnetization      -0.0000000
 augmentation part       19.8745056 magnetization      -0.0000000

 Broyden mixing:
  rms(total) = 0.62968E+00    rms(broyden)= 0.62951E+00
  rms(prec ) = 0.97322E+00
  weight for this iteration     100.00

 eigenvalues of (default mixing * dielectric matrix)
  average eigenvalue GAMMA=   0.7451
  0.9444  0.6455  0.6455

 Free energy of the ion-electron system (eV)
  ---------------------------------------------------
  alpha Z        PSCENC =       197.64458944
  Ewald energy   TEWEN  =     -4190.19045671
  -Hartree energ DENC   =     -2183.44154239
  -exchange      EXHF   =         0.00000000
  -V(xc)+E(xc)   XCENC  =       170.22851808
  PAW double counting   =      6423.68878874    -6378.72804048
  entropy T*S    EENTRO =         0.00000000
  eigenvalues    EBANDS =      -796.17030846
  atomic energy  EATOM  =      6689.01075358
  Solvation  Ediel_sol  =         0.00000000
  ---------------------------------------------------
  free energy    TOTEN  =       -67.95769820 eV

  energy without entropy =      -67.95769820  energy(sigma->0) =      -67.95769820


--------------------------------------------------------------------------------------------------------




--------------------------------------- Iteration      1(   9)  ---------------------------------------


    POTLOK:  cpu time    0.0325: real time    0.0325
    SETDIJ:  cpu time    0.7792: real time    0.7792
atom =   1  type =  1  l = 2
 
 onsite density matrix
 
spin component  1
 
  0.0478  0.0000  0.0200  0.0000 -0.0000
  0.0000  0.0423  0.0000  0.0156  0.0000
  0.0200  0.0000  0.0373  0.0000 -0.0000
  0.0000  0.0156  0.0000  0.0423  0.0000
 -0.0000  0.0000 -0.0000  0.0000  0.0234
 
spin component  2
 
  0.9700  0.0000  0.0195  0.0000  0.0000
  0.0000  0.9636  0.0000  0.0180  0.0000
  0.0195  0.0000  0.9594  0.0000  0.0000
  0.0000  0.0180  0.0000  0.9636  0.0000
  0.0000  0.0000  0.0000  0.0000  0.9460
 
 occupancies and eigenvectors
 
  o =  0.0218  v = -0.6112  0.0000  0.7915  0.0000  0.0000  0.0000  0.0000  0.0000  0.0000  0.0000      0.0000  0.0000  0.0000  0.0000  0.0000  0.0000  0.0000  0.0000  0.0000  0.0000
  o =  0.0234  v = -0.0000 -0.0000  0.0000  0.0000 -1.0000  0.0000  0.0000  0.0000  0.0000  0.0000      0.0000  0.0000  0.0000  0.0000  0.0000  0.0000  0.0000  0.0000  0.0000  0.0000
  o =  0.0267  v =  0.0000  0.7071  0.0000 -0.7071 -0.0000  0.0000  0.0000  0.0000  0.0000  0.0000      0.0000  0.0000  0.0000  0.0000  0.0000  0.0000  0.0000  0.0000  0.0000  0.0000
  o =  0.0579  v =  0.0000  0.7071  0.0000  0.7071 -0.0000  0.0000  0.0000  0.0000  0.0000  0.0000      0.0000  0.0000  0.0000  0.0000  0.0000  0.0000  0.0000  0.0000  0.0000  0.0000
  o =  0.0632  v = -0.7915  0.0000 -0.6112  0.0000  0.0000  0.0000  0.0000  0.0000  0.0000  0.0000      0.0000  0.0000  0.0000  0.0000  0.0000  0.0000  0.0000  0.0000  0.0000  0.0000
  o =  0.9445  v =  0.0000  0.0000  0.0000  0.0000  0.0000 -0.6069  0.0000  0.7948  0.0000 -0.0000      0.0000  0.0000  0.0000  0.0000  0.0000  0.0000  0.0000  0.0000  0.0000  0.0000
  o =  0.9456  v =  0.0000  0.0000  0.0000  0.0000  0.0000  0.0000  0.7071  0.0000 -0.7071  0.0000      0.0000  0.0000  0.0000  0.0000  0.0000  0.0000  0.0000  0.0000  0.0000  0.0000
  o =  0.9460  v =  0.0000  0.0000  0.0000  0.0000  0.0000 -0.0000 -0.0000  0.0000  0.0000  1.0000      0.0000  0.0000  0.0000  0.0000  0.0000  0.0000  0.0000  0.0000  0.0000  0.0000
  o =  0.9816  v =  0.0000  0.0000  0.0000  0.0000  0.0000  0.0000 -0.7071  0.0000 -0.7071 -0.0000      0.0000  0.0000  0.0000  0.0000  0.0000  0.0000  0.0000  0.0000  0.0000  0.0000
  o =  0.9849  v =  0.0000  0.0000  0.0000  0.0000  0.0000 -0.7948  0.0000 -0.6069  0.0000 -0.0000      0.0000  0.0000  0.0000  0.0000  0.0000  0.0000  0.0000  0.0000  0.0000  0.0000
atom =   2  type =  1  l = 2
 
 onsite density matrix
 
spin component  1
 
  0.9700  0.0000 -0.0195  0.0000  0.0000
  0.0000  0.9636  0.0000 -0.0180  0.0000
 -0.0195  0.0000  0.9594  0.0000 -0.0000
  0.0000 -0.0180  0.0000  0.9636  0.0000
  0.0000  0.0000 -0.0000  0.0000  0.9460
 
spin component  2
 
  0.0478  0.0000 -0.0200  0.0000 -0.0000
  0.0000  0.0423  0.0000 -0.0156  0.0000
 -0.0200  0.0000  0.0373  0.0000 -0.0000
  0.0000 -0.0156  0.0000  0.0423  0.0000
 -0.0000  0.0000 -0.0000  0.0000  0.0234
 
 occupancies and eigenvectors
 
  o =  0.0218  v =  0.0000  0.0000  0.0000  0.0000  0.0000 -0.6112 -0.0000 -0.7915  0.0000 -0.0000      0.0000  0.0000  0.0000  0.0000  0.0000  0.0000  0.0000  0.0000  0.0000  0.0000
  o =  0.0234  v =  0.0000  0.0000  0.0000  0.0000  0.0000 -0.0000  0.0000 -0.0000  0.0000  1.0000      0.0000  0.0000  0.0000  0.0000  0.0000  0.0000  0.0000  0.0000  0.0000  0.0000
  o =  0.0267  v =  0.0000  0.0000  0.0000  0.0000  0.0000  0.0000 -0.7071  0.0000 -0.7071  0.0000      0.0000  0.0000  0.0000  0.0000  0.0000  0.0000  0.0000  0.0000  0.0000  0.0000
  o =  0.0579  v =  0.0000  0.0000  0.0000  0.0000  0.0000  0.0000  0.7071  0.0000 -0.7071 -0.0000      0.0000  0.0000  0.0000  0.0000  0.0000  0.0000  0.0000  0.0000  0.0000  0.0000
  o =  0.0632  v =  0.0000  0.0000  0.0000  0.0000  0.0000 -0.7915 -0.0000  0.6112  0.0000 -0.0000      0.0000  0.0000  0.0000  0.0000  0.0000  0.0000  0.0000  0.0000  0.0000  0.0000
  o =  0.9445  v = -0.6069  0.0000 -0.7948  0.0000 -0.0000  0.0000  0.0000  0.0000  0.0000  0.0000      0.0000  0.0000  0.0000  0.0000  0.0000  0.0000  0.0000  0.0000  0.0000  0.0000
  o =  0.9456  v = -0.0000 -0.7071 -0.0000 -0.7071  0.0000  0.0000  0.0000  0.0000  0.0000  0.0000      0.0000  0.0000  0.0000  0.0000  0.0000  0.0000  0.0000  0.0000  0.0000  0.0000
  o =  0.9460  v =  0.0000 -0.0000  0.0000 -0.0000 -1.0000  0.0000  0.0000  0.0000  0.0000  0.0000      0.0000  0.0000  0.0000  0.0000  0.0000  0.0000  0.0000  0.0000  0.0000  0.0000
  o =  0.9816  v =  0.0000 -0.7071  0.0000  0.7071 -0.0000  0.0000  0.0000  0.0000  0.0000  0.0000      0.0000  0.0000  0.0000  0.0000  0.0000  0.0000  0.0000  0.0000  0.0000  0.0000
  o =  0.9849  v = -0.7948  0.0000  0.6069  0.0000 -0.0000  0.0000  0.0000  0.0000  0.0000  0.0000      0.0000  0.0000  0.0000  0.0000  0.0000  0.0000  0.0000  0.0000  0.0000  0.0000
     EDDAV:  cpu time    0.7544: real time    0.7544
 BZINTS: Fermi energy:  1.473973; 54.000000 electrons
         Band energy:-805.098240;  BLOECHL correction:  0.000000
       DOS:  cpu time    0.0013: real time    0.0013
    CHARGE:  cpu time    0.1460: real time    0.1460
    MIXING:  cpu time    0.0007: real time    0.0007
    --------------------------------------------
      LOOP:  cpu time    1.7140: real time    1.7141

 eigenvalue-minimisations  :  1524
 total energy-change (2. order) : 0.5415638E+00  (-0.4700184E+00)
 number of electron      54.0000009 magnetization       0.0000000
 augmentation part       20.0073419 magnetization       0.0000000

 Broyden mixing:
  rms(total) = 0.80826E+00    rms(broyden)= 0.80822E+00
  rms(prec ) = 0.86924E+00
  weight for this iteration     100.00

 eigenvalues of (default mixing * dielectric matrix)
  average eigenvalue GAMMA=   0.9491
  1.7474  0.5716  0.7386  0.7386

 Free energy of the ion-electron system (eV)
  ---------------------------------------------------
  alpha Z        PSCENC =       197.64458944
  Ewald energy   TEWEN  =     -4190.19045671
  -Hartree energ DENC   =     -2173.13599367
  -exchange      EXHF   =         0.00000000
  -V(xc)+E(xc)   XCENC  =       168.56584589
  PAW double counting   =      6440.56792724    -6394.78056006
  entropy T*S    EENTRO =         0.00000000
  eigenvalues    EBANDS =      -805.09824010
  atomic energy  EATOM  =      6689.01075358
  Solvation  Ediel_sol  =         0.00000000
  ---------------------------------------------------
  free energy    TOTEN  =       -67.41613440 eV

  energy without entropy =      -67.41613440  energy(sigma->0) =      -67.41613440


--------------------------------------------------------------------------------------------------------




--------------------------------------- Iteration      1(  10)  ---------------------------------------


    POTLOK:  cpu time    0.0325: real time    0.0325
    SETDIJ:  cpu time    0.7782: real time    0.7782
atom =   1  type =  1  l = 2
 
 onsite density matrix
 
spin component  1
 
  0.0535  0.0000  0.0232  0.0000  0.0000
  0.0000  0.0451  0.0000  0.0200  0.0000
  0.0232  0.0000  0.0413  0.0000  0.0000
  0.0000  0.0200  0.0000  0.0451  0.0000
  0.0000  0.0000  0.0000  0.0000  0.0243
 
spin component  2
 
  0.9606  0.0000  0.0184  0.0000  0.0000
  0.0000  0.9566  0.0000  0.0152  0.0000
  0.0184  0.0000  0.9506  0.0000 -0.0000
  0.0000  0.0152  0.0000  0.9566  0.0000
  0.0000  0.0000 -0.0000  0.0000  0.9396
 
 occupancies and eigenvectors
 
  o =  0.0234  v = -0.6103  0.0000  0.7922  0.0000 -0.0000  0.0000  0.0000  0.0000  0.0000  0.0000      0.0000  0.0000  0.0000  0.0000  0.0000  0.0000  0.0000  0.0000  0.0000  0.0000
  o =  0.0243  v = -0.0000 -0.0000  0.0000  0.0000  1.0000  0.0000  0.0000  0.0000  0.0000  0.0000      0.0000  0.0000  0.0000  0.0000  0.0000  0.0000  0.0000  0.0000  0.0000  0.0000
  o =  0.0251  v =  0.0000  0.7071  0.0000 -0.7071  0.0000  0.0000  0.0000  0.0000  0.0000  0.0000      0.0000  0.0000  0.0000  0.0000  0.0000  0.0000  0.0000  0.0000  0.0000  0.0000
  o =  0.0651  v =  0.0000 -0.7071  0.0000 -0.7071 -0.0000  0.0000  0.0000  0.0000  0.0000  0.0000      0.0000  0.0000  0.0000  0.0000  0.0000  0.0000  0.0000  0.0000  0.0000  0.0000
  o =  0.0714  v = -0.7922  0.0000 -0.6103  0.0000 -0.0000  0.0000  0.0000  0.0000  0.0000  0.0000      0.0000  0.0000  0.0000  0.0000  0.0000  0.0000  0.0000  0.0000  0.0000  0.0000
  o =  0.9365  v =  0.0000  0.0000  0.0000  0.0000  0.0000 -0.6079 -0.0000  0.7940  0.0000  0.0000      0.0000  0.0000  0.0000  0.0000  0.0000  0.0000  0.0000  0.0000  0.0000  0.0000
  o =  0.9396  v =  0.0000  0.0000  0.0000  0.0000  0.0000  0.0000  0.0000 -0.0000 -0.0000  1.0000      0.0000  0.0000  0.0000  0.0000  0.0000  0.0000  0.0000  0.0000  0.0000  0.0000
  o =  0.9414  v =  0.0000  0.0000  0.0000  0.0000  0.0000 -0.0000  0.7071  0.0000 -0.7071 -0.0000      0.0000  0.0000  0.0000  0.0000  0.0000  0.0000  0.0000  0.0000  0.0000  0.0000
  o =  0.9718  v =  0.0000  0.0000  0.0000  0.0000  0.0000  0.0000 -0.7071 -0.0000 -0.7071  0.0000      0.0000  0.0000  0.0000  0.0000  0.0000  0.0000  0.0000  0.0000  0.0000  0.0000
  o =  0.9747  v =  0.0000  0.0000  0.0000  0.0000  0.0000 -0.7940 -0.0000 -0.6079  0.0000  0.0000      0.0000  0.0000  0.0000  0.0000  0.0000  0.0000  0.0000  0.0000  0.0000  0.0000
atom =   2  type =  1  l = 2
 
 onsite density matrix
 
spin component  1
 
  0.9606  0.0000 -0.0184  0.0000 -0.0000
  0.0000  0.9566  0.0000 -0.0152  0.0000
 -0.0184  0.0000  0.9506  0.0000 -0.0000
  0.0000 -0.0152  0.0000  0.9566  0.0000
 -0.0000  0.0000 -0.0000  0.0000  0.9396
 
spin component  2
 
  0.0535  0.0000 -0.0232  0.0000  0.0000
  0.0000  0.0451  0.0000 -0.0200  0.0000
 -0.0232  0.0000  0.0413  0.0000 -0.0000
  0.0000 -0.0200  0.0000  0.0451  0.0000
  0.0000  0.0000 -0.0000  0.0000  0.0243
 
 occupancies and eigenvectors
 
  o =  0.0234  v =  0.0000  0.0000  0.0000  0.0000  0.0000 -0.6103  0.0000 -0.7922  0.0000 -0.0000      0.0000  0.0000  0.0000  0.0000  0.0000  0.0000  0.0000  0.0000  0.0000  0.0000
  o =  0.0243  v =  0.0000  0.0000  0.0000  0.0000  0.0000 -0.0000 -0.0000 -0.0000  0.0000  1.0000      0.0000  0.0000  0.0000  0.0000  0.0000  0.0000  0.0000  0.0000  0.0000  0.0000
  o =  0.0251  v =  0.0000  0.0000  0.0000  0.0000  0.0000  0.0000 -0.7071  0.0000 -0.7071 -0.0000      0.0000  0.0000  0.0000  0.0000  0.0000  0.0000  0.0000  0.0000  0.0000  0.0000
  o =  0.0651  v =  0.0000  0.0000  0.0000  0.0000  0.0000  0.0000  0.7071  0.0000 -0.7071  0.0000      0.0000  0.0000  0.0000  0.0000  0.0000  0.0000  0.0000  0.0000  0.0000  0.0000
  o =  0.0714  v =  0.0000  0.0000  0.0000  0.0000  0.0000 -0.7922  0.0000  0.6103  0.0000 -0.0000      0.0000  0.0000  0.0000  0.0000  0.0000  0.0000  0.0000  0.0000  0.0000  0.0000
  o =  0.9365  v = -0.6079  0.0000 -0.7940  0.0000 -0.0000  0.0000  0.0000  0.0000  0.0000  0.0000      0.0000  0.0000  0.0000  0.0000  0.0000  0.0000  0.0000  0.0000  0.0000  0.0000
  o =  0.9396  v =  0.0000 -0.0000 -0.0000 -0.0000  1.0000  0.0000  0.0000  0.0000  0.0000  0.0000      0.0000  0.0000  0.0000  0.0000  0.0000  0.0000  0.0000  0.0000  0.0000  0.0000
  o =  0.9414  v =  0.0000  0.7071 -0.0000  0.7071  0.0000  0.0000  0.0000  0.0000  0.0000  0.0000      0.0000  0.0000  0.0000  0.0000  0.0000  0.0000  0.0000  0.0000  0.0000  0.0000
  o =  0.9718  v =  0.0000  0.7071 -0.0000 -0.7071  0.0000  0.0000  0.0000  0.0000  0.0000  0.0000      0.0000  0.0000  0.0000  0.0000  0.0000  0.0000  0.0000  0.0000  0.0000  0.0000
  o =  0.9747  v = -0.7940  0.0000  0.6079  0.0000  0.0000  0.0000  0.0000  0.0000  0.0000  0.0000      0.0000  0.0000  0.0000  0.0000  0.0000  0.0000  0.0000  0.0000  0.0000  0.0000
     EDDAV:  cpu time    0.7295: real time    0.7295
 BZINTS: Fermi energy:  1.420545; 54.000000 electrons
         Band energy:-806.591316;  BLOECHL correction:  0.000000
       DOS:  cpu time    0.0014: real time    0.0014
    CHARGE:  cpu time    0.1456: real time    0.1456
    MIXING:  cpu time    0.0007: real time    0.0007
    --------------------------------------------
      LOOP:  cpu time    1.6878: real time    1.6878

 eigenvalue-minimisations  :  1428
 total energy-change (2. order) : 0.2041988E-01  (-0.4749750E-01)
 number of electron      54.0000009 magnetization      -0.0000000
 augmentation part       19.9945077 magnetization      -0.0000000

 Broyden mixing:
  rms(total) = 0.59250E+00    rms(broyden)= 0.59250E+00
  rms(prec ) = 0.66006E+00
  weight for this iteration     100.00

 eigenvalues of (default mixing * dielectric matrix)
  average eigenvalue GAMMA=   1.1907
  2.6811  1.0093  1.0093  0.6268  0.6268

 Free energy of the ion-electron system (eV)
  ---------------------------------------------------
  alpha Z        PSCENC =       197.64458944
  Ewald energy   TEWEN  =     -4190.19045671
  -Hartree energ DENC   =     -2167.59793998
  -exchange      EXHF   =         0.00000000
  -V(xc)+E(xc)   XCENC  =       165.94390058
  PAW double counting   =      6508.69067419    -6464.30591914
  entropy T*S    EENTRO =         0.00000000
  eigenvalues    EBANDS =      -806.59131647
  atomic energy  EATOM  =      6689.01075358
  Solvation  Ediel_sol  =         0.00000000
  ---------------------------------------------------
  free energy    TOTEN  =       -67.39571452 eV

  energy without entropy =      -67.39571452  energy(sigma->0) =      -67.39571452


--------------------------------------------------------------------------------------------------------




--------------------------------------- Iteration      1(  11)  ---------------------------------------


    POTLOK:  cpu time    0.0330: real time    0.0330
    SETDIJ:  cpu time    0.7788: real time    0.7788
atom =   1  type =  1  l = 2
 
 onsite density matrix
 
spin component  1
 
  0.0435  0.0000  0.0270  0.0000  0.0000
  0.0000  0.0351  0.0000  0.0224  0.0000
  0.0270  0.0000  0.0295  0.0000 -0.0000
  0.0000  0.0224  0.0000  0.0351  0.0000
  0.0000  0.0000 -0.0000  0.0000  0.0097
 
spin component  2
 
  0.9728  0.0000  0.0192  0.0000 -0.0000
  0.0000  0.9673  0.0000  0.0168  0.0000
  0.0192  0.0000  0.9614  0.0000  0.0000
  0.0000  0.0168  0.0000  0.9673  0.0000
 -0.0000  0.0000  0.0000  0.0000  0.9513
 
 occupancies and eigenvectors
 
  o =  0.0087  v = -0.6122 -0.0000  0.7907  0.0000  0.0000  0.0000  0.0000  0.0000  0.0000  0.0000      0.0000  0.0000  0.0000  0.0000  0.0000  0.0000  0.0000  0.0000  0.0000  0.0000
  o =  0.0097  v = -0.0000 -0.0000  0.0000  0.0000 -1.0000  0.0000  0.0000  0.0000  0.0000  0.0000      0.0000  0.0000  0.0000  0.0000  0.0000  0.0000  0.0000  0.0000  0.0000  0.0000
  o =  0.0127  v = -0.0000  0.7071 -0.0000 -0.7071 -0.0000  0.0000  0.0000  0.0000  0.0000  0.0000      0.0000  0.0000  0.0000  0.0000  0.0000  0.0000  0.0000  0.0000  0.0000  0.0000
  o =  0.0575  v =  0.0000 -0.7071  0.0000 -0.7071  0.0000  0.0000  0.0000  0.0000  0.0000  0.0000      0.0000  0.0000  0.0000  0.0000  0.0000  0.0000  0.0000  0.0000  0.0000  0.0000
  o =  0.0644  v = -0.7907 -0.0000 -0.6122 -0.0000  0.0000  0.0000  0.0000  0.0000  0.0000  0.0000      0.0000  0.0000  0.0000  0.0000  0.0000  0.0000  0.0000  0.0000  0.0000  0.0000
  o =  0.9470  v =  0.0000  0.0000  0.0000  0.0000  0.0000 -0.5975 -0.0000  0.8019  0.0000 -0.0000      0.0000  0.0000  0.0000  0.0000  0.0000  0.0000  0.0000  0.0000  0.0000  0.0000
  o =  0.9504  v =  0.0000  0.0000  0.0000  0.0000  0.0000  0.0000  0.7071  0.0000 -0.7071 -0.0000      0.0000  0.0000  0.0000  0.0000  0.0000  0.0000  0.0000  0.0000  0.0000  0.0000
  o =  0.9513  v =  0.0000  0.0000  0.0000  0.0000  0.0000 -0.0000  0.0000  0.0000  0.0000  1.0000      0.0000  0.0000  0.0000  0.0000  0.0000  0.0000  0.0000  0.0000  0.0000  0.0000
  o =  0.9841  v =  0.0000  0.0000  0.0000  0.0000  0.0000  0.0000 -0.7071  0.0000 -0.7071  0.0000      0.0000  0.0000  0.0000  0.0000  0.0000  0.0000  0.0000  0.0000  0.0000  0.0000
  o =  0.9871  v =  0.0000  0.0000  0.0000  0.0000  0.0000 -0.8019 -0.0000 -0.5975  0.0000 -0.0000      0.0000  0.0000  0.0000  0.0000  0.0000  0.0000  0.0000  0.0000  0.0000  0.0000
atom =   2  type =  1  l = 2
 
 onsite density matrix
 
spin component  1
 
  0.9728  0.0000 -0.0192  0.0000  0.0000
  0.0000  0.9673  0.0000 -0.0168  0.0000
 -0.0192  0.0000  0.9614  0.0000  0.0000
  0.0000 -0.0168  0.0000  0.9673  0.0000
  0.0000  0.0000  0.0000  0.0000  0.9513
 
spin component  2
 
  0.0435  0.0000 -0.0270  0.0000 -0.0000
  0.0000  0.0351  0.0000 -0.0224  0.0000
 -0.0270  0.0000  0.0295  0.0000 -0.0000
  0.0000 -0.0224  0.0000  0.0351  0.0000
 -0.0000  0.0000 -0.0000  0.0000  0.0097
 
 occupancies and eigenvectors
 
  o =  0.0087  v =  0.0000  0.0000  0.0000  0.0000  0.0000 -0.6122 -0.0000 -0.7907  0.0000 -0.0000      0.0000  0.0000  0.0000  0.0000  0.0000  0.0000  0.0000  0.0000  0.0000  0.0000
  o =  0.0097  v =  0.0000  0.0000  0.0000  0.0000  0.0000 -0.0000  0.0000 -0.0000  0.0000  1.0000      0.0000  0.0000  0.0000  0.0000  0.0000  0.0000  0.0000  0.0000  0.0000  0.0000
  o =  0.0127  v =  0.0000  0.0000  0.0000  0.0000  0.0000  0.0000 -0.7071  0.0000 -0.7071  0.0000      0.0000  0.0000  0.0000  0.0000  0.0000  0.0000  0.0000  0.0000  0.0000  0.0000
  o =  0.0575  v =  0.0000  0.0000  0.0000  0.0000  0.0000  0.0000  0.7071  0.0000 -0.7071 -0.0000      0.0000  0.0000  0.0000  0.0000  0.0000  0.0000  0.0000  0.0000  0.0000  0.0000
  o =  0.0644  v =  0.0000  0.0000  0.0000  0.0000  0.0000 -0.7907 -0.0000  0.6122  0.0000 -0.0000      0.0000  0.0000  0.0000  0.0000  0.0000  0.0000  0.0000  0.0000  0.0000  0.0000
  o =  0.9470  v = -0.5975  0.0000 -0.8019  0.0000  0.0000  0.0000  0.0000  0.0000  0.0000  0.0000      0.0000  0.0000  0.0000  0.0000  0.0000  0.0000  0.0000  0.0000  0.0000  0.0000
  o =  0.9504  v = -0.0000 -0.7071 -0.0000 -0.7071 -0.0000  0.0000  0.0000  0.0000  0.0000  0.0000      0.0000  0.0000  0.0000  0.0000  0.0000  0.0000  0.0000  0.0000  0.0000  0.0000
  o =  0.9513  v =  0.0000 -0.0000  0.0000 -0.0000  1.0000  0.0000  0.0000  0.0000  0.0000  0.0000      0.0000  0.0000  0.0000  0.0000  0.0000  0.0000  0.0000  0.0000  0.0000  0.0000
[...]
     33       9.0603      0.00000
     34      10.3183      0.00000
     35      10.6348      0.00000
     36      11.8725      0.00000

 k-point     7 :       0.1250    0.1250    0.4167
  band No.  band energies     occupation 
      1     -49.3423      1.00000
      2     -49.3031      1.00000
      3     -49.2846      1.00000
      4     -42.7720      1.00000
      5     -42.7263      1.00000
      6     -42.6995      1.00000
      7     -22.6658      1.00000
      8     -22.5405      1.00000
      9     -22.4979      1.00000
     10     -22.4123      1.00000
     11      -4.5367      1.00000
     12      -4.3022      1.00000
     13      -4.0105      1.00000
     14      -3.8877      1.00000
     15      -3.7579      1.00000
     16      -3.5473      1.00000
     17      -3.1237      1.00000
     18      -2.9059      1.00000
     19      -2.8625      1.00000
     20      -2.4324      1.00000
     21      -2.3092      1.00000
     22      -2.2571      1.00000
     23      -0.1545      1.00000
     24      -0.0386      1.00000
     25       0.2532      1.00000
     26       0.8210      1.00000
     27       1.1679      1.00000
     28       7.1783      0.00000
     29       7.1801      0.00000
     30       7.2872      0.00000
     31       8.1229      0.00000
     32       8.3323      0.00000
     33       8.9631      0.00000
     34      11.2338      0.00000
     35      12.6354      0.00000
     36      12.9865      0.00000

 k-point     8 :       0.3750    0.1250    0.4167
  band No.  band energies     occupation 
      1     -49.3423      1.00000
      2     -49.3031      1.00000
      3     -49.2846      1.00000
      4     -42.7720      1.00000
      5     -42.7263      1.00000
      6     -42.6996      1.00000
      7     -22.6113      1.00000
      8     -22.5579      1.00000
      9     -22.5096      1.00000
     10     -22.4374      1.00000
     11      -4.5005      1.00000
     12      -4.3118      1.00000
     13      -4.2513      1.00000
     14      -4.0149      1.00000
     15      -3.7241      1.00000
     16      -3.4033      1.00000
     17      -3.2250      1.00000
     18      -3.0972      1.00000
     19      -2.6096      1.00000
     20      -2.3967      1.00000
     21      -2.2036      1.00000
     22      -2.1008      1.00000
     23      -0.1488      1.00000
     24      -0.0892      1.00000
     25       0.1771      1.00000
     26       0.7786      1.00000
     27       1.3337      1.00000
     28       7.1718      0.00000
     29       7.1784      0.00000
     30       7.3884      0.00000
     31       8.0399      0.00000
     32       8.5673      0.00000
     33       9.5290      0.00000
     34      11.0479      0.00000
     35      11.5565      0.00000
     36      12.8631      0.00000

 k-point     9 :       0.3750    0.3750    0.4167
  band No.  band energies     occupation 
      1     -49.3423      1.00000
      2     -49.3031      1.00000
      3     -49.2846      1.00000
      4     -42.7721      1.00000
      5     -42.7263      1.00000
      6     -42.6996      1.00000
      7     -22.5996      1.00000
      8     -22.5724      1.00000
      9     -22.5108      1.00000
     10     -22.4303      1.00000
     11      -4.7492      1.00000
     12      -4.5305      1.00000
     13      -4.2190      1.00000
     14      -4.1635      1.00000
     15      -3.7540      1.00000
     16      -3.3696      1.00000
     17      -3.1282      1.00000
     18      -2.8832      1.00000
     19      -2.4056      1.00000
     20      -2.2407      1.00000
     21      -2.1297      1.00000
     22      -2.0511      1.00000
     23      -0.1471      1.00000
     24      -0.0987      1.00000
     25       0.1492      1.00000
     26       0.8165      1.00000
     27       1.2940      1.00000
     28       7.1817      0.00000
     29       7.1947      0.00000
     30       7.4145      0.00000
     31       8.0265      0.00000
     32       8.4552      0.00000
     33      10.0006      0.00000
     34      11.6001      0.00000
     35      11.6302      0.00000
     36      11.8690      0.00000


--------------------------------------------------------------------------------------------------------


 soft charge-density along one line, spin component           1
         0         1         2         3         4         5         6         7         8         9
 total charge-density along one line
 
 soft charge-density along one line, spin component           2
         0         1         2         3         4         5         6         7         8         9
 total charge-density along one line
 
 pseudopotential strength for first ion, spin component:           1
-45.241   0.000  -0.036   7.813  -0.000   0.014  -0.000   0.000
  0.000 -45.206   0.000  -0.000   7.799  -0.000   0.000   0.000
 -0.036   0.000 -45.241   0.014  -0.000   7.813   0.000   0.000
  7.813  -0.000   0.014   5.599   0.000   0.006   0.000  -0.000
 -0.000   7.799  -0.000   0.000   5.593   0.000  -0.000   0.000
  0.014  -0.000   7.813   0.006   0.000   5.599   0.000  -0.000
 -0.000   0.000   0.000   0.000  -0.000   0.000  -2.203   0.000
  0.000   0.000   0.000  -0.000   0.000  -0.000   0.000  -2.170
  0.000   0.000   0.000   0.000  -0.000   0.000  -0.023   0.000
  0.000  -0.000   0.000  -0.000   0.000  -0.000   0.000  -0.052
  0.000   0.000  -0.000  -0.000  -0.000  -0.000  -0.000  -0.000
 -0.000   0.000   0.000   0.000  -0.000   0.000  -2.693   0.000
  0.000   0.000   0.000  -0.000   0.000  -0.000   0.000  -2.660
  0.000   0.000   0.000   0.000  -0.000  -0.000  -0.026   0.000
  0.000  -0.000   0.000  -0.000   0.000  -0.000   0.000  -0.053
  0.000   0.000  -0.000  -0.000  -0.000  -0.000  -0.000  -0.000
  0.000  -0.000  -0.000   0.000  -0.000   0.000   0.011  -0.000
  0.000  -0.000  -0.000   0.000  -0.000   0.000   0.021  -0.000
 pseudopotential strength for first ion, spin component:           2
-51.048   0.000  -0.005   9.827  -0.000   0.014   0.000   0.000
  0.000 -51.048   0.000  -0.000   9.813  -0.000   0.000   0.000
 -0.005   0.000 -51.048   0.014  -0.000   9.827  -0.000   0.000
  9.827  -0.000   0.014   4.699   0.000   0.001  -0.000  -0.000
 -0.000   9.813  -0.000   0.000   4.699   0.000  -0.000  -0.000
  0.014  -0.000   9.827   0.001   0.000   4.699  -0.000  -0.000
  0.000   0.000  -0.000  -0.000  -0.000  -0.000  -8.223   0.000
  0.000   0.000   0.000  -0.000  -0.000  -0.000   0.000  -8.203
  0.000   0.000  -0.000  -0.000  -0.000   0.000  -0.042   0.000
  0.000  -0.000   0.000  -0.000   0.000  -0.000   0.000  -0.056
 -0.000   0.000   0.000  -0.000  -0.000  -0.000   0.000  -0.000
  0.000   0.000  -0.000  -0.000  -0.000  -0.000  -8.718   0.000
  0.000   0.000   0.000  -0.000  -0.000  -0.000   0.000  -8.698
  0.000   0.000  -0.000  -0.000  -0.000   0.000  -0.043   0.000
  0.000  -0.000   0.000  -0.000   0.000  -0.000   0.000  -0.057
 -0.000   0.000   0.000  -0.000  -0.000  -0.000   0.000  -0.000
  0.000  -0.000  -0.000  -0.000  -0.000   0.000   0.009  -0.000
  0.000  -0.000  -0.000  -0.000  -0.000   0.000   0.020  -0.000
 total augmentation occupancy for first ion, spin component:           1
  2.001   0.000   0.000  -0.013   0.000   0.001   0.000   0.000   0.000   0.000   0.000   0.000   0.000   0.000   0.000   0.000
  0.000   2.001   0.000   0.000  -0.013   0.000   0.000   0.000   0.000   0.000   0.000   0.000   0.000   0.000   0.000   0.000
  0.000   0.000   2.001   0.001   0.000  -0.013   0.000   0.000   0.000   0.000   0.000   0.000   0.000   0.000   0.000   0.000
 -0.013   0.000   0.001   0.079   0.000  -0.008   0.000   0.000   0.000   0.000   0.000   0.000   0.000   0.000   0.000   0.000
  0.000  -0.013   0.000   0.000   0.089   0.000   0.000   0.000   0.000   0.000   0.000   0.000   0.000   0.000   0.000   0.000
  0.001   0.000  -0.013  -0.008   0.000   0.079   0.000   0.000   0.000   0.000   0.000   0.000   0.000   0.000   0.000   0.000
  0.000   0.000   0.000   0.000   0.000   0.000   7.771   0.000   2.988   0.000  -0.000  -5.767   0.000  -2.804   0.000  -0.000
  0.000   0.000   0.000   0.000   0.000   0.000   0.000   6.618   0.000   2.555   0.000   0.000  -4.665   0.000  -2.399   0.000
  0.000   0.000   0.000   0.000   0.000   0.000   2.988   0.000   6.013   0.000  -0.000  -2.805   0.000  -4.123   0.000   0.000
  0.000   0.000   0.000   0.000   0.000   0.000   0.000   2.555   0.000   6.618   0.000   0.000  -2.399   0.000  -4.665   0.000
  0.000   0.000   0.000   0.000   0.000   0.000   0.000   0.000  -0.000   0.000   3.918   0.000   0.000   0.000   0.000  -2.117
  0.000   0.000   0.000   0.000   0.000   0.000  -5.767   0.000  -2.805   0.000   0.000   4.937   0.000   2.662   0.000  -0.000
  0.000   0.000   0.000   0.000   0.000   0.000   0.000  -4.665   0.000  -2.399   0.000   0.000   3.874   0.000   2.276   0.000
  0.000   0.000   0.000   0.000   0.000   0.000  -2.804   0.000  -4.123   0.000   0.000   2.662   0.000   3.384   0.000   0.000
  0.000   0.000   0.000   0.000   0.000   0.000   0.000  -2.399   0.000  -4.665   0.000   0.000   2.276   0.000   3.874   0.000
  0.000   0.000   0.000   0.000   0.000   0.000   0.000   0.000  -0.000   0.000  -2.117   0.000   0.000   0.000   0.000   1.444
  0.000   0.000   0.000   0.000   0.000   0.000   0.403   0.000  -0.314   0.000   0.000  -0.384   0.000   0.294   0.000  -0.000
  0.000   0.000   0.000   0.000   0.000   0.000  -0.085   0.000   0.072   0.000   0.000   0.089   0.000  -0.072   0.000   0.000
 total augmentation occupancy for first ion, spin component:           2
  0.004   0.000  -0.000   0.017   0.000  -0.001   0.000   0.000   0.000   0.000   0.000   0.000   0.000   0.000   0.000   0.000
  0.000   0.004   0.000   0.000   0.018   0.000   0.000   0.000   0.000   0.000   0.000   0.000   0.000   0.000   0.000   0.000
 -0.000   0.000   0.004  -0.001   0.000   0.017   0.000   0.000   0.000   0.000   0.000   0.000   0.000   0.000   0.000   0.000
  0.017   0.000  -0.001  -0.011   0.000  -0.000   0.000   0.000   0.000   0.000   0.000   0.000   0.000   0.000   0.000   0.000
  0.000   0.018   0.000   0.000  -0.011   0.000   0.000   0.000   0.000   0.000   0.000   0.000   0.000   0.000   0.000   0.000
 -0.001   0.000   0.017  -0.000   0.000  -0.011   0.000   0.000   0.000   0.000   0.000   0.000   0.000   0.000   0.000   0.000
  0.000   0.000   0.000   0.000   0.000   0.000  -5.265   0.000  -1.564   0.000   0.000   2.905   0.000   1.184   0.000  -0.000
  0.000   0.000   0.000   0.000   0.000   0.000   0.000  -4.691   0.000  -1.340   0.000   0.000   2.452   0.000   1.016   0.000
  0.000   0.000   0.000   0.000   0.000   0.000  -1.564   0.000  -4.293   0.000  -0.000   1.184   0.000   2.158   0.000  -0.000
  0.000   0.000   0.000   0.000   0.000   0.000   0.000  -1.340   0.000  -4.691   0.000   0.000   1.016   0.000   2.452   0.000
  0.000   0.000   0.000   0.000   0.000   0.000   0.000   0.000   0.000   0.000  -3.319   0.000   0.000   0.000   0.000   1.416
  0.000   0.000   0.000   0.000   0.000   0.000   2.905   0.000   1.184   0.000   0.000  -1.661   0.000  -0.813   0.000   0.000
  0.000   0.000   0.000   0.000   0.000   0.000   0.000   2.452   0.000   1.016   0.000   0.000  -1.328   0.000  -0.700   0.000
  0.000   0.000   0.000   0.000   0.000   0.000   1.184   0.000   2.158   0.000  -0.000  -0.813   0.000  -1.133   0.000  -0.000
  0.000   0.000   0.000   0.000   0.000   0.000   0.000   1.016   0.000   2.452   0.000   0.000  -0.700   0.000  -1.328   0.000
  0.000   0.000   0.000   0.000   0.000   0.000   0.000   0.000  -0.000   0.000   1.416   0.000   0.000   0.000   0.000  -0.622
  0.000   0.000   0.000   0.000   0.000   0.000  -0.090   0.000   0.066   0.000  -0.000   0.027   0.000  -0.013   0.000   0.000
  0.000   0.000   0.000   0.000   0.000   0.000   0.001   0.000  -0.008   0.000   0.000   0.006   0.000  -0.001   0.000   0.000


------------------------ aborting loop because EDIFF is reached ----------------------------------------


 


 total charge     
 
# of ion       s       p       d       tot
------------------------------------------
    1        0.166   6.147   4.960  11.273
    2        0.171   6.142   4.966  11.279
    3        1.730   4.406   0.000   6.136
    4        1.730   4.406   0.000   6.136
    5        1.730   4.402   0.000   6.132
    6        1.730   4.402   0.000   6.132
--------------------------------------------------
tot          7.257  29.905   9.926  47.087
 


 magnetization (x)
 
# of ion       s       p       d       tot
------------------------------------------
    1       -0.023  -0.019  -4.639  -4.680
    2        0.024   0.017   4.636   4.677
    3        0.002   0.020   0.000   0.022
    4        0.002   0.020   0.000   0.022
    5       -0.003  -0.016   0.000  -0.019
    6       -0.003  -0.016   0.000  -0.019
--------------------------------------------------
tot         -0.001   0.006  -0.002   0.003
 
    CHARGE:  cpu time    0.0359: real time    0.0359
    FORLOC:  cpu time    0.0011: real time    0.0011
    FORNL :  cpu time    0.1748: real time    0.1748
    STRESS:  cpu time    2.2138: real time    2.2138
    FORCOR:  cpu time    0.0296: real time    0.0296
    FORHAR:  cpu time    0.0022: real time    0.0022
    MIXING:  cpu time    0.0012: real time    0.0012
    OFIELD:  cpu time    0.0000: real time    0.0000

  FORCE on cell =-STRESS in cart. coord.  units (eV):
  Direction    XX          YY          ZZ          XY          YZ          ZX
  --------------------------------------------------------------------------------------
  Alpha Z   197.64459   197.64459   197.64459
  Ewald   -1584.18261 -1584.18261 -1021.82840     0.00000    -0.00000    -0.00000
  Hartree   595.71178   595.71178   975.65708    -0.00000    -0.00000    -0.00000
  E(xc)    -150.53551  -150.50894  -150.65276    -0.01507    -0.02546    -0.02733
  Local     162.18073   162.18073  -773.13285    -0.00000     0.00000     0.00000
  n-local  -310.39212  -310.69702  -309.48159     0.02604     0.11538     0.11934
  augment   158.46174   158.46174   157.93531     0.00000    -0.00000    -0.00000
  Kinetic   930.93138   931.60913   923.87597    -0.41080    -0.78666    -0.83123
  Fock        0.00000     0.00000     0.00000     0.00000     0.00000     0.00000
  -------------------------------------------------------------------------------------
  Total       0.01970     0.01970     0.01736     0.00000     0.00000     0.00000
  in kB       0.40406     0.40406     0.35618     0.00000     0.00000     0.00000
  external pressure =        0.39 kB  Pullay stress =        0.00 kB


 VOLUME and BASIS-vectors are now :
 -----------------------------------------------------------------------------
  energy-cutoff  :      600.00
  volume of cell :       78.11
      direct lattice vectors                 reciprocal lattice vectors
     4.866822185  0.000000000  0.000000000     0.205472886  0.000000000  0.000000000
     0.000000000  4.866822185  0.000000000     0.000000000  0.205472886  0.000000000
     0.000000000  0.000000000  3.297620766     0.000000000  0.000000000  0.303248939

  length of vectors
     4.866822185  4.866822185  3.297620766     0.205472886  0.205472886  0.303248939


 FORCES acting on ions
    electron-ion (+dipol)            ewald-force                    non-local-force                 convergence-correction
 -----------------------------------------------------------------------------------------------
   -.178E-11 0.658E-11 -.818E-13   -.284E-13 -.284E-13 0.108E-13   0.000E+00 0.000E+00 0.000E+00   0.526E-13 -.419E-13 0.903E-13
   -.103E-13 -.242E-13 0.400E-13   0.284E-12 0.284E-12 0.889E-14   0.000E+00 0.000E+00 0.000E+00   -.255E-13 0.654E-15 -.147E-12
   -.334E+02 0.334E+02 -.134E-11   0.346E+02 -.346E+02 -.987E-14   -.128E+01 0.128E+01 -.217E-18   -.274E-04 0.274E-04 0.170E-13
   0.334E+02 -.334E+02 0.526E-11   -.346E+02 0.346E+02 -.104E-13   0.128E+01 -.128E+01 0.217E-18   0.274E-04 -.274E-04 0.836E-13
   0.334E+02 0.334E+02 0.211E-07   -.346E+02 -.346E+02 -.568E-14   0.128E+01 0.128E+01 -.271E-18   0.274E-04 0.274E-04 -.179E-10
   -.334E+02 -.334E+02 -.211E-07   0.346E+02 0.346E+02 -.512E-14   -.128E+01 -.128E+01 0.271E-18   -.274E-04 -.274E-04 0.178E-10
 -----------------------------------------------------------------------------------------------
   0.796E-12 0.964E-11 -.318E-11   0.000E+00 0.711E-14 -.113E-13   0.444E-15 0.000E+00 0.000E+00   0.424E-13 0.906E-14 -.657E-13
 
 
 POSITION                                       TOTAL-FORCE (eV/Angst)
 -----------------------------------------------------------------------------------
      2.43341      2.43341      1.64881         0.000000     -0.000000     -0.000000
      0.00000      0.00000      0.00000         0.000000     -0.000000     -0.000000
      0.95224      3.91458      1.64881        -0.001080      0.001080     -0.000000
      3.91458      0.95224      1.64881         0.001080     -0.001080     -0.000000
      1.48117      1.48117      0.00000         0.001080      0.001080     -0.000000
      3.38565      3.38565      0.00000        -0.001080     -0.001080      0.000000
 -----------------------------------------------------------------------------------
    total drift:                                0.000000      0.000000     -0.000000


--------------------------------------------------------------------------------------------------------



  FREE ENERGIE OF THE ION-ELECTRON SYSTEM (eV)
  ---------------------------------------------------
  free  energy   TOTEN  =       -67.30493308 eV

  energy  without entropy=      -67.30493308  energy(sigma->0) =      -67.30493308
 


--------------------------------------------------------------------------------------------------------


    POTLOK:  cpu time    1.3859: real time    1.3859


--------------------------------------------------------------------------------------------------------


 writing wavefunctions
     LOOP+:  cpu time   45.6373: real time   45.6568
    4ORBIT:  cpu time    0.0000: real time    0.0000
 


 total charge     
 
# of ion       s       p       d       tot
------------------------------------------
    1        0.166   6.147   4.960  11.273
    2        0.171   6.142   4.966  11.279
    3        1.730   4.406   0.000   6.136
    4        1.730   4.406   0.000   6.136
    5        1.730   4.402   0.000   6.132
    6        1.730   4.402   0.000   6.132
--------------------------------------------------
tot          7.257  29.905   9.926  47.087
 


 magnetization (x)
 
# of ion       s       p       d       tot
------------------------------------------
    1       -0.023  -0.019  -4.639  -4.680
    2        0.024   0.017   4.636   4.677
    3        0.002   0.020   0.000   0.022
    4        0.002   0.020   0.000   0.022
    5       -0.003  -0.016   0.000  -0.019
    6       -0.003  -0.016   0.000  -0.019
--------------------------------------------------
tot         -0.001   0.006  -0.002   0.003
 
 BZINTS: Fermi energy:  1.509391; 54.000000 electrons
         Band energy:-806.639833;  BLOECHL correction:  0.000000

 total amount of memory used by VASP MPI-rank0    45277. kBytes
=======================================================================

   base      :      30000. kBytes
   nonl-proj :       7064. kBytes
   fftplans  :       1875. kBytes
   grid      :       3820. kBytes
   one-center:        186. kBytes
   wavefun   :       2332. kBytes
 
  
  
 General timing and accounting informations for this job:
 ========================================================
  
                  Total CPU time used (sec):       46.906
                            User time (sec):       31.257
                          System time (sec):       15.649
                         Elapsed time (sec):       47.088
  
                   Maximum memory used (kb):       63232.
                   Average memory used (kb):           0.
  
                          Minor page faults:        10825
                          Major page faults:            7
                 Voluntary context switches:          313
