 vasp.5.4.4.18Apr17-6-g9f103f2a35 (build Apr 24 2018 11:19:41) complex          
  
 executed on         CrayXC-Intel date 2021.08.20  15:43:08
 running on  192 total cores
 distrk:  each k-point on   48 cores,    4 groups
 distr:  one band on NCORES_PER_BAND=  12 cores,    4 groups


--------------------------------------------------------------------------------------------------------


 INCAR:
 POTCAR:    PAW_PBE Mn_pv 02Aug2007               
 POTCAR:    PAW_PBE F 08Apr2002                   
 POTCAR:    PAW_PBE H 15Jun2001                   

 ----------------------------------------------------------------------------- 
|                                                                             |
|           W    W    AA    RRRRR   N    N  II  N    N   GGGG   !!!           |
|           W    W   A  A   R    R  NN   N  II  NN   N  G    G  !!!           |
|           W    W  A    A  R    R  N N  N  II  N N  N  G       !!!           |
|           W WW W  AAAAAA  RRRRR   N  N N  II  N  N N  G  GGG   !            |
|           WW  WW  A    A  R   R   N   NN  II  N   NN  G    G                |
|           W    W  A    A  R    R  N    N  II  N    N   GGGG   !!!           |
|                                                                             |
|      You have enabled k-point parallelism (KPAR>1).                         |
|      This developmental code was originally  written by Paul Kent at ORNL,  |
|      and carefully double checked in Vienna.                                |
|      GW as well as linear response parallelism added by Martijn Marsman     |
|      and Georg Kresse.                                                      |
|      Carefully verify results versus KPAR=1.                                |
|      Report problems to Paul Kent and Vienna.                               |
|                                                                             |
 ----------------------------------------------------------------------------- 

 POTCAR:    PAW_PBE Mn_pv 02Aug2007               
   VRHFIN =Mn: 3p4s3d                                                           
   LEXCH  = PE                                                                  
   EATOM  =  2025.2664 eV,  148.8529 Ry                                         
                                                                                
   TITEL  = PAW_PBE Mn_pv 02Aug2007                                             
   LULTRA =        F    use ultrasoft PP ?                                      
   IUNSCR =        1    unscreen: 0-lin 1-nonlin 2-no                           
   RPACOR =    2.080    partial core radius                                     
   POMASS =   54.938; ZVAL   =   13.000    mass and valenz                      
   RCORE  =    2.300    outmost cutoff radius                                   
   RWIGS  =    2.500; RWIGS  =    1.323    wigner-seitz radius (au A)           
   ENMAX  =  269.864; ENMIN  =  202.398 eV                                      
   ICORE  =        3    local potential                                         
   LCOR   =        T    correct aug charges                                     
   LPAW   =        T    paw PP                                                  
   EAUG   =  569.085                                                            
   DEXC   =    0.000                                                            
   RMAX   =    2.343    core radius for proj-oper                               
   RAUG   =    1.300    factor for augmentation sphere                          
   RDEP   =    2.338    radius for radial grids                                 
   RDEPT  =    1.798    core radius for aug-charge                              
                                                                                
   Atomic configuration                                                         
    8 entries                                                                   
     n  l   j            E        occ.                                          
     1  0  0.50     -6424.8287   2.0000                                         
     2  0  0.50      -739.1154   2.0000                                         
     2  1  1.50      -625.3949   6.0000                                         
     3  0  0.50       -81.6100   2.0000                                         
     3  1  1.50       -50.4667   6.0000                                         
     3  2  2.50        -3.3745   6.0000                                         
     4  0  0.50        -4.1331   1.0000                                         
     4  3  2.50        -1.3606   0.0000                                         
   Description                                                                  
     l       E           TYP  RCUT    TYP  RCUT                                 
     1    -50.4666628     23  2.000                                             
     1     -1.3605826     23  2.000                                             
     2     -3.3744729     23  2.300                                             
     2     -4.7350555     23  2.300                                             
     0     -4.1331431     23  2.300                                             
     0      7.6656591     23  2.300                                             
     3      9.5240782     23  2.300                                             
  local pseudopotential read in
  partial core-charges read in
  partial kinetic energy density read in
  atomic valenz-charges read in
  non local Contribution for L=           1  read in
    real space projection operators read in
  non local Contribution for L=           1  read in
    real space projection operators read in
  non local Contribution for L=           2  read in
    real space projection operators read in
  non local Contribution for L=           2  read in
    real space projection operators read in
  non local Contribution for L=           0  read in
    real space projection operators read in
  non local Contribution for L=           0  read in
    real space projection operators read in
    PAW grid and wavefunctions read in
 
   number of l-projection  operators is LMAX  =           6
   number of lm-projection operators is LMMAX =          18
 
 POTCAR:    PAW_PBE F 08Apr2002                   
   VRHFIN =F: s2p5                                                              
   LEXCH  = PE                                                                  
   EATOM  =   659.6475 eV,   48.4827 Ry                                         
                                                                                
   TITEL  = PAW_PBE F 08Apr2002                                                 
   LULTRA =        F    use ultrasoft PP ?                                      
   IUNSCR =        1    unscreen: 0-lin 1-nonlin 2-no                           
   RPACOR =    1.200    partial core radius                                     
   POMASS =   18.998; ZVAL   =    7.000    mass and valenz                      
   RCORE  =    1.520    outmost cutoff radius                                   
   RWIGS  =    1.500; RWIGS  =    0.794    wigner-seitz radius (au A)           
   ENMAX  =  400.000; ENMIN  =  300.000 eV                                      
   ICORE  =        2    local potential                                         
   LCOR   =        T    correct aug charges                                     
   LPAW   =        T    paw PP                                                  
   EAUG   =  613.614                                                            
   RMAX   =    1.555    core radius for proj-oper                               
   RAUG   =    1.300    factor for augmentation sphere                          
   RDEP   =    1.539    radius for radial grids                                 
   RDEPT  =    1.299    core radius for aug-charge                              
                                                                                
   Atomic configuration                                                         
    4 entries                                                                   
     n  l   j            E        occ.                                          
     1  0  0.50      -663.3661   2.0000                                         
     2  0  0.50       -29.8995   2.0000                                         
     2  1  0.50       -11.1114   5.0000                                         
     3  2  1.50       -10.8847   0.0000                                         
   Description                                                                  
     l       E           TYP  RCUT    TYP  RCUT                                 
     0    -29.8995018     23  1.200                                             
     0     -9.5240782     23  1.200                                             
     1    -11.1113914     23  1.520                                             
     1      1.3605826     23  1.520                                             
     2    -10.8846608      7  1.500                                             
  local pseudopotential read in
  partial core-charges read in
  partial kinetic energy density read in
  atomic valenz-charges read in
  non local Contribution for L=           0  read in
    real space projection operators read in
  non local Contribution for L=           0  read in
    real space projection operators read in
  non local Contribution for L=           1  read in
    real space projection operators read in
  non local Contribution for L=           1  read in
    real space projection operators read in
    PAW grid and wavefunctions read in
 
   number of l-projection  operators is LMAX  =           4
   number of lm-projection operators is LMMAX =           8
 
 POTCAR:    PAW_PBE H 15Jun2001                   
   VRHFIN =H: ultrasoft test                                                    
   LEXCH  = PE                                                                  
   EATOM  =    12.4884 eV,    0.9179 Ry                                         
                                                                                
   TITEL  = PAW_PBE H 15Jun2001                                                 
   LULTRA =        F    use ultrasoft PP ?                                      
   IUNSCR =        0    unscreen: 0-lin 1-nonlin 2-no                           
   RPACOR =    0.000    partial core radius                                     
   POMASS =    1.000; ZVAL   =    1.000    mass and valenz                      
   RCORE  =    1.100    outmost cutoff radius                                   
   RWIGS  =    0.700; RWIGS  =    0.370    wigner-seitz radius (au A)           
   ENMAX  =  250.000; ENMIN  =  200.000 eV                                      
   RCLOC  =    0.701    cutoff for local pot                                    
   LCOR   =        T    correct aug charges                                     
   LPAW   =        T    paw PP                                                  
   EAUG   =  400.000                                                            
   RMAX   =    1.123    core radius for proj-oper                               
   RAUG   =    1.200    factor for augmentation sphere                          
   RDEP   =    1.112    radius for radial grids                                 
   RDEPT  =    0.926    core radius for aug-charge                              
                                                                                
   Atomic configuration                                                         
    2 entries                                                                   
     n  l   j            E        occ.                                          
     1  0  0.50        -6.4927   1.0000                                         
     2  1  0.50        -3.4015   0.0000                                         
   Description                                                                  
     l       E           TYP  RCUT    TYP  RCUT                                 
     0     -6.4927494     23  1.100                                             
     0      6.8029130     23  1.100                                             
     1     -4.0817478     23  1.100                                             
  local pseudopotential read in
  atomic valenz-charges read in
  non local Contribution for L=           0  read in
    real space projection operators read in
  non local Contribution for L=           0  read in
    real space projection operators read in
  non local Contribution for L=           1  read in
    real space projection operators read in
    PAW grid and wavefunctions read in
 
   number of l-projection  operators is LMAX  =           3
   number of lm-projection operators is LMMAX =           5
 

 ----------------------------------------------------------------------------- 
|                                                                             |
|  ADVICE TO THIS USER RUNNING 'VASP/VAMP'   (HEAR YOUR MASTER'S VOICE ...):  |
|                                                                             |
|      You have a (more or less) 'large supercell' and for larger cells       |
|      it might be more efficient to use real space projection opertators     |
|      So try LREAL= Auto  in the INCAR   file.                               |
|      Mind:          For very  accurate calculation you might also keep the  |
|      reciprocal projection scheme          (i.e. LREAL=.FALSE.)             |
|                                                                             |
 ----------------------------------------------------------------------------- 


 ----------------------------------------------------------------------------- 
|                                                                             |
|  ADVICE TO THIS USER RUNNING 'VASP/VAMP'   (HEAR YOUR MASTER'S VOICE ...):  |
|                                                                             |
|      You enforced a specific xc-type in the INCAR file,                     |
|      a different type was found on the POTCAR file                          |
|          I HOPE YOU KNOW, WHAT YOU ARE  DOING                               |
|                                                                             |
 ----------------------------------------------------------------------------- 

  PAW_PBE Mn_pv 02Aug2007               :
 energy of atom  1       EATOM=-2025.2664
 kinetic energy error for atom=    0.0020 (will be added to EATOM!!)
  PAW_PBE F 08Apr2002                   :
 energy of atom  2       EATOM= -659.6475
 kinetic energy error for atom=    0.0140 (will be added to EATOM!!)
  PAW_PBE H 15Jun2001                   :
 energy of atom  3       EATOM=  -12.4884
 kinetic energy error for atom=    0.0002 (will be added to EATOM!!)
 
 
 POSCAR: Mn  F  H                                
  positions in direct lattice
  velocities in cartesian coordinates
 exchange correlation table for  LEXCH =       14
   RHO(1)=    0.500       N(1)  =     2000
   RHO(2)=  100.500       N(2)  =     4000
 


--------------------------------------------------------------------------------------------------------


 ion  position               nearest neighbor table
   1  0.172  0.168  0.130-  80 2.08  73 2.08  74 2.10  76 2.10  79 2.11  75 2.37
   2  0.988  0.995  0.000- 204 2.03 182 2.09 170 2.09 105 2.15 117 2.15  75 2.26
   3  0.167  0.165  0.376-  77 2.10  78 2.10  83 2.12  84 2.13  80 2.13  79 2.16
   4  0.998  0.000  0.250- 208 2.10 174 2.11  79 2.12 109 2.13 170 2.14 105 2.15
   5  0.167  0.165  0.624-  81 2.10  82 2.10  83 2.12  84 2.13  88 2.13  87 2.16
   6  0.999  1.000  0.500- 212 2.09  83 2.10 174 2.13 178 2.13 113 2.14 109 2.14
   7  0.172  0.168  0.870-  88 2.08  85 2.08  86 2.10  76 2.10  87 2.11  75 2.37
   8  0.998  0.000  0.750- 216 2.10 178 2.11  87 2.12 113 2.13 182 2.14 117 2.15
   9  0.167  0.500  0.125-  89 2.11  90 2.11  96 2.13  95 2.13  91 2.13  92 2.13
  10  0.000  0.333  0.000-  91 2.10 172 2.10 186 2.12 198 2.12  85 2.15  73 2.15
  11  0.167  0.500  0.375-  93 2.10  94 2.10 100 2.13  99 2.13  95 2.14  96 2.14
  12  0.001  0.332  0.250- 176 2.10  95 2.10 186 2.13  77 2.13 190 2.13  73 2.18
  13  0.167  0.500  0.625-  97 2.10  98 2.10  99 2.13 100 2.13 104 2.14 103 2.14
  14  0.001  0.333  0.500- 180 2.10  99 2.10 190 2.13 194 2.13  81 2.14  77 2.14
  15  0.167  0.500  0.875- 101 2.11 102 2.11 103 2.13 104 2.13  92 2.13  91 2.13
  16  0.001  0.332  0.750- 184 2.10 103 2.10 198 2.13  81 2.13 194 2.13  85 2.18
  17  0.161  0.832  0.130- 111 2.08 106 2.08 105 2.10 107 2.10 112 2.11 108 2.37
  18  0.001  0.667  0.000- 188 2.10  89 2.13 101 2.13 214 2.13 202 2.13 107 2.16
  19  0.167  0.835  0.376- 110 2.10 109 2.10 116 2.12 115 2.13 111 2.13 112 2.16
  20  0.999  0.666  0.251- 192 2.09 111 2.11  93 2.13 206 2.13  89 2.14 202 2.14
  21  0.167  0.835  0.624- 114 2.10 113 2.10 116 2.12 115 2.13 119 2.13 120 2.16
  22  0.000  0.667  0.500- 196 2.10 115 2.11  97 2.13  93 2.13 206 2.13 210 2.13
  23  0.161  0.832  0.870- 119 2.08 118 2.08 117 2.10 107 2.10 120 2.11 108 2.37
  24  0.999  0.666  0.749- 200 2.09 119 2.11  97 2.13 210 2.13 101 2.14 214 2.14
  25  0.504  0.170  0.127- 128 2.10 122 2.10 121 2.11 124 2.13 123 2.13 127 2.14
  26  0.346  0.005  0.000- 123 2.03 153 2.09 165 2.09  86 2.15  74 2.15 108 2.26
  27  0.500  0.167  0.375- 126 2.10 125 2.10 132 2.13 131 2.13 128 2.13 127 2.14
  28  0.335  1.000  0.250- 127 2.10 157 2.11 112 2.12  78 2.13 153 2.14  74 2.15
  29  0.500  0.167  0.625- 130 2.10 129 2.10 132 2.13 131 2.13 136 2.13 135 2.14
  30  0.335  0.000  0.500- 131 2.09 116 2.10 161 2.13 157 2.13  78 2.14  82 2.14
  31  0.504  0.170  0.874- 136 2.10 134 2.10 133 2.11 124 2.13 123 2.13 135 2.14
  32  0.335  1.000  0.750- 135 2.10 161 2.11 120 2.12  82 2.13 165 2.14  86 2.15
  33  0.499  0.500  0.125- 138 2.11 137 2.11 143 2.12 140 2.13 144 2.13 139 2.14
  34  0.333  0.333  0.000- 139 2.10  90 2.13 102 2.13 133 2.13 121 2.13  76 2.16
  35  0.499  0.501  0.375- 142 2.11 141 2.11 148 2.13 147 2.13 144 2.13 143 2.14
  36  0.334  0.334  0.251- 143 2.09  80 2.11  94 2.13 125 2.13  90 2.14 121 2.14
  37  0.499  0.501  0.625- 146 2.11 145 2.11 148 2.13 147 2.13 152 2.13 151 2.14
  38  0.333  0.333  0.500- 147 2.10  84 2.11  94 2.13  98 2.13 125 2.13 129 2.13
  39  0.499  0.500  0.875- 150 2.11 149 2.11 151 2.12 140 2.13 152 2.13 139 2.14
  40  0.334  0.334  0.749- 151 2.09  88 2.11  98 2.13 129 2.13 102 2.14 133 2.14
  41  0.501  0.832  0.125- 154 2.10 160 2.13 159 2.13 153 2.13 155 2.13 156 2.13
  42  0.333  0.667  0.000-  92 2.10 155 2.10 149 2.12 137 2.12 106 2.15 118 2.15
  43  0.501  0.833  0.375- 158 2.10 157 2.11 164 2.13 163 2.13 160 2.14 159 2.14
  44  0.332  0.668  0.250- 159 2.10  96 2.10 137 2.13 110 2.13 141 2.13 106 2.18
  45  0.501  0.833  0.625- 162 2.10 161 2.11 164 2.13 163 2.13 168 2.14 167 2.14
  46  0.333  0.667  0.500- 163 2.10 100 2.10 141 2.13 145 2.13 110 2.14 114 2.14
  47  0.501  0.832  0.875- 166 2.10 168 2.13 167 2.13 165 2.13 155 2.13 156 2.13
  48  0.332  0.668  0.750- 167 2.10 104 2.10 149 2.13 114 2.13 145 2.13 118 2.18
  49  0.832  0.168  0.125- 169 2.10 175 2.13 176 2.13 170 2.13 172 2.13 171 2.13
  50  0.667  1.000  0.000- 156 2.11 171 2.11 213 2.13 122 2.13 134 2.13 201 2.13
  51  0.833  0.167  0.375- 173 2.10 174 2.11 179 2.13 180 2.13 175 2.14 176 2.14
  52  0.667  1.000  0.250- 175 2.11 160 2.11 205 2.13 126 2.13 201 2.13 122 2.13
  53  0.833  0.167  0.625- 177 2.10 178 2.11 179 2.13 180 2.13 183 2.14 184 2.14
  54  0.667  1.000  0.500- 179 2.10 164 2.10 126 2.13 209 2.13 130 2.13 205 2.13
  55  0.832  0.168  0.875- 181 2.10 183 2.13 184 2.13 182 2.13 172 2.13 171 2.13
  56  0.667  1.000  0.750- 183 2.11 168 2.11 130 2.13 209 2.13 213 2.13 134 2.13
  57  0.835  0.499  0.125- 185 2.11 186 2.11 192 2.12 187 2.13 191 2.13 188 2.14
  58  0.667  0.336  0.000- 124 2.09 187 2.09 138 2.13 150 2.13 181 2.14 169 2.14
  59  0.834  0.499  0.375- 189 2.11 190 2.11 195 2.13 196 2.13 191 2.13 192 2.14
  60  0.667  0.335  0.251- 191 2.09 128 2.10 142 2.13 173 2.13 138 2.13 169 2.14
  61  0.834  0.499  0.625- 193 2.11 194 2.11 195 2.13 196 2.13 199 2.13 200 2.14
  62  0.666  0.334  0.500- 132 2.10 195 2.10 146 2.13 142 2.13 173 2.14 177 2.14
  63  0.835  0.499  0.875- 197 2.11 198 2.11 200 2.12 187 2.13 199 2.13 188 2.14
  64  0.667  0.335  0.749- 199 2.09 136 2.10 146 2.13 177 2.13 150 2.13 181 2.14
  65  0.830  0.830  0.127- 207 2.10 201 2.10 202 2.11 203 2.13 204 2.13 208 2.14
  66  0.666  0.664  0.000- 203 2.09 140 2.09 197 2.13 185 2.13 154 2.14 166 2.14
  67  0.833  0.833  0.375- 205 2.10 206 2.10 211 2.13 212 2.13 207 2.13 208 2.14
  68  0.667  0.664  0.251- 144 2.09 207 2.10 189 2.13 158 2.13 185 2.13 154 2.14
  69  0.833  0.833  0.625- 209 2.10 210 2.10 211 2.13 212 2.13 215 2.13 216 2.14
  70  0.667  0.666  0.500- 211 2.10 148 2.10 193 2.13 189 2.13 158 2.14 162 2.14
  71  0.830  0.830  0.874- 215 2.10 213 2.10 214 2.11 203 2.13 204 2.13 216 2.14
  72  0.667  0.664  0.749- 152 2.09 215 2.10 193 2.13 162 2.13 197 2.13 166 2.14
  73  0.065  0.262  0.123-   1 2.08  10 2.15  12 2.18
  74  0.275  0.069  0.124-   1 2.10  26 2.15  28 2.15
  75  0.124  0.067  0.000- 217 1.16   2 2.26   7 2.37   1 2.37
  76  0.228  0.229  0.000-   7 2.10   1 2.10  34 2.16
  77  0.065  0.265  0.375-   3 2.10  12 2.13  14 2.14
  78  0.270  0.065  0.374-   3 2.10  28 2.13  30 2.14
  79  0.105  0.098  0.248-   1 2.11   4 2.12   3 2.16
  80  0.232  0.233  0.253-   1 2.08  36 2.11   3 2.13
  81  0.065  0.265  0.625-   5 2.10  16 2.13  14 2.14
  82  0.270  0.065  0.626-   5 2.10  32 2.13  30 2.14
  83  0.103  0.099  0.500-   6 2.10   3 2.12   5 2.12
  84  0.232  0.231  0.500-  38 2.11   3 2.13   5 2.13
  85  0.065  0.262  0.877-   7 2.08  10 2.15  16 2.18
  86  0.275  0.069  0.876-   7 2.10  26 2.15  32 2.15
  87  0.105  0.098  0.753-   7 2.11   8 2.12   5 2.16
  88  0.232  0.233  0.747-   7 2.08  40 2.11   5 2.13
  89  0.066  0.603  0.125-   9 2.11  18 2.13  20 2.14
  90  0.267  0.397  0.125-   9 2.11  34 2.13  36 2.14
  91  0.103  0.434  0.000-  10 2.10   9 2.13  15 2.13
  92  0.231  0.566  0.000-  42 2.10  15 2.13   9 2.13
  93  0.065  0.601  0.375-  11 2.10  20 2.13  22 2.13
  94  0.269  0.399  0.375-  11 2.10  36 2.13  38 2.13
  95  0.103  0.433  0.249-  12 2.10   9 2.13  11 2.14
  96  0.230  0.567  0.249-  44 2.10   9 2.13  11 2.14
  97  0.065  0.601  0.625-  13 2.10  24 2.13  22 2.13
  98  0.269  0.399  0.625-  13 2.10  40 2.13  38 2.13
  99  0.103  0.433  0.500-  14 2.10  13 2.13  11 2.13
 100  0.231  0.567  0.500-  46 2.10  11 2.13  13 2.13
 101  0.066  0.603  0.875-  15 2.11  18 2.13  24 2.14
 102  0.267  0.397  0.875-  15 2.11  34 2.13  40 2.14
 103  0.103  0.433  0.751-  16 2.10  15 2.13  13 2.14
 104  0.230  0.567  0.751-  48 2.10  15 2.13  13 2.14
 105  0.058  0.931  0.124-  17 2.10   2 2.15   4 2.15
 106  0.268  0.738  0.123-  17 2.08  42 2.15  44 2.18
 107  0.105  0.771  0.000-  17 2.10  23 2.10  18 2.16
 108  0.209  0.933  0.000- 217 1.16  26 2.26  17 2.37  23 2.37
 109  0.064  0.935  0.374-  19 2.10   4 2.13   6 2.14
 110  0.268  0.734  0.375-  19 2.10  44 2.13  46 2.14
 111  0.101  0.767  0.253-  17 2.08  20 2.11  19 2.13
 112  0.228  0.902  0.248-  17 2.11  28 2.12  19 2.16
 113  0.064  0.935  0.626-  21 2.10   8 2.13   6 2.14
 114  0.268  0.734  0.625-  21 2.10  48 2.13  46 2.14
 115  0.102  0.769  0.500-  22 2.11  21 2.13  19 2.13
 116  0.231  0.901  0.500-  30 2.10  21 2.12  19 2.12
 117  0.058  0.931  0.876-  23 2.10   2 2.15   8 2.15
 118  0.268  0.738  0.877-  23 2.08  42 2.15  48 2.18
 119  0.101  0.767  0.747-  23 2.08  24 2.11  21 2.13
 120  0.228  0.902  0.752-  23 2.11  32 2.12  21 2.16
 121  0.397  0.267  0.125-  25 2.11  34 2.13  36 2.14
 122  0.604  0.068  0.125-  25 2.10  50 2.13  52 2.13
 123  0.443  0.104  0.000-  26 2.03  25 2.13  31 2.13
 124  0.565  0.236  0.000-  58 2.09  31 2.13  25 2.13
 125  0.398  0.268  0.375-  27 2.10  36 2.13  38 2.13
 126  0.602  0.066  0.375-  27 2.10  52 2.13  54 2.13
 127  0.438  0.100  0.249-  28 2.10  27 2.14  25 2.14
 128  0.565  0.235  0.252-  60 2.10  25 2.10  27 2.13
 129  0.398  0.268  0.625-  29 2.10  40 2.13  38 2.13
 130  0.602  0.066  0.625-  29 2.10  56 2.13  54 2.13
 131  0.436  0.101  0.500-  30 2.09  27 2.13  29 2.13
 132  0.565  0.232  0.500-  62 2.10  29 2.13  27 2.13
 133  0.397  0.267  0.875-  31 2.11  34 2.13  40 2.14
 134  0.605  0.068  0.875-  31 2.10  50 2.13  56 2.13
 135  0.438  0.100  0.751-  32 2.10  29 2.14  31 2.14
 136  0.565  0.235  0.748-  64 2.10  31 2.10  29 2.13
 137  0.396  0.602  0.125-  33 2.11  42 2.12  44 2.13
 138  0.602  0.400  0.125-  33 2.11  58 2.13  60 2.13
 139  0.433  0.435  0.000-  34 2.10  33 2.14  39 2.14
 140  0.563  0.565  0.000-  66 2.09  33 2.13  39 2.13
 141  0.397  0.602  0.375-  35 2.11  46 2.13  44 2.13
 142  0.602  0.400  0.375-  35 2.11  60 2.13  62 2.13
 143  0.435  0.435  0.250-  36 2.09  33 2.12  35 2.14
 144  0.563  0.566  0.250-  68 2.09  33 2.13  35 2.13
 145  0.397  0.602  0.625-  37 2.11  46 2.13  48 2.13
 146  0.602  0.400  0.625-  37 2.11  64 2.13  62 2.13
 147  0.434  0.435  0.500-  38 2.10  35 2.13  37 2.13
 148  0.563  0.567  0.500-  70 2.10  37 2.13  35 2.13
 149  0.396  0.602  0.875-  39 2.11  42 2.12  48 2.13
 150  0.602  0.400  0.875-  39 2.11  58 2.13  64 2.13
 151  0.435  0.435  0.750-  40 2.09  39 2.12  37 2.14
 152  0.563  0.566  0.750-  72 2.09  39 2.13  37 2.13
 153  0.395  0.931  0.123-  26 2.09  41 2.13  28 2.14
 154  0.603  0.731  0.125-  41 2.10  66 2.14  68 2.14
 155  0.436  0.767  0.000-  42 2.10  47 2.13  41 2.13
 156  0.562  0.901  0.000-  50 2.11  41 2.13  47 2.13
 157  0.398  0.933  0.375-  43 2.11  28 2.11  30 2.13
 158  0.602  0.732  0.375-  43 2.10  68 2.13  70 2.14
 159  0.435  0.768  0.250-  44 2.10  41 2.13  43 2.14
 160  0.563  0.900  0.249-  52 2.11  41 2.13  43 2.14
 161  0.398  0.933  0.625-  45 2.11  32 2.11  30 2.13
 162  0.602  0.732  0.625-  45 2.10  72 2.13  70 2.14
 163  0.435  0.768  0.500-  46 2.10  43 2.13  45 2.13
 164  0.564  0.899  0.500-  54 2.10  45 2.13  43 2.13
 165  0.395  0.931  0.877-  26 2.09  47 2.13  32 2.14
 166  0.603  0.731  0.875-  47 2.10  66 2.14  72 2.14
 167  0.435  0.768  0.750-  48 2.10  47 2.13  45 2.14
 168  0.563  0.900  0.751-  56 2.11  47 2.13  45 2.14
 169  0.730  0.268  0.125-  49 2.10  58 2.14  60 2.14
 170  0.939  0.069  0.123-   2 2.09  49 2.13   4 2.14
 171  0.772  0.099  0.000-  50 2.11  55 2.13  49 2.13
 172  0.898  0.233  0.000-  10 2.10  49 2.13  55 2.13
 173  0.731  0.268  0.375-  51 2.10  60 2.13  62 2.14
 174  0.936  0.066  0.375-  51 2.11   4 2.11   6 2.13
 175  0.770  0.100  0.249-  52 2.11  49 2.13  51 2.14
 176  0.898  0.232  0.250-  12 2.10  49 2.13  51 2.14
 177  0.731  0.268  0.625-  53 2.10  64 2.13  62 2.14
 178  0.936  0.067  0.625-  53 2.11   8 2.11   6 2.13
 179  0.769  0.101  0.500-  54 2.10  53 2.13  51 2.13
 180  0.898  0.232  0.500-  14 2.10  53 2.13  51 2.13
 181  0.730  0.269  0.875-  55 2.10  58 2.14  64 2.14
 182  0.939  0.069  0.877-   2 2.09  55 2.13   8 2.14
 183  0.770  0.100  0.751-  56 2.11  55 2.13  53 2.14
 184  0.898  0.232  0.750-  16 2.10  55 2.13  53 2.14
 185  0.732  0.600  0.125-  57 2.11  66 2.13  68 2.13
 186  0.937  0.398  0.125-  57 2.11  10 2.12  12 2.13
 187  0.771  0.434  0.000-  58 2.09  57 2.13  63 2.13
 188  0.900  0.565  0.000-  18 2.10  63 2.14  57 2.14
 189  0.731  0.600  0.375-  59 2.11  68 2.13  70 2.13
 190  0.937  0.398  0.375-  59 2.11  14 2.13  12 2.13
 191  0.770  0.434  0.250-  60 2.09  57 2.13  59 2.13
 192  0.899  0.565  0.250-  20 2.09  57 2.12  59 2.14
 193  0.731  0.600  0.625-  61 2.11  72 2.13  70 2.13
 194  0.937  0.398  0.625-  61 2.11  14 2.13  16 2.13
 195  0.770  0.433  0.500-  62 2.10  59 2.13  61 2.13
 196  0.899  0.565  0.500-  22 2.10  61 2.13  59 2.13
 197  0.732  0.600  0.875-  63 2.11  66 2.13  72 2.13
 198  0.937  0.398  0.875-  63 2.11  10 2.12  16 2.13
 199  0.770  0.434  0.750-  64 2.09  63 2.13  61 2.13
 200  0.899  0.565  0.750-  24 2.09  63 2.12  61 2.14
 201  0.729  0.932  0.125-  65 2.10  50 2.13  52 2.13
 202  0.937  0.733  0.125-  65 2.11  18 2.13  20 2.14
 203  0.768  0.764  0.000-  66 2.09  65 2.13  71 2.13
 204  0.890  0.896  0.000-   2 2.03  71 2.13  65 2.13
 205  0.731  0.934  0.375-  67 2.10  52 2.13  54 2.13
 206  0.935  0.732  0.375-  67 2.10  20 2.13  22 2.13
 207  0.768  0.765  0.252-  68 2.10  65 2.10  67 2.13
 208  0.896  0.900  0.249-   4 2.10  67 2.14  65 2.14
 209  0.731  0.934  0.625-  69 2.10  56 2.13  54 2.13
 210  0.935  0.732  0.625-  69 2.10  24 2.13  22 2.13
 211  0.768  0.768  0.500-  70 2.10  67 2.13  69 2.13
 212  0.897  0.899  0.500-   6 2.09  69 2.13  67 2.13
 213  0.729  0.932  0.875-  71 2.10  50 2.13  56 2.13
 214  0.937  0.733  0.875-  71 2.11  18 2.13  24 2.14
 215  0.768  0.765  0.748-  72 2.10  71 2.10  69 2.13
 216  0.896  0.900  0.751-   8 2.10  69 2.14  71 2.14
 217  0.167  1.000  0.000-  75 1.16 108 1.16
 

IMPORTANT INFORMATION: All symmetrisations will be switched off!
NOSYMM: (Re-)initialisation of all symmetry stuff for point group C_1.

 
 
 KPOINTS: KPOINTS created by Atomic Simulation Env

Automatic generation of k-mesh.
Space group operators:
 irot       det(A)        alpha          n_x          n_y          n_z        tau_x        tau_y        tau_z
    1     1.000000     0.000000     1.000000     0.000000     0.000000     0.000000     0.000000     0.000000
 
 Subroutine IBZKPT returns following result:
 ===========================================
 
 Found      4 irreducible k-points:
 
 Following reciprocal coordinates:
            Coordinates               Weight
  0.250000  0.250000  0.250000      2.000000
 -0.250000  0.250000  0.250000      2.000000
  0.250000 -0.250000  0.250000      2.000000
 -0.250000 -0.250000  0.250000      2.000000
 
 Following cartesian coordinates:
            Coordinates               Weight
  0.017066  0.017066  0.018935      2.000000
 -0.017066  0.017066  0.018935      2.000000
  0.017066 -0.017066  0.018935      2.000000
 -0.017066 -0.017066  0.018935      2.000000
 


--------------------------------------------------------------------------------------------------------




 Dimension of arrays:
   k-points           NKPTS =      4   k-points in BZ     NKDIM =      4   number of bands    NBANDS=   1168
   number of dos      NEDOS =    301   number of ions     NIONS =    217
   non local maximal  LDIM  =      6   non local SUM 2l+1 LMDIM =     18
   total plane-waves  NPLWV = 829440
   max r-space proj   IRMAX =      1   max aug-charges    IRDMAX=  71248
   dimension x,y,z NGX =    96 NGY =   96 NGZ =   90
   dimension x,y,z NGXF=   192 NGYF=  192 NGZF=  180
   support grid    NGXF=   384 NGYF=  384 NGZF=  360
   ions per type =              72 144   1
   NGX,Y,Z   is equivalent  to a cutoff of  10.89, 10.89, 11.33 a.u.
   NGXF,Y,Z  is equivalent  to a cutoff of  21.79, 21.79, 22.66 a.u.

 SYSTEM =  unknown system                          
 POSCAR =  Mn  F  H                                

 Startparameter for this run:
   NWRITE =      2    write-flag & timer
   PREC   = normal    normal or accurate (medium, high low for compatibility)
   ISTART =      1    job   : 0-new  1-cont  2-samecut
   ICHARG =      1    charge: 1-file 2-atom 10-const
   ISPIN  =      2    spin polarized calculation?
   LNONCOLLINEAR =      F non collinear calculations
   LSORBIT =      F    spin-orbit coupling
   INIWAV =      1    electr: 0-lowe 1-rand  2-diag
   LASPH  =      T    aspherical Exc in radial PAW
   METAGGA=      F    non-selfconsistent MetaGGA calc.

 Electronic Relaxation 1
   ENCUT  =  700.0 eV  51.45 Ry    7.17 a.u.  31.60 31.60 28.48*2*pi/ulx,y,z
   ENINI  =  700.0     initial cutoff
   ENAUG  =  613.6 eV  augmentation charge cutoff
   NELM   =     60;   NELMIN=  2; NELMDL=  0     # of ELM steps 
   EDIFF  = 0.1E-06   stopping-criterion for ELM
   LREAL  =      F    real-space projection
   NLSPLINE    = F    spline interpolate recip. space projectors
   LCOMPAT=      F    compatible to vasp.4.4
   GGA_COMPAT  = T    GGA compatible to vasp.4.4-vasp.4.6
   LMAXPAW     = -100 max onsite density
   LMAXMIX     =    4 max onsite mixed and CHGCAR
   VOSKOWN=      0    Vosko Wilk Nusair interpolation
   ROPT   =    0.00000   0.00000   0.00000
 Ionic relaxation
   EDIFFG = -.5E-02   stopping-criterion for IOM
   NSW    =      0    number of steps for IOM
   NBLOCK =      1;   KBLOCK =      1    inner block; outer block 
   IBRION =     -1    ionic relax: 0-MD 1-quasi-New 2-CG
   NFREE  =      1    steps in history (QN), initial steepest desc. (CG)
   ISIF   =      2    stress and relaxation
   IWAVPR =     10    prediction:  0-non 1-charg 2-wave 3-comb
   ISYM   =      0    0-nonsym 1-usesym 2-fastsym
   LCORR  =      T    Harris-Foulkes like correction to forces

   POTIM  = 0.5000    time-step for ionic-motion
   TEIN   =    0.0    initial temperature
   TEBEG  =    0.0;   TEEND  =   0.0 temperature during run
   SMASS  =  -3.00    Nose mass-parameter (am)
   estimated Nose-frequenzy (Omega)   =  0.10E-29 period in steps =****** mass=  -0.490E-26a.u.
   SCALEE = 1.0000    scale energy and forces
   NPACO  =    256;   APACO  = 16.0  distance and # of slots for P.C.
   PSTRESS=    0.0 pullay stress

  Mass of Ions in am
   POMASS =  54.94 19.00  1.00
  Ionic Valenz
   ZVAL   =  13.00  7.00  1.00
  Atomic Wigner-Seitz radii
   RWIGS  =  -1.00 -1.00 -1.00
  virtual crystal weights 
   VCA    =   1.00  1.00  1.00
   NELECT =    1944.0000    total number of electrons
   NUPDOWN=      -1.0000    fix difference up-down

 DOS related values:
   EMIN   =  10.00;   EMAX   =-10.00  energy-range for DOS
   EFERMI =   0.00
   ISMEAR =     0;   SIGMA  =   0.01  broadening in eV -4-tet -1-fermi 0-gaus

 Electronic relaxation 2 (details)
   IALGO  =     38    algorithm
   LDIAG  =      T    sub-space diagonalisation (order eigenvalues)
   LSUBROT=      F    optimize rotation matrix (better conditioning)
   TURBO    =      0    0=normal 1=particle mesh
   IRESTART =      0    0=no restart 2=restart with 2 vectors
   NREBOOT  =      0    no. of reboots
   NMIN     =      0    reboot dimension
   EREF     =   0.00    reference energy to select bands
   IMIX   =      4    mixing-type and parameters
     AMIX     =   0.40;   BMIX     =  1.00
     AMIX_MAG =   1.60;   BMIX_MAG =  1.00
     AMIN     =   0.10
     WC   =   100.;   INIMIX=   1;  MIXPRE=   1;  MAXMIX= -45

 Intra band minimization:
   WEIMIN = 0.0000     energy-eigenvalue tresh-hold
   EBREAK =  0.21E-10  absolut break condition
   DEPER  =   0.30     relativ break condition  

   TIME   =   0.40     timestep for ELM

  volume/ion in A,a.u.               =      13.06        88.12
  Fermi-wavevector in a.u.,A,eV,Ry     =   1.443888  2.728552 28.365585  2.084812
  Thomas-Fermi vector in A             =   2.562245
 
 Write flags
   LWAVE        =      T    write WAVECAR
   LDOWNSAMPLE  =      F    k-point downsampling of WAVECAR
   LCHARG       =      T    write CHGCAR
   LVTOT        =      F    write LOCPOT, total local potential
   LVHAR        =      F    write LOCPOT, Hartree potential only
   LELF         =      F    write electronic localiz. function (ELF)
   LORBIT       =     11    0 simple, 1 ext, 2 COOP (PROOUT), +10 PAW based schemes


 Dipole corrections
   LMONO  =      F    monopole corrections only (constant potential shift)
   LDIPOL =      F    correct potential (dipole corrections)
   IDIPOL =      0    1-x, 2-y, 3-z, 4-all directions 
   EPSILON=  1.0000000 bulk dielectric constant

 LDA+U is selected, type is set to LDAUTYPE =  2
   angular momentum for each species LDAUL =     2   -1   -1
   U (eV)           for each species LDAUU =   4.0  0.0  0.0
   J (eV)           for each species LDAUJ =   0.0  0.0  0.0
 Exchange correlation treatment:
   GGA     =    PS    GGA type
   LEXCH   =    14    internal setting for exchange type
   VOSKOWN=      0    Vosko Wilk Nusair interpolation
   LHFCALC =     F    Hartree Fock is set to
   LHFONE  =     F    Hartree Fock one center treatment
   AEXX    =    0.0000 exact exchange contribution

 Linear response parameters
   LEPSILON=     F    determine dielectric tensor
   LRPA    =     F    only Hartree local field effects (RPA)
   LNABLA  =     F    use nabla operator in PAW spheres
   LVEL    =     F    velocity operator in full k-point grid
   LINTERFAST=   F  fast interpolation
   KINTER  =     0    interpolate to denser k-point grid
   CSHIFT  =0.1000    complex shift for real part using Kramers Kronig
   OMEGAMAX=  -1.0    maximum frequency
   DEG_THRESHOLD= 0.2000000E-02 threshold for treating states as degnerate
   RTIME   =   -0.100 relaxation time in fs
  (WPLASMAI=    0.000 imaginary part of plasma frequency in eV, 0.658/RTIME)
   DFIELD  = 0.0000000 0.0000000 0.0000000 field for delta impulse in time
 
 Orbital magnetization related:
   ORBITALMAG=     F  switch on orbital magnetization
   LCHIMAG   =     F  perturbation theory with respect to B field
   DQ        =  0.001000  dq finite difference perturbation B field
   LLRAUG    =     F  two centre corrections for induced B field



--------------------------------------------------------------------------------------------------------


 Static calculation
 charge density and potential will be updated during run
 spin polarized calculation
 Variant of blocked Davidson
 Davidson routine will perform the subspace rotation
 perform sub-space diagonalisation
    after iterative eigenvector-optimisation
 modified Broyden-mixing scheme, WC =      100.0
 initial mixing is a Kerker type mixing with AMIX =  0.4000 and BMIX =      1.0000
 Hartree-type preconditioning will be used
 using additional bands          196
 reciprocal scheme for non local part
 use partial core corrections
 calculate Harris-corrections to forces 
   (improved forces if not selfconsistent)
 use gradient corrections 
 use of overlap-Matrix (Vanderbilt PP)
 Gauss-broadening in eV      SIGMA  =   0.01


--------------------------------------------------------------------------------------------------------


  energy-cutoff  :      700.00
  volume of cell :     2833.48
      direct lattice vectors                 reciprocal lattice vectors
    14.649432430  0.000000000  0.000000000     0.068262030  0.000000000  0.000000000
     0.000000000 14.649432430  0.000000000     0.000000000  0.068262030  0.000000000
     0.000000000  0.000000000 13.203190708     0.000000000  0.000000000  0.075739268

  length of vectors
    14.649432430 14.649432430 13.203190708     0.068262030  0.068262030  0.075739268


 
 old parameters found on file WAVECAR:
  energy-cutoff  :      700.00
  volume of cell :     2833.48
      direct lattice vectors                 reciprocal lattice vectors
    14.649432430  0.000000000  0.000000000     0.068262030  0.000000000  0.000000000
     0.000000000 14.649432430  0.000000000     0.000000000  0.068262030  0.000000000
     0.000000000  0.000000000 13.203190708     0.000000000  0.000000000  0.075739268

  length of vectors

 
 k-points in units of 2pi/SCALE and weight: KPOINTS created by Atomic Simulation Env
   0.01706551  0.01706551  0.01893482       0.250
  -0.01706551  0.01706551  0.01893482       0.250
   0.01706551 -0.01706551  0.01893482       0.250
  -0.01706551 -0.01706551  0.01893482       0.250
 
 k-points in reciprocal lattice and weights: KPOINTS created by Atomic Simulation Env
   0.25000000  0.25000000  0.25000000       0.250
  -0.25000000  0.25000000  0.25000000       0.250
   0.25000000 -0.25000000  0.25000000       0.250
  -0.25000000 -0.25000000  0.25000000       0.250
 
 position of ions in fractional coordinates (direct lattice) 
   0.17199557  0.16833921  0.12982447
   0.98773223  0.99461664  0.00002404
   0.16669357  0.16475602  0.37615536
   0.99815189  0.00038216  0.25032562
   0.16669779  0.16476375  0.62390894
   0.99872977  0.99987552  0.50002391
   0.17199081  0.16834341  0.87024352
   0.99815924  0.00039349  0.74972283
   0.16668524  0.49994568  0.12505710
   0.00049500  0.33289535  0.00003926
   0.16669610  0.49995086  0.37505746
   0.00120548  0.33172346  0.24991842
   0.16669374  0.49995383  0.62497208
   0.00065317  0.33253030  0.50003831
   0.16668446  0.49995008  0.87497309
   0.00120272  0.33173034  0.75015882
   0.16137656  0.83154333  0.12979529
   0.00058411  0.66702609  0.00002339
   0.16669625  0.83514550  0.37612904
   0.99917458  0.66572483  0.25080538
   0.16668919  0.83514243  0.62387903
   0.00021062  0.66687784  0.50002613
   0.16137528  0.83154748  0.87021504
   0.99916702  0.66573066  0.74924658
   0.50378545  0.17035399  0.12651256
   0.34563405  0.00527128  0.00001698
   0.50040543  0.16665352  0.37531077
   0.33522529  0.99950540  0.25031717
   0.50038566  0.16664734  0.62474563
   0.33465706  0.00003374  0.50001791
   0.50378721  0.17036636  0.87353796
   0.33521805  0.99950897  0.74972063
   0.49850842  0.50045603  0.12508961
   0.33277609  0.33287104  0.00002088
   0.49905027  0.50080170  0.37544440
   0.33422251  0.33415127  0.25079575
   0.49904970  0.50081409  0.62459120
   0.33316823  0.33302816  0.50001846
   0.49851331  0.50047034  0.87494241
   0.33421617  0.33416385  0.74924512
   0.50106270  0.83178482  0.12512459
   0.33288398  0.66699491  0.00000818
   0.50063794  0.83264989  0.37510168
   0.33217629  0.66817181  0.24988325
   0.50064606  0.83266056  0.62493839
   0.33273854  0.66737154  0.50000684
   0.50106381  0.83178426  0.87491373
   0.33217325  0.66818108  0.75013149
   0.83231323  0.16810000  0.12514596
   0.66668624  0.99994685  0.00002622
   0.83274227  0.16725127  0.37511952
   0.66669614  0.99993853  0.25005900
   0.83274591  0.16726107  0.62495760
   0.66669077  0.99996188  0.50002801
   0.83231782  0.16811003  0.87493248
   0.66669554  0.99995310  0.74999564
   0.83487814  0.49942376  0.12510959
   0.66705626  0.33606695  0.00002825
   0.83433253  0.49908992  0.37545842
   0.66686150  0.33544020  0.25055660
   0.83432839  0.49909327  0.62460364
   0.66636680  0.33388995  0.50003044
   0.83486786  0.49942295  0.87495743
   0.66685540  0.33545341  0.74949844
   0.82958851  0.82952230  0.12651433
   0.66633485  0.66380621  0.00002946
   0.83298498  0.83324405  0.37530976
   0.66651214  0.66444612  0.25055619
   0.83299022  0.83325829  0.62474114
   0.66701424  0.66601586  0.50002593
   0.82958915  0.82953503  0.87353581
   0.66652010  0.66445774  0.74949729
   0.06504484  0.26182576  0.12287718
   0.27513315  0.06907473  0.12360027
   0.12421898  0.06710953  0.00002460
   0.22817009  0.22933723  0.00003277
   0.06494061  0.26546162  0.37463296
   0.26980156  0.06513038  0.37421413
   0.10487808  0.09826399  0.24754773
   0.23242383  0.23273857  0.25333388
   0.06495755  0.26548274  0.62544279
   0.26981549  0.06514723  0.62582113
   0.10251532  0.09880670  0.50003433
   0.23162684  0.23102093  0.50002812
   0.06503515  0.26182315  0.87719880
   0.27512698  0.06907406  0.87644376
   0.10489617  0.09825763  0.75251203
   0.23241486  0.23275176  0.74673631
   0.06611338  0.60293198  0.12479407
   0.26724197  0.39694126  0.12480543
   0.10251284  0.43358095  0.00001587
   0.23086594  0.56631014  0.00001281
   0.06458168  0.60065175  0.37516842
   0.26881385  0.39925147  0.37514535
   0.10287263  0.43301591  0.24943072
   0.23048566  0.56690469  0.24941430
   0.06457317  0.60064787  0.62488473
   0.26882002  0.39926445  0.62488720
   0.10288399  0.43325254  0.50001723
   0.23051051  0.56664608  0.50001204
   0.06612358  0.60294689  0.87524755
   0.26724379  0.39694902  0.87523880
   0.10286888  0.43302128  0.75060867
   0.23049583  0.56689789  0.75061300
   0.05823479  0.93080901  0.12359908
   0.26833476  0.73806413  0.12284386
   0.10520305  0.77054071  0.00000644
   0.20915605  0.93275073  0.00001065
   0.06359087  0.93477702  0.37421889
   0.26844901  0.73443823  0.37460577
   0.10096680  0.76714503  0.25331653
   0.22849051  0.90163460  0.24751377
   0.06358583  0.93477485  0.62582181
   0.26843260  0.73442740  0.62540590
   0.10174981  0.76889228  0.50000263
   0.23087635  0.90109794  0.50000864
   0.05822843  0.93080514  0.87644135
   0.26833605  0.73807274  0.87717167
   0.10096395  0.76714723  0.74669831
   0.22847631  0.90164741  0.75249237
   0.39651119  0.26662571  0.12474728
   0.60449585  0.06790970  0.12498935
   0.44326589  0.10377327  0.00002202
   0.56515692  0.23601294  0.00002752
   0.39821644  0.26750847  0.37511970
   0.60246271  0.06585809  0.37484129
   0.43754501  0.10035360  0.24865033
   0.56490187  0.23454411  0.25188721
   0.39820015  0.26750490  0.62492708
   0.60244322  0.06584965  0.62521287
   0.43592214  0.10070512  0.50001879
   0.56490831  0.23235133  0.50003863
   0.39651474  0.26663804  0.87529159
   0.60450212  0.06792609  0.87506654
   0.43753217  0.10036350  0.75141306
   0.56490861  0.23454335  0.74815468
   0.39597355  0.60196359  0.12532931
   0.60157174  0.40030788  0.12529894
   0.43342818  0.43488700  0.00001060
   0.56277767  0.56544620  0.00002327
   0.39663623  0.60187750  0.37454478
   0.60189933  0.40037231  0.37548419
   0.43468244  0.43508770  0.24994461
   0.56333527  0.56557346  0.24978792
   0.39663312  0.60188366  0.62547575
   0.60191592  0.40040288  0.62456587
   0.43443904  0.43480987  0.50002045
   0.56343935  0.56660857  0.50001437
   0.39599164  0.60199005  0.87468562
   0.60158217  0.40032721  0.87475706
   0.43469535  0.43508526  0.75009081
   0.56332522  0.56560121  0.75024578
   0.39477795  0.93081195  0.12314827
   0.60291401  0.73137228  0.12502112
   0.43568972  0.76704143  0.00001866
   0.56155242  0.90133548  0.00002097
   0.39772167  0.93339450  0.37466240
   0.60205652  0.73150885  0.37478747
   0.43497167  0.76793008  0.24972581
   0.56329561  0.89977371  0.24942091
   0.39772710  0.93340434  0.62537628
   0.60206168  0.73151636  0.62526285
   0.43493958  0.76806472  0.50002352
   0.56447192  0.89898495  0.50001551
   0.39478214  0.93081695  0.87688249
   0.60292958  0.73138732  0.87503346
   0.43495491  0.76795534  0.75030536
   0.56331673  0.89976387  0.75062560
   0.73044997  0.26849410  0.12503321
   0.93858845  0.06906937  0.12316392
   0.77182358  0.09855550  0.00003295
   0.89768303  0.23285423  0.00004514
   0.73131705  0.26838479  0.37479497
   0.93564060  0.06648700  0.37467033
   0.77008608  0.10011431  0.24944154
   0.89840110  0.23197208  0.24974295
   0.73133263  0.26840827  0.62527158
   0.93565497  0.06650355  0.62538279
   0.76889597  0.10094780  0.50004382
   0.89847050  0.23181900  0.50003535
   0.73045254  0.26850464  0.87502238
   0.93860664  0.06908935  0.87689514
   0.77008428  0.10012960  0.75063116
   0.89841778  0.23196380  0.75033350
   0.73181498  0.59957192  0.12531305
   0.93741701  0.39792753  0.12535909
   0.77062320  0.43441992  0.00003912
   0.89993069  0.56501542  0.00002733
   0.73147591  0.59951512  0.37548538
   0.93674430  0.39801213  0.37457985
   0.77005041  0.43430264  0.24980419
   0.89871459  0.56478655  0.24996310
   0.73146836  0.59951277  0.62456749
   0.93673805  0.39801278  0.62549470
   0.76994832  0.43328792  0.50002756
   0.89895046  0.56508301  0.50003165
   0.73179622  0.59956113  0.87474509
   0.93740212  0.39791992  0.87471954
   0.77005123  0.43430799  0.75025890
   0.89870186  0.56479770  0.75010470
   0.72887916  0.93196800  0.12498178
   0.93686640  0.73325913  0.12476789
   0.76823190  0.76386083  0.00002230
   0.89009207  0.89612499  0.00002778
   0.73093406  0.93404929  0.37485653
   0.93516294  0.73237675  0.37511502
   0.76844908  0.76536545  0.25189513
   0.89584435  0.89952228  0.24864497
   0.73092680  0.93405053  0.62520072
   0.93516710  0.73238795  0.62493595
   0.76848815  0.76753894  0.50002998
   0.89746147  0.89920297  0.50002208
   0.72887785  0.93197630  0.87506983
   0.93686558  0.73326882  0.87528616
   0.76847266  0.76536042  0.74815360
   0.89582825  0.89955740  0.75140754
   0.16668457  0.99993131  0.00001623
 
 position of ions in cartesian coordinates  (Angst):
   2.51963751  2.46607388  1.71409729
  14.46971657 14.57056931  0.00031746
   2.44196615  2.41358212  4.96645096
  14.62235865  0.00559838  3.30509691
   2.44202803  2.41369539  8.23758869
  14.63082433 14.64760884  6.60191102
   2.51956768  2.46613544 11.48999111
  14.62246631  0.00576447  9.89873350
   2.44184415  7.32392047  1.65115268
   0.00725154  4.87672792  0.00051835
   2.44200322  7.32399631  4.95195511
   0.01765955  4.85956038  3.29972057
   2.44196875  7.32403984  8.25162561
   0.00956850  4.87138019  6.60210111
   2.44183272  7.32398492 11.55243663
   0.01761914  4.85966125  9.90449003
   2.36407501 12.18163784  1.71371194
   0.00855687  9.77155369  0.00030879
   2.44200538 12.23440754  4.96610344
  14.63734051  9.75249097  3.31143126
   2.44190196 12.23436256  8.23719387
   0.00308548  9.76938188  6.60194034
   2.36405629 12.18169867 11.48961507
  14.63722977  9.75257632  9.89244549
   7.38017096  2.49558929  1.67036940
   5.06334273  0.07722132  0.00022423
   7.33065550  2.44137949  4.95529963
   4.91086017 14.64218682  3.30498533
   7.33036588  2.44128898  8.24863576
   4.90253605  0.00049424  6.60183189
   7.38019662  2.49577053 11.53348834
   4.91075411 14.64223907  9.89870451
   7.30286545  7.33139679  1.65158192
   4.87498083  4.87637175  0.00027565
   7.31080317  7.33646063  4.95706407
   4.89617006  4.89512649  3.31130415
   7.31079489  7.33664212  8.24659676
   4.88072550  4.87867359  6.60183913
   7.30293703  7.33160647 11.55203146
   4.89607725  4.89531070  9.89242616
   7.34028412 12.18517546  1.65204389
   4.87656144  9.77109687  0.00010806
   7.33406172 12.19784834  4.95253902
   4.86619409  9.78833778  3.29925619
   7.33418060 12.19800464  8.25118080
   4.87443077  9.77661429  6.60168568
   7.34030042 12.18516727 11.55165279
   4.86614955  9.78847354  9.90412917
  12.19291642  2.46256954  1.65232597
   9.76657502 14.64865384  0.00034619
  12.19920163  2.45013619  4.95277462
   9.76672005 14.64853193  3.30157670
  12.19925495  2.45027977  8.25143435
   9.76664139 14.64887398  6.60196520
  12.19298366  2.46271656 11.55190041
   9.76671132 14.64874532  9.90233541
  12.23049095  7.31627456  1.65184577
   9.77199554  4.92319007  0.00037300
  12.22249799  7.31138400  4.95724915
   9.76914243  4.91400854  3.30814663
  12.22243744  7.31143310  8.24676101
   9.76189537  4.89129825  6.60199728
  12.23034025  7.31626275 11.55222985
   9.76905313  4.91420209  9.89577090
  12.15300080 12.15203085  1.67039284
   9.76142734  9.72438419  0.00038902
  12.20275713 12.20655241  4.95528629
   9.76402461  9.73375853  3.30814119
  12.20283390 12.20676099  8.24857642
   9.77138005  9.75675435  6.60193774
  12.15301015 12.15221741 11.53345995
   9.76414111  9.73392878  9.89575568
   0.95287001  3.83559884  1.62237088
   4.03054449  1.01190564  1.63191788
   1.81973756  0.98311649  0.00032480
   3.34256238  3.35966027  0.00043270
   0.95134314  3.88886203  4.94635048
   3.95243973  0.95412315  4.94082058
   1.53640440  1.43951166  3.26841985
   3.40487722  3.40948791  3.34481554
   0.95159125  3.88917139  8.25784039
   3.95264381  0.95437000  8.26283568
   1.50179118  1.44746215  6.60204868
   3.39320171  3.38432552  6.60196657
   0.95272801  3.83556051 11.58182301
   4.03045409  1.01189581 11.57185410
   1.53666939  1.43941847  9.93555980
   3.40474572  3.40968116  9.85930196
   0.96852346  8.83261131  1.64767992
   3.91494321  5.81496418  1.64782986
   1.50175495  6.35171488  0.00020954
   3.38205496  8.29612218  0.00016913
   0.94608495  8.79920722  4.95342022
   3.93797031  5.84880747  4.95311557
   1.50702569  6.34343733  3.29328138
   3.37648409  8.30483194  3.29306452
   0.94596022  8.79915039  8.25047229
   3.93806076  5.84899755  8.25050487
   1.50719211  6.34690377  6.60182283
   3.37684819  8.30104350  6.60175433
   0.96867285  8.83282965 11.55606030
   3.91496980  5.81507786 11.55594483
   1.50697070  6.34351604  9.91042943
   3.37663305  8.30473237  9.91048659
   0.85310658 13.63582373  1.63190223
   3.93095191 10.81222066  1.62193088
   1.54116498 11.28798406  0.00008508
   3.06401744 13.66426879  0.00014059
   0.93157013 13.69395275  4.94088343
   3.93262564 10.75910320  4.94599147
   1.47910634 11.23823925  3.34458646
   3.34725634 13.20843511  3.26797150
   0.93149634 13.69392106  8.26284467
   3.93238528 10.75894464  8.25735333
   1.49057693 11.26383544  6.60163013
   3.38220743 13.20057342  6.60170942
   0.85301344 13.63576700 11.57182229
   3.93097085 10.81234676 11.58146482
   1.47906455 11.23827151  9.85880024
   3.34704824 13.20862283  9.93530027
   5.80866389  3.90591537  1.64706211
   8.85552118  0.99483859  1.65025818
   6.49359364  1.52021950  0.00029073
   8.27922816  3.45745558  0.00036338
   5.83364478  3.91884732  4.95277696
   8.82573671  0.96478363  4.94910106
   6.40978609  1.47012327  3.28297768
   8.27549182  3.43593807  3.32571491
   5.83340625  3.91879491  8.25103138
   8.82545128  0.96465993  8.25480475
   6.38601193  1.47527280  6.60184349
   8.27558611  3.40381517  6.60210533
   5.80871590  3.90609595 11.55664174
   8.85561302  0.99507863 11.55367040
   6.40959803  1.47026832  9.92104996
   8.27559049  3.43592696  9.87802891
   5.80078774  8.81842496  1.65474678
   8.81268449  5.86428320  1.65434587
   6.34947681  6.37084779  0.00013998
   8.24437340  8.28346583  0.00030725
   5.81049561  8.81716379  4.94518612
   8.81748353  5.86522712  4.95758935
   6.36785107  6.37378782  3.30006635
   8.25254202  8.28533012  3.29799760
   5.81045006  8.81725400  8.25827559
   8.81772661  5.86567491  8.24626229
   6.36428538  6.36971786  6.60186532
   8.25406669  8.30049393  6.60178510
   5.80105274  8.81881263 11.54864111
   8.81283732  5.86456637 11.54958425
   6.36804009  6.37375217  9.90359203
   8.25239475  8.28573677  9.90563817
   5.78327291 13.63586682  1.62595013
   8.83234801 10.71418885  1.65067766
   6.38260716 11.23672154  0.00024636
   8.22642419 13.20405319  0.00027683
   5.82639667 13.67369969  4.94673906
   8.81978624 10.71618940  4.94839048
   6.37208815 11.24973988  3.29717748
   8.25196095 13.18117423  3.29315189
   5.82647621 13.67384384  8.25696225
   8.81986187 10.71629954  8.25546469
   6.37161803 11.25171224  6.60190590
   8.26919330 13.16961926  6.60180020
   5.78333422 13.63594007 11.57764674
   8.83257621 10.71440910 11.55323368
   6.37184257 11.25010983  9.90642481
   8.25227035 13.18102995  9.91065301
  10.70067754  3.93328618  1.65083731
  13.74978815  1.01182709  1.62615669
  11.30677734  1.44378216  0.00043502
  13.15054694  3.41118237  0.00059599
  10.71337965  3.93168482  4.94848943
  13.70660368  0.97399687  4.94684384
  11.28132393  1.46661784  3.29342423
  13.16106626  3.39825928  3.29740376
  10.71360791  3.93202882  8.25557991
  13.70681420  0.97423932  8.25704828
  11.26388949  1.47882804  6.60217391
  13.16208285  3.39601676  6.60206209
  10.70071518  3.93344058 11.55308741
  13.75005460  1.01211975 11.57781371
  11.28129760  1.46684174  9.91072635
  13.16131053  3.39813795  9.90679628
  10.72067409  8.78338832  1.65453208
  13.73262710  5.82941248  1.65513994
  11.28919250  6.36400527  0.00051653
  13.18347390  8.27715524  0.00036082
  10.71570687  8.78255626  4.95760510
  13.72277233  5.83065179  4.94564921
  11.28080152  6.36228720  3.29821233
  13.16565867  8.27380244  3.30031048
  10.71559629  8.78252181  8.24628370
  13.72268073  5.83066132  8.25852586
  11.27930591  6.34742215  6.60195923
  13.16911403  8.27814541  6.60201321
  10.72039925  8.78323027 11.54942620
  13.73240903  5.82930101 11.54908889
  11.28081347  6.36236555  9.90581132
  13.16547216  8.27396569  9.90377544
  10.67766594 13.65280229  1.65015832
  13.72456099 10.74183011  1.64733429
  11.25416136 11.19012755  0.00029437
  13.03934370 13.12772248  0.00036682
  10.70776919 13.68329196  4.94930223
  13.69960631 10.72890370  4.95271513
  11.25734280 11.21216948  3.32581947
  13.12361133 13.17749085  3.28290702
  10.70766277 13.68331020  8.25464434
  13.69966720 10.72906773  8.25114851
  11.25791519 11.24400990  6.60199117
  13.14730115 13.17281314  6.60188683
  10.67764682 13.65292380 11.55371381
  13.72454896 10.74197206 11.55657005
  11.25768835 11.21209582  9.87801463
  13.12337537 13.17800529  9.92097705
   2.44183441 14.64842616  0.00021434
 


--------------------------------------------------------------------------------------------------------


 k-point  1 :   0.2500 0.2500 0.2500  plane waves:  119170
 k-point  2 :  -0.2500 0.2500 0.2500  plane waves:  119170
 k-point  3 :   0.2500-0.2500 0.2500  plane waves:  119170
 k-point  4 :  -0.2500-0.2500 0.2500  plane waves:  119170

 maximum and minimum number of plane-waves per node :      9968     9893

 maximum number of plane-waves:    119170
 maximum index in each direction: 
   IXMAX=   31   IYMAX=   31   IZMAX=   28
   IXMIN=  -31   IYMIN=  -31   IZMIN=  -28


 parallel 3D FFT for wavefunctions:
    minimum data exchange during FFTs selected (reduces bandwidth)
 parallel 3D FFT for charge:
    minimum data exchange during FFTs selected (reduces bandwidth)


 total amount of memory used by VASP MPI-rank0   501409. kBytes
=======================================================================

   base      :      30000. kBytes
   nonl-proj :      51625. kBytes
   fftplans  :      22373. kBytes
   grid      :      17829. kBytes
   one-center:        590. kBytes
   wavefun   :     378992. kBytes
 
     INWAV:  cpu time   70.0570: real time   70.1045
 Broyden mixing: mesh for mixing (old mesh)
   NGX = 63   NGY = 63   NGZ = 57
  (NGX  =192   NGY  =192   NGZ  =180)
  gives a total of 226233 points

 initial charge density was supplied:
 number of electron    1944.0000051 magnetization      -0.0000006
 keeping initial charge density in first step


--------------------------------------------------------------------------------------------------------


 Maximum index for augmentation-charges         2065 (set IRDMAX)


--------------------------------------------------------------------------------------------------------


 First call to EWALD:  gamma=   0.125
 Maximum number of real-space cells 3x 3x 3
 Maximum number of reciprocal cells 3x 3x 3

    FEWALD:  cpu time    0.0085: real time    0.0085


--------------------------------------- Iteration      1(   1)  ---------------------------------------


    POTLOK:  cpu time    0.2216: real time    0.2388
    SETDIJ:  cpu time    4.8543: real time    4.8545
atom =   1  type =  1  l = 2
 
 onsite density matrix
 
spin component  1
 
  0.9690 -0.0029  0.0186 -0.0046 -0.0027
 -0.0029  0.9649 -0.0019  0.0135 -0.0008
  0.0186 -0.0019  0.9590 -0.0027 -0.0021
 -0.0046  0.0135 -0.0027  0.9589 -0.0016
 -0.0027 -0.0008 -0.0021 -0.0016  0.9486
 
spin component  2
 
  0.0474 -0.0028  0.0261 -0.0038 -0.0032
 -0.0028  0.0390 -0.0030  0.0191 -0.0003
  0.0261 -0.0030  0.0337 -0.0034 -0.0024
 -0.0038  0.0191 -0.0034  0.0343 -0.0011
 -0.0032 -0.0003 -0.0024 -0.0011  0.0153
 
 occupancies and eigenvectors
 
  o =  0.0136  v =  0.0000  0.0000  0.0000  0.0000  0.0000  0.6116 -0.0451 -0.7870  0.0287  0.0619      0.0000  0.0000  0.0000  0.0000  0.0000  0.0000  0.0000  0.0000  0.0000  0.0000
  o =  0.0147  v =  0.0000  0.0000  0.0000  0.0000  0.0000  0.0201 -0.1459  0.1073  0.2174  0.9589      0.0000  0.0000  0.0000  0.0000  0.0000  0.0000  0.0000  0.0000  0.0000  0.0000
  o =  0.0175  v =  0.0000  0.0000  0.0000  0.0000  0.0000  0.0206  0.6427 -0.0263 -0.7187  0.2633      0.0000  0.0000  0.0000  0.0000  0.0000  0.0000  0.0000  0.0000  0.0000  0.0000
  o =  0.0533  v =  0.0000  0.0000  0.0000  0.0000  0.0000  0.3200  0.6951  0.2258  0.5997 -0.0622      0.0000  0.0000  0.0000  0.0000  0.0000  0.0000  0.0000  0.0000  0.0000  0.0000
  o =  0.0705  v =  0.0000  0.0000  0.0000  0.0000  0.0000 -0.7230  0.2837 -0.5635  0.2752  0.0590      0.0000  0.0000  0.0000  0.0000  0.0000  0.0000  0.0000  0.0000  0.0000  0.0000
  o =  0.9447  v =  0.6138 -0.0536 -0.7799  0.1034  0.0369  0.0000  0.0000  0.0000  0.0000  0.0000      0.0000  0.0000  0.0000  0.0000  0.0000  0.0000  0.0000  0.0000  0.0000  0.0000
  o =  0.9471  v =  0.0204 -0.4104  0.1559  0.6049  0.6641  0.0000  0.0000  0.0000  0.0000  0.0000      0.0000  0.0000  0.0000  0.0000  0.0000  0.0000  0.0000  0.0000  0.0000  0.0000
  o =  0.9490  v =  0.0635  0.4640 -0.0122 -0.4908  0.7346  0.0000  0.0000  0.0000  0.0000  0.0000      0.0000  0.0000  0.0000  0.0000  0.0000  0.0000  0.0000  0.0000  0.0000  0.0000
  o =  0.9728  v =  0.3547  0.7057  0.2944  0.5242 -0.1213  0.0000  0.0000  0.0000  0.0000  0.0000      0.0000  0.0000  0.0000  0.0000  0.0000  0.0000  0.0000  0.0000  0.0000  0.0000
  o =  0.9867  v = -0.7021  0.3397 -0.5297  0.3284  0.0567  0.0000  0.0000  0.0000  0.0000  0.0000      0.0000  0.0000  0.0000  0.0000  0.0000  0.0000  0.0000  0.0000  0.0000  0.0000
atom =   2  type =  1  l = 2
 
 onsite density matrix
 
spin component  1
 
  0.0422  0.0000 -0.0229 -0.0000  0.0038
  0.0000  0.0453 -0.0000 -0.0231  0.0000
 -0.0229 -0.0000  0.0327 -0.0000 -0.0035
 -0.0000 -0.0231 -0.0000  0.0367 -0.0000
  0.0038  0.0000 -0.0035 -0.0000  0.0165
 
spin component  2
 
  0.9659  0.0000 -0.0158 -0.0000  0.0045
  0.0000  0.9688  0.0000 -0.0176  0.0000
 -0.0158  0.0000  0.9571 -0.0000 -0.0031
 -0.0000 -0.0176 -0.0000  0.9629 -0.0000
  0.0045  0.0000 -0.0031 -0.0000  0.9490
 
 occupancies and eigenvectors
 
  o =  0.0140  v =  0.6137  0.0001  0.7786  0.0002  0.1312  0.0000  0.0000  0.0000  0.0000  0.0000      0.0000  0.0000  0.0000  0.0000  0.0000  0.0000  0.0000  0.0000  0.0000  0.0000
  o =  0.0160  v =  0.1712  0.0011  0.0310  0.0012 -0.9847  0.0000  0.0000  0.0000  0.0000  0.0000      0.0000  0.0000  0.0000  0.0000  0.0000  0.0000  0.0000  0.0000  0.0000  0.0000
  o =  0.0175  v =  0.0004 -0.6391  0.0002 -0.7691 -0.0015  0.0000  0.0000  0.0000  0.0000  0.0000      0.0000  0.0000  0.0000  0.0000  0.0000  0.0000  0.0000  0.0000  0.0000  0.0000
  o =  0.0614  v = -0.7708  0.0007  0.6268 -0.0006 -0.1143  0.0000  0.0000  0.0000  0.0000  0.0000      0.0000  0.0000  0.0000  0.0000  0.0000  0.0000  0.0000  0.0000  0.0000  0.0000
  o =  0.0645  v =  0.0007  0.7691 -0.0005 -0.6391  0.0002  0.0000  0.0000  0.0000  0.0000  0.0000      0.0000  0.0000  0.0000  0.0000  0.0000  0.0000  0.0000  0.0000  0.0000  0.0000
  o =  0.9451  v =  0.0000  0.0000  0.0000  0.0000  0.0000 -0.6139 -0.0000 -0.7850 -0.0001  0.0828      0.0000  0.0000  0.0000  0.0000  0.0000  0.0000  0.0000  0.0000  0.0000  0.0000
  o =  0.9480  v =  0.0000  0.0000  0.0000  0.0000  0.0000 -0.0076 -0.6438  0.0148 -0.7605  0.0827      0.0000  0.0000  0.0000  0.0000  0.0000  0.0000  0.0000  0.0000  0.0000  0.0000
  o =  0.9480  v =  0.0000  0.0000  0.0000  0.0000  0.0000 -0.0910  0.0545  0.1742  0.0644  0.9769      0.0000  0.0000  0.0000  0.0000  0.0000  0.0000  0.0000  0.0000  0.0000  0.0000
  o =  0.9789  v =  0.0000  0.0000  0.0000  0.0000  0.0000 -0.7841  0.0001  0.5943 -0.0001 -0.1790      0.0000  0.0000  0.0000  0.0000  0.0000  0.0000  0.0000  0.0000  0.0000  0.0000
  o =  0.9836  v =  0.0000  0.0000  0.0000  0.0000  0.0000  0.0001  0.7632 -0.0000 -0.6461  0.0001      0.0000  0.0000  0.0000  0.0000  0.0000  0.0000  0.0000  0.0000  0.0000  0.0000
atom =   3  type =  1  l = 2
 
 onsite density matrix
 
spin component  1
 
  0.9704 -0.0006  0.0192 -0.0007 -0.0006
 -0.0006  0.9649  0.0002  0.0170  0.0000
  0.0192  0.0002  0.9584  0.0002 -0.0004
 -0.0007  0.0170  0.0002  0.9636 -0.0002
 -0.0006  0.0000 -0.0004 -0.0002  0.9479
 
spin component  2
 
  0.0465 -0.0008  0.0257 -0.0007 -0.0008
 -0.0008  0.0382  0.0001  0.0213  0.0001
  0.0257  0.0001  0.0320  0.0000 -0.0006
 -0.0007  0.0213  0.0000  0.0366 -0.0002
 -0.0008  0.0001 -0.0006 -0.0002  0.0140
 
 occupancies and eigenvectors
 
  o =  0.0125  v =  0.0000  0.0000  0.0000  0.0000  0.0000  0.6033  0.0182 -0.7973  0.0028 -0.0112      0.0000  0.0000  0.0000  0.0000  0.0000  0.0000  0.0000  0.0000  0.0000  0.0000
  o =  0.0139  v =  0.0000  0.0000  0.0000  0.0000  0.0000 -0.0233  0.0583 -0.0026 -0.0646 -0.9959      0.0000  0.0000  0.0000  0.0000  0.0000  0.0000  0.0000  0.0000  0.0000  0.0000
  o =  0.0161  v =  0.0000  0.0000  0.0000  0.0000  0.0000 -0.0047  0.6910  0.0085 -0.7176  0.0871      0.0000  0.0000  0.0000  0.0000  0.0000  0.0000  0.0000  0.0000  0.0000  0.0000
  o =  0.0587  v =  0.0000  0.0000  0.0000  0.0000  0.0000  0.0785  0.7160  0.0782  0.6893 -0.0048      0.0000  0.0000  0.0000  0.0000  0.0000  0.0000  0.0000  0.0000  0.0000  0.0000
  o =  0.0660  v =  0.0000  0.0000  0.0000  0.0000  0.0000 -0.7933  0.0789 -0.5985  0.0764  0.0198      0.0000  0.0000  0.0000  0.0000  0.0000  0.0000  0.0000  0.0000  0.0000  0.0000
  o =  0.9443  v =  0.5930  0.0150 -0.8049  0.0153  0.0059  0.0000  0.0000  0.0000  0.0000  0.0000      0.0000  0.0000  0.0000  0.0000  0.0000  0.0000  0.0000  0.0000  0.0000  0.0000
  o =  0.9472  v =  0.0029 -0.6804  0.0043  0.7079  0.1897  0.0000  0.0000  0.0000  0.0000  0.0000      0.0000  0.0000  0.0000  0.0000  0.0000  0.0000  0.0000  0.0000  0.0000  0.0000
  o =  0.9479  v =  0.0133  0.1340  0.0170 -0.1345  0.9816  0.0000  0.0000  0.0000  0.0000  0.0000      0.0000  0.0000  0.0000  0.0000  0.0000  0.0000  0.0000  0.0000  0.0000  0.0000
  o =  0.9812  v =  0.1229  0.7102  0.1166  0.6833 -0.0070  0.0000  0.0000  0.0000  0.0000  0.0000      0.0000  0.0000  0.0000  0.0000  0.0000  0.0000  0.0000  0.0000  0.0000  0.0000
  o =  0.9846  v = -0.7957  0.1206 -0.5815  0.1172  0.0204  0.0000  0.0000  0.0000  0.0000  0.0000      0.0000  0.0000  0.0000  0.0000  0.0000  0.0000  0.0000  0.0000  0.0000  0.0000
atom =   4  type =  1  l = 2
 
 onsite density matrix
 
spin component  1
 
  0.0445 -0.0003 -0.0248 -0.0001  0.0017
 -0.0003  0.0391  0.0003 -0.0215 -0.0003
 -0.0248  0.0003  0.0318  0.0001 -0.0014
 -0.0001 -0.0215  0.0001  0.0356  0.0001
  0.0017 -0.0003 -0.0014  0.0001  0.0136
 
spin component  2
 
  0.9691 -0.0002 -0.0189 -0.0001  0.0013
 -0.0002  0.9659  0.0002 -0.0170 -0.0002
 -0.0189  0.0002  0.9584  0.0000 -0.0010
 -0.0001 -0.0170  0.0000  0.9630  0.0001
  0.0013 -0.0002 -0.0010  0.0001  0.9477
 
 occupancies and eigenvectors
 
  o =  0.0125  v = -0.6125  0.0006 -0.7901 -0.0012 -0.0243  0.0000  0.0000  0.0000  0.0000  0.0000      0.0000  0.0000  0.0000  0.0000  0.0000  0.0000  0.0000  0.0000  0.0000  0.0000
  o =  0.0135  v = -0.0495  0.0263  0.0077  0.0189  0.9982  0.0000  0.0000  0.0000  0.0000  0.0000      0.0000  0.0000  0.0000  0.0000  0.0000  0.0000  0.0000  0.0000  0.0000  0.0000
  o =  0.0158  v =  0.0076  0.6768 -0.0055  0.7354 -0.0314  0.0000  0.0000  0.0000  0.0000  0.0000      0.0000  0.0000  0.0000  0.0000  0.0000  0.0000  0.0000  0.0000  0.0000  0.0000
  o =  0.0589  v =  0.0358  0.7347 -0.0260 -0.6770 -0.0046  0.0000  0.0000  0.0000  0.0000  0.0000      0.0000  0.0000  0.0000  0.0000  0.0000  0.0000  0.0000  0.0000  0.0000  0.0000
  o =  0.0639  v = -0.7881  0.0377  0.6124 -0.0239 -0.0443  0.0000  0.0000  0.0000  0.0000  0.0000      0.0000  0.0000  0.0000  0.0000  0.0000  0.0000  0.0000  0.0000  0.0000  0.0000
  o =  0.9442  v =  0.0000  0.0000  0.0000  0.0000  0.0000 -0.6036 -0.0088 -0.7971 -0.0107  0.0096      0.0000  0.0000  0.0000  0.0000  0.0000  0.0000  0.0000  0.0000  0.0000  0.0000
  o =  0.9474  v =  0.0000  0.0000  0.0000  0.0000  0.0000 -0.0043  0.6748 -0.0130  0.7339  0.0765      0.0000  0.0000  0.0000  0.0000  0.0000  0.0000  0.0000  0.0000  0.0000  0.0000
  o =  0.9476  v =  0.0000  0.0000  0.0000  0.0000  0.0000 -0.0309 -0.0468  0.0367 -0.0603  0.9959      0.0000  0.0000  0.0000  0.0000  0.0000  0.0000  0.0000  0.0000  0.0000  0.0000
  o =  0.9814  v =  0.0000  0.0000  0.0000  0.0000  0.0000  0.0616  0.7339 -0.0457 -0.6749 -0.0028      0.0000  0.0000  0.0000  0.0000  0.0000  0.0000  0.0000  0.0000  0.0000  0.0000
  o =  0.9835  v =  0.0000  0.0000  0.0000  0.0000  0.0000 -0.7943  0.0617  0.6008 -0.0459 -0.0466      0.0000  0.0000  0.0000  0.0000  0.0000  0.0000  0.0000  0.0000  0.0000  0.0000
atom =   5  type =  1  l = 2
 
 onsite density matrix
 
spin component  1
 
  0.9704  0.0006  0.0192  0.0007 -0.0006
  0.0006  0.9649 -0.0002  0.0170 -0.0000
  0.0192 -0.0002  0.9584 -0.0002 -0.0004
  0.0007  0.0170 -0.0002  0.9636  0.0002
 -0.0006 -0.0000 -0.0004  0.0002  0.9479
 
spin component  2
 
  0.0465  0.0008  0.0257  0.0007 -0.0008
  0.0008  0.0382 -0.0001  0.0213 -0.0001
  0.0257 -0.0001  0.0320 -0.0000 -0.0006
  0.0007  0.0213 -0.0000  0.0366  0.0002
 -0.0008 -0.0001 -0.0006  0.0002  0.0140
 
 occupancies and eigenvectors
 
  o =  0.0125  v =  0.0000  0.0000  0.0000  0.0000  0.0000 -0.6033  0.0179  0.7972  0.0031  0.0111      0.0000  0.0000  0.0000  0.0000  0.0000  0.0000  0.0000  0.0000  0.0000  0.0000
  o =  0.0139  v =  0.0000  0.0000  0.0000  0.0000  0.0000  0.0233  0.0582  0.0027 -0.0645  0.9959      0.0000  0.0000  0.0000  0.0000  0.0000  0.0000  0.0000  0.0000  0.0000  0.0000
  o =  0.0161  v =  0.0000  0.0000  0.0000  0.0000  0.0000 -0.0046 -0.6909  0.0081  0.7176  0.0869      0.0000  0.0000  0.0000  0.0000  0.0000  0.0000  0.0000  0.0000  0.0000  0.0000
  o =  0.0587  v =  0.0000  0.0000  0.0000  0.0000  0.0000  0.0782 -0.7161  0.0781 -0.6892 -0.0048      0.0000  0.0000  0.0000  0.0000  0.0000  0.0000  0.0000  0.0000  0.0000  0.0000
  o =  0.0660  v =  0.0000  0.0000  0.0000  0.0000  0.0000 -0.7933 -0.0786 -0.5985 -0.0763  0.0198      0.0000  0.0000  0.0000  0.0000  0.0000  0.0000  0.0000  0.0000  0.0000  0.0000
  o =  0.9443  v = -0.5930  0.0149  0.8049  0.0154 -0.0061  0.0000  0.0000  0.0000  0.0000  0.0000      0.0000  0.0000  0.0000  0.0000  0.0000  0.0000  0.0000  0.0000  0.0000  0.0000
  o =  0.9472  v =  0.0029  0.6803  0.0045 -0.7080  0.1895  0.0000  0.0000  0.0000  0.0000  0.0000      0.0000  0.0000  0.0000  0.0000  0.0000  0.0000  0.0000  0.0000  0.0000  0.0000
  o =  0.9479  v = -0.0132  0.1338 -0.0170 -0.1343 -0.9816  0.0000  0.0000  0.0000  0.0000  0.0000      0.0000  0.0000  0.0000  0.0000  0.0000  0.0000  0.0000  0.0000  0.0000  0.0000
  o =  0.9812  v =  0.1225 -0.7103  0.1164 -0.6833 -0.0070  0.0000  0.0000  0.0000  0.0000  0.0000      0.0000  0.0000  0.0000  0.0000  0.0000  0.0000  0.0000  0.0000  0.0000  0.0000
  o =  0.9846  v = -0.7957 -0.1202 -0.5816 -0.1170  0.0204  0.0000  0.0000  0.0000  0.0000  0.0000      0.0000  0.0000  0.0000  0.0000  0.0000  0.0000  0.0000  0.0000  0.0000  0.0000
atom =   6  type =  1  l = 2
 
 onsite density matrix
 
spin component  1
 
  0.0462  0.0000 -0.0259 -0.0000  0.0009
  0.0000  0.0379 -0.0000 -0.0212 -0.0000
 -0.0259 -0.0000  0.0322  0.0000 -0.0007
 -0.0000 -0.0212  0.0000  0.0366  0.0000
  0.0009 -0.0000 -0.0007  0.0000  0.0139
 
spin component  2
 
  0.9700  0.0000 -0.0196 -0.0000  0.0006
  0.0000  0.9647 -0.0000 -0.0169 -0.0000
 -0.0196 -0.0000  0.9587  0.0000 -0.0005
 -0.0000 -0.0169  0.0000  0.9638  0.0000
  0.0006 -0.0000 -0.0005  0.0000  0.9478
 
 occupancies and eigenvectors
 
  o =  0.0124  v = -0.6079  0.0001 -0.7940  0.0001 -0.0081  0.0000  0.0000  0.0000  0.0000  0.0000      0.0000  0.0000  0.0000  0.0000  0.0000  0.0000  0.0000  0.0000  0.0000  0.0000
  o =  0.0139  v = -0.0217 -0.0004  0.0064 -0.0004  0.9997  0.0000  0.0000  0.0000  0.0000  0.0000      0.0000  0.0000  0.0000  0.0000  0.0000  0.0000  0.0000  0.0000  0.0000  0.0000
  o =  0.0161  v = -0.0001 -0.6967 -0.0002 -0.7174 -0.0006  0.0000  0.0000  0.0000  0.0000  0.0000      0.0000  0.0000  0.0000  0.0000  0.0000  0.0000  0.0000  0.0000  0.0000  0.0000
  o =  0.0584  v =  0.0006 -0.7174 -0.0004  0.6967  0.0001  0.0000  0.0000  0.0000  0.0000  0.0000      0.0000  0.0000  0.0000  0.0000  0.0000  0.0000  0.0000  0.0000  0.0000  0.0000
  o =  0.0660  v = -0.7938 -0.0005  0.6079  0.0005 -0.0211  0.0000  0.0000  0.0000  0.0000  0.0000      0.0000  0.0000  0.0000  0.0000  0.0000  0.0000  0.0000  0.0000  0.0000  0.0000
  o =  0.9440  v =  0.0000  0.0000  0.0000  0.0000  0.0000  0.6017 -0.0000  0.7987  0.0000  0.0024      0.0000  0.0000  0.0000  0.0000  0.0000  0.0000  0.0000  0.0000  0.0000  0.0000
  o =  0.9474  v =  0.0000  0.0000  0.0000  0.0000  0.0000 -0.0000 -0.6971  0.0000 -0.7170  0.0023      0.0000  0.0000  0.0000  0.0000  0.0000  0.0000  0.0000  0.0000  0.0000  0.0000
  o =  0.9477  v =  0.0000  0.0000  0.0000  0.0000  0.0000 -0.0185  0.0016  0.0110  0.0016  0.9998      0.0000  0.0000  0.0000  0.0000  0.0000  0.0000  0.0000  0.0000  0.0000  0.0000
  o =  0.9811  v =  0.0000  0.0000  0.0000  0.0000  0.0000  0.0008 -0.7170 -0.0006  0.6971  0.0001      0.0000  0.0000  0.0000  0.0000  0.0000  0.0000  0.0000  0.0000  0.0000  0.0000
  o =  0.9847  v =  0.0000  0.0000  0.0000  0.0000  0.0000 -0.7985 -0.0007  0.6016  0.0007 -0.0214      0.0000  0.0000  0.0000  0.0000  0.0000  0.0000  0.0000  0.0000  0.0000  0.0000
atom =   7  type =  1  l = 2
 
 onsite density matrix
 
spin component  1
 
  0.9690  0.0029  0.0186  0.0046 -0.0027
  0.0029  0.9649  0.0019  0.0135  0.0008
  0.0186  0.0019  0.9590  0.0027 -0.0021
  0.0046  0.0135  0.0027  0.9589  0.0016
 -0.0027  0.0008 -0.0021  0.0016  0.9486
 
spin component  2
 
  0.0474  0.0028  0.0261  0.0038 -0.0032
  0.0028  0.0390  0.0030  0.0191  0.0003
  0.0261  0.0030  0.0337  0.0034 -0.0024
  0.0038  0.0191  0.0034  0.0343  0.0011
 -0.0032  0.0003 -0.0024  0.0011  0.0153
 
 occupancies and eigenvectors
 
  o =  0.0136  v =  0.0000  0.0000  0.0000  0.0000  0.0000 -0.6116 -0.0453  0.7869  0.0288 -0.0623      0.0000  0.0000  0.0000  0.0000  0.0000  0.0000  0.0000  0.0000  0.0000  0.0000
  o =  0.0147  v =  0.0000  0.0000  0.0000  0.0000  0.0000  0.0199  0.1459  0.1078 -0.2174  0.9589      0.0000  0.0000  0.0000  0.0000  0.0000  0.0000  0.0000  0.0000  0.0000  0.0000
  o =  0.0175  v =  0.0000  0.0000  0.0000  0.0000  0.0000 -0.0206  0.6426  0.0265 -0.7188 -0.2633      0.0000  0.0000  0.0000  0.0000  0.0000  0.0000  0.0000  0.0000  0.0000  0.0000
  o =  0.0533  v =  0.0000  0.0000  0.0000  0.0000  0.0000  0.3200 -0.6952  0.2257 -0.5996 -0.0622      0.0000  0.0000  0.0000  0.0000  0.0000  0.0000  0.0000  0.0000  0.0000  0.0000
  o =  0.0705  v =  0.0000  0.0000  0.0000  0.0000  0.0000 -0.7230 -0.2837 -0.5635 -0.2753  0.0591      0.0000  0.0000  0.0000  0.0000  0.0000  0.0000  0.0000  0.0000  0.0000  0.0000
  o =  0.9447  v = -0.6138 -0.0538  0.7799  0.1034 -0.0372  0.0000  0.0000  0.0000  0.0000  0.0000      0.0000  0.0000  0.0000  0.0000  0.0000  0.0000  0.0000  0.0000  0.0000  0.0000
  o =  0.9471  v =  0.0204  0.4103  0.1561 -0.6048  0.6641  0.0000  0.0000  0.0000  0.0000  0.0000      0.0000  0.0000  0.0000  0.0000  0.0000  0.0000  0.0000  0.0000  0.0000  0.0000
  o =  0.9490  v = -0.0634  0.4639  0.0122 -0.4909 -0.7346  0.0000  0.0000  0.0000  0.0000  0.0000      0.0000  0.0000  0.0000  0.0000  0.0000  0.0000  0.0000  0.0000  0.0000  0.0000
  o =  0.9728  v =  0.3548 -0.7058  0.2943 -0.5240 -0.1213  0.0000  0.0000  0.0000  0.0000  0.0000      0.0000  0.0000  0.0000  0.0000  0.0000  0.0000  0.0000  0.0000  0.0000  0.0000
  o =  0.9867  v = -0.7021 -0.3397 -0.5297 -0.3284  0.0568  0.0000  0.0000  0.0000  0.0000  0.0000      0.0000  0.0000  0.0000  0.0000  0.0000  0.0000  0.0000  0.0000  0.0000  0.0000
atom =   8  type =  1  l = 2
 
 onsite density matrix
 
spin component  1
 
  0.0445  0.0003 -0.0248  0.0001  0.0017
  0.0003  0.0391 -0.0003 -0.0215  0.0003
 -0.0248 -0.0003  0.0318 -0.0000 -0.0014
  0.0001 -0.0215 -0.0000  0.0356 -0.0001
  0.0017  0.0003 -0.0014 -0.0001  0.0136
 
spin component  2
 
  0.9691  0.0003 -0.0189  0.0001  0.0014
  0.0003  0.9659 -0.0002 -0.0170  0.0002
 -0.0189 -0.0002  0.9584 -0.0000 -0.0010
  0.0001 -0.0170 -0.0000  0.9630 -0.0001
  0.0014  0.0002 -0.0010 -0.0001  0.9477
 
 occupancies and eigenvectors
 
  o =  0.0125  v =  0.6125  0.0005  0.7901 -0.0012  0.0245  0.0000  0.0000  0.0000  0.0000  0.0000      0.0000  0.0000  0.0000  0.0000  0.0000  0.0000  0.0000  0.0000  0.0000  0.0000
  o =  0.0135  v =  0.0498  0.0271 -0.0076  0.0197 -0.9982  0.0000  0.0000  0.0000  0.0000  0.0000      0.0000  0.0000  0.0000  0.0000  0.0000  0.0000  0.0000  0.0000  0.0000  0.0000
  o =  0.0158  v =  0.0076 -0.6767 -0.0056 -0.7355 -0.0325  0.0000  0.0000  0.0000  0.0000  0.0000      0.0000  0.0000  0.0000  0.0000  0.0000  0.0000  0.0000  0.0000  0.0000  0.0000
  o =  0.0589  v =  0.0373 -0.7347 -0.0273  0.6768 -0.0045  0.0000  0.0000  0.0000  0.0000  0.0000      0.0000  0.0000  0.0000  0.0000  0.0000  0.0000  0.0000  0.0000  0.0000  0.0000
  o =  0.0639  v = -0.7880 -0.0392  0.6123  0.0252 -0.0446  0.0000  0.0000  0.0000  0.0000  0.0000      0.0000  0.0000  0.0000  0.0000  0.0000  0.0000  0.0000  0.0000  0.0000  0.0000
  o =  0.9442  v =  0.0000  0.0000  0.0000  0.0000  0.0000  0.6036 -0.0088  0.7971 -0.0106 -0.0094      0.0000  0.0000  0.0000  0.0000  0.0000  0.0000  0.0000  0.0000  0.0000  0.0000
  o =  0.9474  v =  0.0000  0.0000  0.0000  0.0000  0.0000 -0.0045 -0.6743 -0.0128 -0.7336  0.0832      0.0000  0.0000  0.0000  0.0000  0.0000  0.0000  0.0000  0.0000  0.0000  0.0000
  o =  0.9476  v =  0.0000  0.0000  0.0000  0.0000  0.0000  0.0312 -0.0513 -0.0368 -0.0652 -0.9954      0.0000  0.0000  0.0000  0.0000  0.0000  0.0000  0.0000  0.0000  0.0000  0.0000
  o =  0.9814  v =  0.0000  0.0000  0.0000  0.0000  0.0000  0.0638 -0.7338 -0.0475  0.6747 -0.0026      0.0000  0.0000  0.0000  0.0000  0.0000  0.0000  0.0000  0.0000  0.0000  0.0000
  o =  0.9835  v =  0.0000  0.0000  0.0000  0.0000  0.0000 -0.7941 -0.0638  0.6007  0.0478 -0.0469      0.0000  0.0000  0.0000  0.0000  0.0000  0.0000  0.0000  0.0000  0.0000  0.0000
atom =   9  type =  1  l = 2
 
 onsite density matrix
 
spin component  1
 
  0.9700  0.0000  0.0189  0.0000  0.0000
  0.0000  0.9653  0.0000  0.0172 -0.0000
  0.0189  0.0000  0.9583 -0.0000  0.0002
  0.0000  0.0172 -0.0000  0.9637 -0.0000
  0.0000 -0.0000  0.0002 -0.0000  0.9475
 
spin component  2
 
  0.0454  0.0000  0.0249  0.0000  0.0002
  0.0000  0.0386  0.0000  0.0219 -0.0000
  0.0249  0.0000  0.0316 -0.0000  0.0002
  0.0000  0.0219 -0.0000  0.0366 -0.0000
  0.0002 -0.0000  0.0002 -0.0000  0.0136
 
 occupancies and eigenvectors
 
  o =  0.0127  v =  0.0000  0.0000  0.0000  0.0000  0.0000 -0.6053 -0.0001  0.7955  0.0001 -0.0273      0.0000  0.0000  0.0000  0.0000  0.0000  0.0000  0.0000  0.0000  0.0000  0.0000
  o =  0.0136  v =  0.0000  0.0000  0.0000  0.0000  0.0000 -0.0214  0.0004  0.0180 -0.0003  0.9996      0.0000  0.0000  0.0000  0.0000  0.0000  0.0000  0.0000  0.0000  0.0000  0.0000
  o =  0.0157  v =  0.0000  0.0000  0.0000  0.0000  0.0000  0.0001 -0.6909 -0.0000  0.7230  0.0005      0.0000  0.0000  0.0000  0.0000  0.0000  0.0000  0.0000  0.0000  0.0000  0.0000
  o =  0.0595  v =  0.0000  0.0000  0.0000  0.0000  0.0000  0.0007 -0.7230  0.0006 -0.6909  0.0001      0.0000  0.0000  0.0000  0.0000  0.0000  0.0000  0.0000  0.0000  0.0000  0.0000
  o =  0.0643  v =  0.0000  0.0000  0.0000  0.0000  0.0000 -0.7957 -0.0007 -0.6057 -0.0006 -0.0062      0.0000  0.0000  0.0000  0.0000  0.0000  0.0000  0.0000  0.0000  0.0000  0.0000
  o =  0.9443  v = -0.5927  0.0001  0.8041  0.0000 -0.0471  0.0000  0.0000  0.0000  0.0000  0.0000      0.0000  0.0000  0.0000  0.0000  0.0000  0.0000  0.0000  0.0000  0.0000  0.0000
  o =  0.9472  v =  0.0001 -0.6906  0.0000  0.7232 -0.0019  0.0000  0.0000  0.0000  0.0000  0.0000      0.0000  0.0000  0.0000  0.0000  0.0000  0.0000  0.0000  0.0000  0.0000  0.0000
  o =  0.9475  v = -0.0315 -0.0013  0.0353  0.0015  0.9989  0.0000  0.0000  0.0000  0.0000  0.0000      0.0000  0.0000  0.0000  0.0000  0.0000  0.0000  0.0000  0.0000  0.0000  0.0000
  o =  0.9817  v =  0.0009 -0.7232  0.0008 -0.6906  0.0001  0.0000  0.0000  0.0000  0.0000  0.0000      0.0000  0.0000  0.0000  0.0000  0.0000  0.0000  0.0000  0.0000  0.0000  0.0000
  o =  0.9839  v = -0.8048 -0.0009 -0.5935 -0.0008 -0.0044  0.0000  0.0000  0.0000  0.0000  0.0000      0.0000  0.0000  0.0000  0.0000  0.0000  0.0000  0.0000  0.0000  0.0000  0.0000
atom =  10  type =  1  l = 2
 
 onsite density matrix
 
spin component  1
 
[...]
    1        0.168   6.152   4.951  11.271
    2        0.170   6.156   4.958  11.284
    3        0.166   6.151   4.953  11.271
    4        0.165   6.148   4.950  11.263
    5        0.166   6.151   4.953  11.271
    6        0.166   6.150   4.953  11.269
    7        0.168   6.152   4.951  11.271
    8        0.165   6.148   4.950  11.263
    9        0.166   6.150   4.952  11.267
   10        0.166   6.150   4.953  11.270
   11        0.165   6.149   4.951  11.265
   12        0.165   6.149   4.950  11.264
   13        0.165   6.149   4.951  11.265
   14        0.165   6.149   4.951  11.265
   15        0.166   6.150   4.952  11.267
   16        0.165   6.149   4.950  11.264
   17        0.168   6.152   4.951  11.271
   18        0.165   6.148   4.950  11.263
   19        0.166   6.151   4.953  11.271
   20        0.167   6.151   4.954  11.271
   21        0.166   6.151   4.953  11.271
   22        0.165   6.149   4.952  11.267
   23        0.168   6.152   4.951  11.271
   24        0.167   6.151   4.954  11.271
   25        0.167   6.151   4.954  11.272
   26        0.170   6.156   4.958  11.284
   27        0.166   6.150   4.953  11.269
   28        0.165   6.148   4.950  11.263
   29        0.166   6.150   4.953  11.269
   30        0.166   6.150   4.953  11.269
   31        0.167   6.151   4.954  11.272
   32        0.165   6.148   4.950  11.263
   33        0.166   6.150   4.953  11.269
   34        0.165   6.148   4.950  11.263
   35        0.166   6.150   4.952  11.268
   36        0.167   6.151   4.954  11.271
   37        0.166   6.150   4.952  11.268
   38        0.165   6.149   4.952  11.267
   39        0.166   6.150   4.953  11.269
   40        0.167   6.151   4.954  11.271
   41        0.166   6.150   4.952  11.268
   42        0.166   6.150   4.953  11.270
   43        0.166   6.150   4.952  11.267
   44        0.165   6.149   4.950  11.264
   45        0.166   6.150   4.952  11.267
   46        0.165   6.149   4.951  11.265
   47        0.166   6.150   4.952  11.268
   48        0.165   6.149   4.950  11.264
   49        0.166   6.150   4.952  11.268
   50        0.165   6.149   4.951  11.265
   51        0.166   6.150   4.952  11.267
   52        0.166   6.150   4.952  11.267
   53        0.166   6.150   4.952  11.267
   54        0.166   6.150   4.952  11.267
   55        0.166   6.150   4.952  11.268
   56        0.166   6.150   4.952  11.267
   57        0.166   6.150   4.953  11.269
   58        0.167   6.152   4.954  11.273
   59        0.166   6.150   4.952  11.268
   60        0.166   6.151   4.953  11.270
   61        0.166   6.150   4.952  11.268
   62        0.166   6.150   4.952  11.267
   63        0.166   6.150   4.953  11.269
   64        0.166   6.151   4.953  11.270
   65        0.167   6.151   4.954  11.272
   66        0.167   6.152   4.954  11.273
   67        0.166   6.150   4.953  11.269
   68        0.166   6.151   4.953  11.270
   69        0.166   6.150   4.953  11.269
   70        0.166   6.150   4.952  11.267
   71        0.167   6.151   4.954  11.272
   72        0.166   6.151   4.953  11.270
   73        1.725   4.362   0.000   6.087
   74        1.726   4.366   0.000   6.092
   75        1.730   4.379   0.000   6.109
   76        1.725   4.366   0.000   6.091
   77        1.726   4.365   0.000   6.091
   78        1.726   4.366   0.000   6.091
   79        1.726   4.363   0.000   6.089
   80        1.726   4.370   0.000   6.095
   81        1.726   4.365   0.000   6.091
   82        1.726   4.366   0.000   6.091
   83        1.726   4.368   0.000   6.093
   84        1.726   4.366   0.000   6.091
   85        1.725   4.362   0.000   6.087
   86        1.726   4.366   0.000   6.092
   87        1.726   4.363   0.000   6.089
   88        1.726   4.370   0.000   6.095
   89        1.726   4.365   0.000   6.090
   90        1.726   4.365   0.000   6.090
   91        1.726   4.365   0.000   6.091
   92        1.726   4.365   0.000   6.091
   93        1.726   4.366   0.000   6.092
   94        1.726   4.366   0.000   6.092
   95        1.725   4.365   0.000   6.090
   96        1.725   4.365   0.000   6.090
   97        1.726   4.366   0.000   6.092
   98        1.726   4.366   0.000   6.092
   99        1.726   4.365   0.000   6.091
  100        1.726   4.365   0.000   6.091
  101        1.726   4.365   0.000   6.090
  102        1.726   4.365   0.000   6.090
  103        1.725   4.365   0.000   6.090
  104        1.725   4.365   0.000   6.090
  105        1.726   4.366   0.000   6.092
  106        1.725   4.362   0.000   6.087
  107        1.725   4.366   0.000   6.091
  108        1.730   4.379   0.000   6.109
  109        1.726   4.366   0.000   6.091
  110        1.726   4.365   0.000   6.091
  111        1.726   4.370   0.000   6.095
  112        1.726   4.363   0.000   6.089
  113        1.726   4.366   0.000   6.091
  114        1.726   4.365   0.000   6.091
  115        1.726   4.366   0.000   6.091
  116        1.726   4.368   0.000   6.093
  117        1.726   4.366   0.000   6.092
  118        1.725   4.362   0.000   6.087
  119        1.726   4.370   0.000   6.095
  120        1.726   4.363   0.000   6.089
  121        1.726   4.364   0.000   6.090
  122        1.726   4.365   0.000   6.091
  123        1.726   4.374   0.000   6.101
  124        1.726   4.368   0.000   6.094
  125        1.726   4.366   0.000   6.091
  126        1.726   4.366   0.000   6.091
  127        1.725   4.363   0.000   6.089
  128        1.726   4.368   0.000   6.094
  129        1.726   4.366   0.000   6.091
  130        1.726   4.366   0.000   6.091
  131        1.726   4.367   0.000   6.092
  132        1.726   4.366   0.000   6.092
  133        1.726   4.364   0.000   6.090
  134        1.726   4.365   0.000   6.091
  135        1.725   4.363   0.000   6.089
  136        1.726   4.368   0.000   6.094
  137        1.726   4.366   0.000   6.091
  138        1.726   4.365   0.000   6.091
  139        1.726   4.365   0.000   6.091
  140        1.726   4.368   0.000   6.093
  141        1.726   4.365   0.000   6.091
  142        1.726   4.365   0.000   6.091
  143        1.726   4.368   0.000   6.093
  144        1.726   4.367   0.000   6.093
  145        1.726   4.365   0.000   6.091
  146        1.726   4.365   0.000   6.091
  147        1.726   4.366   0.000   6.091
  148        1.726   4.366   0.000   6.092
  149        1.726   4.366   0.000   6.091
  150        1.726   4.365   0.000   6.091
  151        1.726   4.368   0.000   6.093
  152        1.726   4.367   0.000   6.093
  153        1.726   4.366   0.000   6.091
  154        1.726   4.365   0.000   6.091
  155        1.726   4.366   0.000   6.092
  156        1.726   4.364   0.000   6.090
  157        1.726   4.366   0.000   6.092
  158        1.726   4.366   0.000   6.091
  159        1.726   4.366   0.000   6.092
  160        1.726   4.365   0.000   6.091
  161        1.726   4.366   0.000   6.092
  162        1.726   4.366   0.000   6.091
  163        1.726   4.366   0.000   6.091
  164        1.726   4.366   0.000   6.091
  165        1.726   4.366   0.000   6.091
  166        1.726   4.365   0.000   6.091
  167        1.726   4.366   0.000   6.092
  168        1.726   4.365   0.000   6.091
  169        1.726   4.365   0.000   6.091
  170        1.726   4.366   0.000   6.091
  171        1.726   4.364   0.000   6.090
  172        1.726   4.366   0.000   6.092
  173        1.726   4.366   0.000   6.091
  174        1.726   4.366   0.000   6.092
  175        1.726   4.365   0.000   6.091
  176        1.726   4.366   0.000   6.092
  177        1.726   4.366   0.000   6.091
  178        1.726   4.366   0.000   6.092
  179        1.726   4.366   0.000   6.091
  180        1.726   4.366   0.000   6.091
  181        1.726   4.365   0.000   6.091
  182        1.726   4.366   0.000   6.091
  183        1.726   4.365   0.000   6.091
  184        1.726   4.366   0.000   6.092
  185        1.726   4.365   0.000   6.091
  186        1.726   4.366   0.000   6.091
  187        1.726   4.368   0.000   6.093
  188        1.726   4.365   0.000   6.091
  189        1.726   4.365   0.000   6.091
  190        1.726   4.365   0.000   6.091
  191        1.726   4.367   0.000   6.093
  192        1.726   4.368   0.000   6.093
  193        1.726   4.365   0.000   6.091
  194        1.726   4.365   0.000   6.091
  195        1.726   4.366   0.000   6.092
  196        1.726   4.366   0.000   6.091
  197        1.726   4.365   0.000   6.091
  198        1.726   4.366   0.000   6.091
  199        1.726   4.367   0.000   6.093
  200        1.726   4.368   0.000   6.093
  201        1.726   4.365   0.000   6.091
  202        1.726   4.364   0.000   6.090
  203        1.726   4.368   0.000   6.094
  204        1.726   4.374   0.000   6.101
  205        1.726   4.366   0.000   6.091
  206        1.726   4.366   0.000   6.091
  207        1.726   4.368   0.000   6.094
  208        1.725   4.363   0.000   6.089
  209        1.726   4.366   0.000   6.091
  210        1.726   4.366   0.000   6.091
  211        1.726   4.366   0.000   6.092
  212        1.726   4.367   0.000   6.092
  213        1.726   4.365   0.000   6.091
  214        1.726   4.364   0.000   6.090
  215        1.726   4.368   0.000   6.094
  216        1.725   4.363   0.000   6.089
  217        0.435   0.111   0.000   0.546
--------------------------------------------------
tot        260.8871071.634 356.5591689.080
 


 magnetization (x)
 
# of ion       s       p       d       tot
------------------------------------------
    1        0.020   0.020   4.621   4.661
    2       -0.019  -0.021  -4.620  -4.661
    3        0.018   0.018   4.628   4.665
    4       -0.018  -0.019  -4.630  -4.667
    5        0.018   0.018   4.628   4.665
    6       -0.018  -0.018  -4.628  -4.665
    7        0.020   0.020   4.621   4.661
    8       -0.018  -0.019  -4.630  -4.667
    9        0.018   0.018   4.629   4.666
   10       -0.018  -0.018  -4.628  -4.664
   11        0.018   0.018   4.629   4.666
   12       -0.018  -0.018  -4.629  -4.666
   13        0.018   0.018   4.629   4.666
   14       -0.018  -0.018  -4.629  -4.666
   15        0.018   0.018   4.629   4.666
   16       -0.018  -0.018  -4.629  -4.666
   17        0.020   0.020   4.621   4.661
   18       -0.018  -0.019  -4.629  -4.666
   19        0.018   0.018   4.628   4.665
   20       -0.018  -0.019  -4.628  -4.665
   21        0.018   0.018   4.628   4.665
   22       -0.018  -0.018  -4.629  -4.666
   23        0.020   0.020   4.621   4.661
   24       -0.018  -0.019  -4.628  -4.665
   25        0.018   0.019   4.628   4.665
   26       -0.019  -0.021  -4.620  -4.661
   27        0.018   0.018   4.629   4.665
   28       -0.018  -0.019  -4.630  -4.667
   29        0.018   0.018   4.629   4.665
   30       -0.018  -0.018  -4.628  -4.665
   31        0.018   0.019   4.628   4.665
   32       -0.018  -0.019  -4.630  -4.667
   33        0.018   0.018   4.628   4.665
   34       -0.018  -0.019  -4.629  -4.666
   35        0.018   0.018   4.629   4.666
   36       -0.018  -0.019  -4.628  -4.665
   37        0.018   0.018   4.629   4.666
   38       -0.018  -0.018  -4.629  -4.666
   39        0.018   0.018   4.628   4.665
   40       -0.018  -0.019  -4.628  -4.665
   41        0.018   0.019   4.629   4.666
   42       -0.018  -0.018  -4.628  -4.664
   43        0.018   0.018   4.629   4.666
   44       -0.018  -0.018  -4.629  -4.666
   45        0.018   0.018   4.629   4.666
   46       -0.018  -0.018  -4.629  -4.666
   47        0.018   0.019   4.629   4.666
   48       -0.018  -0.018  -4.629  -4.666
   49        0.018   0.019   4.629   4.666
   50       -0.018  -0.018  -4.629  -4.666
   51        0.018   0.018   4.629   4.666
   52       -0.018  -0.018  -4.629  -4.666
   53        0.018   0.018   4.629   4.666
   54       -0.018  -0.018  -4.629  -4.666
   55        0.018   0.019   4.629   4.666
   56       -0.018  -0.018  -4.629  -4.666
   57        0.018   0.018   4.628   4.665
   58       -0.018  -0.019  -4.627  -4.664
   59        0.018   0.018   4.629   4.666
   60       -0.018  -0.018  -4.628  -4.665
   61        0.018   0.018   4.629   4.666
   62       -0.018  -0.018  -4.629  -4.665
   63        0.018   0.018   4.628   4.665
   64       -0.018  -0.018  -4.628  -4.665
   65        0.018   0.019   4.628   4.665
   66       -0.018  -0.019  -4.627  -4.664
   67        0.018   0.018   4.629   4.665
   68       -0.018  -0.018  -4.628  -4.665
   69        0.018   0.018   4.629   4.665
   70       -0.018  -0.018  -4.629  -4.665
   71        0.018   0.019   4.628   4.665
   72       -0.018  -0.018  -4.628  -4.665
   73       -0.002  -0.011   0.000  -0.013
   74       -0.002  -0.013   0.000  -0.015
   75        0.001   0.006   0.000   0.007
   76        0.002   0.018   0.000   0.020
   77       -0.002  -0.014   0.000  -0.016
   78       -0.002  -0.015   0.000  -0.017
   79        0.002   0.016   0.000   0.018
   80        0.002   0.021   0.000   0.023
   81       -0.002  -0.014   0.000  -0.016
   82       -0.002  -0.015   0.000  -0.017
   83        0.002   0.016   0.000   0.018
   84        0.002   0.017   0.000   0.019
   85       -0.002  -0.011   0.000  -0.013
   86       -0.002  -0.013   0.000  -0.015
   87        0.002   0.016   0.000   0.018
   88        0.002   0.021   0.000   0.023
   89       -0.002  -0.015   0.000  -0.017
   90       -0.002  -0.015   0.000  -0.017
   91        0.002   0.014   0.000   0.016
   92        0.002   0.014   0.000   0.016
   93       -0.002  -0.015   0.000  -0.017
   94       -0.002  -0.015   0.000  -0.017
   95        0.002   0.015   0.000   0.017
   96        0.002   0.015   0.000   0.017
   97       -0.002  -0.015   0.000  -0.017
   98       -0.002  -0.015   0.000  -0.017
   99        0.002   0.015   0.000   0.017
  100        0.002   0.015   0.000   0.017
  101       -0.002  -0.015   0.000  -0.017
  102       -0.002  -0.015   0.000  -0.017
  103        0.002   0.015   0.000   0.017
  104        0.002   0.015   0.000   0.017
  105       -0.002  -0.013   0.000  -0.015
  106       -0.002  -0.011   0.000  -0.013
  107        0.002   0.018   0.000   0.020
  108        0.001   0.006   0.000   0.007
  109       -0.002  -0.015   0.000  -0.017
  110       -0.002  -0.014   0.000  -0.016
  111        0.002   0.021   0.000   0.023
  112        0.002   0.016   0.000   0.018
  113       -0.002  -0.015   0.000  -0.017
  114       -0.002  -0.014   0.000  -0.016
  115        0.002   0.017   0.000   0.019
  116        0.002   0.016   0.000   0.018
  117       -0.002  -0.013   0.000  -0.015
  118       -0.002  -0.011   0.000  -0.013
  119        0.002   0.021   0.000   0.023
  120        0.002   0.016   0.000   0.018
  121       -0.002  -0.015   0.000  -0.017
  122       -0.002  -0.014   0.000  -0.016
  123        0.002   0.006   0.000   0.008
  124        0.002   0.015   0.000   0.016
  125       -0.002  -0.015   0.000  -0.017
  126       -0.002  -0.015   0.000  -0.017
  127        0.002   0.014   0.000   0.016
  128        0.002   0.016   0.000   0.018
  129       -0.002  -0.015   0.000  -0.017
  130       -0.002  -0.015   0.000  -0.017
  131        0.002   0.014   0.000   0.016
  132        0.002   0.016   0.000   0.018
  133       -0.002  -0.015   0.000  -0.017
  134       -0.002  -0.014   0.000  -0.016
  135        0.002   0.014   0.000   0.016
  136        0.002   0.016   0.000   0.018
  137       -0.002  -0.016   0.000  -0.018
  138       -0.002  -0.015   0.000  -0.017
  139        0.002   0.013   0.000   0.015
  140        0.002   0.015   0.000   0.017
  141       -0.002  -0.016   0.000  -0.018
  142       -0.002  -0.015   0.000  -0.017
  143        0.002   0.014   0.000   0.015
  144        0.002   0.015   0.000   0.016
  145       -0.002  -0.016   0.000  -0.018
  146       -0.002  -0.015   0.000  -0.017
  147        0.002   0.015   0.000   0.017
  148        0.002   0.016   0.000   0.017
  149       -0.002  -0.016   0.000  -0.018
  150       -0.002  -0.015   0.000  -0.017
  151        0.002   0.014   0.000   0.015
  152        0.002   0.015   0.000   0.016
  153       -0.002  -0.018   0.000  -0.020
  154       -0.002  -0.014   0.000  -0.015
  155        0.002   0.014   0.000   0.016
  156        0.002   0.015   0.000   0.017
  157       -0.002  -0.016   0.000  -0.018
  158       -0.002  -0.015   0.000  -0.016
  159        0.002   0.015   0.000   0.017
  160        0.002   0.015   0.000   0.017
  161       -0.002  -0.016   0.000  -0.018
  162       -0.002  -0.015   0.000  -0.016
  163        0.002   0.015   0.000   0.017
  164        0.002   0.015   0.000   0.017
  165       -0.002  -0.018   0.000  -0.020
  166       -0.002  -0.014   0.000  -0.015
  167        0.002   0.015   0.000   0.017
  168        0.002   0.015   0.000   0.017
  169       -0.002  -0.014   0.000  -0.015
  170       -0.002  -0.018   0.000  -0.020
  171        0.002   0.015   0.000   0.017
  172        0.002   0.014   0.000   0.016
  173       -0.002  -0.015   0.000  -0.016
  174       -0.002  -0.016   0.000  -0.018
  175        0.002   0.015   0.000   0.017
  176        0.002   0.015   0.000   0.017
  177       -0.002  -0.015   0.000  -0.016
  178       -0.002  -0.016   0.000  -0.018
  179        0.002   0.015   0.000   0.017
  180        0.002   0.015   0.000   0.017
  181       -0.002  -0.014   0.000  -0.015
  182       -0.002  -0.018   0.000  -0.020
  183        0.002   0.015   0.000   0.017
  184        0.002   0.015   0.000   0.017
  185       -0.002  -0.015   0.000  -0.017
  186       -0.002  -0.016   0.000  -0.018
  187        0.002   0.015   0.000   0.017
  188        0.002   0.013   0.000   0.015
  189       -0.002  -0.015   0.000  -0.017
  190       -0.002  -0.016   0.000  -0.018
  191        0.002   0.015   0.000   0.016
  192        0.002   0.014   0.000   0.015
  193       -0.002  -0.015   0.000  -0.017
  194       -0.002  -0.016   0.000  -0.018
  195        0.002   0.016   0.000   0.017
  196        0.002   0.015   0.000   0.017
  197       -0.002  -0.015   0.000  -0.017
  198       -0.002  -0.016   0.000  -0.018
  199        0.002   0.015   0.000   0.016
  200        0.002   0.014   0.000   0.015
  201       -0.002  -0.014   0.000  -0.016
  202       -0.002  -0.015   0.000  -0.017
  203        0.002   0.015   0.000   0.016
  204        0.002   0.006   0.000   0.008
  205       -0.002  -0.015   0.000  -0.017
  206       -0.002  -0.015   0.000  -0.017
  207        0.002   0.016   0.000   0.018
  208        0.002   0.014   0.000   0.016
  209       -0.002  -0.015   0.000  -0.017
  210       -0.002  -0.015   0.000  -0.017
  211        0.002   0.016   0.000   0.018
  212        0.002   0.014   0.000   0.016
  213       -0.002  -0.014   0.000  -0.016
  214       -0.002  -0.015   0.000  -0.017
  215        0.002   0.016   0.000   0.018
  216        0.002   0.014   0.000   0.016
  217        0.001   0.000   0.000   0.001
--------------------------------------------------
tot          0.004   0.003  -0.018  -0.011
 

 total amount of memory used by VASP MPI-rank0   501409. kBytes
=======================================================================

   base      :      30000. kBytes
   nonl-proj :      51625. kBytes
   fftplans  :      22373. kBytes
   grid      :      17829. kBytes
   one-center:        590. kBytes
   wavefun   :     378992. kBytes
 
  
  
 General timing and accounting informations for this job:
 ========================================================
  
                  Total CPU time used (sec):     1146.002
                            User time (sec):     1126.477
                          System time (sec):       19.525
                         Elapsed time (sec):     1332.940
  
                   Maximum memory used (kb):      716292.
                   Average memory used (kb):           0.
  
                          Minor page faults:       197096
                          Major page faults:           24
                 Voluntary context switches:        12474
