       N       E                     dE             d eps       ncg     rms          rms(c)
DAV:   1     0.989972346686E+03    0.98997E+03   -0.39215E+04  1308   0.212E+03
DAV:   2     0.413432027442E+03   -0.57654E+03   -0.55294E+03  1500   0.532E+02
DAV:   3     0.375627015581E+03   -0.37805E+02   -0.37053E+02  1416   0.142E+02
DAV:   4     0.375065725417E+03   -0.56129E+00   -0.56037E+00  1596   0.187E+01
DAV:   5     0.375057157395E+03   -0.85680E-02   -0.85676E-02  1428   0.224E+00    0.589E+01
DAV:   6    -0.686583040725E+02   -0.44372E+03   -0.29831E+02  1596   0.214E+02    0.631E+01
DAV:   7    -0.714174118158E+02   -0.27591E+01   -0.50735E+01  1380   0.453E+01    0.172E+01
DAV:   8    -0.686483067813E+02    0.27691E+01   -0.72600E+00  1548   0.221E+01    0.645E+00
DAV:   9    -0.681499318706E+02    0.49837E+00   -0.44301E+00  1488   0.182E+01    0.801E+00
DAV:  10    -0.681002711025E+02    0.49661E-01   -0.38828E-01  1428   0.515E+00    0.570E+00
DAV:  11    -0.680643009689E+02    0.35970E-01   -0.79586E-01  1560   0.697E+00    0.172E+00
DAV:  12    -0.680386683909E+02    0.25633E-01   -0.66022E-02  1560   0.256E+00    0.109E+00
DAV:  13    -0.680317142388E+02    0.69542E-02   -0.53333E-02  1512   0.137E+00    0.957E-01
DAV:  14    -0.680266453893E+02    0.50688E-02   -0.44934E-02  1296   0.235E+00    0.348E-01
DAV:  15    -0.680275688039E+02   -0.92341E-03   -0.35705E-03  1416   0.429E-01    0.355E-01
DAV:  16    -0.680270454322E+02    0.52337E-03   -0.31677E-03  1416   0.372E-01    0.117E-01
DAV:  17    -0.680270813070E+02   -0.35875E-04   -0.20393E-03  1368   0.360E-01    0.108E-01
DAV:  18    -0.680268125167E+02    0.26879E-03   -0.25769E-04  1380   0.107E-01    0.355E-02
DAV:  19    -0.680268045377E+02    0.79790E-05   -0.10260E-04  1428   0.738E-02    0.685E-03
DAV:  20    -0.680268311415E+02   -0.26604E-04   -0.84562E-06  1524   0.193E-02    0.925E-03
DAV:  21    -0.680268367946E+02   -0.56531E-05   -0.16764E-06  1344   0.986E-03    0.433E-03
DAV:  22    -0.680268338615E+02    0.29331E-05   -0.12567E-06  1428   0.694E-03    0.189E-03
DAV:  23    -0.680268361174E+02   -0.22558E-05   -0.12278E-07   816   0.253E-03    0.825E-04
DAV:  24    -0.680268368924E+02   -0.77504E-06   -0.12561E-08   648   0.100E-03    0.357E-04
DAV:  25    -0.680268370712E+02   -0.17877E-06   -0.39558E-09   648   0.487E-04    0.225E-04
DAV:  26    -0.680268370655E+02    0.57134E-08   -0.53376E-10   648   0.184E-04
   1 F= -.68026837E+02 E0= -.68026837E+02  d E =-.680268E+02  mag=    -0.0000
       N       E                     dE             d eps       ncg     rms          rms(c)
DAV:   1    -0.680301275140E+02   -0.32904E-02   -0.70024E-02  1296   0.240E+00    0.499E-01
DAV:   2    -0.680272779735E+02    0.28495E-02   -0.62968E-03  1296   0.652E-01    0.297E-01
DAV:   3    -0.680270152114E+02    0.26276E-03   -0.23282E-03  1332   0.339E-01    0.107E-01
DAV:   4    -0.680268674972E+02    0.14771E-03   -0.11228E-04  1500   0.979E-02    0.890E-02
DAV:   5    -0.680268697248E+02   -0.22276E-05   -0.27650E-04  1560   0.106E-01    0.571E-02
DAV:   6    -0.680268409877E+02    0.28737E-04   -0.62002E-05  1452   0.584E-02    0.172E-02
DAV:   7    -0.680268495764E+02   -0.85887E-05   -0.70949E-05  1512   0.501E-02    0.220E-02
DAV:   8    -0.680268506206E+02   -0.10441E-05   -0.11677E-05  1380   0.259E-02    0.649E-03
DAV:   9    -0.680268508249E+02   -0.20435E-06   -0.55997E-06  1572   0.133E-02    0.122E-03
DAV:  10    -0.680268511364E+02   -0.31144E-06   -0.69154E-07  1296   0.435E-03    0.263E-03
DAV:  11    -0.680268506056E+02    0.53080E-06   -0.32849E-08   648   0.160E-03    0.212E-03
DAV:  12    -0.680268508657E+02   -0.26016E-06   -0.63506E-08   648   0.148E-03    0.131E-03
DAV:  13    -0.680268508435E+02    0.22233E-07   -0.12243E-07   648   0.210E-03
   2 F= -.68026851E+02 E0= -.68026851E+02  d E =-.137780E-04  mag=     0.0000
