 vasp.5.4.4.18Apr17-6-g9f103f2a35 (build Apr 27 2017 11:13:10) complex          
  
 executed on           IFC91_ompi date 2020.05.13  11:48:55
 running on   12 total cores
 distrk:  each k-point on   12 cores,    1 groups
 distr:  one band on NCORES_PER_BAND=   1 cores,   12 groups


--------------------------------------------------------------------------------------------------------


 INCAR:
 POTCAR:    PAW_PBE Mn_pv 02Aug2007               
 POTCAR:    PAW_PBE F 08Apr2002                   

 ----------------------------------------------------------------------------- 
|                                                                             |
|           W    W    AA    RRRRR   N    N  II  N    N   GGGG   !!!           |
|           W    W   A  A   R    R  NN   N  II  NN   N  G    G  !!!           |
|           W    W  A    A  R    R  N N  N  II  N N  N  G       !!!           |
|           W WW W  AAAAAA  RRRRR   N  N N  II  N  N N  G  GGG   !            |
|           WW  WW  A    A  R   R   N   NN  II  N   NN  G    G                |
|           W    W  A    A  R    R  N    N  II  N    N   GGGG   !!!           |
|                                                                             |
|      For optimal performance we recommend to set                            |
|        NCORE= 4 - approx SQRT( number of cores)                             |
|      NCORE specifies how many cores store one orbital (NPAR=cpu/NCORE).     |
|      This setting can  greatly improve the performance of VASP for DFT.     |
|      The default,   NCORE=1            might be grossly inefficient         |
|      on modern multi-core architectures or massively parallel machines.     |
|      Do your own testing !!!!                                               |
|      Unfortunately you need to use the default for GW and RPA calculations. |
|      (for HF NCORE is supported but not extensively tested yet)             |
|                                                                             |
 ----------------------------------------------------------------------------- 

 POTCAR:    PAW_PBE Mn_pv 02Aug2007               
   VRHFIN =Mn: 3p4s3d                                                           
   LEXCH  = PE                                                                  
   EATOM  =  2025.2664 eV,  148.8529 Ry                                         
                                                                                
   TITEL  = PAW_PBE Mn_pv 02Aug2007                                             
   LULTRA =        F    use ultrasoft PP ?                                      
   IUNSCR =        1    unscreen: 0-lin 1-nonlin 2-no                           
   RPACOR =    2.080    partial core radius                                     
   POMASS =   54.938; ZVAL   =   13.000    mass and valenz                      
   RCORE  =    2.300    outmost cutoff radius                                   
   RWIGS  =    2.500; RWIGS  =    1.323    wigner-seitz radius (au A)           
   ENMAX  =  269.864; ENMIN  =  202.398 eV                                      
   ICORE  =        3    local potential                                         
   LCOR   =        T    correct aug charges                                     
   LPAW   =        T    paw PP                                                  
   EAUG   =  569.085                                                            
   DEXC   =    0.000                                                            
   RMAX   =    2.343    core radius for proj-oper                               
   RAUG   =    1.300    factor for augmentation sphere                          
   RDEP   =    2.338    radius for radial grids                                 
   RDEPT  =    1.798    core radius for aug-charge                              
                                                                                
   Atomic configuration                                                         
    8 entries                                                                   
     n  l   j            E        occ.                                          
     1  0  0.50     -6424.8287   2.0000                                         
     2  0  0.50      -739.1154   2.0000                                         
     2  1  1.50      -625.3949   6.0000                                         
     3  0  0.50       -81.6100   2.0000                                         
     3  1  1.50       -50.4667   6.0000                                         
     3  2  2.50        -3.3745   6.0000                                         
     4  0  0.50        -4.1331   1.0000                                         
     4  3  2.50        -1.3606   0.0000                                         
   Description                                                                  
     l       E           TYP  RCUT    TYP  RCUT                                 
     1    -50.4666628     23  2.000                                             
     1     -1.3605826     23  2.000                                             
     2     -3.3744729     23  2.300                                             
     2     -4.7350555     23  2.300                                             
     0     -4.1331431     23  2.300                                             
     0      7.6656591     23  2.300                                             
     3      9.5240782     23  2.300                                             
  local pseudopotential read in
  partial core-charges read in
  partial kinetic energy density read in
  atomic valenz-charges read in
  non local Contribution for L=           1  read in
    real space projection operators read in
  non local Contribution for L=           1  read in
    real space projection operators read in
  non local Contribution for L=           2  read in
    real space projection operators read in
  non local Contribution for L=           2  read in
    real space projection operators read in
  non local Contribution for L=           0  read in
    real space projection operators read in
  non local Contribution for L=           0  read in
    real space projection operators read in
    PAW grid and wavefunctions read in
 
   number of l-projection  operators is LMAX  =           6
   number of lm-projection operators is LMMAX =          18
 
 POTCAR:    PAW_PBE F 08Apr2002                   
   VRHFIN =F: s2p5                                                              
   LEXCH  = PE                                                                  
   EATOM  =   659.6475 eV,   48.4827 Ry                                         
                                                                                
   TITEL  = PAW_PBE F 08Apr2002                                                 
   LULTRA =        F    use ultrasoft PP ?                                      
   IUNSCR =        1    unscreen: 0-lin 1-nonlin 2-no                           
   RPACOR =    1.200    partial core radius                                     
   POMASS =   18.998; ZVAL   =    7.000    mass and valenz                      
   RCORE  =    1.520    outmost cutoff radius                                   
   RWIGS  =    1.500; RWIGS  =    0.794    wigner-seitz radius (au A)           
   ENMAX  =  400.000; ENMIN  =  300.000 eV                                      
   ICORE  =        2    local potential                                         
   LCOR   =        T    correct aug charges                                     
   LPAW   =        T    paw PP                                                  
   EAUG   =  613.614                                                            
   RMAX   =    1.555    core radius for proj-oper                               
   RAUG   =    1.300    factor for augmentation sphere                          
   RDEP   =    1.539    radius for radial grids                                 
   RDEPT  =    1.299    core radius for aug-charge                              
                                                                                
   Atomic configuration                                                         
    4 entries                                                                   
     n  l   j            E        occ.                                          
     1  0  0.50      -663.3661   2.0000                                         
     2  0  0.50       -29.8995   2.0000                                         
     2  1  0.50       -11.1114   5.0000                                         
     3  2  1.50       -10.8847   0.0000                                         
   Description                                                                  
     l       E           TYP  RCUT    TYP  RCUT                                 
     0    -29.8995018     23  1.200                                             
     0     -9.5240782     23  1.200                                             
     1    -11.1113914     23  1.520                                             
     1      1.3605826     23  1.520                                             
     2    -10.8846608      7  1.500                                             
  local pseudopotential read in
  partial core-charges read in
  partial kinetic energy density read in
  atomic valenz-charges read in
  non local Contribution for L=           0  read in
    real space projection operators read in
  non local Contribution for L=           0  read in
    real space projection operators read in
  non local Contribution for L=           1  read in
    real space projection operators read in
  non local Contribution for L=           1  read in
    real space projection operators read in
    PAW grid and wavefunctions read in
 
   number of l-projection  operators is LMAX  =           4
   number of lm-projection operators is LMMAX =           8
 
  PAW_PBE Mn_pv 02Aug2007               :
 energy of atom  1       EATOM=-2025.2664
 kinetic energy error for atom=    0.0032 (will be added to EATOM!!)
  PAW_PBE F 08Apr2002                   :
 energy of atom  2       EATOM= -659.6475
 kinetic energy error for atom=    0.0198 (will be added to EATOM!!)
 
 
 POSCAR: Mn  F                                   
  positions in cartesian coordinates
  No initial velocities read in

 METAGGA = SCAN     LMAXTAU =  6    LMIXTAU =  F

 exchange correlation table for  LEXCH =        8
   RHO(1)=    0.500       N(1)  =     2000
   RHO(2)=  100.500       N(2)  =     4000
 


--------------------------------------------------------------------------------------------------------


 ion  position               nearest neighbor table
   1  0.500  0.500  0.500-   3 2.09   4 2.09   5 2.12   6 2.12   5 2.12   6 2.12
   2  0.000  0.000  0.000-   5 2.09   6 2.09   3 2.12   4 2.12   3 2.12   4 2.12
   3  0.196  0.804  0.500-   1 2.09   2 2.12   2 2.12
   4  0.804  0.196  0.500-   1 2.09   2 2.12   2 2.12
   5  0.304  0.304  0.000-   2 2.09   1 2.12   1 2.12
   6  0.696  0.696  0.000-   2 2.09   1 2.12   1 2.12
 
  LATTYP: Found a simple tetragonal cell.
 ALAT       =     4.8525685001
 C/A-ratio  =     0.6775817662
  
  Lattice vectors:
  
 A1 = (   4.8525685001,   0.0000000000,   0.0000000000)
 A2 = (   0.0000000000,   4.8525685001,   0.0000000000)
 A3 = (   0.0000000000,   0.0000000000,   3.2880119349)


Analysis of symmetry for initial positions (statically):
=====================================================================
 Subroutine PRICEL returns:
 Original cell was already a primitive cell.
 

 Routine SETGRP: Setting up the symmetry group for a 
 simple tetragonal supercell.


 Subroutine GETGRP returns: Found 16 space group operations
 (whereof  8 operations were pure point group operations)
 out of a pool of 16 trial point group operations.


The static configuration has the point symmetry D_2h.
 The point group associated with its full space group is D_4h.


Analysis of symmetry for dynamics (positions and initial velocities):
=====================================================================
 Subroutine PRICEL returns:
 Original cell was already a primitive cell.
 

 Routine SETGRP: Setting up the symmetry group for a 
 simple tetragonal supercell.


 Subroutine GETGRP returns: Found 16 space group operations
 (whereof  8 operations were pure point group operations)
 out of a pool of 16 trial point group operations.


The dynamic configuration has the point symmetry D_2h.
 The point group associated with its full space group is D_4h.


Analysis of structural, dynamic, and magnetic symmetry:
=====================================================================
 Subroutine PRICEL returns:
 Original cell was already a primitive cell.
 

 Routine SETGRP: Setting up the symmetry group for a 
 simple tetragonal supercell.


 Subroutine GETGRP returns: Found 16 space group operations
 (whereof  8 operations were pure point group operations)
 out of a pool of 16 trial point group operations.


The magnetic configuration has the point symmetry D_2h.
 The point group associated with its full space group is D_4h.


 Subroutine INISYM returns: Found 16 space group operations
 (whereof  8 operations are pure point group operations),
 and found     1 'primitive' translations

 
 
 KPOINTS: KPOINTS created by Atomic Simulation Env

Automatic generation of k-mesh.
Space group operators:
 irot       det(A)        alpha          n_x          n_y          n_z        tau_x        tau_y        tau_z
    1     1.000000     0.000000     1.000000     0.000000     0.000000     0.000000     0.000000     0.000000
    2    -1.000000     0.000000     1.000000     0.000000     0.000000     0.000000     0.000000     0.000000
    3     1.000000   180.000000     0.000000     0.000000     1.000000     0.000000     0.000000     0.000000
    4    -1.000000   180.000000     0.000000     0.000000     1.000000     0.000000     0.000000     0.000000
    5     1.000000   180.000000     0.707107     0.707107     0.000000     0.000000     0.000000     0.000000
    6    -1.000000   180.000000     0.707107     0.707107     0.000000     0.000000     0.000000     0.000000
    7     1.000000   180.000000     0.707107    -0.707107     0.000000     0.000000     0.000000     0.000000
    8    -1.000000   180.000000     0.707107    -0.707107     0.000000     0.000000     0.000000     0.000000
    9     1.000000    90.000000     0.000000     0.000000    -1.000000     0.500000     0.500000     0.500000
   10    -1.000000    90.000000     0.000000     0.000000    -1.000000     0.500000     0.500000     0.500000
   11     1.000000    90.000000     0.000000     0.000000     1.000000     0.500000     0.500000     0.500000
   12    -1.000000    90.000000     0.000000     0.000000     1.000000     0.500000     0.500000     0.500000
   13     1.000000   180.000000     0.000000     1.000000     0.000000     0.500000     0.500000     0.500000
   14    -1.000000   180.000000     0.000000     1.000000     0.000000     0.500000     0.500000     0.500000
   15     1.000000   180.000000     1.000000     0.000000     0.000000     0.500000     0.500000     0.500000
   16    -1.000000   180.000000     1.000000     0.000000     0.000000     0.500000     0.500000     0.500000
 
 Subroutine IBZKPT returns following result:
 ===========================================
 
 Found      9 irreducible k-points:
 
 Following reciprocal coordinates:
            Coordinates               Weight
  0.125000  0.125000  0.083333      8.000000
  0.375000  0.125000  0.083333     16.000000
  0.375000  0.375000  0.083333      8.000000
  0.125000  0.125000  0.250000      8.000000
  0.375000  0.125000  0.250000     16.000000
  0.375000  0.375000  0.250000      8.000000
  0.125000  0.125000  0.416667      8.000000
  0.375000  0.125000  0.416667     16.000000
  0.375000  0.375000  0.416667      8.000000
 
 Following cartesian coordinates:
            Coordinates               Weight
  0.025760  0.025760  0.025345      8.000000
  0.077279  0.025760  0.025345     16.000000
  0.077279  0.077279  0.025345      8.000000
  0.025760  0.025760  0.076034      8.000000
  0.077279  0.025760  0.076034     16.000000
  0.077279  0.077279  0.076034      8.000000
  0.025760  0.025760  0.126723      8.000000
  0.077279  0.025760  0.126723     16.000000
  0.077279  0.077279  0.126723      8.000000
 


--------------------------------------------------------------------------------------------------------




 Dimension of arrays:
   k-points           NKPTS =      9   k-points in BZ     NKDIM =      9   number of bands    NBANDS=     36
   number of dos      NEDOS =    301   number of ions     NIONS =      6
   non local maximal  LDIM  =      6   non local SUM 2l+1 LMDIM =     18
   total plane-waves  NPLWV =  21600
   max r-space proj   IRMAX =      1   max aug-charges    IRDMAX=  67912
   dimension x,y,z NGX =    30 NGY =   30 NGZ =   24
   dimension x,y,z NGXF=    60 NGYF=   60 NGZF=   48
   support grid    NGXF=   120 NGYF=  120 NGZF=   96
   ions per type =               2   4
   NGX,Y,Z   is equivalent  to a cutoff of  10.28, 10.28, 12.13 a.u.
   NGXF,Y,Z  is equivalent  to a cutoff of  20.56, 20.56, 24.27 a.u.

 SYSTEM =  unknown system                          
 POSCAR =  Mn  F                                   

 Startparameter for this run:
   NWRITE =      2    write-flag & timer
   PREC   = normal    normal or accurate (medium, high low for compatibility)
   ISTART =      0    job   : 0-new  1-cont  2-samecut
   ICHARG =      2    charge: 1-file 2-atom 10-const
   ISPIN  =      2    spin polarized calculation?
   LNONCOLLINEAR =      F non collinear calculations
   LSORBIT =      F    spin-orbit coupling
   INIWAV =      1    electr: 0-lowe 1-rand  2-diag
   LASPH  =      T    aspherical Exc in radial PAW
   METAGGA=      F    non-selfconsistent MetaGGA calc.

 Electronic Relaxation 1
   ENCUT  =  650.0 eV  47.77 Ry    6.91 a.u.  10.09 10.09  6.84*2*pi/ulx,y,z
   ENINI  =  650.0     initial cutoff
   ENAUG  =  613.6 eV  augmentation charge cutoff
   NELM   =     60;   NELMIN=  2; NELMDL= -5     # of ELM steps 
   EDIFF  = 0.1E-06   stopping-criterion for ELM
   LREAL  =      F    real-space projection
   NLSPLINE    = F    spline interpolate recip. space projectors
   LCOMPAT=      F    compatible to vasp.4.4
   GGA_COMPAT  = T    GGA compatible to vasp.4.4-vasp.4.6
   LMAXPAW     = -100 max onsite density
   LMAXMIX     =    4 max onsite mixed and CHGCAR
   VOSKOWN=      0    Vosko Wilk Nusair interpolation
   ROPT   =    0.00000   0.00000
 Ionic relaxation
   EDIFFG = -.5E-02   stopping-criterion for IOM
   NSW    =     50    number of steps for IOM
   NBLOCK =      1;   KBLOCK =     50    inner block; outer block 
   IBRION =      2    ionic relax: 0-MD 1-quasi-New 2-CG
   NFREE  =      1    steps in history (QN), initial steepest desc. (CG)
   ISIF   =      3    stress and relaxation
   IWAVPR =     11    prediction:  0-non 1-charg 2-wave 3-comb
   ISYM   =      2    0-nonsym 1-usesym 2-fastsym
   LCORR  =      T    Harris-Foulkes like correction to forces

   POTIM  = 0.5000    time-step for ionic-motion
   TEIN   =    0.0    initial temperature
   TEBEG  =    0.0;   TEEND  =   0.0 temperature during run
   SMASS  =  -3.00    Nose mass-parameter (am)
   estimated Nose-frequenzy (Omega)   =  0.10E-29 period in steps =****** mass=  -0.538E-27a.u.
   SCALEE = 1.0000    scale energy and forces
   NPACO  =    256;   APACO  = 16.0  distance and # of slots for P.C.
   PSTRESS=    0.0 pullay stress

  Mass of Ions in am
   POMASS =  54.94 19.00
  Ionic Valenz
   ZVAL   =  13.00  7.00
  Atomic Wigner-Seitz radii
   RWIGS  =  -1.00 -1.00
  virtual crystal weights 
   VCA    =   1.00  1.00
   NELECT =      54.0000    total number of electrons
   NUPDOWN=      -1.0000    fix difference up-down

 DOS related values:
   EMIN   =  10.00;   EMAX   =-10.00  energy-range for DOS
   EFERMI =   0.00
   ISMEAR =     0;   SIGMA  =   0.02  broadening in eV -4-tet -1-fermi 0-gaus

 Electronic relaxation 2 (details)
   IALGO  =     38    algorithm
   LDIAG  =      T    sub-space diagonalisation (order eigenvalues)
   LSUBROT=      F    optimize rotation matrix (better conditioning)
   TURBO    =      0    0=normal 1=particle mesh
   IRESTART =      0    0=no restart 2=restart with 2 vectors
   NREBOOT  =      0    no. of reboots
   NMIN     =      0    reboot dimension
   EREF     =   0.00    reference energy to select bands
   IMIX   =      4    mixing-type and parameters
     AMIX     =   0.40;   BMIX     =  1.00
     AMIX_MAG =   1.60;   BMIX_MAG =  1.00
     AMIN     =   0.10
     WC   =   100.;   INIMIX=   1;  MIXPRE=   1;  MAXMIX= -45

 Intra band minimization:
   WEIMIN = 0.0010     energy-eigenvalue tresh-hold
   EBREAK =  0.69E-09  absolut break condition
   DEPER  =   0.30     relativ break condition  

   TIME   =   0.40     timestep for ELM

  volume/ion in A,a.u.               =      12.90        87.08
  Fermi-wavevector in a.u.,A,eV,Ry     =   1.451824  2.743549 28.678246  2.107792
  Thomas-Fermi vector in A             =   2.569276
 
 Write flags
   LWAVE        =      F    write WAVECAR
   LDOWNSAMPLE  =      F    k-point downsampling of WAVECAR
   LCHARG       =      F    write CHGCAR
   LVTOT        =      F    write LOCPOT, total local potential
   LVHAR        =      F    write LOCPOT, Hartree potential only
   LELF         =      F    write electronic localiz. function (ELF)
   LORBIT       =     11    0 simple, 1 ext, 2 COOP (PROOUT), +10 PAW based schemes


 Dipole corrections
   LMONO  =      F    monopole corrections only (constant potential shift)
   LDIPOL =      F    correct potential (dipole corrections)
   IDIPOL =      0    1-x, 2-y, 3-z, 4-all directions 
   EPSILON=  1.0000000 bulk dielectric constant

 LDA+U is selected, type is set to LDAUTYPE =  2
   angular momentum for each species LDAUL =     2   -1
   U (eV)           for each species LDAUU =   0.0  0.0
   J (eV)           for each species LDAUJ =   0.0  0.0
 Exchange correlation treatment:
   GGA     =    --    GGA type
   LEXCH   =     8    internal setting for exchange type
   VOSKOWN=      0    Vosko Wilk Nusair interpolation
   LHFCALC =     F    Hartree Fock is set to
   LHFONE  =     F    Hartree Fock one center treatment
   AEXX    =    0.0000 exact exchange contribution

 Linear response parameters
   LEPSILON=     F    determine dielectric tensor
   LRPA    =     F    only Hartree local field effects (RPA)
   LNABLA  =     F    use nabla operator in PAW spheres
   LVEL    =     F    velocity operator in full k-point grid
   LINTERFAST=   F  fast interpolation
   KINTER  =     0    interpolate to denser k-point grid
   CSHIFT  =0.1000    complex shift for real part using Kramers Kronig
   OMEGAMAX=  -1.0    maximum frequency
   DEG_THRESHOLD= 0.2000000E-02 threshold for treating states as degnerate
   RTIME   =   -0.100 relaxation time in fs
  (WPLASMAI=    0.000 imaginary part of plasma frequency in eV, 0.658/RTIME)
   DFIELD  = 0.0000000 0.0000000 0.0000000 field for delta impulse in time
 
 Orbital magnetization related:
   ORBITALMAG=     F  switch on orbital magnetization
   LCHIMAG   =     F  perturbation theory with respect to B field
   DQ        =  0.001000  dq finite difference perturbation B field
   LLRAUG    =     F  two centre corrections for induced B field



--------------------------------------------------------------------------------------------------------


 conjugate gradient relaxation of ions
 charge density and potential will be updated during run
 spin polarized calculation
 Variant of blocked Davidson
 Davidson routine will perform the subspace rotation
 perform sub-space diagonalisation
    after iterative eigenvector-optimisation
 modified Broyden-mixing scheme, WC =      100.0
 initial mixing is a Kerker type mixing with AMIX =  0.4000 and BMIX =      1.0000
 Hartree-type preconditioning will be used
 using additional bands            9
 reciprocal scheme for non local part
 use partial core corrections
 calculate Harris-corrections to forces 
   (improved forces if not selfconsistent)
 use gradient corrections 
 use of overlap-Matrix (Vanderbilt PP)
 Gauss-broadening in eV      SIGMA  =   0.02


--------------------------------------------------------------------------------------------------------


  energy-cutoff  :      650.00
  volume of cell :       77.42
      direct lattice vectors                 reciprocal lattice vectors
     4.852568500  0.000000000  0.000000000     0.206076431  0.000000000  0.000000000
     0.000000000  4.852568500  0.000000000     0.000000000  0.206076431  0.000000000
     0.000000000  0.000000000  3.288011935     0.000000000  0.000000000  0.304135149

  length of vectors
     4.852568500  4.852568500  3.288011935     0.206076431  0.206076431  0.304135149


 
 k-points in units of 2pi/SCALE and weight: KPOINTS created by Atomic Simulation Env
   0.02575955  0.02575955  0.02534460       0.083
   0.07727866  0.02575955  0.02534460       0.167
   0.07727866  0.07727866  0.02534460       0.083
   0.02575955  0.02575955  0.07603379       0.083
   0.07727866  0.02575955  0.07603379       0.167
   0.07727866  0.07727866  0.07603379       0.083
   0.02575955  0.02575955  0.12672298       0.083
   0.07727866  0.02575955  0.12672298       0.167
   0.07727866  0.07727866  0.12672298       0.083
 
 k-points in reciprocal lattice and weights: KPOINTS created by Atomic Simulation Env
   0.12500000  0.12500000  0.08333333       0.083
   0.37500000  0.12500000  0.08333333       0.167
   0.37500000  0.37500000  0.08333333       0.083
   0.12500000  0.12500000  0.25000000       0.083
   0.37500000  0.12500000  0.25000000       0.167
   0.37500000  0.37500000  0.25000000       0.083
   0.12500000  0.12500000  0.41666667       0.083
   0.37500000  0.12500000  0.41666667       0.167
   0.37500000  0.37500000  0.41666667       0.083
 
 position of ions in fractional coordinates (direct lattice) 
   0.50000000  0.50000000  0.50000000
   0.00000000  0.00000000  0.00000000
   0.19609954  0.80390046  0.50000000
   0.80390046  0.19609954  0.50000000
   0.30390046  0.30390046  0.00000000
   0.69609954  0.69609954  0.00000000
 
 position of ions in cartesian coordinates  (Angst):
   2.42628425  2.42628425  1.64400597
   0.00000000  0.00000000  0.00000000
   0.95158645  3.90098205  1.64400597
   3.90098205  0.95158645  1.64400597
   1.47469780  1.47469780  0.00000000
   3.37787070  3.37787070  0.00000000
 


--------------------------------------------------------------------------------------------------------


 k-point  1 :   0.1250 0.1250 0.0833  plane waves:    2898
 k-point  2 :   0.3750 0.1250 0.0833  plane waves:    2907
 k-point  3 :   0.3750 0.3750 0.0833  plane waves:    2914
 k-point  4 :   0.1250 0.1250 0.2500  plane waves:    2918
 k-point  5 :   0.3750 0.1250 0.2500  plane waves:    2913
 k-point  6 :   0.3750 0.3750 0.2500  plane waves:    2915
 k-point  7 :   0.1250 0.1250 0.4167  plane waves:    2911
 k-point  8 :   0.3750 0.1250 0.4167  plane waves:    2921
 k-point  9 :   0.3750 0.3750 0.4167  plane waves:    2921

 maximum and minimum number of plane-waves per node :      2921     2898

 maximum number of plane-waves:      2921
 maximum index in each direction: 
   IXMAX=    9   IYMAX=    9   IZMAX=    6
   IXMIN=  -10   IYMIN=  -10   IZMIN=   -7


 serial   3D FFT for wavefunctions
 parallel 3D FFT for charge:
    minimum data exchange during FFTs selected (reduces bandwidth)


 total amount of memory used by VASP MPI-rank0    47457. kBytes
=======================================================================

   base      :      30000. kBytes
   nonl-proj :       7870. kBytes
   fftplans  :       2240. kBytes
   grid      :       4569. kBytes
   one-center:        186. kBytes
   wavefun   :       2592. kBytes
 
     INWAV:  cpu time    0.0000: real time    0.0000
 Broyden mixing: mesh for mixing (old mesh)
   NGX = 21   NGY = 21   NGZ = 13
  (NGX  = 60   NGY  = 60   NGZ  = 48)
  gives a total of   5733 points

 initial charge density was supplied:
 charge density of overlapping atoms calculated
 number of electron      54.0000000 magnetization       0.0000000
 keeping initial charge density in first step


--------------------------------------------------------------------------------------------------------


 Maximum index for augmentation-charges         5171 (set IRDMAX)


--------------------------------------------------------------------------------------------------------


 First call to EWALD:  gamma=   0.416
 Maximum number of real-space cells 2x 2x 3
 Maximum number of reciprocal cells 3x 3x 2

    FEWALD:  cpu time    0.0010: real time    0.0010


--------------------------------------- Iteration      1(   1)  ---------------------------------------


    POTLOK:  cpu time    0.0427: real time    0.0427
    SETDIJ:  cpu time    0.9184: real time    0.9184
atom =   1  type =  1  l = 2
 
 onsite density matrix
 
spin component  1
 
  0.2835  0.0000  0.0000  0.0000  0.0000
  0.0000  0.2835  0.0000  0.0000  0.0000
  0.0000  0.0000  0.2835  0.0000  0.0000
  0.0000  0.0000  0.0000  0.2835  0.0000
  0.0000  0.0000  0.0000  0.0000  0.2835
 
spin component  2
 
  0.7694  0.0000  0.0000  0.0000  0.0000
  0.0000  0.7694  0.0000  0.0000  0.0000
  0.0000  0.0000  0.7694  0.0000  0.0000
  0.0000  0.0000  0.0000  0.7694  0.0000
  0.0000  0.0000  0.0000  0.0000  0.7694
 
 occupancies and eigenvectors
 
  o =  0.2835  v =  1.0000  0.0000  0.0000  0.0000  0.0000  0.0000  0.0000  0.0000  0.0000  0.0000      0.0000  0.0000  0.0000  0.0000  0.0000  0.0000  0.0000  0.0000  0.0000  0.0000
  o =  0.2835  v =  0.0000  1.0000  0.0000  0.0000  0.0000  0.0000  0.0000  0.0000  0.0000  0.0000      0.0000  0.0000  0.0000  0.0000  0.0000  0.0000  0.0000  0.0000  0.0000  0.0000
  o =  0.2835  v =  0.0000  0.0000  1.0000  0.0000  0.0000  0.0000  0.0000  0.0000  0.0000  0.0000      0.0000  0.0000  0.0000  0.0000  0.0000  0.0000  0.0000  0.0000  0.0000  0.0000
  o =  0.2835  v =  0.0000  0.0000  0.0000  1.0000  0.0000  0.0000  0.0000  0.0000  0.0000  0.0000      0.0000  0.0000  0.0000  0.0000  0.0000  0.0000  0.0000  0.0000  0.0000  0.0000
  o =  0.2835  v =  0.0000  0.0000  0.0000  0.0000  1.0000  0.0000  0.0000  0.0000  0.0000  0.0000      0.0000  0.0000  0.0000  0.0000  0.0000  0.0000  0.0000  0.0000  0.0000  0.0000
  o =  0.7694  v =  0.0000  0.0000  0.0000  0.0000  0.0000  1.0000  0.0000  0.0000  0.0000  0.0000      0.0000  0.0000  0.0000  0.0000  0.0000  0.0000  0.0000  0.0000  0.0000  0.0000
  o =  0.7694  v =  0.0000  0.0000  0.0000  0.0000  0.0000  0.0000  1.0000  0.0000  0.0000  0.0000      0.0000  0.0000  0.0000  0.0000  0.0000  0.0000  0.0000  0.0000  0.0000  0.0000
  o =  0.7694  v =  0.0000  0.0000  0.0000  0.0000  0.0000  0.0000  0.0000  1.0000  0.0000  0.0000      0.0000  0.0000  0.0000  0.0000  0.0000  0.0000  0.0000  0.0000  0.0000  0.0000
  o =  0.7694  v =  0.0000  0.0000  0.0000  0.0000  0.0000  0.0000  0.0000  0.0000  1.0000  0.0000      0.0000  0.0000  0.0000  0.0000  0.0000  0.0000  0.0000  0.0000  0.0000  0.0000
  o =  0.7694  v =  0.0000  0.0000  0.0000  0.0000  0.0000  0.0000  0.0000  0.0000  0.0000  1.0000      0.0000  0.0000  0.0000  0.0000  0.0000  0.0000  0.0000  0.0000  0.0000  0.0000
atom =   2  type =  1  l = 2
 
 onsite density matrix
 
spin component  1
 
  0.7694  0.0000  0.0000  0.0000  0.0000
  0.0000  0.7694  0.0000  0.0000  0.0000
  0.0000  0.0000  0.7694  0.0000  0.0000
  0.0000  0.0000  0.0000  0.7694  0.0000
  0.0000  0.0000  0.0000  0.0000  0.7694
 
spin component  2
 
  0.2835  0.0000  0.0000  0.0000  0.0000
  0.0000  0.2835  0.0000  0.0000  0.0000
  0.0000  0.0000  0.2835  0.0000  0.0000
  0.0000  0.0000  0.0000  0.2835  0.0000
  0.0000  0.0000  0.0000  0.0000  0.2835
 
 occupancies and eigenvectors
 
  o =  0.2835  v =  0.0000  0.0000  0.0000  0.0000  0.0000  1.0000  0.0000  0.0000  0.0000  0.0000      0.0000  0.0000  0.0000  0.0000  0.0000  0.0000  0.0000  0.0000  0.0000  0.0000
  o =  0.2835  v =  0.0000  0.0000  0.0000  0.0000  0.0000  0.0000  1.0000  0.0000  0.0000  0.0000      0.0000  0.0000  0.0000  0.0000  0.0000  0.0000  0.0000  0.0000  0.0000  0.0000
  o =  0.2835  v =  0.0000  0.0000  0.0000  0.0000  0.0000  0.0000  0.0000  1.0000  0.0000  0.0000      0.0000  0.0000  0.0000  0.0000  0.0000  0.0000  0.0000  0.0000  0.0000  0.0000
  o =  0.2835  v =  0.0000  0.0000  0.0000  0.0000  0.0000  0.0000  0.0000  0.0000  1.0000  0.0000      0.0000  0.0000  0.0000  0.0000  0.0000  0.0000  0.0000  0.0000  0.0000  0.0000
  o =  0.2835  v =  0.0000  0.0000  0.0000  0.0000  0.0000  0.0000  0.0000  0.0000  0.0000  1.0000      0.0000  0.0000  0.0000  0.0000  0.0000  0.0000  0.0000  0.0000  0.0000  0.0000
  o =  0.7694  v =  1.0000  0.0000  0.0000  0.0000  0.0000  0.0000  0.0000  0.0000  0.0000  0.0000      0.0000  0.0000  0.0000  0.0000  0.0000  0.0000  0.0000  0.0000  0.0000  0.0000
  o =  0.7694  v =  0.0000  1.0000  0.0000  0.0000  0.0000  0.0000  0.0000  0.0000  0.0000  0.0000      0.0000  0.0000  0.0000  0.0000  0.0000  0.0000  0.0000  0.0000  0.0000  0.0000
  o =  0.7694  v =  0.0000  0.0000  1.0000  0.0000  0.0000  0.0000  0.0000  0.0000  0.0000  0.0000      0.0000  0.0000  0.0000  0.0000  0.0000  0.0000  0.0000  0.0000  0.0000  0.0000
  o =  0.7694  v =  0.0000  0.0000  0.0000  1.0000  0.0000  0.0000  0.0000  0.0000  0.0000  0.0000      0.0000  0.0000  0.0000  0.0000  0.0000  0.0000  0.0000  0.0000  0.0000  0.0000
  o =  0.7694  v =  0.0000  0.0000  0.0000  0.0000  1.0000  0.0000  0.0000  0.0000  0.0000  0.0000      0.0000  0.0000  0.0000  0.0000  0.0000  0.0000  0.0000  0.0000  0.0000  0.0000
     EDDAV:  cpu time    0.8552: real time    0.8884
       DOS:  cpu time    0.0004: real time    0.0004
    --------------------------------------------
      LOOP:  cpu time    1.8167: real time    1.8499

 eigenvalue-minimisations  :  1308
 total energy-change (2. order) : 0.9899723E+03  (-0.3921541E+04)
 number of electron      54.0000000 magnetization      -0.0000000
 augmentation part       54.0000000 magnetization      -0.0000000

 Free energy of the ion-electron system (eV)
  ---------------------------------------------------
  alpha Z        PSCENC =       199.38838823
  Ewald energy   TEWEN  =     -4203.06823030
  -Hartree energ DENC   =     -2130.62061718
  -exchange      EXHF   =         0.00000000
  -V(xc)+E(xc)   XCENC  =        -3.96111954
  PAW double counting   =      5566.43601843    -5528.13058630
  entropy T*S    EENTRO =        -0.00108761
  eigenvalues    EBANDS =       400.89237021
  atomic energy  EATOM  =      6689.03721073
  Solvation  Ediel_sol  =         0.00000000
  ---------------------------------------------------
  free energy    TOTEN  =       989.97234669 eV

  energy without entropy =      989.97343429  energy(sigma->0) =      989.97289049


--------------------------------------------------------------------------------------------------------




--------------------------------------- Iteration      1(   2)  ---------------------------------------


     EDDAV:  cpu time    0.9198: real time    0.9198
       DOS:  cpu time    0.0004: real time    0.0004
    --------------------------------------------
      LOOP:  cpu time    0.9202: real time    0.9202

 eigenvalue-minimisations  :  1500
 total energy-change (2. order) :-0.5765403E+03  (-0.5529427E+03)
 number of electron      54.0000000 magnetization      -0.0000000
 augmentation part       54.0000000 magnetization      -0.0000000

 Free energy of the ion-electron system (eV)
  ---------------------------------------------------
  alpha Z        PSCENC =       199.38838823
  Ewald energy   TEWEN  =     -4203.06823030
  -Hartree energ DENC   =     -2130.62061718
  -exchange      EXHF   =         0.00000000
  -V(xc)+E(xc)   XCENC  =        -3.96111954
  PAW double counting   =      5566.43601843    -5528.13058630
  entropy T*S    EENTRO =        -0.00276151
  eigenvalues    EBANDS =      -175.64627513
  atomic energy  EATOM  =      6689.03721073
  Solvation  Ediel_sol  =         0.00000000
  ---------------------------------------------------
  free energy    TOTEN  =       413.43202744 eV

  energy without entropy =      413.43478896  energy(sigma->0) =      413.43340820


--------------------------------------------------------------------------------------------------------




--------------------------------------- Iteration      1(   3)  ---------------------------------------


     EDDAV:  cpu time    0.8855: real time    0.8856
       DOS:  cpu time    0.0002: real time    0.0002
    --------------------------------------------
      LOOP:  cpu time    0.8857: real time    0.8857

 eigenvalue-minimisations  :  1416
 total energy-change (2. order) :-0.3780501E+02  (-0.3705283E+02)
 number of electron      54.0000000 magnetization      -0.0000000
 augmentation part       54.0000000 magnetization      -0.0000000

 Free energy of the ion-electron system (eV)
  ---------------------------------------------------
  alpha Z        PSCENC =       199.38838823
  Ewald energy   TEWEN  =     -4203.06823030
  -Hartree energ DENC   =     -2130.62061718
  -exchange      EXHF   =         0.00000000
  -V(xc)+E(xc)   XCENC  =        -3.96111954
  PAW double counting   =      5566.43601843    -5528.13058630
  entropy T*S    EENTRO =        -0.00000000
  eigenvalues    EBANDS =      -213.45404850
  atomic energy  EATOM  =      6689.03721073
  Solvation  Ediel_sol  =         0.00000000
  ---------------------------------------------------
  free energy    TOTEN  =       375.62701558 eV

  energy without entropy =      375.62701558  energy(sigma->0) =      375.62701558


--------------------------------------------------------------------------------------------------------




--------------------------------------- Iteration      1(   4)  ---------------------------------------


     EDDAV:  cpu time    0.9702: real time    0.9702
       DOS:  cpu time    0.0002: real time    0.0002
    --------------------------------------------
      LOOP:  cpu time    0.9704: real time    0.9704

 eigenvalue-minimisations  :  1596
 total energy-change (2. order) :-0.5612902E+00  (-0.5603650E+00)
 number of electron      54.0000000 magnetization      -0.0000000
 augmentation part       54.0000000 magnetization      -0.0000000

 Free energy of the ion-electron system (eV)
  ---------------------------------------------------
  alpha Z        PSCENC =       199.38838823
  Ewald energy   TEWEN  =     -4203.06823030
  -Hartree energ DENC   =     -2130.62061718
  -exchange      EXHF   =         0.00000000
  -V(xc)+E(xc)   XCENC  =        -3.96111954
  PAW double counting   =      5566.43601843    -5528.13058630
  entropy T*S    EENTRO =        -0.00000000
  eigenvalues    EBANDS =      -214.01533867
  atomic energy  EATOM  =      6689.03721073
  Solvation  Ediel_sol  =         0.00000000
  ---------------------------------------------------
  free energy    TOTEN  =       375.06572542 eV

  energy without entropy =      375.06572542  energy(sigma->0) =      375.06572542


--------------------------------------------------------------------------------------------------------




--------------------------------------- Iteration      1(   5)  ---------------------------------------


     EDDAV:  cpu time    0.8946: real time    0.8946
       DOS:  cpu time    0.0002: real time    0.0002
    CHARGE:  cpu time    0.1830: real time    0.1830
    MIXING:  cpu time    0.0006: real time    0.0006
    --------------------------------------------
      LOOP:  cpu time    1.0784: real time    1.0784

 eigenvalue-minimisations  :  1428
 total energy-change (2. order) :-0.8568022E-02  (-0.8567554E-02)
 number of electron      54.0000002 magnetization       0.0000000
 augmentation part       22.7472091 magnetization       0.0000000

 Broyden mixing:
  rms(total) = 0.58918E+01    rms(broyden)= 0.58916E+01
  rms(prec ) = 0.61503E+01
  weight for this iteration     100.00

 Free energy of the ion-electron system (eV)
  ---------------------------------------------------
  alpha Z        PSCENC =       199.38838823
  Ewald energy   TEWEN  =     -4203.06823030
  -Hartree energ DENC   =     -2130.62061718
  -exchange      EXHF   =         0.00000000
  -V(xc)+E(xc)   XCENC  =        -3.96111954
  PAW double counting   =      5566.43601843    -5528.13058630
  entropy T*S    EENTRO =        -0.00000000
  eigenvalues    EBANDS =      -214.02390669
  atomic energy  EATOM  =      6689.03721073
  Solvation  Ediel_sol  =         0.00000000
  ---------------------------------------------------
  free energy    TOTEN  =       375.05715740 eV

  energy without entropy =      375.05715740  energy(sigma->0) =      375.05715740


--------------------------------------------------------------------------------------------------------




--------------------------------------- Iteration      1(   6)  ---------------------------------------


    POTLOK:  cpu time    0.0400: real time    0.0400
    SETDIJ:  cpu time    0.8047: real time    0.8047
atom =   1  type =  1  l = 2
 
 onsite density matrix
 
spin component  1
 
  0.0424  0.0000  0.0701  0.0000  0.0000
  0.0000  0.0130  0.0000  0.0650  0.0000
  0.0701  0.0000 -0.0005  0.0000  0.0000
  0.0000  0.0650  0.0000  0.0130  0.0000
  0.0000  0.0000  0.0000  0.0000 -0.0715
 
spin component  2
 
  1.0525  0.0000 -0.0344  0.0000 -0.0000
  0.0000  1.0680  0.0000 -0.0322  0.0000
 -0.0344  0.0000  1.0736  0.0000  0.0000
  0.0000 -0.0322  0.0000  1.0680  0.0000
 -0.0000  0.0000  0.0000  0.0000  1.1099
 
 occupancies and eigenvectors
 
  o = -0.0715  v =  0.0000 -0.0000 -0.0000  0.0000  1.0000  0.0000  0.0000  0.0000  0.0000  0.0000      0.0000  0.0000  0.0000  0.0000  0.0000  0.0000  0.0000  0.0000  0.0000  0.0000
  o = -0.0524  v = -0.5948 -0.0000  0.8039  0.0000  0.0000  0.0000  0.0000  0.0000  0.0000  0.0000      0.0000  0.0000  0.0000  0.0000  0.0000  0.0000  0.0000  0.0000  0.0000  0.0000
  o = -0.0520  v =  0.0000 -0.7071 -0.0000  0.7071 -0.0000  0.0000  0.0000  0.0000  0.0000  0.0000      0.0000  0.0000  0.0000  0.0000  0.0000  0.0000  0.0000  0.0000  0.0000  0.0000
  o =  0.0780  v = -0.0000  0.7071 -0.0000  0.7071 -0.0000  0.0000  0.0000  0.0000  0.0000  0.0000      0.0000  0.0000  0.0000  0.0000  0.0000  0.0000  0.0000  0.0000  0.0000  0.0000
  o =  0.0943  v = -0.8039 -0.0000 -0.5948 -0.0000 -0.0000  0.0000  0.0000  0.0000  0.0000  0.0000      0.0000  0.0000  0.0000  0.0000  0.0000  0.0000  0.0000  0.0000  0.0000  0.0000
  o =  1.0271  v =  0.0000  0.0000  0.0000  0.0000  0.0000  0.8044 -0.0000  0.5941  0.0000 -0.0000      0.0000  0.0000  0.0000  0.0000  0.0000  0.0000  0.0000  0.0000  0.0000  0.0000
  o =  1.0358  v =  0.0000  0.0000  0.0000  0.0000  0.0000  0.0000 -0.7071  0.0000 -0.7071  0.0000      0.0000  0.0000  0.0000  0.0000  0.0000  0.0000  0.0000  0.0000  0.0000  0.0000
  o =  1.0990  v =  0.0000  0.0000  0.0000  0.0000  0.0000  0.5941  0.0000 -0.8044  0.0000  0.0000      0.0000  0.0000  0.0000  0.0000  0.0000  0.0000  0.0000  0.0000  0.0000  0.0000
  o =  1.1002  v =  0.0000  0.0000  0.0000  0.0000  0.0000  0.0000 -0.7071  0.0000  0.7071  0.0000      0.0000  0.0000  0.0000  0.0000  0.0000  0.0000  0.0000  0.0000  0.0000  0.0000
  o =  1.1099  v =  0.0000  0.0000  0.0000  0.0000  0.0000  0.0000 -0.0000 -0.0000  0.0000 -1.0000      0.0000  0.0000  0.0000  0.0000  0.0000  0.0000  0.0000  0.0000  0.0000  0.0000
atom =   2  type =  1  l = 2
 
 onsite density matrix
 
spin component  1
 
  1.0525  0.0000  0.0344  0.0000  0.0000
  0.0000  1.0680  0.0000  0.0322  0.0000
  0.0344  0.0000  1.0736  0.0000  0.0000
  0.0000  0.0322  0.0000  1.0680  0.0000
  0.0000  0.0000  0.0000  0.0000  1.1099
 
spin component  2
 
  0.0424  0.0000 -0.0701  0.0000 -0.0000
  0.0000  0.0130  0.0000 -0.0650  0.0000
 -0.0701  0.0000 -0.0005  0.0000 -0.0000
  0.0000 -0.0650  0.0000  0.0130  0.0000
 -0.0000  0.0000 -0.0000  0.0000 -0.0715
 
 occupancies and eigenvectors
 
  o = -0.0715  v =  0.0000  0.0000  0.0000  0.0000  0.0000  0.0000  0.0000  0.0000  0.0000  1.0000      0.0000  0.0000  0.0000  0.0000  0.0000  0.0000  0.0000  0.0000  0.0000  0.0000
  o = -0.0524  v =  0.0000  0.0000  0.0000  0.0000  0.0000 -0.5948  0.0000 -0.8039  0.0000  0.0000      0.0000  0.0000  0.0000  0.0000  0.0000  0.0000  0.0000  0.0000  0.0000  0.0000
  o = -0.0520  v =  0.0000  0.0000  0.0000  0.0000  0.0000  0.0000 -0.7071  0.0000 -0.7071  0.0000      0.0000  0.0000  0.0000  0.0000  0.0000  0.0000  0.0000  0.0000  0.0000  0.0000
  o =  0.0780  v =  0.0000  0.0000  0.0000  0.0000  0.0000  0.0000  0.7071  0.0000 -0.7071 -0.0000      0.0000  0.0000  0.0000  0.0000  0.0000  0.0000  0.0000  0.0000  0.0000  0.0000
  o =  0.0943  v =  0.0000  0.0000  0.0000  0.0000  0.0000  0.8039  0.0000 -0.5948  0.0000  0.0000      0.0000  0.0000  0.0000  0.0000  0.0000  0.0000  0.0000  0.0000  0.0000  0.0000
  o =  1.0271  v =  0.8044 -0.0000 -0.5941  0.0000  0.0000  0.0000  0.0000  0.0000  0.0000  0.0000      0.0000  0.0000  0.0000  0.0000  0.0000  0.0000  0.0000  0.0000  0.0000  0.0000
  o =  1.0358  v =  0.0000  0.7071  0.0000 -0.7071  0.0000  0.0000  0.0000  0.0000  0.0000  0.0000      0.0000  0.0000  0.0000  0.0000  0.0000  0.0000  0.0000  0.0000  0.0000  0.0000
  o =  1.0990  v =  0.5941  0.0000  0.8044  0.0000 -0.0000  0.0000  0.0000  0.0000  0.0000  0.0000      0.0000  0.0000  0.0000  0.0000  0.0000  0.0000  0.0000  0.0000  0.0000  0.0000
  o =  1.1002  v =  0.0000 -0.7071  0.0000 -0.7071 -0.0000  0.0000  0.0000  0.0000  0.0000  0.0000      0.0000  0.0000  0.0000  0.0000  0.0000  0.0000  0.0000  0.0000  0.0000  0.0000
  o =  1.1099  v =  0.0000 -0.0000  0.0000  0.0000  1.0000  0.0000  0.0000  0.0000  0.0000  0.0000      0.0000  0.0000  0.0000  0.0000  0.0000  0.0000  0.0000  0.0000  0.0000  0.0000
     EDDAV:  cpu time    0.9663: real time    0.9663
       DOS:  cpu time    0.0004: real time    0.0004
    CHARGE:  cpu time    0.1807: real time    0.1807
    MIXING:  cpu time    0.0006: real time    0.0006
    --------------------------------------------
      LOOP:  cpu time    1.9926: real time    1.9926

 eigenvalue-minimisations  :  1596
 total energy-change (2. order) :-0.4437155E+03  (-0.2983142E+02)
 number of electron      54.0000002 magnetization       0.0000000
 augmentation part       19.6311911 magnetization       0.0000000

 Broyden mixing:
  rms(total) = 0.63085E+01    rms(broyden)= 0.63084E+01
  rms(prec ) = 0.67982E+01
  weight for this iteration     100.00

 eigenvalues of (default mixing * dielectric matrix)
  average eigenvalue GAMMA=   0.4164
  0.4164

 Free energy of the ion-electron system (eV)
  ---------------------------------------------------
  alpha Z        PSCENC =       199.38838823
  Ewald energy   TEWEN  =     -4203.06823030
  -Hartree energ DENC   =     -2206.14623253
  -exchange      EXHF   =         0.00000000
  -V(xc)+E(xc)   XCENC  =       144.54507777
  PAW double counting   =      6439.82034475    -6406.27678184
  entropy T*S    EENTRO =        -0.00124598
  eigenvalues    EBANDS =      -725.95683490
  atomic energy  EATOM  =      6689.03721073
  Solvation  Ediel_sol  =         0.00000000
  ---------------------------------------------------
  free energy    TOTEN  =       -68.65830407 eV

  energy without entropy =      -68.65705809  energy(sigma->0) =      -68.65768108


--------------------------------------------------------------------------------------------------------




--------------------------------------- Iteration      1(   7)  ---------------------------------------


    POTLOK:  cpu time    0.0398: real time    0.0398
    SETDIJ:  cpu time    0.7937: real time    0.7937
atom =   1  type =  1  l = 2
 
 onsite density matrix
 
spin component  1
 
  0.0884  0.0000  0.0386  0.0000  0.0000
  0.0000  0.0579  0.0000  0.0258  0.0000
  0.0386  0.0000  0.0623  0.0000  0.0000
  0.0000  0.0258  0.0000  0.0579  0.0000
  0.0000  0.0000  0.0000  0.0000  0.0200
 
spin component  2
 
  0.9727  0.0000 -0.0078  0.0000  0.0000
  0.0000  1.0010  0.0000  0.0080  0.0000
 -0.0078  0.0000  0.9838  0.0000  0.0000
  0.0000  0.0080  0.0000  1.0010  0.0000
  0.0000  0.0000  0.0000  0.0000  0.9977
 
 occupancies and eigenvectors
 
  o =  0.0200  v =  0.0000 -0.0000 -0.0000  0.0000  1.0000  0.0000  0.0000  0.0000  0.0000  0.0000      0.0000  0.0000  0.0000  0.0000  0.0000  0.0000  0.0000  0.0000  0.0000  0.0000
  o =  0.0321  v =  0.0000 -0.7071  0.0000  0.7071 -0.0000  0.0000  0.0000  0.0000  0.0000  0.0000      0.0000  0.0000  0.0000  0.0000  0.0000  0.0000  0.0000  0.0000  0.0000  0.0000
  o =  0.0347  v = -0.5831 -0.0000  0.8124  0.0000  0.0000  0.0000  0.0000  0.0000  0.0000  0.0000      0.0000  0.0000  0.0000  0.0000  0.0000  0.0000  0.0000  0.0000  0.0000  0.0000
  o =  0.0837  v =  0.0000 -0.7071  0.0000 -0.7071 -0.0000  0.0000  0.0000  0.0000  0.0000  0.0000      0.0000  0.0000  0.0000  0.0000  0.0000  0.0000  0.0000  0.0000  0.0000  0.0000
  o =  0.1161  v = -0.8124  0.0000 -0.5831  0.0000 -0.0000  0.0000  0.0000  0.0000  0.0000  0.0000      0.0000  0.0000  0.0000  0.0000  0.0000  0.0000  0.0000  0.0000  0.0000  0.0000
  o =  0.9687  v =  0.0000  0.0000  0.0000  0.0000  0.0000 -0.8882  0.0000 -0.4595  0.0000  0.0000      0.0000  0.0000  0.0000  0.0000  0.0000  0.0000  0.0000  0.0000  0.0000  0.0000
  o =  0.9879  v =  0.0000  0.0000  0.0000  0.0000  0.0000 -0.4595  0.0000  0.8882  0.0000 -0.0000      0.0000  0.0000  0.0000  0.0000  0.0000  0.0000  0.0000  0.0000  0.0000  0.0000
  o =  0.9930  v =  0.0000  0.0000  0.0000  0.0000  0.0000  0.0000  0.7071  0.0000 -0.7071  0.0000      0.0000  0.0000  0.0000  0.0000  0.0000  0.0000  0.0000  0.0000  0.0000  0.0000
  o =  0.9977  v =  0.0000  0.0000  0.0000  0.0000  0.0000  0.0000  0.0000 -0.0000 -0.0000 -1.0000      0.0000  0.0000  0.0000  0.0000  0.0000  0.0000  0.0000  0.0000  0.0000  0.0000
  o =  1.0090  v =  0.0000  0.0000  0.0000  0.0000  0.0000  0.0000  0.7071 -0.0000  0.7071 -0.0000      0.0000  0.0000  0.0000  0.0000  0.0000  0.0000  0.0000  0.0000  0.0000  0.0000
atom =   2  type =  1  l = 2
 
 onsite density matrix
 
spin component  1
 
  0.9727  0.0000  0.0078  0.0000  0.0000
  0.0000  1.0010  0.0000 -0.0080  0.0000
  0.0078  0.0000  0.9838  0.0000  0.0000
  0.0000 -0.0080  0.0000  1.0010  0.0000
  0.0000  0.0000  0.0000  0.0000  0.9977
 
spin component  2
 
  0.0884  0.0000 -0.0386  0.0000 -0.0000
  0.0000  0.0579  0.0000 -0.0258  0.0000
 -0.0386  0.0000  0.0623  0.0000 -0.0000
  0.0000 -0.0258  0.0000  0.0579  0.0000
 -0.0000  0.0000 -0.0000  0.0000  0.0200
 
 occupancies and eigenvectors
 
  o =  0.0200  v =  0.0000  0.0000  0.0000  0.0000  0.0000  0.0000  0.0000  0.0000  0.0000  1.0000      0.0000  0.0000  0.0000  0.0000  0.0000  0.0000  0.0000  0.0000  0.0000  0.0000
  o =  0.0321  v =  0.0000  0.0000  0.0000  0.0000  0.0000  0.0000 -0.7071  0.0000 -0.7071  0.0000      0.0000  0.0000  0.0000  0.0000  0.0000  0.0000  0.0000  0.0000  0.0000  0.0000
  o =  0.0347  v =  0.0000  0.0000  0.0000  0.0000  0.0000 -0.5831  0.0000 -0.8124  0.0000  0.0000      0.0000  0.0000  0.0000  0.0000  0.0000  0.0000  0.0000  0.0000  0.0000  0.0000
  o =  0.0837  v =  0.0000  0.0000  0.0000  0.0000  0.0000  0.0000 -0.7071  0.0000  0.7071  0.0000      0.0000  0.0000  0.0000  0.0000  0.0000  0.0000  0.0000  0.0000  0.0000  0.0000
  o =  0.1161  v =  0.0000  0.0000  0.0000  0.0000  0.0000 -0.8124 -0.0000  0.5831  0.0000 -0.0000      0.0000  0.0000  0.0000  0.0000  0.0000  0.0000  0.0000  0.0000  0.0000  0.0000
  o =  0.9687  v = -0.8882  0.0000  0.4595  0.0000  0.0000  0.0000  0.0000  0.0000  0.0000  0.0000      0.0000  0.0000  0.0000  0.0000  0.0000  0.0000  0.0000  0.0000  0.0000  0.0000
  o =  0.9879  v = -0.4595  0.0000 -0.8882  0.0000 -0.0000  0.0000  0.0000  0.0000  0.0000  0.0000      0.0000  0.0000  0.0000  0.0000  0.0000  0.0000  0.0000  0.0000  0.0000  0.0000
  o =  0.9930  v =  0.0000 -0.7071  0.0000 -0.7071 -0.0000  0.0000  0.0000  0.0000  0.0000  0.0000      0.0000  0.0000  0.0000  0.0000  0.0000  0.0000  0.0000  0.0000  0.0000  0.0000
  o =  0.9977  v =  0.0000 -0.0000 -0.0000  0.0000  1.0000  0.0000  0.0000  0.0000  0.0000  0.0000      0.0000  0.0000  0.0000  0.0000  0.0000  0.0000  0.0000  0.0000  0.0000  0.0000
  o =  1.0090  v =  0.0000 -0.7071  0.0000  0.7071 -0.0000  0.0000  0.0000  0.0000  0.0000  0.0000      0.0000  0.0000  0.0000  0.0000  0.0000  0.0000  0.0000  0.0000  0.0000  0.0000
     EDDAV:  cpu time    0.8732: real time    0.8732
       DOS:  cpu time    0.0002: real time    0.0002
    CHARGE:  cpu time    0.1813: real time    0.1813
    MIXING:  cpu time    0.0007: real time    0.0007
    --------------------------------------------
      LOOP:  cpu time    1.8888: real time    1.8888

 eigenvalue-minimisations  :  1380
 total energy-change (2. order) :-0.2759108E+01  (-0.5073487E+01)
 number of electron      54.0000001 magnetization       0.0000000
 augmentation part       19.6469128 magnetization       0.0000000

 Broyden mixing:
  rms(total) = 0.17190E+01    rms(broyden)= 0.17189E+01
  rms(prec ) = 0.24932E+01
  weight for this iteration     100.00

 eigenvalues of (default mixing * dielectric matrix)
  average eigenvalue GAMMA=   0.6954
  0.6954  0.6954

 Free energy of the ion-electron system (eV)
  ---------------------------------------------------
  alpha Z        PSCENC =       199.38838823
  Ewald energy   TEWEN  =     -4203.06823030
  -Hartree energ DENC   =     -2184.11758283
  -exchange      EXHF   =         0.00000000
  -V(xc)+E(xc)   XCENC  =       167.67846631
  PAW double counting   =      6492.46347388    -6459.25603747
  entropy T*S    EENTRO =        -0.00000000
  eigenvalues    EBANDS =      -773.54310037
  atomic energy  EATOM  =      6689.03721073
  Solvation  Ediel_sol  =         0.00000000
  ---------------------------------------------------
  free energy    TOTEN  =       -71.41741182 eV

  energy without entropy =      -71.41741182  energy(sigma->0) =      -71.41741182


--------------------------------------------------------------------------------------------------------




--------------------------------------- Iteration      1(   8)  ---------------------------------------


    POTLOK:  cpu time    0.0393: real time    0.0393
    SETDIJ:  cpu time    0.7950: real time    0.7950
atom =   1  type =  1  l = 2
 
 onsite density matrix
 
spin component  1
 
  0.0473  0.0000  0.0137  0.0000  0.0000
  0.0000  0.0516  0.0000  0.0223  0.0000
  0.0137  0.0000  0.0410  0.0000  0.0000
  0.0000  0.0223  0.0000  0.0516  0.0000
  0.0000  0.0000  0.0000  0.0000  0.0245
 
spin component  2
 
  0.9920  0.0000  0.0242  0.0000 -0.0000
  0.0000  0.9807  0.0000  0.0124  0.0000
  0.0242  0.0000  0.9805  0.0000  0.0000
  0.0000  0.0124  0.0000  0.9807  0.0000
 -0.0000  0.0000  0.0000  0.0000  0.9673
 
 occupancies and eigenvectors
 
  o =  0.0245  v =  0.0000 -0.0000 -0.0000  0.0000  1.0000  0.0000  0.0000  0.0000  0.0000  0.0000      0.0000  0.0000  0.0000  0.0000  0.0000  0.0000  0.0000  0.0000  0.0000  0.0000
  o =  0.0294  v =  0.0000  0.7071  0.0000 -0.7071  0.0000  0.0000  0.0000  0.0000  0.0000  0.0000      0.0000  0.0000  0.0000  0.0000  0.0000  0.0000  0.0000  0.0000  0.0000  0.0000
  o =  0.0301  v = -0.6237 -0.0000  0.7817  0.0000  0.0000  0.0000  0.0000  0.0000  0.0000  0.0000      0.0000  0.0000  0.0000  0.0000  0.0000  0.0000  0.0000  0.0000  0.0000  0.0000
  o =  0.0582  v = -0.7817  0.0000 -0.6237  0.0000 -0.0000  0.0000  0.0000  0.0000  0.0000  0.0000      0.0000  0.0000  0.0000  0.0000  0.0000  0.0000  0.0000  0.0000  0.0000  0.0000
  o =  0.0739  v =  0.0000 -0.7071  0.0000 -0.7071 -0.0000  0.0000  0.0000  0.0000  0.0000  0.0000      0.0000  0.0000  0.0000  0.0000  0.0000  0.0000  0.0000  0.0000  0.0000  0.0000
  o =  0.9614  v =  0.0000  0.0000  0.0000  0.0000  0.0000 -0.6201  0.0000  0.7845  0.0000 -0.0000      0.0000  0.0000  0.0000  0.0000  0.0000  0.0000  0.0000  0.0000  0.0000  0.0000
  o =  0.9673  v =  0.0000  0.0000  0.0000  0.0000  0.0000  0.0000  0.0000  0.0000 -0.0000  1.0000      0.0000  0.0000  0.0000  0.0000  0.0000  0.0000  0.0000  0.0000  0.0000  0.0000
  o =  0.9683  v =  0.0000  0.0000  0.0000  0.0000  0.0000  0.0000 -0.7071  0.0000  0.7071  0.0000      0.0000  0.0000  0.0000  0.0000  0.0000  0.0000  0.0000  0.0000  0.0000  0.0000
  o =  0.9931  v =  0.0000  0.0000  0.0000  0.0000  0.0000  0.0000 -0.7071  0.0000 -0.7071  0.0000      0.0000  0.0000  0.0000  0.0000  0.0000  0.0000  0.0000  0.0000  0.0000  0.0000
  o =  1.0111  v =  0.0000  0.0000  0.0000  0.0000  0.0000 -0.7845  0.0000 -0.6201  0.0000  0.0000      0.0000  0.0000  0.0000  0.0000  0.0000  0.0000  0.0000  0.0000  0.0000  0.0000
atom =   2  type =  1  l = 2
 
 onsite density matrix
 
spin component  1
 
  0.9920  0.0000 -0.0242  0.0000 -0.0000
  0.0000  0.9807  0.0000 -0.0124  0.0000
 -0.0242  0.0000  0.9805  0.0000  0.0000
  0.0000 -0.0124  0.0000  0.9807  0.0000
 -0.0000  0.0000  0.0000  0.0000  0.9673
 
spin component  2
 
  0.0473  0.0000 -0.0137  0.0000  0.0000
  0.0000  0.0516  0.0000 -0.0223  0.0000
 -0.0137  0.0000  0.0410  0.0000 -0.0000
  0.0000 -0.0223  0.0000  0.0516  0.0000
  0.0000  0.0000 -0.0000  0.0000  0.0245
 
 occupancies and eigenvectors
 
  o =  0.0245  v =  0.0000  0.0000  0.0000  0.0000  0.0000  0.0000 -0.0000  0.0000  0.0000  1.0000      0.0000  0.0000  0.0000  0.0000  0.0000  0.0000  0.0000  0.0000  0.0000  0.0000
  o =  0.0294  v =  0.0000  0.0000  0.0000  0.0000  0.0000  0.0000 -0.7071  0.0000 -0.7071 -0.0000      0.0000  0.0000  0.0000  0.0000  0.0000  0.0000  0.0000  0.0000  0.0000  0.0000
  o =  0.0301  v =  0.0000  0.0000  0.0000  0.0000  0.0000 -0.6237 -0.0000 -0.7817  0.0000  0.0000      0.0000  0.0000  0.0000  0.0000  0.0000  0.0000  0.0000  0.0000  0.0000  0.0000
  o =  0.0582  v =  0.0000  0.0000  0.0000  0.0000  0.0000 -0.7817  0.0000  0.6237  0.0000 -0.0000      0.0000  0.0000  0.0000  0.0000  0.0000  0.0000  0.0000  0.0000  0.0000  0.0000
  o =  0.0739  v =  0.0000  0.0000  0.0000  0.0000  0.0000  0.0000  0.7071  0.0000 -0.7071  0.0000      0.0000  0.0000  0.0000  0.0000  0.0000  0.0000  0.0000  0.0000  0.0000  0.0000
  o =  0.9614  v = -0.6201  0.0000 -0.7845  0.0000 -0.0000  0.0000  0.0000  0.0000  0.0000  0.0000      0.0000  0.0000  0.0000  0.0000  0.0000  0.0000  0.0000  0.0000  0.0000  0.0000
  o =  0.9673  v =  0.0000 -0.0000  0.0000  0.0000 -1.0000  0.0000  0.0000  0.0000  0.0000  0.0000      0.0000  0.0000  0.0000  0.0000  0.0000  0.0000  0.0000  0.0000  0.0000  0.0000
  o =  0.9683  v =  0.0000 -0.7071  0.0000 -0.7071  0.0000  0.0000  0.0000  0.0000  0.0000  0.0000      0.0000  0.0000  0.0000  0.0000  0.0000  0.0000  0.0000  0.0000  0.0000  0.0000
  o =  0.9931  v =  0.0000 -0.7071  0.0000  0.7071  0.0000  0.0000  0.0000  0.0000  0.0000  0.0000      0.0000  0.0000  0.0000  0.0000  0.0000  0.0000  0.0000  0.0000  0.0000  0.0000
  o =  1.0111  v = -0.7845  0.0000  0.6201  0.0000  0.0000  0.0000  0.0000  0.0000  0.0000  0.0000      0.0000  0.0000  0.0000  0.0000  0.0000  0.0000  0.0000  0.0000  0.0000  0.0000
     EDDAV:  cpu time    0.9395: real time    0.9395
       DOS:  cpu time    0.0002: real time    0.0002
    CHARGE:  cpu time    0.1813: real time    0.1813
    MIXING:  cpu time    0.0007: real time    0.0007
    --------------------------------------------
      LOOP:  cpu time    1.9561: real time    1.9562

 eigenvalue-minimisations  :  1548
 total energy-change (2. order) : 0.2769105E+01  (-0.7259963E+00)
 number of electron      54.0000001 magnetization      -0.0000000
 augmentation part       19.8453457 magnetization      -0.0000000

 Broyden mixing:
  rms(total) = 0.64512E+00    rms(broyden)= 0.64504E+00
  rms(prec ) = 0.96318E+00
  weight for this iteration     100.00

 eigenvalues of (default mixing * dielectric matrix)
  average eigenvalue GAMMA=   0.7648
  0.9750  0.6597  0.6597

 Free energy of the ion-electron system (eV)
  ---------------------------------------------------
  alpha Z        PSCENC =       199.38838823
  Ewald energy   TEWEN  =     -4203.06823030
  -Hartree energ DENC   =     -2172.28335094
  -exchange      EXHF   =         0.00000000
  -V(xc)+E(xc)   XCENC  =       170.42553136
  PAW double counting   =      6419.67775077    -6384.54285720
  entropy T*S    EENTRO =        -0.00000000
  eigenvalues    EBANDS =      -787.28274943
  atomic energy  EATOM  =      6689.03721073
  Solvation  Ediel_sol  =         0.00000000
  ---------------------------------------------------
  free energy    TOTEN  =       -68.64830678 eV

  energy without entropy =      -68.64830678  energy(sigma->0) =      -68.64830678


--------------------------------------------------------------------------------------------------------




--------------------------------------- Iteration      1(   9)  ---------------------------------------


    POTLOK:  cpu time    0.0392: real time    0.0392
    SETDIJ:  cpu time    0.7952: real time    0.7952
atom =   1  type =  1  l = 2
 
 onsite density matrix
 
spin component  1
 
  0.0695  0.0000  0.0381  0.0000 -0.0000
  0.0000  0.0476  0.0000  0.0198  0.0000
  0.0381  0.0000  0.0512  0.0000  0.0000
  0.0000  0.0198  0.0000  0.0476  0.0000
 -0.0000  0.0000  0.0000  0.0000  0.0229
 
spin component  2
 
  0.9488  0.0000  0.0059  0.0000  0.0000
  0.0000  0.9588  0.0000  0.0167  0.0000
  0.0059  0.0000  0.9447  0.0000 -0.0000
  0.0000  0.0167  0.0000  0.9588  0.0000
  0.0000  0.0000 -0.0000  0.0000  0.9429
 
 occupancies and eigenvectors
 
  o =  0.0211  v = -0.6193 -0.0000  0.7851  0.0000 -0.0000  0.0000  0.0000  0.0000  0.0000  0.0000      0.0000  0.0000  0.0000  0.0000  0.0000  0.0000  0.0000  0.0000  0.0000  0.0000
  o =  0.0229  v = -0.0000  0.0000  0.0000  0.0000  1.0000  0.0000  0.0000  0.0000  0.0000  0.0000      0.0000  0.0000  0.0000  0.0000  0.0000  0.0000  0.0000  0.0000  0.0000  0.0000
  o =  0.0278  v =  0.0000  0.7071  0.0000 -0.7071 -0.0000  0.0000  0.0000  0.0000  0.0000  0.0000      0.0000  0.0000  0.0000  0.0000  0.0000  0.0000  0.0000  0.0000  0.0000  0.0000
  o =  0.0674  v =  0.0000 -0.7071  0.0000 -0.7071  0.0000  0.0000  0.0000  0.0000  0.0000  0.0000      0.0000  0.0000  0.0000  0.0000  0.0000  0.0000  0.0000  0.0000  0.0000  0.0000
  o =  0.0996  v = -0.7851 -0.0000 -0.6193  0.0000 -0.0000  0.0000  0.0000  0.0000  0.0000  0.0000      0.0000  0.0000  0.0000  0.0000  0.0000  0.0000  0.0000  0.0000  0.0000  0.0000
  o =  0.9405  v =  0.0000  0.0000  0.0000  0.0000  0.0000 -0.5804  0.0000  0.8143 -0.0000  0.0000      0.0000  0.0000  0.0000  0.0000  0.0000  0.0000  0.0000  0.0000  0.0000  0.0000
  o =  0.9421  v =  0.0000  0.0000  0.0000  0.0000  0.0000 -0.0000 -0.7071  0.0000  0.7071 -0.0000      0.0000  0.0000  0.0000  0.0000  0.0000  0.0000  0.0000  0.0000  0.0000  0.0000
  o =  0.9429  v =  0.0000  0.0000  0.0000  0.0000  0.0000  0.0000 -0.0000 -0.0000  0.0000  1.0000      0.0000  0.0000  0.0000  0.0000  0.0000  0.0000  0.0000  0.0000  0.0000  0.0000
  o =  0.9530  v =  0.0000  0.0000  0.0000  0.0000  0.0000 -0.8143  0.0000 -0.5804 -0.0000  0.0000      0.0000  0.0000  0.0000  0.0000  0.0000  0.0000  0.0000  0.0000  0.0000  0.0000
  o =  0.9756  v =  0.0000  0.0000  0.0000  0.0000  0.0000  0.0000 -0.7071  0.0000 -0.7071  0.0000      0.0000  0.0000  0.0000  0.0000  0.0000  0.0000  0.0000  0.0000  0.0000  0.0000
atom =   2  type =  1  l = 2
 
 onsite density matrix
 
spin component  1
 
  0.9488  0.0000 -0.0059  0.0000  0.0000
  0.0000  0.9588  0.0000 -0.0167  0.0000
 -0.0059  0.0000  0.9447  0.0000 -0.0000
  0.0000 -0.0167  0.0000  0.9588  0.0000
  0.0000  0.0000 -0.0000  0.0000  0.9429
 
spin component  2
 
  0.0695  0.0000 -0.0381  0.0000 -0.0000
  0.0000  0.0476  0.0000 -0.0198  0.0000
 -0.0381  0.0000  0.0512  0.0000  0.0000
  0.0000 -0.0198  0.0000  0.0476  0.0000
 -0.0000  0.0000  0.0000  0.0000  0.0229
 
 occupancies and eigenvectors
 
  o =  0.0211  v =  0.0000  0.0000  0.0000  0.0000  0.0000 -0.6193  0.0000 -0.7851  0.0000  0.0000      0.0000  0.0000  0.0000  0.0000  0.0000  0.0000  0.0000  0.0000  0.0000  0.0000
  o =  0.0229  v =  0.0000  0.0000  0.0000  0.0000  0.0000 -0.0000 -0.0000 -0.0000  0.0000 -1.0000      0.0000  0.0000  0.0000  0.0000  0.0000  0.0000  0.0000  0.0000  0.0000  0.0000
  o =  0.0278  v =  0.0000  0.0000  0.0000  0.0000  0.0000  0.0000 -0.7071  0.0000 -0.7071  0.0000      0.0000  0.0000  0.0000  0.0000  0.0000  0.0000  0.0000  0.0000  0.0000  0.0000
  o =  0.0674  v =  0.0000  0.0000  0.0000  0.0000  0.0000  0.0000 -0.7071  0.0000  0.7071  0.0000      0.0000  0.0000  0.0000  0.0000  0.0000  0.0000  0.0000  0.0000  0.0000  0.0000
  o =  0.0996  v =  0.0000  0.0000  0.0000  0.0000  0.0000 -0.7851  0.0000  0.6193  0.0000  0.0000      0.0000  0.0000  0.0000  0.0000  0.0000  0.0000  0.0000  0.0000  0.0000  0.0000
  o =  0.9405  v = -0.5804  0.0000 -0.8143  0.0000 -0.0000  0.0000  0.0000  0.0000  0.0000  0.0000      0.0000  0.0000  0.0000  0.0000  0.0000  0.0000  0.0000  0.0000  0.0000  0.0000
  o =  0.9421  v =  0.0000  0.7071  0.0000  0.7071  0.0000  0.0000  0.0000  0.0000  0.0000  0.0000      0.0000  0.0000  0.0000  0.0000  0.0000  0.0000  0.0000  0.0000  0.0000  0.0000
  o =  0.9429  v = -0.0000 -0.0000 -0.0000  0.0000  1.0000  0.0000  0.0000  0.0000  0.0000  0.0000      0.0000  0.0000  0.0000  0.0000  0.0000  0.0000  0.0000  0.0000  0.0000  0.0000
  o =  0.9530  v = -0.8143  0.0000  0.5804  0.0000 -0.0000  0.0000  0.0000  0.0000  0.0000  0.0000      0.0000  0.0000  0.0000  0.0000  0.0000  0.0000  0.0000  0.0000  0.0000  0.0000
  o =  0.9756  v =  0.0000  0.7071  0.0000 -0.7071  0.0000  0.0000  0.0000  0.0000  0.0000  0.0000      0.0000  0.0000  0.0000  0.0000  0.0000  0.0000  0.0000  0.0000  0.0000  0.0000
     EDDAV:  cpu time    0.9158: real time    0.9158
       DOS:  cpu time    0.0002: real time    0.0002
    CHARGE:  cpu time    0.1810: real time    0.1810
    MIXING:  cpu time    0.0008: real time    0.0008
    --------------------------------------------
      LOOP:  cpu time    1.9322: real time    1.9322

 eigenvalue-minimisations  :  1488
 total energy-change (2. order) : 0.4983749E+00  (-0.4430116E+00)
 number of electron      54.0000001 magnetization      -0.0000000
 augmentation part       20.0016428 magnetization      -0.0000000

 Broyden mixing:
  rms(total) = 0.80125E+00    rms(broyden)= 0.80123E+00
  rms(prec ) = 0.86649E+00
  weight for this iteration     100.00

 eigenvalues of (default mixing * dielectric matrix)
  average eigenvalue GAMMA=   0.9588
  1.7539  0.5767  0.7523  0.7523

 Free energy of the ion-electron system (eV)
  ---------------------------------------------------
  alpha Z        PSCENC =       199.38838823
  Ewald energy   TEWEN  =     -4203.06823030
  -Hartree energ DENC   =     -2161.38250790
  -exchange      EXHF   =         0.00000000
  -V(xc)+E(xc)   XCENC  =       168.48074863
  PAW double counting   =      6442.54130003    -6406.30167239
  entropy T*S    EENTRO =        -0.00000000
  eigenvalues    EBANDS =      -796.84516890
  atomic energy  EATOM  =      6689.03721073
  Solvation  Ediel_sol  =         0.00000000
  ---------------------------------------------------
  free energy    TOTEN  =       -68.14993187 eV

  energy without entropy =      -68.14993187  energy(sigma->0) =      -68.14993187


--------------------------------------------------------------------------------------------------------




--------------------------------------- Iteration      1(  10)  ---------------------------------------


    POTLOK:  cpu time    0.0393: real time    0.0393
    SETDIJ:  cpu time    0.7945: real time    0.7945
atom =   1  type =  1  l = 2
 
 onsite density matrix
 
spin component  1
 
  0.0441  0.0000  0.0132  0.0000  0.0000
  0.0000  0.0504  0.0000  0.0209  0.0000
  0.0132  0.0000  0.0374  0.0000  0.0000
  0.0000  0.0209  0.0000  0.0504  0.0000
  0.0000  0.0000  0.0000  0.0000  0.0284
 
spin component  2
 
  0.9702  0.0000  0.0326  0.0000 -0.0000
  0.0000  0.9522  0.0000  0.0173  0.0000
  0.0326  0.0000  0.9536  0.0000  0.0000
  0.0000  0.0173  0.0000  0.9522  0.0000
 -0.0000  0.0000  0.0000  0.0000  0.9324
 
 occupancies and eigenvectors
 
  o =  0.0272  v = -0.6148  0.0000  0.7887 -0.0000 -0.0000  0.0000  0.0000  0.0000  0.0000  0.0000      0.0000  0.0000  0.0000  0.0000  0.0000  0.0000  0.0000  0.0000  0.0000  0.0000
  o =  0.0284  v = -0.0000  0.0000  0.0000 -0.0000  1.0000  0.0000  0.0000  0.0000  0.0000  0.0000      0.0000  0.0000  0.0000  0.0000  0.0000  0.0000  0.0000  0.0000  0.0000  0.0000
  o =  0.0295  v =  0.0000  0.7071 -0.0000 -0.7071 -0.0000  0.0000  0.0000  0.0000  0.0000  0.0000      0.0000  0.0000  0.0000  0.0000  0.0000  0.0000  0.0000  0.0000  0.0000  0.0000
  o =  0.0543  v = -0.7887 -0.0000 -0.6148 -0.0000 -0.0000  0.0000  0.0000  0.0000  0.0000  0.0000      0.0000  0.0000  0.0000  0.0000  0.0000  0.0000  0.0000  0.0000  0.0000  0.0000
  o =  0.0713  v =  0.0000 -0.7071  0.0000 -0.7071  0.0000  0.0000  0.0000  0.0000  0.0000  0.0000      0.0000  0.0000  0.0000  0.0000  0.0000  0.0000  0.0000  0.0000  0.0000  0.0000
  o =  0.9283  v =  0.0000  0.0000  0.0000  0.0000  0.0000 -0.6142  0.0000  0.7892  0.0000 -0.0000      0.0000  0.0000  0.0000  0.0000  0.0000  0.0000  0.0000  0.0000  0.0000  0.0000
  o =  0.9324  v =  0.0000  0.0000  0.0000  0.0000  0.0000  0.0000  0.0000  0.0000 -0.0000  1.0000      0.0000  0.0000  0.0000  0.0000  0.0000  0.0000  0.0000  0.0000  0.0000  0.0000
  o =  0.9348  v =  0.0000  0.0000  0.0000  0.0000  0.0000  0.0000 -0.7071  0.0000  0.7071  0.0000      0.0000  0.0000  0.0000  0.0000  0.0000  0.0000  0.0000  0.0000  0.0000  0.0000
  o =  0.9695  v =  0.0000  0.0000  0.0000  0.0000  0.0000  0.0000 -0.7071  0.0000 -0.7071  0.0000      0.0000  0.0000  0.0000  0.0000  0.0000  0.0000  0.0000  0.0000  0.0000  0.0000
  o =  0.9955  v =  0.0000  0.0000  0.0000  0.0000  0.0000 -0.7892  0.0000 -0.6142  0.0000  0.0000      0.0000  0.0000  0.0000  0.0000  0.0000  0.0000  0.0000  0.0000  0.0000  0.0000
atom =   2  type =  1  l = 2
 
 onsite density matrix
 
spin component  1
 
  0.9702  0.0000 -0.0326  0.0000 -0.0000
  0.0000  0.9522  0.0000 -0.0173  0.0000
 -0.0326  0.0000  0.9536  0.0000  0.0000
  0.0000 -0.0173  0.0000  0.9522  0.0000
 -0.0000  0.0000  0.0000  0.0000  0.9324
 
spin component  2
 
  0.0441  0.0000 -0.0132  0.0000  0.0000
  0.0000  0.0504  0.0000 -0.0209  0.0000
 -0.0132  0.0000  0.0374  0.0000 -0.0000
  0.0000 -0.0209  0.0000  0.0504  0.0000
  0.0000  0.0000 -0.0000  0.0000  0.0284
 
 occupancies and eigenvectors
 
  o =  0.0272  v =  0.0000  0.0000  0.0000  0.0000  0.0000 -0.6148  0.0000 -0.7887  0.0000 -0.0000      0.0000  0.0000  0.0000  0.0000  0.0000  0.0000  0.0000  0.0000  0.0000  0.0000
  o =  0.0284  v =  0.0000  0.0000  0.0000  0.0000  0.0000  0.0000 -0.0000  0.0000 -0.0000 -1.0000      0.0000  0.0000  0.0000  0.0000  0.0000  0.0000  0.0000  0.0000  0.0000  0.0000
  o =  0.0295  v =  0.0000  0.0000  0.0000  0.0000  0.0000  0.0000  0.7071  0.0000  0.7071 -0.0000      0.0000  0.0000  0.0000  0.0000  0.0000  0.0000  0.0000  0.0000  0.0000  0.0000
  o =  0.0543  v =  0.0000  0.0000  0.0000  0.0000  0.0000 -0.7887 -0.0000  0.6148  0.0000 -0.0000      0.0000  0.0000  0.0000  0.0000  0.0000  0.0000  0.0000  0.0000  0.0000  0.0000
  o =  0.0713  v =  0.0000  0.0000  0.0000  0.0000  0.0000 -0.0000  0.7071  0.0000 -0.7071  0.0000      0.0000  0.0000  0.0000  0.0000  0.0000  0.0000  0.0000  0.0000  0.0000  0.0000
  o =  0.9283  v = -0.6142  0.0000 -0.7892  0.0000  0.0000  0.0000  0.0000  0.0000  0.0000  0.0000      0.0000  0.0000  0.0000  0.0000  0.0000  0.0000  0.0000  0.0000  0.0000  0.0000
  o =  0.9324  v = -0.0000 -0.0000 -0.0000  0.0000 -1.0000  0.0000  0.0000  0.0000  0.0000  0.0000      0.0000  0.0000  0.0000  0.0000  0.0000  0.0000  0.0000  0.0000  0.0000  0.0000
  o =  0.9348  v =  0.0000 -0.7071  0.0000 -0.7071  0.0000  0.0000  0.0000  0.0000  0.0000  0.0000      0.0000  0.0000  0.0000  0.0000  0.0000  0.0000  0.0000  0.0000  0.0000  0.0000
  o =  0.9695  v =  0.0000 -0.7071  0.0000  0.7071  0.0000  0.0000  0.0000  0.0000  0.0000  0.0000      0.0000  0.0000  0.0000  0.0000  0.0000  0.0000  0.0000  0.0000  0.0000  0.0000
  o =  0.9955  v = -0.7892 -0.0000  0.6142  0.0000  0.0000  0.0000  0.0000  0.0000  0.0000  0.0000      0.0000  0.0000  0.0000  0.0000  0.0000  0.0000  0.0000  0.0000  0.0000  0.0000
     EDDAV:  cpu time    0.8932: real time    0.8932
       DOS:  cpu time    0.0002: real time    0.0002
    CHARGE:  cpu time    0.1814: real time    0.1814
    MIXING:  cpu time    0.0008: real time    0.0008
    --------------------------------------------
      LOOP:  cpu time    1.9095: real time    1.9095

 eigenvalue-minimisations  :  1428
 total energy-change (2. order) : 0.4966077E-01  (-0.3882814E-01)
 number of electron      54.0000001 magnetization       0.0000000
 augmentation part       20.0045541 magnetization       0.0000000

 Broyden mixing:
  rms(total) = 0.56986E+00    rms(broyden)= 0.56986E+00
  rms(prec ) = 0.62824E+00
  weight for this iteration     100.00

 eigenvalues of (default mixing * dielectric matrix)
  average eigenvalue GAMMA=   1.2279
  2.9579  0.9857  0.9857  0.6050  0.6050

 Free energy of the ion-electron system (eV)
  ---------------------------------------------------
  alpha Z        PSCENC =       199.38838823
  Ewald energy   TEWEN  =     -4203.06823030
  -Hartree energ DENC   =     -2155.27718737
  -exchange      EXHF   =         0.00000000
  -V(xc)+E(xc)   XCENC  =       165.93589943
  PAW double counting   =      6511.71411581    -6476.70683435
  entropy T*S    EENTRO =        -0.00000000
  eigenvalues    EBANDS =      -799.12363328
  atomic energy  EATOM  =      6689.03721073
  Solvation  Ediel_sol  =         0.00000000
  ---------------------------------------------------
  free energy    TOTEN  =       -68.10027110 eV

  energy without entropy =      -68.10027110  energy(sigma->0) =      -68.10027110


--------------------------------------------------------------------------------------------------------




--------------------------------------- Iteration      1(  11)  ---------------------------------------


    POTLOK:  cpu time    0.0393: real time    0.0393
    SETDIJ:  cpu time    0.7927: real time    0.7927
atom =   1  type =  1  l = 2
 
 onsite density matrix
 
spin component  1
 
  0.0508  0.0000  0.0299  0.0000 -0.0000
  0.0000  0.0434  0.0000  0.0253  0.0000
  0.0299  0.0000  0.0366  0.0000 -0.0000
  0.0000  0.0253  0.0000  0.0434  0.0000
 -0.0000  0.0000 -0.0000  0.0000  0.0146
 
spin component  2
 
  0.9632  0.0000  0.0190  0.0000  0.0000
  0.0000  0.9587  0.0000  0.0166  0.0000
  0.0190  0.0000  0.9518  0.0000  0.0000
  0.0000  0.0166  0.0000  0.9587  0.0000
  0.0000  0.0000  0.0000  0.0000  0.9429
 
 occupancies and eigenvectors
 
  o =  0.0129  v = -0.6201  0.0000  0.7845  0.0000  0.0000  0.0000  0.0000  0.0000  0.0000  0.0000      0.0000  0.0000  0.0000  0.0000  0.0000  0.0000  0.0000  0.0000  0.0000  0.0000
  o =  0.0146  v = -0.0000 -0.0000  0.0000  0.0000 -1.0000  0.0000  0.0000  0.0000  0.0000  0.0000      0.0000  0.0000  0.0000  0.0000  0.0000  0.0000  0.0000  0.0000  0.0000  0.0000
  o =  0.0181  v =  0.0000  0.7071  0.0000 -0.7071 -0.0000  0.0000  0.0000  0.0000  0.0000  0.0000      0.0000  0.0000  0.0000  0.0000  0.0000  0.0000  0.0000  0.0000  0.0000  0.0000
  o =  0.0687  v =  0.0000  0.7071  0.0000  0.7071 -0.0000  0.0000  0.0000  0.0000  0.0000  0.0000      0.0000  0.0000  0.0000  0.0000  0.0000  0.0000  0.0000  0.0000  0.0000  0.0000
  o =  0.0744  v = -0.7845  0.0000 -0.6201  0.0000  0.0000  0.0000  0.0000  0.0000  0.0000  0.0000      0.0000  0.0000  0.0000  0.0000  0.0000  0.0000  0.0000  0.0000  0.0000  0.0000
  o =  0.9377  v =  0.0000  0.0000  0.0000  0.0000  0.0000 -0.5965  0.0000  0.8026  0.0000  0.0000      0.0000  0.0000  0.0000  0.0000  0.0000  0.0000  0.0000  0.0000  0.0000  0.0000
  o =  0.9421  v =  0.0000  0.0000  0.0000  0.0000  0.0000  0.0000  0.7071  0.0000 -0.7071 -0.0000      0.0000  0.0000  0.0000  0.0000  0.0000  0.0000  0.0000  0.0000  0.0000  0.0000
  o =  0.9429  v =  0.0000  0.0000  0.0000  0.0000  0.0000  0.0000  0.0000 -0.0000 -0.0000  1.0000      0.0000  0.0000  0.0000  0.0000  0.0000  0.0000  0.0000  0.0000  0.0000  0.0000
  o =  0.9753  v =  0.0000  0.0000  0.0000  0.0000  0.0000  0.0000  0.7071 -0.0000  0.7071  0.0000      0.0000  0.0000  0.0000  0.0000  0.0000  0.0000  0.0000  0.0000  0.0000  0.0000
  o =  0.9773  v =  0.0000  0.0000  0.0000  0.0000  0.0000 -0.8026  0.0000 -0.5965  0.0000 -0.0000      0.0000  0.0000  0.0000  0.0000  0.0000  0.0000  0.0000  0.0000  0.0000  0.0000
atom =   2  type =  1  l = 2
 
 onsite density matrix
 
spin component  1
 
  0.9632  0.0000 -0.0190  0.0000  0.0000
  0.0000  0.9587  0.0000 -0.0166  0.0000
 -0.0190  0.0000  0.9518  0.0000 -0.0000
  0.0000 -0.0166  0.0000  0.9587  0.0000
  0.0000  0.0000 -0.0000  0.0000  0.9429
 
spin component  2
 
  0.0508  0.0000 -0.0299  0.0000 -0.0000
  0.0000  0.0434  0.0000 -0.0253  0.0000
 -0.0299  0.0000  0.0366  0.0000  0.0000
  0.0000 -0.0253  0.0000  0.0434  0.0000
 -0.0000  0.0000  0.0000  0.0000  0.0146
 
 occupancies and eigenvectors
 
  o =  0.0129  v =  0.0000  0.0000  0.0000  0.0000  0.0000 -0.6201  0.0000 -0.7845  0.0000  0.0000      0.0000  0.0000  0.0000  0.0000  0.0000  0.0000  0.0000  0.0000  0.0000  0.0000
  o =  0.0146  v =  0.0000  0.0000  0.0000  0.0000  0.0000 -0.0000 -0.0000 -0.0000  0.0000 -1.0000      0.0000  0.0000  0.0000  0.0000  0.0000  0.0000  0.0000  0.0000  0.0000  0.0000
  o =  0.0181  v =  0.0000  0.0000  0.0000  0.0000  0.0000  0.0000  0.7071  0.0000  0.7071 -0.0000      0.0000  0.0000  0.0000  0.0000  0.0000  0.0000  0.0000  0.0000  0.0000  0.0000
  o =  0.0687  v =  0.0000  0.0000  0.0000  0.0000  0.0000  0.0000  0.7071  0.0000 -0.7071 -0.0000      0.0000  0.0000  0.0000  0.0000  0.0000  0.0000  0.0000  0.0000  0.0000  0.0000
  o =  0.0744  v =  0.0000  0.0000  0.0000  0.0000  0.0000 -0.7845  0.0000  0.6201  0.0000  0.0000      0.0000  0.0000  0.0000  0.0000  0.0000  0.0000  0.0000  0.0000  0.0000  0.0000
  o =  0.9377  v = -0.5965  0.0000 -0.8026  0.0000 -0.0000  0.0000  0.0000  0.0000  0.0000  0.0000      0.0000  0.0000  0.0000  0.0000  0.0000  0.0000  0.0000  0.0000  0.0000  0.0000
  o =  0.9421  v =  0.0000  0.7071  0.0000  0.7071  0.0000  0.0000  0.0000  0.0000  0.0000  0.0000      0.0000  0.0000  0.0000  0.0000  0.0000  0.0000  0.0000  0.0000  0.0000  0.0000
  o =  0.9429  v = -0.0000 -0.0000 -0.0000 -0.0000  1.0000  0.0000  0.0000  0.0000  0.0000  0.0000      0.0000  0.0000  0.0000  0.0000  0.0000  0.0000  0.0000  0.0000  0.0000  0.0000
  o =  0.9753  v = -0.0000 -0.7071  0.0000  0.7071  0.0000  0.0000  0.0000  0.0000  0.0000  0.0000      0.0000  0.0000  0.0000  0.0000  0.0000  0.0000  0.0000  0.0000  0.0000  0.0000
  o =  0.9773  v = -0.8026  0.0000  0.5965 -0.0000 -0.0000  0.0000  0.0000  0.0000  0.0000  0.0000      0.0000  0.0000  0.0000  0.0000  0.0000  0.0000  0.0000  0.0000  0.0000  0.0000
     EDDAV:  cpu time    0.9430: real time    0.9430
       DOS:  cpu time    0.0002: real time    0.0002
    CHARGE:  cpu time    0.1805: real time    0.1805
    MIXING:  cpu time    0.0008: real time    0.0008
    --------------------------------------------
      LOOP:  cpu time    1.9565: real time    1.9565

 eigenvalue-minimisations  :  1560
 total energy-change (2. order) : 0.3597013E-01  (-0.7958564E-01)
 number of electron      54.0000001 magnetization      -0.0000000
 augmentation part       20.0699543 magnetization      -0.0000000

 Broyden mixing:
  rms(total) = 0.17154E+00    rms(broyden)= 0.17150E+00
  rms(prec ) = 0.25188E+00
  weight for this iteration     100.00

 eigenvalues of (default mixing * dielectric matrix)
  average eigenvalue GAMMA=   1.1380
  3.1135  0.9833  0.9833  0.5963  0.5758  0.5758

 Free energy of the ion-electron system (eV)
  ---------------------------------------------------
[...]
     13      -4.0218      1.00000
     14      -3.8403      1.00000
     15      -3.6816      1.00000
     16      -3.4860      1.00000
     17      -3.1033      1.00000
     18      -2.9250      1.00000
     19      -2.7931      1.00000
     20      -2.3852      1.00000
     21      -2.2966      1.00000
     22      -2.2380      1.00000
     23       0.8108      1.00000
     24       0.8538      1.00000
     25       1.0981      1.00000
     26       1.7269      1.00000
     27       2.0760      1.00000
     28       6.4157      0.00000
     29       6.4453      0.00000
     30       6.5492      0.00000
     31       7.4042      0.00000
     32       7.6959      0.00000
     33       9.0127      0.00000
     34      11.3074      0.00000
     35      12.7734      0.00000
     36      13.1321      0.00000

 k-point     8 :       0.3750    0.1250    0.4167
  band No.  band energies     occupation 
      1     -49.2211      1.00000
      2     -49.1811      1.00000
      3     -49.1610      1.00000
      4     -42.7131      1.00000
      5     -42.6694      1.00000
      6     -42.6391      1.00000
      7     -22.6151      1.00000
      8     -22.5583      1.00000
      9     -22.5081      1.00000
     10     -22.4385      1.00000
     11      -4.5000      1.00000
     12      -4.2435      1.00000
     13      -4.1607      1.00000
     14      -3.9821      1.00000
     15      -3.6120      1.00000
     16      -3.3752      1.00000
     17      -3.2014      1.00000
     18      -3.0961      1.00000
     19      -2.5272      1.00000
     20      -2.3668      1.00000
     21      -2.1878      1.00000
     22      -2.0852      1.00000
     23       0.7974      1.00000
     24       0.8269      1.00000
     25       1.0371      1.00000
     26       1.6836      1.00000
     27       2.2048      1.00000
     28       6.4036      0.00000
     29       6.4384      0.00000
     30       6.6055      0.00000
     31       7.3590      0.00000
     32       7.8777      0.00000
     33       9.6382      0.00000
     34      11.1636      0.00000
     35      11.6865      0.00000
     36      12.9968      0.00000

 k-point     9 :       0.3750    0.3750    0.4167
  band No.  band energies     occupation 
      1     -49.2211      1.00000
      2     -49.1811      1.00000
      3     -49.1610      1.00000
      4     -42.7131      1.00000
      5     -42.6694      1.00000
      6     -42.6391      1.00000
      7     -22.6083      1.00000
      8     -22.5666      1.00000
      9     -22.5090      1.00000
     10     -22.4328      1.00000
     11      -4.7354      1.00000
     12      -4.5251      1.00000
     13      -4.1565      1.00000
     14      -4.0961      1.00000
     15      -3.5852      1.00000
     16      -3.3076      1.00000
     17      -3.1376      1.00000
     18      -2.9053      1.00000
     19      -2.3165      1.00000
     20      -2.2218      1.00000
     21      -2.1093      1.00000
     22      -2.0328      1.00000
     23       0.7950      1.00000
     24       0.8196      1.00000
     25       1.0228      1.00000
     26       1.7180      1.00000
     27       2.1804      1.00000
     28       6.4101      0.00000
     29       6.4357      0.00000
     30       6.6234      0.00000
     31       7.3349      0.00000
     32       7.7814      0.00000
     33      10.1338      0.00000
     34      11.7155      0.00000
     35      11.7509      0.00000
     36      11.9842      0.00000


--------------------------------------------------------------------------------------------------------


 soft charge-density along one line, spin component           1
         0         1         2         3         4         5         6         7         8         9
 total charge-density along one line
 
 soft charge-density along one line, spin component           2
         0         1         2         3         4         5         6         7         8         9
 total charge-density along one line
 
 pseudopotential strength for first ion, spin component:           1
-45.210  -0.000  -0.038   7.790   0.000   0.016  -0.000   0.000
 -0.000 -45.176   0.000   0.000   7.776  -0.000  -0.000   0.000
 -0.038   0.000 -45.210   0.016  -0.000   7.790   0.000  -0.000
  7.790   0.000   0.016   5.592   0.000   0.004  -0.000  -0.000
  0.000   7.776  -0.000   0.000   5.586   0.000   0.000   0.000
  0.016  -0.000   7.790   0.004   0.000   5.592  -0.000   0.000
 -0.000  -0.000   0.000  -0.000   0.000  -0.000  -2.970   0.000
  0.000   0.000  -0.000  -0.000   0.000   0.000   0.000  -2.952
 -0.000   0.000   0.000   0.000  -0.000   0.000   0.020  -0.000
 -0.000   0.000   0.000   0.000   0.000  -0.000  -0.000  -0.018
  0.000   0.000  -0.000  -0.000  -0.000  -0.000  -0.000   0.000
 -0.000  -0.000   0.000  -0.000   0.000  -0.000  -3.486   0.000
  0.000   0.000  -0.000  -0.000   0.000   0.000   0.000  -3.468
 -0.000   0.000   0.000   0.000  -0.000   0.000   0.018  -0.000
 -0.000   0.000   0.000   0.000   0.000  -0.000  -0.000  -0.018
  0.000   0.000  -0.000  -0.000  -0.000  -0.000  -0.000   0.000
  0.000  -0.000   0.000   0.000  -0.000  -0.000   0.011   0.000
  0.000  -0.000   0.000   0.000  -0.000  -0.000   0.022   0.000
 pseudopotential strength for first ion, spin component:           2
-50.963  -0.000  -0.005   9.790   0.000   0.016   0.000   0.000
 -0.000 -50.963   0.000   0.000   9.775  -0.000  -0.000   0.000
 -0.005   0.000 -50.963   0.016  -0.000   9.790  -0.000  -0.000
  9.790   0.000   0.016   4.709  -0.000   0.001  -0.000  -0.000
  0.000   9.775  -0.000  -0.000   4.708   0.000   0.000  -0.000
  0.016  -0.000   9.790   0.001   0.000   4.709  -0.000   0.000
  0.000  -0.000  -0.000  -0.000   0.000  -0.000  -7.322   0.000
  0.000   0.000  -0.000  -0.000  -0.000   0.000   0.000  -7.313
  0.000   0.000  -0.000  -0.000  -0.000   0.000  -0.009  -0.000
 -0.000  -0.000   0.000   0.000   0.000  -0.000  -0.000  -0.028
 -0.000   0.000   0.000  -0.000  -0.000  -0.000   0.000   0.000
  0.000  -0.000  -0.000  -0.000   0.000  -0.000  -7.793   0.000
  0.000   0.000  -0.000  -0.000  -0.000   0.000   0.000  -7.784
  0.000   0.000  -0.000  -0.000  -0.000   0.000  -0.009  -0.000
 -0.000  -0.000   0.000   0.000   0.000  -0.000  -0.000  -0.027
 -0.000   0.000   0.000  -0.000  -0.000  -0.000   0.000   0.000
  0.000  -0.000  -0.000  -0.000  -0.000   0.000   0.011   0.000
  0.000  -0.000  -0.000  -0.000  -0.000   0.000   0.023   0.000
 total augmentation occupancy for first ion, spin component:           1
  2.001   0.000   0.000  -0.013   0.000   0.001   0.000   0.000   0.000   0.000   0.000   0.000   0.000   0.000   0.000   0.000
  0.000   2.001   0.000   0.000  -0.013   0.000   0.000   0.000   0.000   0.000   0.000   0.000   0.000   0.000   0.000   0.000
  0.000   0.000   2.001   0.001   0.000  -0.013   0.000   0.000   0.000   0.000   0.000   0.000   0.000   0.000   0.000   0.000
 -0.013   0.000   0.001   0.081   0.000  -0.009   0.000   0.000   0.000   0.000   0.000   0.000   0.000   0.000   0.000   0.000
  0.000  -0.013   0.000   0.000   0.090   0.000   0.000   0.000   0.000   0.000   0.000   0.000   0.000   0.000   0.000   0.000
  0.001   0.000  -0.013  -0.009   0.000   0.081   0.000   0.000   0.000   0.000   0.000   0.000   0.000   0.000   0.000   0.000
  0.000   0.000   0.000   0.000   0.000   0.000   7.781   0.000   3.013   0.000   0.000  -5.808   0.000  -2.834   0.000  -0.000
  0.000   0.000   0.000   0.000   0.000   0.000   0.000   6.581   0.000   2.549   0.000   0.000  -4.655   0.000  -2.395   0.000
  0.000   0.000   0.000   0.000   0.000   0.000   3.013   0.000   5.967   0.000   0.000  -2.835   0.000  -4.109   0.000   0.000
  0.000   0.000   0.000   0.000   0.000   0.000   0.000   2.549   0.000   6.581   0.000   0.000  -2.395   0.000  -4.655   0.000
  0.000   0.000   0.000   0.000   0.000   0.000   0.000   0.000   0.000   0.000   3.895   0.000   0.000   0.000   0.000  -2.115
  0.000   0.000   0.000   0.000   0.000   0.000  -5.808   0.000  -2.835   0.000   0.000   5.010   0.000   2.699   0.000   0.000
  0.000   0.000   0.000   0.000   0.000   0.000   0.000  -4.655   0.000  -2.395   0.000   0.000   3.891   0.000   2.277   0.000
  0.000   0.000   0.000   0.000   0.000   0.000  -2.834   0.000  -4.109   0.000   0.000   2.699   0.000   3.401   0.000  -0.000
  0.000   0.000   0.000   0.000   0.000   0.000   0.000  -2.395   0.000  -4.655   0.000   0.000   2.277   0.000   3.891   0.000
  0.000   0.000   0.000   0.000   0.000   0.000   0.000   0.000  -0.000   0.000  -2.115  -0.000   0.000   0.000   0.000   1.460
  0.000   0.000   0.000   0.000   0.000   0.000   0.442   0.000  -0.298   0.000   0.000  -0.419   0.000   0.277   0.000   0.000
  0.000   0.000   0.000   0.000   0.000   0.000  -0.092   0.000   0.069   0.000  -0.000   0.097   0.000  -0.068   0.000  -0.000
 total augmentation occupancy for first ion, spin component:           2
  0.004   0.000  -0.000   0.017   0.000  -0.001   0.000   0.000   0.000   0.000   0.000   0.000   0.000   0.000   0.000   0.000
  0.000   0.004   0.000   0.000   0.018   0.000   0.000   0.000   0.000   0.000   0.000   0.000   0.000   0.000   0.000   0.000
 -0.000   0.000   0.004  -0.001   0.000   0.017   0.000   0.000   0.000   0.000   0.000   0.000   0.000   0.000   0.000   0.000
  0.017   0.000  -0.001  -0.011   0.000  -0.000   0.000   0.000   0.000   0.000   0.000   0.000   0.000   0.000   0.000   0.000
  0.000   0.018   0.000   0.000  -0.010   0.000   0.000   0.000   0.000   0.000   0.000   0.000   0.000   0.000   0.000   0.000
 -0.001   0.000   0.017  -0.000   0.000  -0.011   0.000   0.000   0.000   0.000   0.000   0.000   0.000   0.000   0.000   0.000
  0.000   0.000   0.000   0.000   0.000   0.000  -5.106   0.000  -1.500   0.000   0.000   2.731   0.000   1.101   0.000   0.000
  0.000   0.000   0.000   0.000   0.000   0.000   0.000  -4.550   0.000  -1.279   0.000   0.000   2.301   0.000   0.941   0.000
  0.000   0.000   0.000   0.000   0.000   0.000  -1.500   0.000  -4.148   0.000   0.000   1.101   0.000   2.012   0.000   0.000
  0.000   0.000   0.000   0.000   0.000   0.000   0.000  -1.279   0.000  -4.550   0.000   0.000   0.941   0.000   2.301   0.000
  0.000   0.000   0.000   0.000   0.000   0.000   0.000   0.000  -0.000   0.000  -3.252   0.000   0.000   0.000   0.000   1.353
  0.000   0.000   0.000   0.000   0.000   0.000   2.731   0.000   1.101   0.000   0.000  -1.458   0.000  -0.709   0.000   0.000
  0.000   0.000   0.000   0.000   0.000   0.000   0.000   2.301   0.000   0.941   0.000   0.000  -1.156   0.000  -0.608   0.000
  0.000   0.000   0.000   0.000   0.000   0.000   1.101   0.000   2.012   0.000   0.000  -0.709   0.000  -0.974   0.000  -0.000
  0.000   0.000   0.000   0.000   0.000   0.000   0.000   0.941   0.000   2.301   0.000   0.000  -0.608   0.000  -1.156   0.000
  0.000   0.000   0.000   0.000   0.000   0.000   0.000   0.000  -0.000   0.000   1.353   0.000   0.000  -0.000   0.000  -0.555
  0.000   0.000   0.000   0.000   0.000   0.000  -0.099   0.000   0.056   0.000  -0.000   0.023   0.000   0.001   0.000   0.000
  0.000   0.000   0.000   0.000   0.000   0.000   0.000   0.000  -0.006   0.000   0.000   0.008   0.000  -0.004   0.000   0.000


------------------------ aborting loop because EDIFF is reached ----------------------------------------


 


 total charge     
 
# of ion       s       p       d       tot
------------------------------------------
    1        0.168   6.150   4.966  11.284
    2        0.173   6.145   4.972  11.290
    3        1.731   4.403   0.000   6.135
    4        1.731   4.403   0.000   6.135
    5        1.731   4.400   0.000   6.131
    6        1.731   4.400   0.000   6.131
--------------------------------------------------
tot          7.266  29.900   9.938  47.105
 


 magnetization (x)
 
# of ion       s       p       d       tot
------------------------------------------
    1       -0.022  -0.018  -4.581  -4.621
    2        0.023   0.016   4.578   4.617
    3        0.002   0.025   0.000   0.027
    4        0.002   0.025   0.000   0.027
    5       -0.003  -0.021   0.000  -0.024
    6       -0.003  -0.021   0.000  -0.024
--------------------------------------------------
tot         -0.001   0.006  -0.003   0.003
 
    CHARGE:  cpu time    0.0449: real time    0.0449
    FORLOC:  cpu time    0.0011: real time    0.0011
    FORNL :  cpu time    0.2137: real time    0.2137
    STRESS:  cpu time    2.5998: real time    2.5998
    FORCOR:  cpu time    0.0353: real time    0.0353
    FORHAR:  cpu time    0.0025: real time    0.0025
    MIXING:  cpu time    0.0010: real time    0.0010
    OFIELD:  cpu time    0.0000: real time    0.0000

  FORCE on cell =-STRESS in cart. coord.  units (eV):
  Direction    XX          YY          ZZ          XY          YZ          ZX
  --------------------------------------------------------------------------------------
  Alpha Z   199.81684   199.81684   199.81684
  Ewald   -1587.19900 -1587.19900 -1031.66669    -0.00000     0.00000     0.00000
  Hartree   593.48491   593.48491   968.87507    -0.00000    -0.00000    -0.00000
  E(xc)    -150.57424  -150.55095  -150.68575    -0.01644    -0.02609    -0.02784
  Local     164.81295   164.81295  -759.20344     0.00000    -0.00000     0.00000
  n-local  -310.07628  -310.35452  -309.31303     0.01902     0.11100     0.11092
  augment   158.51853   158.51853   158.02726     0.00000     0.00000     0.00000
  Kinetic   931.07174   931.63944   924.17654    -0.43932    -0.81298    -0.84877
  Fock        0.00000     0.00000     0.00000     0.00000     0.00000     0.00000
  -------------------------------------------------------------------------------------
  Total       0.01183     0.01183     0.02680    -0.00000     0.00000     0.00000
  in kB       0.24532     0.24532     0.55585    -0.00000     0.00000     0.00000
  external pressure =        0.35 kB  Pullay stress =        0.00 kB


 VOLUME and BASIS-vectors are now :
 -----------------------------------------------------------------------------
  energy-cutoff  :      650.00
  volume of cell :       77.26
      direct lattice vectors                 reciprocal lattice vectors
     4.849219346 -0.000000000  0.000000000     0.206218760 -0.000000000  0.000000000
     0.000000000  4.849219346  0.000000000     0.000000000  0.206218760  0.000000000
     0.000000000  0.000000000  3.285495249     0.000000000  0.000000000  0.304368116

  length of vectors
     4.849219346  4.849219346  3.285495249     0.206218760  0.206218760  0.304368116


 FORCES acting on ions
    electron-ion (+dipol)            ewald-force                    non-local-force                 convergence-correction
 -----------------------------------------------------------------------------------------------
   -.182E-11 0.653E-11 0.838E-12   0.568E-13 0.227E-12 0.231E-13   -.166E-25 0.000E+00 0.000E+00   -.969E-13 -.171E-13 -.243E-13
   -.353E-13 -.515E-13 0.328E-13   -.853E-13 -.142E-12 0.237E-13   0.161E-25 0.000E+00 0.000E+00   0.123E-13 0.434E-13 -.175E-13
   -.325E+02 0.325E+02 -.157E-11   0.338E+02 -.338E+02 -.583E-14   -.120E+01 0.120E+01 0.000E+00   0.189E-05 -.189E-05 0.140E-13
   0.325E+02 -.325E+02 -.363E-12   -.338E+02 0.338E+02 -.543E-14   0.120E+01 -.120E+01 0.000E+00   -.189E-05 0.189E-05 -.250E-13
   0.325E+02 0.325E+02 -.164E-07   -.338E+02 -.338E+02 -.127E-13   0.120E+01 0.120E+01 0.000E+00   -.189E-05 -.189E-05 -.373E-11
   -.325E+02 -.325E+02 0.164E-07   0.338E+02 0.338E+02 -.124E-13   -.120E+01 -.120E+01 0.000E+00   0.189E-05 0.189E-05 0.371E-11
 -----------------------------------------------------------------------------------------------
   -.421E-13 0.112E-10 0.509E-11   0.000E+00 -.711E-14 0.104E-13   0.222E-15 0.000E+00 0.000E+00   -.866E-13 -.484E-14 -.755E-13
 
 
 POSITION                                       TOTAL-FORCE (eV/Angst)
 -----------------------------------------------------------------------------------
      2.42461      2.42461      1.64275         0.000000      0.000000      0.000000
     -0.00000      0.00000      0.00000         0.000000      0.000000      0.000000
      0.95098      3.89824      1.64275         0.002476     -0.002476      0.000000
      3.89824      0.95098      1.64275        -0.002476      0.002476     -0.000000
      1.47363      1.47363     -0.00000        -0.002476     -0.002476      0.000000
      3.37559      3.37559      0.00000         0.002476      0.002476     -0.000000
 -----------------------------------------------------------------------------------
    total drift:                               -0.000000      0.000000      0.000000


--------------------------------------------------------------------------------------------------------



  FREE ENERGIE OF THE ION-ELECTRON SYSTEM (eV)
  ---------------------------------------------------
  free  energy   TOTEN  =       -68.02685084 eV

  energy  without entropy=      -68.02685084  energy(sigma->0) =      -68.02685084
 
 d Force = 0.6522747E-06[ 0.935E-06, 0.370E-06]  d Energy = 0.1377804E-04-0.131E-04
 d Force = 0.1273648E-01[ 0.127E-01, 0.127E-01]  d Ewald  = 0.2993296E+01-0.298E+01


--------------------------------------------------------------------------------------------------------


    POTLOK:  cpu time    0.8270: real time    0.8270


--------------------------------------------------------------------------------------------------------


 Steepest descent step on ions:
 trial-energy change:   -0.000014  1 .order   -0.000078   -0.000192    0.000036
  (g-gl).g = 0.192E-03      g.g   = 0.192E-03  gl.gl    = 0.000E+00
 g(Force)  = 0.370E-06   g(Stress)= 0.191E-03 ortho     = 0.000E+00
 gamma     =   0.00000
 trial     =   1.00000
 opt step  =   0.42835  (harmonic =   0.84225) maximal distance =0.00002023
 next E    =   -68.026873   (d E  =  -0.00004)


--------------------------------------------------------------------------------------------------------


  
 reached required accuracy - stopping structural energy minimisation
     LOOP+:  cpu time   28.1960: real time   28.1965
    4ORBIT:  cpu time    0.0000: real time    0.0000
 


 total charge     
 
# of ion       s       p       d       tot
------------------------------------------
    1        0.168   6.150   4.966  11.284
    2        0.173   6.145   4.972  11.290
    3        1.731   4.403   0.000   6.135
    4        1.731   4.403   0.000   6.135
    5        1.731   4.400   0.000   6.131
    6        1.731   4.400   0.000   6.131
--------------------------------------------------
tot          7.266  29.900   9.938  47.105
 


 magnetization (x)
 
# of ion       s       p       d       tot
------------------------------------------
    1       -0.022  -0.018  -4.581  -4.621
    2        0.023   0.016   4.578   4.617
    3        0.002   0.025   0.000   0.027
    4        0.002   0.025   0.000   0.027
    5       -0.003  -0.021   0.000  -0.024
    6       -0.003  -0.021   0.000  -0.024
--------------------------------------------------
tot         -0.001   0.006  -0.003   0.003
 

 total amount of memory used by VASP MPI-rank0    47457. kBytes
=======================================================================

   base      :      30000. kBytes
   nonl-proj :       7870. kBytes
   fftplans  :       2240. kBytes
   grid      :       4569. kBytes
   one-center:        186. kBytes
   wavefun   :       2592. kBytes
 
  
  
 General timing and accounting informations for this job:
 ========================================================
  
                  Total CPU time used (sec):       78.671
                            User time (sec):       62.581
                          System time (sec):       16.090
                         Elapsed time (sec):       78.777
  
                   Maximum memory used (kb):       67888.
                   Average memory used (kb):           0.
  
                          Minor page faults:        13604
                          Major page faults:            8
                 Voluntary context switches:          158
