       N       E                     dE             d eps       ncg     rms          rms(c)
DAV:   1     0.628429195873E+03    0.62843E+03   -0.30989E+04  1296   0.167E+03
DAV:   2     0.172713293067E+01   -0.62670E+03   -0.61072E+03  1500   0.482E+02
DAV:   3    -0.408704320119E+02   -0.42598E+02   -0.42449E+02  1512   0.143E+02
DAV:   4    -0.414020175932E+02   -0.53159E+00   -0.53144E+00  1488   0.174E+01
DAV:   5    -0.414106084906E+02   -0.85909E-02   -0.85908E-02  1524   0.213E+00    0.248E+01
DAV:   6    -0.393287847888E+02    0.20818E+01   -0.15657E+01  1596   0.317E+01    0.159E+01
DAV:   7    -0.399685288696E+02   -0.63974E+00   -0.15616E+00  1524   0.106E+01    0.118E+01
DAV:   8    -0.398853026833E+02    0.83226E-01   -0.51718E-01  1512   0.592E+00    0.473E+00
DAV:   9    -0.401608904500E+02   -0.27559E+00   -0.73244E-02  1428   0.257E+00    0.138E+00
DAV:  10    -0.401613969715E+02   -0.50652E-03   -0.15808E-02  1548   0.101E+00    0.250E-01
DAV:  11    -0.401613608368E+02    0.36135E-04   -0.15147E-03  1380   0.263E-01    0.133E-01
DAV:  12    -0.401614046617E+02   -0.43825E-04   -0.36573E-05  1788   0.816E-02    0.616E-02
DAV:  13    -0.401614110440E+02   -0.63823E-05   -0.35672E-05  1392   0.328E-02    0.219E-02
DAV:  14    -0.401614125705E+02   -0.15265E-05   -0.18916E-06  1476   0.135E-02    0.386E-03
DAV:  15    -0.401614127543E+02   -0.18377E-06   -0.11266E-07  1020   0.294E-03    0.129E-03
DAV:  16    -0.401614127683E+02   -0.14061E-07   -0.17804E-08   648   0.133E-03
   1 F= -.40161413E+02 E0= -.40161413E+02  d E =-.401614E+02  mag=    -0.0000
