 vasp.5.4.4.18Apr17-6-g9f103f2a35 (build Apr 27 2017 11:13:10) complex          
  
 executed on           IFC91_ompi date 2020.05.15  12:17:00
 running on   16 total cores
 distrk:  each k-point on   16 cores,    1 groups
 distr:  one band on NCORES_PER_BAND=   1 cores,   16 groups


--------------------------------------------------------------------------------------------------------


 INCAR:
 POTCAR:    PAW_PBE Mn_pv 02Aug2007               
 POTCAR:    PAW_PBE F 08Apr2002                   

 ----------------------------------------------------------------------------- 
|                                                                             |
|           W    W    AA    RRRRR   N    N  II  N    N   GGGG   !!!           |
|           W    W   A  A   R    R  NN   N  II  NN   N  G    G  !!!           |
|           W    W  A    A  R    R  N N  N  II  N N  N  G       !!!           |
|           W WW W  AAAAAA  RRRRR   N  N N  II  N  N N  G  GGG   !            |
|           WW  WW  A    A  R   R   N   NN  II  N   NN  G    G                |
|           W    W  A    A  R    R  N    N  II  N    N   GGGG   !!!           |
|                                                                             |
|      For optimal performance we recommend to set                            |
|        NCORE= 4 - approx SQRT( number of cores)                             |
|      NCORE specifies how many cores store one orbital (NPAR=cpu/NCORE).     |
|      This setting can  greatly improve the performance of VASP for DFT.     |
|      The default,   NCORE=1            might be grossly inefficient         |
|      on modern multi-core architectures or massively parallel machines.     |
|      Do your own testing !!!!                                               |
|      Unfortunately you need to use the default for GW and RPA calculations. |
|      (for HF NCORE is supported but not extensively tested yet)             |
|                                                                             |
 ----------------------------------------------------------------------------- 

 POTCAR:    PAW_PBE Mn_pv 02Aug2007               
   VRHFIN =Mn: 3p4s3d                                                           
   LEXCH  = PE                                                                  
   EATOM  =  2025.2664 eV,  148.8529 Ry                                         
                                                                                
   TITEL  = PAW_PBE Mn_pv 02Aug2007                                             
   LULTRA =        F    use ultrasoft PP ?                                      
   IUNSCR =        1    unscreen: 0-lin 1-nonlin 2-no                           
   RPACOR =    2.080    partial core radius                                     
   POMASS =   54.938; ZVAL   =   13.000    mass and valenz                      
   RCORE  =    2.300    outmost cutoff radius                                   
   RWIGS  =    2.500; RWIGS  =    1.323    wigner-seitz radius (au A)           
   ENMAX  =  269.864; ENMIN  =  202.398 eV                                      
   ICORE  =        3    local potential                                         
   LCOR   =        T    correct aug charges                                     
   LPAW   =        T    paw PP                                                  
   EAUG   =  569.085                                                            
   DEXC   =    0.000                                                            
   RMAX   =    2.343    core radius for proj-oper                               
   RAUG   =    1.300    factor for augmentation sphere                          
   RDEP   =    2.338    radius for radial grids                                 
   RDEPT  =    1.798    core radius for aug-charge                              
                                                                                
   Atomic configuration                                                         
    8 entries                                                                   
     n  l   j            E        occ.                                          
     1  0  0.50     -6424.8287   2.0000                                         
     2  0  0.50      -739.1154   2.0000                                         
     2  1  1.50      -625.3949   6.0000                                         
     3  0  0.50       -81.6100   2.0000                                         
     3  1  1.50       -50.4667   6.0000                                         
     3  2  2.50        -3.3745   6.0000                                         
     4  0  0.50        -4.1331   1.0000                                         
     4  3  2.50        -1.3606   0.0000                                         
   Description                                                                  
     l       E           TYP  RCUT    TYP  RCUT                                 
     1    -50.4666628     23  2.000                                             
     1     -1.3605826     23  2.000                                             
     2     -3.3744729     23  2.300                                             
     2     -4.7350555     23  2.300                                             
     0     -4.1331431     23  2.300                                             
     0      7.6656591     23  2.300                                             
     3      9.5240782     23  2.300                                             
  local pseudopotential read in
  partial core-charges read in
  partial kinetic energy density read in
  atomic valenz-charges read in
  non local Contribution for L=           1  read in
    real space projection operators read in
  non local Contribution for L=           1  read in
    real space projection operators read in
  non local Contribution for L=           2  read in
    real space projection operators read in
  non local Contribution for L=           2  read in
    real space projection operators read in
  non local Contribution for L=           0  read in
    real space projection operators read in
  non local Contribution for L=           0  read in
    real space projection operators read in
    PAW grid and wavefunctions read in
 
   number of l-projection  operators is LMAX  =           6
   number of lm-projection operators is LMMAX =          18
 
 POTCAR:    PAW_PBE F 08Apr2002                   
   VRHFIN =F: s2p5                                                              
   LEXCH  = PE                                                                  
   EATOM  =   659.6475 eV,   48.4827 Ry                                         
                                                                                
   TITEL  = PAW_PBE F 08Apr2002                                                 
   LULTRA =        F    use ultrasoft PP ?                                      
   IUNSCR =        1    unscreen: 0-lin 1-nonlin 2-no                           
   RPACOR =    1.200    partial core radius                                     
   POMASS =   18.998; ZVAL   =    7.000    mass and valenz                      
   RCORE  =    1.520    outmost cutoff radius                                   
   RWIGS  =    1.500; RWIGS  =    0.794    wigner-seitz radius (au A)           
   ENMAX  =  400.000; ENMIN  =  300.000 eV                                      
   ICORE  =        2    local potential                                         
   LCOR   =        T    correct aug charges                                     
   LPAW   =        T    paw PP                                                  
   EAUG   =  613.614                                                            
   RMAX   =    1.555    core radius for proj-oper                               
   RAUG   =    1.300    factor for augmentation sphere                          
   RDEP   =    1.539    radius for radial grids                                 
   RDEPT  =    1.299    core radius for aug-charge                              
                                                                                
   Atomic configuration                                                         
    4 entries                                                                   
     n  l   j            E        occ.                                          
     1  0  0.50      -663.3661   2.0000                                         
     2  0  0.50       -29.8995   2.0000                                         
     2  1  0.50       -11.1114   5.0000                                         
     3  2  1.50       -10.8847   0.0000                                         
   Description                                                                  
     l       E           TYP  RCUT    TYP  RCUT                                 
     0    -29.8995018     23  1.200                                             
     0     -9.5240782     23  1.200                                             
     1    -11.1113914     23  1.520                                             
     1      1.3605826     23  1.520                                             
     2    -10.8846608      7  1.500                                             
  local pseudopotential read in
  partial core-charges read in
  partial kinetic energy density read in
  atomic valenz-charges read in
  non local Contribution for L=           0  read in
    real space projection operators read in
  non local Contribution for L=           0  read in
    real space projection operators read in
  non local Contribution for L=           1  read in
    real space projection operators read in
  non local Contribution for L=           1  read in
    real space projection operators read in
    PAW grid and wavefunctions read in
 
   number of l-projection  operators is LMAX  =           4
   number of lm-projection operators is LMMAX =           8
 
  PAW_PBE Mn_pv 02Aug2007               :
 energy of atom  1       EATOM=-2025.2664
 kinetic energy error for atom=    0.0047 (will be added to EATOM!!)
  PAW_PBE F 08Apr2002                   :
 energy of atom  2       EATOM= -659.6475
 kinetic energy error for atom=    0.0256 (will be added to EATOM!!)
 
 
 POSCAR: Mn  F                                   
  positions in cartesian coordinates
  No initial velocities read in

 METAGGA = SCAN     LMAXTAU =  6    LMIXTAU =  F

 exchange correlation table for  LEXCH =        8
   RHO(1)=    0.500       N(1)  =     2000
   RHO(2)=  100.500       N(2)  =     4000
 


--------------------------------------------------------------------------------------------------------


 ion  position               nearest neighbor table
   1  0.500  0.500  0.500-   3 2.09   4 2.09   5 2.12   6 2.12   5 2.12   6 2.12
   2  0.000  0.000  0.000-   5 2.09   6 2.09   3 2.12   4 2.12   3 2.12   4 2.12
   3  0.196  0.804  0.500-   1 2.09   2 2.12   2 2.12
   4  0.804  0.196  0.500-   1 2.09   2 2.12   2 2.12
   5  0.304  0.304  0.000-   2 2.09   1 2.12   1 2.12
   6  0.696  0.696  0.000-   2 2.09   1 2.12   1 2.12
 

IMPORTANT INFORMATION: All symmetrisations will be switched off!
NOSYMM: (Re-)initialisation of all symmetry stuff for point group C_1.

 
 
 KPOINTS: KPOINTS created by Atomic Simulation Env

Automatic generation of k-mesh.
Space group operators:
 irot       det(A)        alpha          n_x          n_y          n_z        tau_x        tau_y        tau_z
    1     1.000000     0.000000     1.000000     0.000000     0.000000     0.000000     0.000000     0.000000
 
 Subroutine IBZKPT returns following result:
 ===========================================
 
 Found     48 irreducible k-points:
 
 Following reciprocal coordinates:
            Coordinates               Weight
  0.125000  0.125000  0.083333      2.000000
  0.375000  0.125000  0.083333      2.000000
 -0.375000  0.125000  0.083333      2.000000
 -0.125000  0.125000  0.083333      2.000000
  0.125000  0.375000  0.083333      2.000000
  0.375000  0.375000  0.083333      2.000000
 -0.375000  0.375000  0.083333      2.000000
 -0.125000  0.375000  0.083333      2.000000
  0.125000 -0.375000  0.083333      2.000000
  0.375000 -0.375000  0.083333      2.000000
 -0.375000 -0.375000  0.083333      2.000000
 -0.125000 -0.375000  0.083333      2.000000
  0.125000 -0.125000  0.083333      2.000000
  0.375000 -0.125000  0.083333      2.000000
 -0.375000 -0.125000  0.083333      2.000000
 -0.125000 -0.125000  0.083333      2.000000
  0.125000  0.125000  0.250000      2.000000
  0.375000  0.125000  0.250000      2.000000
 -0.375000  0.125000  0.250000      2.000000
 -0.125000  0.125000  0.250000      2.000000
  0.125000  0.375000  0.250000      2.000000
  0.375000  0.375000  0.250000      2.000000
 -0.375000  0.375000  0.250000      2.000000
 -0.125000  0.375000  0.250000      2.000000
  0.125000 -0.375000  0.250000      2.000000
  0.375000 -0.375000  0.250000      2.000000
 -0.375000 -0.375000  0.250000      2.000000
 -0.125000 -0.375000  0.250000      2.000000
  0.125000 -0.125000  0.250000      2.000000
  0.375000 -0.125000  0.250000      2.000000
 -0.375000 -0.125000  0.250000      2.000000
 -0.125000 -0.125000  0.250000      2.000000
  0.125000  0.125000  0.416667      2.000000
  0.375000  0.125000  0.416667      2.000000
 -0.375000  0.125000  0.416667      2.000000
 -0.125000  0.125000  0.416667      2.000000
  0.125000  0.375000  0.416667      2.000000
  0.375000  0.375000  0.416667      2.000000
 -0.375000  0.375000  0.416667      2.000000
 -0.125000  0.375000  0.416667      2.000000
  0.125000 -0.375000  0.416667      2.000000
  0.375000 -0.375000  0.416667      2.000000
 -0.375000 -0.375000  0.416667      2.000000
 -0.125000 -0.375000  0.416667      2.000000
  0.125000 -0.125000  0.416667      2.000000
  0.375000 -0.125000  0.416667      2.000000
 -0.375000 -0.125000  0.416667      2.000000
 -0.125000 -0.125000  0.416667      2.000000
 
 Following cartesian coordinates:
            Coordinates               Weight
  0.025760  0.025760  0.025345      2.000000
  0.077279  0.025760  0.025345      2.000000
 -0.077279  0.025760  0.025345      2.000000
 -0.025760  0.025760  0.025345      2.000000
  0.025760  0.077279  0.025345      2.000000
  0.077279  0.077279  0.025345      2.000000
 -0.077279  0.077279  0.025345      2.000000
 -0.025760  0.077279  0.025345      2.000000
  0.025760 -0.077279  0.025345      2.000000
  0.077279 -0.077279  0.025345      2.000000
 -0.077279 -0.077279  0.025345      2.000000
 -0.025760 -0.077279  0.025345      2.000000
  0.025760 -0.025760  0.025345      2.000000
  0.077279 -0.025760  0.025345      2.000000
 -0.077279 -0.025760  0.025345      2.000000
 -0.025760 -0.025760  0.025345      2.000000
  0.025760  0.025760  0.076034      2.000000
  0.077279  0.025760  0.076034      2.000000
 -0.077279  0.025760  0.076034      2.000000
 -0.025760  0.025760  0.076034      2.000000
  0.025760  0.077279  0.076034      2.000000
  0.077279  0.077279  0.076034      2.000000
 -0.077279  0.077279  0.076034      2.000000
 -0.025760  0.077279  0.076034      2.000000
  0.025760 -0.077279  0.076034      2.000000
  0.077279 -0.077279  0.076034      2.000000
 -0.077279 -0.077279  0.076034      2.000000
 -0.025760 -0.077279  0.076034      2.000000
  0.025760 -0.025760  0.076034      2.000000
  0.077279 -0.025760  0.076034      2.000000
 -0.077279 -0.025760  0.076034      2.000000
 -0.025760 -0.025760  0.076034      2.000000
  0.025760  0.025760  0.126723      2.000000
  0.077279  0.025760  0.126723      2.000000
 -0.077279  0.025760  0.126723      2.000000
 -0.025760  0.025760  0.126723      2.000000
  0.025760  0.077279  0.126723      2.000000
  0.077279  0.077279  0.126723      2.000000
 -0.077279  0.077279  0.126723      2.000000
 -0.025760  0.077279  0.126723      2.000000
  0.025760 -0.077279  0.126723      2.000000
  0.077279 -0.077279  0.126723      2.000000
 -0.077279 -0.077279  0.126723      2.000000
 -0.025760 -0.077279  0.126723      2.000000
  0.025760 -0.025760  0.126723      2.000000
  0.077279 -0.025760  0.126723      2.000000
 -0.077279 -0.025760  0.126723      2.000000
 -0.025760 -0.025760  0.126723      2.000000
 
 TETIRR: Found    288 inequivalent tetrahedra from      576


--------------------------------------------------------------------------------------------------------




 Dimension of arrays:
   k-points           NKPTS =     48   k-points in BZ     NKDIM =     48   number of bands    NBANDS=     32
   number of dos      NEDOS =    301   number of ions     NIONS =      6
   non local maximal  LDIM  =      6   non local SUM 2l+1 LMDIM =     18
   total plane-waves  NPLWV =  18000
   max r-space proj   IRMAX =      1   max aug-charges    IRDMAX=  56627
   dimension x,y,z NGX =    30 NGY =   30 NGZ =   20
   dimension x,y,z NGXF=    60 NGYF=   60 NGZF=   40
   support grid    NGXF=   120 NGYF=  120 NGZF=   80
   ions per type =               2   4
   NGX,Y,Z   is equivalent  to a cutoff of  10.28, 10.28, 10.11 a.u.
   NGXF,Y,Z  is equivalent  to a cutoff of  20.56, 20.56, 20.22 a.u.

 SYSTEM =  unknown system                          
 POSCAR =  Mn  F                                   

 Startparameter for this run:
   NWRITE =      2    write-flag & timer
   PREC   = normal    normal or accurate (medium, high low for compatibility)
   ISTART =      1    job   : 0-new  1-cont  2-samecut
   ICHARG =      0    charge: 1-file 2-atom 10-const
   ISPIN  =      2    spin polarized calculation?
   LNONCOLLINEAR =      F non collinear calculations
   LSORBIT =      F    spin-orbit coupling
   INIWAV =      1    electr: 0-lowe 1-rand  2-diag
   LASPH  =      T    aspherical Exc in radial PAW
   METAGGA=      F    non-selfconsistent MetaGGA calc.

 Electronic Relaxation 1
   ENCUT  =  600.0 eV  44.10 Ry    6.64 a.u.   9.69  9.69  6.57*2*pi/ulx,y,z
   ENINI  =  600.0     initial cutoff
   ENAUG  =  613.6 eV  augmentation charge cutoff
   NELM   =     10;   NELMIN=  2; NELMDL=-10     # of ELM steps 
   EDIFF  = 0.1E-08   stopping-criterion for ELM
   LREAL  =      F    real-space projection
   NLSPLINE    = F    spline interpolate recip. space projectors
   LCOMPAT=      F    compatible to vasp.4.4
   GGA_COMPAT  = T    GGA compatible to vasp.4.4-vasp.4.6
   LMAXPAW     = -100 max onsite density
   LMAXMIX     =    4 max onsite mixed and CHGCAR
   VOSKOWN=      0    Vosko Wilk Nusair interpolation
   ROPT   =    0.00000   0.00000
 Ionic relaxation
   EDIFFG = 0.1E-07   stopping-criterion for IOM
   NSW    =      0    number of steps for IOM
   NBLOCK =      1;   KBLOCK =      1    inner block; outer block 
   IBRION =     -1    ionic relax: 0-MD 1-quasi-New 2-CG
   NFREE  =      0    steps in history (QN), initial steepest desc. (CG)
   ISIF   =      2    stress and relaxation
   IWAVPR =     10    prediction:  0-non 1-charg 2-wave 3-comb
   ISYM   =      0    0-nonsym 1-usesym 2-fastsym
   LCORR  =      T    Harris-Foulkes like correction to forces

   POTIM  = 0.5000    time-step for ionic-motion
   TEIN   =    0.0    initial temperature
   TEBEG  =    0.0;   TEEND  =   0.0 temperature during run
   SMASS  =  -3.00    Nose mass-parameter (am)
   estimated Nose-frequenzy (Omega)   =  0.10E-29 period in steps =****** mass=  -0.538E-27a.u.
   SCALEE = 1.0000    scale energy and forces
   NPACO  =    256;   APACO  = 16.0  distance and # of slots for P.C.
   PSTRESS=    0.0 pullay stress

  Mass of Ions in am
   POMASS =  54.94 19.00
  Ionic Valenz
   ZVAL   =  13.00  7.00
  Atomic Wigner-Seitz radii
   RWIGS  =  -1.00 -1.00
  virtual crystal weights 
   VCA    =   1.00  1.00
   NELECT =      54.0000    total number of electrons
   NUPDOWN=      -1.0000    fix difference up-down

 DOS related values:
   EMIN   =  10.00;   EMAX   =-10.00  energy-range for DOS
   EFERMI =   0.00
   ISMEAR =    -5;   SIGMA  =   0.20  broadening in eV -4-tet -1-fermi 0-gaus

 Electronic relaxation 2 (details)
   IALGO  =     38    algorithm
   LDIAG  =      T    sub-space diagonalisation (order eigenvalues)
   LSUBROT=      F    optimize rotation matrix (better conditioning)
   TURBO    =      0    0=normal 1=particle mesh
   IRESTART =      0    0=no restart 2=restart with 2 vectors
   NREBOOT  =      0    no. of reboots
   NMIN     =      0    reboot dimension
   EREF     =   0.00    reference energy to select bands
   IMIX   =      4    mixing-type and parameters
     AMIX     =   0.40;   BMIX     =  1.00
     AMIX_MAG =   1.60;   BMIX_MAG =  1.00
     AMIN     =   0.10
     WC   =   100.;   INIMIX=   1;  MIXPRE=   1;  MAXMIX= -45

 Intra band minimization:
   WEIMIN = 0.0000     energy-eigenvalue tresh-hold
   EBREAK =  0.78E-11  absolut break condition
   DEPER  =   0.30     relativ break condition  

   TIME   =   0.40     timestep for ELM

  volume/ion in A,a.u.               =      12.90        87.08
  Fermi-wavevector in a.u.,A,eV,Ry     =   1.451824  2.743549 28.678246  2.107792
  Thomas-Fermi vector in A             =   2.569276
 
 Write flags
   LWAVE        =      T    write WAVECAR
   LDOWNSAMPLE  =      F    k-point downsampling of WAVECAR
   LCHARG       =      T    write CHGCAR
   LVTOT        =      F    write LOCPOT, total local potential
   LVHAR        =      F    write LOCPOT, Hartree potential only
   LELF         =      F    write electronic localiz. function (ELF)
   LORBIT       =     11    0 simple, 1 ext, 2 COOP (PROOUT), +10 PAW based schemes


 Dipole corrections
   LMONO  =      F    monopole corrections only (constant potential shift)
   LDIPOL =      F    correct potential (dipole corrections)
   IDIPOL =      0    1-x, 2-y, 3-z, 4-all directions 
   EPSILON=  1.0000000 bulk dielectric constant

 LDA+U is selected, type is set to LDAUTYPE =  2
   angular momentum for each species LDAUL =     2   -1
   U (eV)           for each species LDAUU =   0.0  0.0
   J (eV)           for each species LDAUJ =   0.0  0.0
 Exchange correlation treatment:
   GGA     =    --    GGA type
   LEXCH   =     8    internal setting for exchange type
   VOSKOWN=      0    Vosko Wilk Nusair interpolation
   LHFCALC =     F    Hartree Fock is set to
   LHFONE  =     F    Hartree Fock one center treatment
   AEXX    =    0.0000 exact exchange contribution

 Linear response parameters
   LEPSILON=     F    determine dielectric tensor
   LRPA    =     F    only Hartree local field effects (RPA)
   LNABLA  =     F    use nabla operator in PAW spheres
   LVEL    =     F    velocity operator in full k-point grid
   LINTERFAST=   F  fast interpolation
   KINTER  =     0    interpolate to denser k-point grid
   CSHIFT  =0.1000    complex shift for real part using Kramers Kronig
   OMEGAMAX=  -1.0    maximum frequency
   DEG_THRESHOLD= 0.2000000E-02 threshold for treating states as degnerate
   RTIME   =   -0.100 relaxation time in fs
  (WPLASMAI=    0.000 imaginary part of plasma frequency in eV, 0.658/RTIME)
   DFIELD  = 0.0000000 0.0000000 0.0000000 field for delta impulse in time
 
 Orbital magnetization related:
   ORBITALMAG=     F  switch on orbital magnetization
   LCHIMAG   =     F  perturbation theory with respect to B field
   DQ        =  0.001000  dq finite difference perturbation B field
   LLRAUG    =     F  two centre corrections for induced B field



--------------------------------------------------------------------------------------------------------


 Static calculation
 charge density and potential will be updated during run
 spin polarized calculation
 Variant of blocked Davidson
 Davidson routine will perform the subspace rotation
 perform sub-space diagonalisation
    after iterative eigenvector-optimisation
 modified Broyden-mixing scheme, WC =      100.0
 initial mixing is a Kerker type mixing with AMIX =  0.4000 and BMIX =      1.0000
 Hartree-type preconditioning will be used
 using additional bands            5
 reciprocal scheme for non local part
 use partial core corrections
 calculate Harris-corrections to forces 
   (improved forces if not selfconsistent)
 use gradient corrections 
 use of overlap-Matrix (Vanderbilt PP)
 Fermi weights with tetrahedron method with Bloechl corrections


--------------------------------------------------------------------------------------------------------


  energy-cutoff  :      600.00
  volume of cell :       77.42
      direct lattice vectors                 reciprocal lattice vectors
     4.852568500  0.000000000  0.000000000     0.206076431  0.000000000  0.000000000
     0.000000000  4.852568500  0.000000000     0.000000000  0.206076431  0.000000000
     0.000000000  0.000000000  3.288011935     0.000000000  0.000000000  0.304135149

  length of vectors
     4.852568500  4.852568500  3.288011935     0.206076431  0.206076431  0.304135149


 
 old parameters found on file WAVECAR:
  energy-cutoff  :      600.00
  volume of cell :       77.42
      direct lattice vectors                 reciprocal lattice vectors
     4.852568500  0.000000000  0.000000000     0.206076431  0.000000000  0.000000000
     0.000000000  4.852568500  0.000000000     0.000000000  0.206076431  0.000000000
     0.000000000  0.000000000  3.288011935     0.000000000  0.000000000  0.304135149

  length of vectors

 
 k-points in units of 2pi/SCALE and weight: KPOINTS created by Atomic Simulation Env
   0.02575955  0.02575955  0.02534460       0.021
   0.07727866  0.02575955  0.02534460       0.021
  -0.07727866  0.02575955  0.02534460       0.021
  -0.02575955  0.02575955  0.02534460       0.021
   0.02575955  0.07727866  0.02534460       0.021
   0.07727866  0.07727866  0.02534460       0.021
  -0.07727866  0.07727866  0.02534460       0.021
  -0.02575955  0.07727866  0.02534460       0.021
   0.02575955 -0.07727866  0.02534460       0.021
   0.07727866 -0.07727866  0.02534460       0.021
  -0.07727866 -0.07727866  0.02534460       0.021
  -0.02575955 -0.07727866  0.02534460       0.021
   0.02575955 -0.02575955  0.02534460       0.021
   0.07727866 -0.02575955  0.02534460       0.021
  -0.07727866 -0.02575955  0.02534460       0.021
  -0.02575955 -0.02575955  0.02534460       0.021
   0.02575955  0.02575955  0.07603379       0.021
   0.07727866  0.02575955  0.07603379       0.021
  -0.07727866  0.02575955  0.07603379       0.021
  -0.02575955  0.02575955  0.07603379       0.021
   0.02575955  0.07727866  0.07603379       0.021
   0.07727866  0.07727866  0.07603379       0.021
  -0.07727866  0.07727866  0.07603379       0.021
  -0.02575955  0.07727866  0.07603379       0.021
   0.02575955 -0.07727866  0.07603379       0.021
   0.07727866 -0.07727866  0.07603379       0.021
  -0.07727866 -0.07727866  0.07603379       0.021
  -0.02575955 -0.07727866  0.07603379       0.021
   0.02575955 -0.02575955  0.07603379       0.021
   0.07727866 -0.02575955  0.07603379       0.021
  -0.07727866 -0.02575955  0.07603379       0.021
  -0.02575955 -0.02575955  0.07603379       0.021
   0.02575955  0.02575955  0.12672298       0.021
   0.07727866  0.02575955  0.12672298       0.021
  -0.07727866  0.02575955  0.12672298       0.021
  -0.02575955  0.02575955  0.12672298       0.021
   0.02575955  0.07727866  0.12672298       0.021
   0.07727866  0.07727866  0.12672298       0.021
  -0.07727866  0.07727866  0.12672298       0.021
  -0.02575955  0.07727866  0.12672298       0.021
   0.02575955 -0.07727866  0.12672298       0.021
   0.07727866 -0.07727866  0.12672298       0.021
  -0.07727866 -0.07727866  0.12672298       0.021
  -0.02575955 -0.07727866  0.12672298       0.021
   0.02575955 -0.02575955  0.12672298       0.021
   0.07727866 -0.02575955  0.12672298       0.021
  -0.07727866 -0.02575955  0.12672298       0.021
  -0.02575955 -0.02575955  0.12672298       0.021
 
 k-points in reciprocal lattice and weights: KPOINTS created by Atomic Simulation Env
   0.12500000  0.12500000  0.08333333       0.021
   0.37500000  0.12500000  0.08333333       0.021
  -0.37500000  0.12500000  0.08333333       0.021
  -0.12500000  0.12500000  0.08333333       0.021
   0.12500000  0.37500000  0.08333333       0.021
   0.37500000  0.37500000  0.08333333       0.021
  -0.37500000  0.37500000  0.08333333       0.021
  -0.12500000  0.37500000  0.08333333       0.021
   0.12500000 -0.37500000  0.08333333       0.021
   0.37500000 -0.37500000  0.08333333       0.021
  -0.37500000 -0.37500000  0.08333333       0.021
  -0.12500000 -0.37500000  0.08333333       0.021
   0.12500000 -0.12500000  0.08333333       0.021
   0.37500000 -0.12500000  0.08333333       0.021
  -0.37500000 -0.12500000  0.08333333       0.021
  -0.12500000 -0.12500000  0.08333333       0.021
   0.12500000  0.12500000  0.25000000       0.021
   0.37500000  0.12500000  0.25000000       0.021
  -0.37500000  0.12500000  0.25000000       0.021
  -0.12500000  0.12500000  0.25000000       0.021
   0.12500000  0.37500000  0.25000000       0.021
   0.37500000  0.37500000  0.25000000       0.021
  -0.37500000  0.37500000  0.25000000       0.021
  -0.12500000  0.37500000  0.25000000       0.021
   0.12500000 -0.37500000  0.25000000       0.021
   0.37500000 -0.37500000  0.25000000       0.021
  -0.37500000 -0.37500000  0.25000000       0.021
  -0.12500000 -0.37500000  0.25000000       0.021
   0.12500000 -0.12500000  0.25000000       0.021
   0.37500000 -0.12500000  0.25000000       0.021
  -0.37500000 -0.12500000  0.25000000       0.021
  -0.12500000 -0.12500000  0.25000000       0.021
   0.12500000  0.12500000  0.41666667       0.021
   0.37500000  0.12500000  0.41666667       0.021
  -0.37500000  0.12500000  0.41666667       0.021
  -0.12500000  0.12500000  0.41666667       0.021
   0.12500000  0.37500000  0.41666667       0.021
   0.37500000  0.37500000  0.41666667       0.021
  -0.37500000  0.37500000  0.41666667       0.021
  -0.12500000  0.37500000  0.41666667       0.021
   0.12500000 -0.37500000  0.41666667       0.021
   0.37500000 -0.37500000  0.41666667       0.021
  -0.37500000 -0.37500000  0.41666667       0.021
  -0.12500000 -0.37500000  0.41666667       0.021
   0.12500000 -0.12500000  0.41666667       0.021
   0.37500000 -0.12500000  0.41666667       0.021
  -0.37500000 -0.12500000  0.41666667       0.021
  -0.12500000 -0.12500000  0.41666667       0.021
 
 position of ions in fractional coordinates (direct lattice) 
   0.50000000  0.50000000  0.50000000
   0.00000000  0.00000000  0.00000000
   0.19609954  0.80390046  0.50000000
   0.80390046  0.19609954  0.50000000
   0.30390046  0.30390046  0.00000000
   0.69609954  0.69609954  0.00000000
 
 position of ions in cartesian coordinates  (Angst):
   2.42628425  2.42628425  1.64400597
   0.00000000  0.00000000  0.00000000
   0.95158645  3.90098205  1.64400597
   3.90098205  0.95158645  1.64400597
   1.47469780  1.47469780  0.00000000
   3.37787070  3.37787070  0.00000000
 


--------------------------------------------------------------------------------------------------------


 k-point  1 :   0.1250 0.1250 0.0833  plane waves:    2587
 k-point  2 :   0.3750 0.1250 0.0833  plane waves:    2596
 k-point  3 :  -0.3750 0.1250 0.0833  plane waves:    2596
 k-point  4 :  -0.1250 0.1250 0.0833  plane waves:    2587
 k-point  5 :   0.1250 0.3750 0.0833  plane waves:    2596
 k-point  6 :   0.3750 0.3750 0.0833  plane waves:    2581
 k-point  7 :  -0.3750 0.3750 0.0833  plane waves:    2581
 k-point  8 :  -0.1250 0.3750 0.0833  plane waves:    2596
 k-point  9 :   0.1250-0.3750 0.0833  plane waves:    2596
 k-point 10 :   0.3750-0.3750 0.0833  plane waves:    2581
 k-point 11 :  -0.3750-0.3750 0.0833  plane waves:    2581
 k-point 12 :  -0.1250-0.3750 0.0833  plane waves:    2596
 k-point 13 :   0.1250-0.1250 0.0833  plane waves:    2587
 k-point 14 :   0.3750-0.1250 0.0833  plane waves:    2596
 k-point 15 :  -0.3750-0.1250 0.0833  plane waves:    2596
 k-point 16 :  -0.1250-0.1250 0.0833  plane waves:    2587
 k-point 17 :   0.1250 0.1250 0.2500  plane waves:    2588
 k-point 18 :   0.3750 0.1250 0.2500  plane waves:    2582
 k-point 19 :  -0.3750 0.1250 0.2500  plane waves:    2582
 k-point 20 :  -0.1250 0.1250 0.2500  plane waves:    2588
 k-point 21 :   0.1250 0.3750 0.2500  plane waves:    2582
 k-point 22 :   0.3750 0.3750 0.2500  plane waves:    2594
 k-point 23 :  -0.3750 0.3750 0.2500  plane waves:    2594
 k-point 24 :  -0.1250 0.3750 0.2500  plane waves:    2582
 k-point 25 :   0.1250-0.3750 0.2500  plane waves:    2582
 k-point 26 :   0.3750-0.3750 0.2500  plane waves:    2594
 k-point 27 :  -0.3750-0.3750 0.2500  plane waves:    2594
 k-point 28 :  -0.1250-0.3750 0.2500  plane waves:    2582
 k-point 29 :   0.1250-0.1250 0.2500  plane waves:    2588
 k-point 30 :   0.3750-0.1250 0.2500  plane waves:    2582
 k-point 31 :  -0.3750-0.1250 0.2500  plane waves:    2582
 k-point 32 :  -0.1250-0.1250 0.2500  plane waves:    2588
 k-point 33 :   0.1250 0.1250 0.4167  plane waves:    2575
 k-point 34 :   0.3750 0.1250 0.4167  plane waves:    2574
 k-point 35 :  -0.3750 0.1250 0.4167  plane waves:    2574
 k-point 36 :  -0.1250 0.1250 0.4167  plane waves:    2575
 k-point 37 :   0.1250 0.3750 0.4167  plane waves:    2574
 k-point 38 :   0.3750 0.3750 0.4167  plane waves:    2576
 k-point 39 :  -0.3750 0.3750 0.4167  plane waves:    2576
 k-point 40 :  -0.1250 0.3750 0.4167  plane waves:    2574
 k-point 41 :   0.1250-0.3750 0.4167  plane waves:    2574
 k-point 42 :   0.3750-0.3750 0.4167  plane waves:    2576
 k-point 43 :  -0.3750-0.3750 0.4167  plane waves:    2576
 k-point 44 :  -0.1250-0.3750 0.4167  plane waves:    2574
 k-point 45 :   0.1250-0.1250 0.4167  plane waves:    2575
 k-point 46 :   0.3750-0.1250 0.4167  plane waves:    2574
 k-point 47 :  -0.3750-0.1250 0.4167  plane waves:    2574
 k-point 48 :  -0.1250-0.1250 0.4167  plane waves:    2575

 maximum and minimum number of plane-waves per node :      2596     2574

 maximum number of plane-waves:      2596
 maximum index in each direction: 
   IXMAX=   10   IYMAX=   10   IZMAX=    6
   IXMIN=  -10   IYMIN=  -10   IZMIN=   -6


 serial   3D FFT for wavefunctions
 parallel 3D FFT for charge:
    minimum data exchange during FFTs selected (reduces bandwidth)


 total amount of memory used by VASP MPI-rank0    79815. kBytes
=======================================================================

   base      :      30000. kBytes
   nonl-proj :      36303. kBytes
   fftplans  :       1489. kBytes
   grid      :       3580. kBytes
   one-center:        186. kBytes
   wavefun   :       8257. kBytes
 
     INWAV:  cpu time    0.6653: real time    0.6655
 Broyden mixing: mesh for mixing (old mesh)
   NGX = 19   NGY = 19   NGZ = 13
  (NGX  = 60   NGY  = 60   NGZ  = 40)
  gives a total of   4693 points

 charge density for first step will be calculated from the start-wavefunctions


--------------------------------------------------------------------------------------------------------


 Maximum index for augmentation-charges         4221 (set IRDMAX)


--------------------------------------------------------------------------------------------------------


 initial charge from wavefunction
 First call to EWALD:  gamma=   0.416
 Maximum number of real-space cells 2x 2x 3
 Maximum number of reciprocal cells 3x 3x 2

    FEWALD:  cpu time    0.0011: real time    0.0011


--------------------------------------- Iteration      1(   1)  ---------------------------------------


    POTLOK:  cpu time    0.0321: real time    0.0324
    SETDIJ:  cpu time    1.3223: real time    1.3503
atom =   1  type =  1  l = 2
 
 onsite density matrix
 
spin component  1
 
  0.0548 -0.0000  0.0298 -0.0000  0.0000
 -0.0000  0.0445  0.0000  0.0244 -0.0000
  0.0298  0.0000  0.0387  0.0000  0.0000
 -0.0000  0.0244  0.0000  0.0445  0.0000
  0.0000 -0.0000  0.0000  0.0000  0.0167
 
spin component  2
 
  0.9657  0.0000  0.0189  0.0000  0.0000
  0.0000  0.9611  0.0000  0.0165  0.0000
  0.0189  0.0000  0.9545  0.0000  0.0000
  0.0000  0.0165  0.0000  0.9611 -0.0000
  0.0000  0.0000  0.0000 -0.0000  0.9449
 
 occupancies and eigenvectors
 
  o =  0.0159  v =  0.6083  0.0000 -0.7937  0.0000 -0.0000  0.0000  0.0000  0.0000  0.0000  0.0000      0.0000  0.0000  0.0000  0.0000  0.0000  0.0000  0.0000  0.0000  0.0000  0.0000
  o =  0.0167  v = -0.0000  0.0001 -0.0000 -0.0001  1.0000  0.0000  0.0000  0.0000  0.0000  0.0000      0.0000  0.0000  0.0000  0.0000  0.0000  0.0000  0.0000  0.0000  0.0000  0.0000
  o =  0.0201  v = -0.0000  0.7071  0.0000 -0.7071 -0.0002  0.0000  0.0000  0.0000  0.0000  0.0000      0.0000  0.0000  0.0000  0.0000  0.0000  0.0000  0.0000  0.0000  0.0000  0.0000
  o =  0.0690  v = -0.0000 -0.7071 -0.0000 -0.7071 -0.0000  0.0000  0.0000  0.0000  0.0000  0.0000      0.0000  0.0000  0.0000  0.0000  0.0000  0.0000  0.0000  0.0000  0.0000  0.0000
  o =  0.0776  v = -0.7937  0.0000 -0.6083  0.0000 -0.0000  0.0000  0.0000  0.0000  0.0000  0.0000      0.0000  0.0000  0.0000  0.0000  0.0000  0.0000  0.0000  0.0000  0.0000  0.0000
  o =  0.9404  v =  0.0000  0.0000  0.0000  0.0000  0.0000 -0.5979  0.0000  0.8016  0.0000  0.0000      0.0000  0.0000  0.0000  0.0000  0.0000  0.0000  0.0000  0.0000  0.0000  0.0000
  o =  0.9447  v =  0.0000  0.0000  0.0000  0.0000  0.0000 -0.0000  0.7071  0.0000 -0.7071 -0.0029      0.0000  0.0000  0.0000  0.0000  0.0000  0.0000  0.0000  0.0000  0.0000  0.0000
  o =  0.9449  v =  0.0000  0.0000  0.0000  0.0000  0.0000 -0.0000 -0.0020  0.0000  0.0020 -1.0000      0.0000  0.0000  0.0000  0.0000  0.0000  0.0000  0.0000  0.0000  0.0000  0.0000
  o =  0.9776  v =  0.0000  0.0000  0.0000  0.0000  0.0000 -0.0001  0.7071 -0.0001  0.7071  0.0000      0.0000  0.0000  0.0000  0.0000  0.0000  0.0000  0.0000  0.0000  0.0000  0.0000
  o =  0.9798  v =  0.0000  0.0000  0.0000  0.0000  0.0000 -0.8016 -0.0001 -0.5979 -0.0001 -0.0000      0.0000  0.0000  0.0000  0.0000  0.0000  0.0000  0.0000  0.0000  0.0000  0.0000
atom =   2  type =  1  l = 2
 
 onsite density matrix
 
spin component  1
 
  0.9657  0.0000 -0.0189  0.0000 -0.0000
  0.0000  0.9611 -0.0000 -0.0165 -0.0000
 -0.0189 -0.0000  0.9545 -0.0000  0.0000
  0.0000 -0.0165 -0.0000  0.9611  0.0000
 -0.0000 -0.0000  0.0000  0.0000  0.9449
 
spin component  2
 
  0.0548  0.0000 -0.0298  0.0000 -0.0000
  0.0000  0.0445 -0.0000 -0.0244  0.0000
 -0.0298 -0.0000  0.0387 -0.0000  0.0000
  0.0000 -0.0244 -0.0000  0.0445 -0.0000
 -0.0000  0.0000  0.0000 -0.0000  0.0167
 
 occupancies and eigenvectors
 
  o =  0.0159  v =  0.0000  0.0000  0.0000  0.0000  0.0000 -0.6083 -0.0000 -0.7937 -0.0000 -0.0000      0.0000  0.0000  0.0000  0.0000  0.0000  0.0000  0.0000  0.0000  0.0000  0.0000
  o =  0.0167  v =  0.0000  0.0000  0.0000  0.0000  0.0000 -0.0000 -0.0000 -0.0000  0.0000  1.0000      0.0000  0.0000  0.0000  0.0000  0.0000  0.0000  0.0000  0.0000  0.0000  0.0000
  o =  0.0201  v =  0.0000  0.0000  0.0000  0.0000  0.0000  0.0000 -0.7071  0.0000 -0.7071  0.0000      0.0000  0.0000  0.0000  0.0000  0.0000  0.0000  0.0000  0.0000  0.0000  0.0000
  o =  0.0690  v =  0.0000  0.0000  0.0000  0.0000  0.0000 -0.0000  0.7071  0.0000 -0.7071  0.0000      0.0000  0.0000  0.0000  0.0000  0.0000  0.0000  0.0000  0.0000  0.0000  0.0000
  o =  0.0776  v =  0.0000  0.0000  0.0000  0.0000  0.0000 -0.7937 -0.0000  0.6083 -0.0000  0.0000      0.0000  0.0000  0.0000  0.0000  0.0000  0.0000  0.0000  0.0000  0.0000  0.0000
  o =  0.9404  v = -0.5979 -0.0000 -0.8016 -0.0000 -0.0000  0.0000  0.0000  0.0000  0.0000  0.0000      0.0000  0.0000  0.0000  0.0000  0.0000  0.0000  0.0000  0.0000  0.0000  0.0000
  o =  0.9447  v =  0.0000 -0.7071  0.0000 -0.7071  0.0000  0.0000  0.0000  0.0000  0.0000  0.0000      0.0000  0.0000  0.0000  0.0000  0.0000  0.0000  0.0000  0.0000  0.0000  0.0000
  o =  0.9449  v = -0.0000  0.0000 -0.0000 -0.0000  1.0000  0.0000  0.0000  0.0000  0.0000  0.0000      0.0000  0.0000  0.0000  0.0000  0.0000  0.0000  0.0000  0.0000  0.0000  0.0000
  o =  0.9776  v =  0.0000 -0.7071 -0.0000  0.7071  0.0000  0.0000  0.0000  0.0000  0.0000  0.0000      0.0000  0.0000  0.0000  0.0000  0.0000  0.0000  0.0000  0.0000  0.0000  0.0000
  o =  0.9798  v = -0.8016 -0.0000  0.5979 -0.0000  0.0000  0.0000  0.0000  0.0000  0.0000  0.0000      0.0000  0.0000  0.0000  0.0000  0.0000  0.0000  0.0000  0.0000  0.0000  0.0000
     EDDAV:  cpu time    2.1566: real time    2.1901
 BZINTS: Fermi energy:  2.382646; 54.000000 electrons
         Band energy:-796.337493;  BLOECHL correction:  0.000000
       DOS:  cpu time    0.0047: real time    0.0047
    --------------------------------------------
      LOOP:  cpu time    3.5157: real time    3.5775

 eigenvalue-minimisations  :  3088
 total energy-change (2. order) :-0.6802428E+02  (-0.4129959E-10)
 number of electron      54.0000007 magnetization      -0.0000000
 augmentation part       20.0031567 magnetization      -0.0000000

 Free energy of the ion-electron system (eV)
  ---------------------------------------------------
  alpha Z        PSCENC =       199.38838823
  Ewald energy   TEWEN  =     -4203.06823030
  -Hartree energ DENC   =     -2157.56588449
  -exchange      EXHF   =         0.00000000
  -V(xc)+E(xc)   XCENC  =       166.30375957
  PAW double counting   =      6583.42062483    -6549.17620051
  entropy T*S    EENTRO =         0.00000000
  eigenvalues    EBANDS =      -796.33749276
  atomic energy  EATOM  =      6689.01075358
  Solvation  Ediel_sol  =         0.00000000
  ---------------------------------------------------
  free energy    TOTEN  =       -68.02428184 eV

  energy without entropy =      -68.02428184  energy(sigma->0) =      -68.02428184


--------------------------------------------------------------------------------------------------------




--------------------------------------- Iteration      1(   2)  ---------------------------------------


     EDDAV:  cpu time    2.1354: real time    2.1355
 BZINTS: Fermi energy:  2.382646; 54.000000 electrons
         Band energy:-796.337493;  BLOECHL correction:  0.000000
       DOS:  cpu time    0.0047: real time    0.0047
    --------------------------------------------
      LOOP:  cpu time    2.1401: real time    2.1401

 eigenvalue-minimisations  :  3072
 total energy-change (2. order) :-0.1637090E-10  (-0.5562259E-11)
 number of electron      54.0000007 magnetization      -0.0000000
 augmentation part       20.0031567 magnetization      -0.0000000

 Free energy of the ion-electron system (eV)
  ---------------------------------------------------
  alpha Z        PSCENC =       199.38838823
  Ewald energy   TEWEN  =     -4203.06823030
  -Hartree energ DENC   =     -2157.56588449
  -exchange      EXHF   =         0.00000000
  -V(xc)+E(xc)   XCENC  =       166.30375957
  PAW double counting   =      6583.42062483    -6549.17620051
  entropy T*S    EENTRO =         0.00000000
  eigenvalues    EBANDS =      -796.33749276
  atomic energy  EATOM  =      6689.01075358
  Solvation  Ediel_sol  =         0.00000000
  ---------------------------------------------------
  free energy    TOTEN  =       -68.02428184 eV

  energy without entropy =      -68.02428184  energy(sigma->0) =      -68.02428184


--------------------------------------------------------------------------------------------------------




--------------------------------------- Iteration      1(   3)  ---------------------------------------


     EDDAV:  cpu time    2.1409: real time    2.1409
 BZINTS: Fermi energy:  2.382646; 54.000000 electrons
         Band energy:-796.337493;  BLOECHL correction:  0.000000
       DOS:  cpu time    0.0047: real time    0.0047
    --------------------------------------------
      LOOP:  cpu time    2.1456: real time    2.1456

 eigenvalue-minimisations  :  3072
 total energy-change (2. order) : 0.3637979E-11  (-0.1394186E-11)
 number of electron      54.0000007 magnetization      -0.0000000
 augmentation part       20.0031567 magnetization      -0.0000000

 Free energy of the ion-electron system (eV)
  ---------------------------------------------------
  alpha Z        PSCENC =       199.38838823
  Ewald energy   TEWEN  =     -4203.06823030
  -Hartree energ DENC   =     -2157.56588449
  -exchange      EXHF   =         0.00000000
  -V(xc)+E(xc)   XCENC  =       166.30375957
  PAW double counting   =      6583.42062483    -6549.17620051
  entropy T*S    EENTRO =         0.00000000
  eigenvalues    EBANDS =      -796.33749276
  atomic energy  EATOM  =      6689.01075358
  Solvation  Ediel_sol  =         0.00000000
  ---------------------------------------------------
  free energy    TOTEN  =       -68.02428184 eV

  energy without entropy =      -68.02428184  energy(sigma->0) =      -68.02428184


--------------------------------------------------------------------------------------------------------




--------------------------------------- Iteration      1(   4)  ---------------------------------------


     EDDAV:  cpu time    2.1411: real time    2.1411
 BZINTS: Fermi energy:  2.382646; 54.000000 electrons
         Band energy:-796.337493;  BLOECHL correction:  0.000000
       DOS:  cpu time    0.0047: real time    0.0047
    --------------------------------------------
      LOOP:  cpu time    2.1458: real time    2.1458

 eigenvalue-minimisations  :  3072
 total energy-change (2. order) :-0.3274181E-10  (-0.3199085E-12)
 number of electron      54.0000007 magnetization      -0.0000000
 augmentation part       20.0031567 magnetization      -0.0000000

 Free energy of the ion-electron system (eV)
  ---------------------------------------------------
  alpha Z        PSCENC =       199.38838823
  Ewald energy   TEWEN  =     -4203.06823030
  -Hartree energ DENC   =     -2157.56588449
  -exchange      EXHF   =         0.00000000
  -V(xc)+E(xc)   XCENC  =       166.30375957
  PAW double counting   =      6583.42062483    -6549.17620051
  entropy T*S    EENTRO =         0.00000000
  eigenvalues    EBANDS =      -796.33749276
  atomic energy  EATOM  =      6689.01075358
  Solvation  Ediel_sol  =         0.00000000
  ---------------------------------------------------
  free energy    TOTEN  =       -68.02428184 eV

  energy without entropy =      -68.02428184  energy(sigma->0) =      -68.02428184


--------------------------------------------------------------------------------------------------------




--------------------------------------- Iteration      1(   5)  ---------------------------------------


     EDDAV:  cpu time    2.1407: real time    2.1407
 BZINTS: Fermi energy:  2.382646; 54.000000 electrons
         Band energy:-796.337493;  BLOECHL correction:  0.000000
       DOS:  cpu time    0.0047: real time    0.0047
    --------------------------------------------
      LOOP:  cpu time    2.1454: real time    2.1454

 eigenvalue-minimisations  :  3072
 total energy-change (2. order) : 0.1909939E-10  (-0.3696580E-12)
 number of electron      54.0000007 magnetization      -0.0000000
 augmentation part       20.0031567 magnetization      -0.0000000

 Free energy of the ion-electron system (eV)
  ---------------------------------------------------
  alpha Z        PSCENC =       199.38838823
  Ewald energy   TEWEN  =     -4203.06823030
  -Hartree energ DENC   =     -2157.56588449
  -exchange      EXHF   =         0.00000000
  -V(xc)+E(xc)   XCENC  =       166.30375957
  PAW double counting   =      6583.42062483    -6549.17620051
  entropy T*S    EENTRO =         0.00000000
  eigenvalues    EBANDS =      -796.33749276
  atomic energy  EATOM  =      6689.01075358
  Solvation  Ediel_sol  =         0.00000000
  ---------------------------------------------------
  free energy    TOTEN  =       -68.02428184 eV

  energy without entropy =      -68.02428184  energy(sigma->0) =      -68.02428184


--------------------------------------------------------------------------------------------------------




--------------------------------------- Iteration      1(   6)  ---------------------------------------


     EDDAV:  cpu time    2.1408: real time    2.1408
 BZINTS: Fermi energy:  2.382646; 54.000000 electrons
         Band energy:-796.337493;  BLOECHL correction:  0.000000
       DOS:  cpu time    0.0047: real time    0.0047
    --------------------------------------------
      LOOP:  cpu time    2.1454: real time    2.1455

 eigenvalue-minimisations  :  3072
 total energy-change (2. order) : 0.2728484E-11  (-0.2578655E-12)
 number of electron      54.0000007 magnetization      -0.0000000
 augmentation part       20.0031567 magnetization      -0.0000000

 Free energy of the ion-electron system (eV)
  ---------------------------------------------------
  alpha Z        PSCENC =       199.38838823
  Ewald energy   TEWEN  =     -4203.06823030
  -Hartree energ DENC   =     -2157.56588449
  -exchange      EXHF   =         0.00000000
  -V(xc)+E(xc)   XCENC  =       166.30375957
  PAW double counting   =      6583.42062483    -6549.17620051
  entropy T*S    EENTRO =         0.00000000
  eigenvalues    EBANDS =      -796.33749276
  atomic energy  EATOM  =      6689.01075358
  Solvation  Ediel_sol  =         0.00000000
  ---------------------------------------------------
  free energy    TOTEN  =       -68.02428184 eV

  energy without entropy =      -68.02428184  energy(sigma->0) =      -68.02428184


--------------------------------------------------------------------------------------------------------




--------------------------------------- Iteration      1(   7)  ---------------------------------------


     EDDAV:  cpu time    2.1408: real time    2.1409
 BZINTS: Fermi energy:  2.382646; 54.000000 electrons
         Band energy:-796.337493;  BLOECHL correction:  0.000000
       DOS:  cpu time    0.0047: real time    0.0047
    --------------------------------------------
      LOOP:  cpu time    2.1455: real time    2.1455

 eigenvalue-minimisations  :  3072
 total energy-change (2. order) :-0.8185452E-11  (-0.2359663E-12)
 number of electron      54.0000007 magnetization      -0.0000000
 augmentation part       20.0031567 magnetization      -0.0000000

 Free energy of the ion-electron system (eV)
  ---------------------------------------------------
  alpha Z        PSCENC =       199.38838823
  Ewald energy   TEWEN  =     -4203.06823030
  -Hartree energ DENC   =     -2157.56588449
  -exchange      EXHF   =         0.00000000
  -V(xc)+E(xc)   XCENC  =       166.30375957
  PAW double counting   =      6583.42062483    -6549.17620051
  entropy T*S    EENTRO =         0.00000000
  eigenvalues    EBANDS =      -796.33749276
  atomic energy  EATOM  =      6689.01075358
  Solvation  Ediel_sol  =         0.00000000
  ---------------------------------------------------
  free energy    TOTEN  =       -68.02428184 eV

  energy without entropy =      -68.02428184  energy(sigma->0) =      -68.02428184


--------------------------------------------------------------------------------------------------------




--------------------------------------- Iteration      1(   8)  ---------------------------------------


     EDDAV:  cpu time    2.1403: real time    2.1404
 BZINTS: Fermi energy:  2.382646; 54.000000 electrons
         Band energy:-796.337493;  BLOECHL correction:  0.000000
       DOS:  cpu time    0.0047: real time    0.0047
    --------------------------------------------
      LOOP:  cpu time    2.1450: real time    2.1450

 eigenvalue-minimisations  :  3072
 total energy-change (2. order) :-0.2728484E-11  (-0.2050975E-12)
 number of electron      54.0000007 magnetization      -0.0000000
 augmentation part       20.0031567 magnetization      -0.0000000

 Free energy of the ion-electron system (eV)
  ---------------------------------------------------
  alpha Z        PSCENC =       199.38838823
  Ewald energy   TEWEN  =     -4203.06823030
  -Hartree energ DENC   =     -2157.56588449
  -exchange      EXHF   =         0.00000000
  -V(xc)+E(xc)   XCENC  =       166.30375957
  PAW double counting   =      6583.42062483    -6549.17620051
  entropy T*S    EENTRO =         0.00000000
  eigenvalues    EBANDS =      -796.33749276
  atomic energy  EATOM  =      6689.01075358
  Solvation  Ediel_sol  =         0.00000000
  ---------------------------------------------------
  free energy    TOTEN  =       -68.02428184 eV

  energy without entropy =      -68.02428184  energy(sigma->0) =      -68.02428184


--------------------------------------------------------------------------------------------------------




--------------------------------------- Iteration      1(   9)  ---------------------------------------


     EDDAV:  cpu time    2.1476: real time    2.1477
 BZINTS: Fermi energy:  2.382646; 54.000000 electrons
         Band energy:-796.337493;  BLOECHL correction:  0.000000
       DOS:  cpu time    0.0047: real time    0.0047
    --------------------------------------------
      LOOP:  cpu time    2.1522: real time    2.1523

 eigenvalue-minimisations  :  3072
 total energy-change (2. order) : 0.3637979E-10  (-0.2168844E-12)
 number of electron      54.0000007 magnetization      -0.0000000
 augmentation part       20.0031567 magnetization      -0.0000000

 Free energy of the ion-electron system (eV)
  ---------------------------------------------------
  alpha Z        PSCENC =       199.38838823
  Ewald energy   TEWEN  =     -4203.06823030
  -Hartree energ DENC   =     -2157.56588449
  -exchange      EXHF   =         0.00000000
  -V(xc)+E(xc)   XCENC  =       166.30375957
  PAW double counting   =      6583.42062483    -6549.17620051
  entropy T*S    EENTRO =         0.00000000
  eigenvalues    EBANDS =      -796.33749276
  atomic energy  EATOM  =      6689.01075358
  Solvation  Ediel_sol  =         0.00000000
  ---------------------------------------------------
  free energy    TOTEN  =       -68.02428184 eV

  energy without entropy =      -68.02428184  energy(sigma->0) =      -68.02428184


--------------------------------------------------------------------------------------------------------




--------------------------------------- Iteration      1(  10)  ---------------------------------------


     EDDAV:  cpu time    2.1410: real time    2.1410
 BZINTS: Fermi energy:  2.382646; 54.000000 electrons
         Band energy:-796.337493;  BLOECHL correction:  0.000000
       DOS:  cpu time    0.0047: real time    0.0047
    --------------------------------------------
      LOOP:  cpu time    2.1456: real time    2.1457

 eigenvalue-minimisations  :  3072
 total energy-change (2. order) :-0.6184564E-10  (-0.4535608E-12)
 number of electron      54.0000007 magnetization      -0.0000000
 augmentation part       20.0031567 magnetization      -0.0000000

 Free energy of the ion-electron system (eV)
  ---------------------------------------------------
  alpha Z        PSCENC =       199.38838823
  Ewald energy   TEWEN  =     -4203.06823030
  -Hartree energ DENC   =     -2157.56588449
  -exchange      EXHF   =         0.00000000
  -V(xc)+E(xc)   XCENC  =       166.30375957
  PAW double counting   =      6583.42062483    -6549.17620051
  entropy T*S    EENTRO =         0.00000000
  eigenvalues    EBANDS =      -796.33749276
  atomic energy  EATOM  =      6689.01075358
  Solvation  Ediel_sol  =         0.00000000
  ---------------------------------------------------
  free energy    TOTEN  =       -68.02428184 eV

  energy without entropy =      -68.02428184  energy(sigma->0) =      -68.02428184


--------------------------------------------------------------------------------------------------------




 average (electrostatic) potential at core
  the test charge radii are     0.9577  0.7167
  (the norm of the test charge is              1.0000)
       1 -57.8515       2 -57.8515       3 -50.5327       4 -50.5327       5 -50.5327
       6 -50.5327
 
 
 
 E-fermi :   2.3826     XC(G=0):  -9.9656     alpha+bet : -8.6566


 spin component 1

 k-point     1 :       0.1250    0.1250    0.0833
  band No.  band energies     occupation 
      1     -49.2491      1.00000
      2     -49.1868      1.00000
      3     -49.1862      1.00000
      4     -42.7435      1.00000
      5     -42.6644      1.00000
      6     -42.6628      1.00000
      7     -22.9457      1.00000
      8     -22.5128      1.00000
      9     -22.4764      1.00000
     10     -22.4052      1.00000
     11      -5.0606      1.00000
     12      -4.1962      1.00000
     13      -3.8469      1.00000
     14      -3.6604      1.00000
     15      -3.4214      1.00000
     16      -3.3047      1.00000
     17      -3.0848      1.00000
     18      -3.0484      1.00000
     19      -2.5358      1.00000
     20      -2.1256      1.00000
     21      -1.9784      1.00000
     22      -1.7028      1.00000
     23       0.6312      1.00000
     24       0.8630      1.00000
     25       0.9815      1.00000
     26       2.0641      1.00000
     27       2.1677      1.00000
     28       5.7095      0.00000
     29       6.1368      0.00000
     30       6.6227      0.00000
     31       6.6448      0.00000
     32       7.6210      0.00000

 k-point     2 :       0.3750    0.1250    0.0833
  band No.  band energies     occupation 
      1     -49.2491      1.00000
      2     -49.1868      1.00000
      3     -49.1862      1.00000
      4     -42.7435      1.00000
      5     -42.6644      1.00000
      6     -42.6628      1.00000
      7     -22.8322      1.00000
      8     -22.6393      1.00000
      9     -22.4639      1.00000
     10     -22.4108      1.00000
     11      -4.7789      1.00000
     12      -4.2481      1.00000
     13      -3.8107      1.00000
     14      -3.5587      1.00000
     15      -3.4450      1.00000
     16      -3.2637      1.00000
     17      -2.9958      1.00000
     18      -2.9360      1.00000
     19      -2.8330      1.00000
     20      -2.4979      1.00000
     21      -2.0438      1.00000
     22      -1.9027      1.00000
     23       0.6556      1.00000
     24       0.8777      1.00000
     25       0.9987      1.00000
     26       2.1607      1.00000
     27       2.1994      1.00000
     28       6.1154      0.00000
     29       6.6055      0.00000
     30       6.6217      0.00000
     31       6.8386      0.00000
     32       7.5245      0.00000

 k-point     3 :      -0.3750    0.1250    0.0833
  band No.  band energies     occupation 
      1     -49.2491      1.00000
      2     -49.1868      1.00000
      3     -49.1862      1.00000
      4     -42.7435      1.00000
      5     -42.6644      1.00000
      6     -42.6628      1.00000
      7     -22.8215      1.00000
      8     -22.6603      1.00000
      9     -22.4509      1.00000
     10     -22.4136      1.00000
     11      -4.7313      1.00000
     12      -4.4411      1.00000
     13      -3.7711      1.00000
     14      -3.5812      1.00000
     15      -3.2519      1.00000
     16      -3.1988      1.00000
     17      -3.1307      1.00000
     18      -2.9294      1.00000
     19      -2.7931      1.00000
     20      -2.4856      1.00000
     21      -2.0806      1.00000
     22      -1.8769      1.00000
     23       0.6678      1.00000
     24       0.8619      1.00000
     25       1.0110      1.00000
     26       2.0678      1.00000
     27       2.2065      1.00000
     28       6.1045      0.00000
     29       6.5969      0.00000
     30       6.6002      0.00000
     31       6.7950      0.00000
     32       7.6442      0.00000

 k-point     4 :      -0.1250    0.1250    0.0833
  band No.  band energies     occupation 
      1     -49.2491      1.00000
      2     -49.1868      1.00000
      3     -49.1862      1.00000
      4     -42.7435      1.00000
      5     -42.6644      1.00000
      6     -42.6628      1.00000
      7     -22.9422      1.00000
      8     -22.5404      1.00000
      9     -22.4499      1.00000
     10     -22.4076      1.00000
     11      -5.0631      1.00000
     12      -4.2960      1.00000
     13      -3.7593      1.00000
     14      -3.7524      1.00000
     15      -3.3177      1.00000
     16      -3.2835      1.00000
     17      -3.1033      1.00000
     18      -3.0432      1.00000
     19      -2.5128      1.00000
     20      -2.0857      1.00000
     21      -2.0041      1.00000
     22      -1.6961      1.00000
     23       0.6449      1.00000
     24       0.8476      1.00000
     25       0.9946      1.00000
     26       1.9521      1.00000
     27       2.1806      1.00000
     28       5.6866      0.00000
     29       6.1721      0.00000
     30       6.6163      0.00000
     31       6.6221      0.00000
     32       7.6806      0.00000

 k-point     5 :       0.1250    0.3750    0.0833
  band No.  band energies     occupation 
      1     -49.2491      1.00000
      2     -49.1868      1.00000
      3     -49.1862      1.00000
      4     -42.7435      1.00000
      5     -42.6644      1.00000
      6     -42.6628      1.00000
      7     -22.8322      1.00000
      8     -22.6393      1.00000
      9     -22.4639      1.00000
     10     -22.4108      1.00000
     11      -4.7789      1.00000
     12      -4.2481      1.00000
     13      -3.8107      1.00000
     14      -3.5587      1.00000
     15      -3.4450      1.00000
     16      -3.2637      1.00000
     17      -2.9958      1.00000
     18      -2.9360      1.00000
     19      -2.8330      1.00000
     20      -2.4979      1.00000
     21      -2.0438      1.00000
     22      -1.9027      1.00000
     23       0.6556      1.00000
     24       0.8777      1.00000
     25       0.9987      1.00000
     26       2.1607      1.00000
     27       2.1994      1.00000
     28       6.1154      0.00000
     29       6.6055      0.00000
     30       6.6217      0.00000
     31       6.8386      0.00000
     32       7.5245      0.00000

 k-point     6 :       0.3750    0.3750    0.0833
  band No.  band energies     occupation 
      1     -49.2491      1.00000
      2     -49.1868      1.00000
      3     -49.1862      1.00000
      4     -42.7436      1.00000
      5     -42.6644      1.00000
      6     -42.6628      1.00000
      7     -22.7787      1.00000
      8     -22.6484      1.00000
      9     -22.4967      1.00000
     10     -22.4239      1.00000
     11      -4.8275      1.00000
     12      -4.5326      1.00000
     13      -3.8669      1.00000
     14      -3.4807      1.00000
     15      -3.2338      1.00000
     16      -3.1174      1.00000
     17      -2.8350      1.00000
     18      -2.8041      1.00000
     19      -2.6815      1.00000
     20      -2.4736      1.00000
     21      -2.2994      1.00000
     22      -2.1034      1.00000
     23       0.6356      1.00000
     24       0.8626      1.00000
     25       1.0309      1.00000
     26       1.9565      1.00000
     27       2.1739      1.00000
     28       6.1639      0.00000
     29       6.6172      0.00000
     30       6.6413      0.00000
     31       6.9309      0.00000
     32       7.6368      0.00000

 k-point     7 :      -0.3750    0.3750    0.0833
  band No.  band energies     occupation 
      1     -49.2491      1.00000
      2     -49.1868      1.00000
      3     -49.1862      1.00000
      4     -42.7436      1.00000
      5     -42.6645      1.00000
      6     -42.6628      1.00000
      7     -22.7507      1.00000
      8     -22.6920      1.00000
      9     -22.4766      1.00000
     10     -22.4282      1.00000
     11      -4.7444      1.00000
     12      -4.6952      1.00000
     13      -3.8305      1.00000
     14      -3.5412      1.00000
     15      -3.1118      1.00000
     16      -3.0294      1.00000
     17      -2.9639      1.00000
     18      -2.7568      1.00000
     19      -2.6755      1.00000
     20      -2.5106      1.00000
     21      -2.2705      1.00000
     22      -2.0757      1.00000
     23       0.6464      1.00000
     24       0.8473      1.00000
     25       1.0420      1.00000
     26       1.8460      1.00000
     27       2.1944      1.00000
     28       6.1585      0.00000
     29       6.6114      0.00000
     30       6.6176      0.00000
     31       6.9302      0.00000
     32       7.6732      0.00000

 k-point     8 :      -0.1250    0.3750    0.0833
  band No.  band energies     occupation 
      1     -49.2491      1.00000
      2     -49.1868      1.00000
      3     -49.1862      1.00000
      4     -42.7435      1.00000
      5     -42.6644      1.00000
      6     -42.6628      1.00000
      7     -22.8215      1.00000
      8     -22.6603      1.00000
      9     -22.4509      1.00000
     10     -22.4136      1.00000
     11      -4.7313      1.00000
     12      -4.4411      1.00000
     13      -3.7711      1.00000
     14      -3.5812      1.00000
     15      -3.2519      1.00000
     16      -3.1988      1.00000
     17      -3.1307      1.00000
     18      -2.9294      1.00000
     19      -2.7931      1.00000
     20      -2.4856      1.00000
     21      -2.0806      1.00000
     22      -1.8769      1.00000
     23       0.6678      1.00000
     24       0.8619      1.00000
     25       1.0110      1.00000
     26       2.0678      1.00000
     27       2.2065      1.00000
     28       6.1045      0.00000
     29       6.5970      0.00000
     30       6.6000      0.00000
     31       6.7950      0.00000
     32       7.6442      0.00000

 k-point     9 :       0.1250   -0.3750    0.0833
  band No.  band energies     occupation 
      1     -49.2491      1.00000
      2     -49.1868      1.00000
      3     -49.1862      1.00000
      4     -42.7435      1.00000
      5     -42.6644      1.00000
      6     -42.6628      1.00000
      7     -22.8215      1.00000
      8     -22.6603      1.00000
      9     -22.4509      1.00000
     10     -22.4136      1.00000
     11      -4.7313      1.00000
     12      -4.4411      1.00000
     13      -3.7711      1.00000
     14      -3.5812      1.00000
     15      -3.2519      1.00000
     16      -3.1988      1.00000
     17      -3.1307      1.00000
     18      -2.9294      1.00000
     19      -2.7931      1.00000
     20      -2.4856      1.00000
     21      -2.0806      1.00000
     22      -1.8769      1.00000
     23       0.6678      1.00000
     24       0.8619      1.00000
     25       1.0110      1.00000
     26       2.0678      1.00000
     27       2.2065      1.00000
     28       6.1045      0.00000
     29       6.5969      0.00000
     30       6.6002      0.00000
     31       6.7950      0.00000
     32       7.6442      0.00000

 k-point    10 :       0.3750   -0.3750    0.0833
  band No.  band energies     occupation 
      1     -49.2491      1.00000
      2     -49.1868      1.00000
      3     -49.1862      1.00000
      4     -42.7436      1.00000
      5     -42.6645      1.00000
      6     -42.6628      1.00000
      7     -22.7507      1.00000
      8     -22.6920      1.00000
      9     -22.4766      1.00000
     10     -22.4282      1.00000
     11      -4.7444      1.00000
     12      -4.6952      1.00000
     13      -3.8305      1.00000
     14      -3.5412      1.00000
     15      -3.1118      1.00000
     16      -3.0294      1.00000
     17      -2.9639      1.00000
     18      -2.7568      1.00000
     19      -2.6755      1.00000
     20      -2.5106      1.00000
     21      -2.2705      1.00000
     22      -2.0757      1.00000
     23       0.6464      1.00000
     24       0.8473      1.00000
     25       1.0420      1.00000
     26       1.8460      1.00000
     27       2.1944      1.00000
     28       6.1585      0.00000
     29       6.6114      0.00000
     30       6.6176      0.00000
     31       6.9302      0.00000
     32       7.6732      0.00000

 k-point    11 :      -0.3750   -0.3750    0.0833
  band No.  band energies     occupation 
      1     -49.2491      1.00000
      2     -49.1868      1.00000
      3     -49.1862      1.00000
      4     -42.7436      1.00000
      5     -42.6644      1.00000
      6     -42.6628      1.00000
      7     -22.7787      1.00000
      8     -22.6484      1.00000
      9     -22.4967      1.00000
     10     -22.4239      1.00000
     11      -4.8275      1.00000
     12      -4.5326      1.00000
     13      -3.8669      1.00000
     14      -3.4807      1.00000
     15      -3.2338      1.00000
     16      -3.1174      1.00000
     17      -2.8350      1.00000
     18      -2.8041      1.00000
     19      -2.6815      1.00000
     20      -2.4736      1.00000
     21      -2.2994      1.00000
     22      -2.1034      1.00000
     23       0.6356      1.00000
     24       0.8626      1.00000
     25       1.0309      1.00000
     26       1.9565      1.00000
     27       2.1739      1.00000
     28       6.1639      0.00000
     29       6.6171      0.00000
     30       6.6414      0.00000
     31       6.9309      0.00000
     32       7.6369      0.00000

 k-point    12 :      -0.1250   -0.3750    0.0833
  band No.  band energies     occupation 
      1     -49.2491      1.00000
      2     -49.1868      1.00000
      3     -49.1862      1.00000
      4     -42.7435      1.00000
      5     -42.6644      1.00000
      6     -42.6628      1.00000
      7     -22.8322      1.00000
      8     -22.6393      1.00000
      9     -22.4639      1.00000
     10     -22.4108      1.00000
     11      -4.7789      1.00000
     12      -4.2481      1.00000
     13      -3.8108      1.00000
     14      -3.5587      1.00000
     15      -3.4450      1.00000
     16      -3.2637      1.00000
     17      -2.9958      1.00000
     18      -2.9360      1.00000
     19      -2.8330      1.00000
     20      -2.4979      1.00000
     21      -2.0438      1.00000
     22      -1.9027      1.00000
     23       0.6556      1.00000
     24       0.8777      1.00000
     25       0.9987      1.00000
     26       2.1607      1.00000
     27       2.1994      1.00000
     28       6.1154      0.00000
     29       6.6055      0.00000
     30       6.6217      0.00000
     31       6.8386      0.00000
     32       7.5245      0.00000

 k-point    13 :       0.1250   -0.1250    0.0833
  band No.  band energies     occupation 
      1     -49.2491      1.00000
      2     -49.1868      1.00000
      3     -49.1862      1.00000
      4     -42.7435      1.00000
      5     -42.6644      1.00000
      6     -42.6628      1.00000
      7     -22.9422      1.00000
      8     -22.5404      1.00000
      9     -22.4499      1.00000
     10     -22.4076      1.00000
     11      -5.0631      1.00000
     12      -4.2960      1.00000
     13      -3.7593      1.00000
     14      -3.7524      1.00000
     15      -3.3177      1.00000
     16      -3.2835      1.00000
     17      -3.1033      1.00000
     18      -3.0432      1.00000
     19      -2.5128      1.00000
     20      -2.0857      1.00000
     21      -2.0041      1.00000
     22      -1.6961      1.00000
     23       0.6449      1.00000
     24       0.8476      1.00000
     25       0.9946      1.00000
     26       1.9521      1.00000
     27       2.1806      1.00000
     28       5.6866      0.00000
     29       6.1721      0.00000
     30       6.6163      0.00000
     31       6.6221      0.00000
     32       7.6806      0.00000

 k-point    14 :       0.3750   -0.1250    0.0833
  band No.  band energies     occupation 
      1     -49.2491      1.00000
      2     -49.1868      1.00000
      3     -49.1862      1.00000
      4     -42.7435      1.00000
      5     -42.6644      1.00000
      6     -42.6628      1.00000
      7     -22.8215      1.00000
      8     -22.6603      1.00000
      9     -22.4509      1.00000
     10     -22.4136      1.00000
     11      -4.7313      1.00000
     12      -4.4411      1.00000
     13      -3.7711      1.00000
     14      -3.5812      1.00000
     15      -3.2519      1.00000
     16      -3.1988      1.00000
     17      -3.1307      1.00000
     18      -2.9294      1.00000
     19      -2.7931      1.00000
     20      -2.4856      1.00000
     21      -2.0806      1.00000
     22      -1.8769      1.00000
     23       0.6678      1.00000
     24       0.8619      1.00000
     25       1.0110      1.00000
     26       2.0678      1.00000
     27       2.2065      1.00000
     28       6.1045      0.00000
     29       6.5970      0.00000
     30       6.6000      0.00000
     31       6.7950      0.00000
     32       7.6442      0.00000

 k-point    15 :      -0.3750   -0.1250    0.0833
  band No.  band energies     occupation 
      1     -49.2491      1.00000
      2     -49.1868      1.00000
      3     -49.1862      1.00000
      4     -42.7435      1.00000
      5     -42.6644      1.00000
      6     -42.6628      1.00000
      7     -22.8322      1.00000
      8     -22.6393      1.00000
      9     -22.4639      1.00000
     10     -22.4108      1.00000
     11      -4.7789      1.00000
     12      -4.2481      1.00000
     13      -3.8108      1.00000
     14      -3.5587      1.00000
     15      -3.4450      1.00000
     16      -3.2637      1.00000
     17      -2.9958      1.00000
     18      -2.9360      1.00000
     19      -2.8330      1.00000
     20      -2.4979      1.00000
     21      -2.0438      1.00000
     22      -1.9027      1.00000
     23       0.6556      1.00000
     24       0.8777      1.00000
     25       0.9987      1.00000
     26       2.1607      1.00000
     27       2.1994      1.00000
     28       6.1154      0.00000
     29       6.6055      0.00000
     30       6.6217      0.00000
     31       6.8386      0.00000
     32       7.5245      0.00000

 k-point    16 :      -0.1250   -0.1250    0.0833
  band No.  band energies     occupation 
      1     -49.2491      1.00000
      2     -49.1868      1.00000
      3     -49.1862      1.00000
      4     -42.7435      1.00000
      5     -42.6644      1.00000
      6     -42.6628      1.00000
      7     -22.9457      1.00000
      8     -22.5128      1.00000
      9     -22.4764      1.00000
     10     -22.4052      1.00000
     11      -5.0606      1.00000
     12      -4.1962      1.00000
     13      -3.8469      1.00000
     14      -3.6604      1.00000
     15      -3.4214      1.00000
     16      -3.3047      1.00000
     17      -3.0848      1.00000
     18      -3.0484      1.00000
     19      -2.5358      1.00000
     20      -2.1256      1.00000
     21      -1.9784      1.00000
     22      -1.7028      1.00000
     23       0.6312      1.00000
     24       0.8630      1.00000
     25       0.9815      1.00000
     26       2.0641      1.00000
     27       2.1677      1.00000
     28       5.7095      0.00000
     29       6.1368      0.00000
     30       6.6227      0.00000
     31       6.6448      0.00000
     32       7.6209      0.00000

 k-point    17 :       0.1250    0.1250    0.2500
  band No.  band energies     occupation 
      1     -49.2475      1.00000
      2     -49.1959      1.00000
      3     -49.1856      1.00000
      4     -42.7404      1.00000
      5     -42.6778      1.00000
      6     -42.6635      1.00000
      7     -22.8349      1.00000
      8     -22.5023      1.00000
      9     -22.4831      1.00000
     10     -22.4218      1.00000
     11      -4.7613      1.00000
     12      -4.1344      1.00000
     13      -3.9096      1.00000
     14      -3.7395      1.00000
     15      -3.4877      1.00000
     16      -3.3324      1.00000
     17      -3.2880      1.00000
     18      -2.9639      1.00000
     19      -2.9237      1.00000
     20      -2.2278      1.00000
     21      -2.1899      1.00000
     22      -1.8721      1.00000
     23       0.7615      1.00000
     24       0.8889      1.00000
     25       0.9628      1.00000
     26       1.9014      1.00000
     27       2.1008      1.00000
     28       6.3255      0.00000
     29       6.5070      0.00000
     30       6.5383      0.00000
     31       6.7794      0.00000
     32       7.6139      0.00000

 k-point    18 :       0.3750    0.1250    0.2500
  band No.  band energies     occupation 
      1     -49.2476      1.00000
      2     -49.1959      1.00000
      3     -49.1856      1.00000
      4     -42.7404      1.00000
      5     -42.6778      1.00000
      6     -42.6635      1.00000
      7     -22.7468      1.00000
      8     -22.5902      1.00000
      9     -22.4754      1.00000
     10     -22.4326      1.00000
     11      -4.5504      1.00000
     12      -4.1705      1.00000
     13      -3.9821      1.00000
     14      -3.7352      1.00000
     15      -3.5882      1.00000
     16      -3.5004      1.00000
     17      -3.1719      1.00000
     18      -3.0062      1.00000
     19      -2.8085      1.00000
     20      -2.3469      1.00000
     21      -2.1130      1.00000
     22      -1.9647      1.00000
     23       0.7807      1.00000
     24       0.8807      1.00000
     25       0.9376      1.00000
     26       1.8837      1.00000
     27       2.2214      1.00000
     28       6.3800      0.00000
     29       6.4927      0.00000
     30       6.5238      0.00000
     31       7.0687      0.00000
     32       7.6867      0.00000

 k-point    19 :      -0.3750    0.1250    0.2500
  band No.  band energies     occupation 
      1     -49.2476      1.00000
      2     -49.1959      1.00000
      3     -49.1856      1.00000
      4     -42.7404      1.00000
      5     -42.6778      1.00000
      6     -42.6635      1.00000
      7     -22.7344      1.00000
      8     -22.6138      1.00000
      9     -22.4697      1.00000
     10     -22.4272      1.00000
     11      -4.5517      1.00000
     12      -4.2740      1.00000
     13      -3.8880      1.00000
     14      -3.8319      1.00000
     15      -3.6348      1.00000
     16      -3.4310      1.00000
     17      -3.0766      1.00000
     18      -2.9886      1.00000
     19      -2.7819      1.00000
     20      -2.3639      1.00000
     21      -2.1241      1.00000
     22      -1.9451      1.00000
     23       0.7948      1.00000
     24       0.8843      1.00000
     25       0.9549      1.00000
     26       1.8452      1.00000
     27       2.1253      1.00000
     28       6.3758      0.00000
     29       6.4913      0.00000
     30       6.4992      0.00000
     31       7.2689      0.00000
     32       7.6952      0.00000

 k-point    20 :      -0.1250    0.1250    0.2500
  band No.  band energies     occupation 
      1     -49.2475      1.00000
      2     -49.1959      1.00000
      3     -49.1856      1.00000
      4     -42.7404      1.00000
      5     -42.6778      1.00000
      6     -42.6635      1.00000
      7     -22.8308      1.00000
      8     -22.5270      1.00000
      9     -22.4703      1.00000
     10     -22.4140      1.00000
     11      -4.7865      1.00000
     12      -4.1716      1.00000
     13      -3.8109      1.00000
     14      -3.7358      1.00000
     15      -3.6924      1.00000
     16      -3.2742      1.00000
     17      -3.2457      1.00000
     18      -2.9229      1.00000
     19      -2.8776      1.00000
     20      -2.2297      1.00000
     21      -2.1581      1.00000
     22      -1.8727      1.00000
     23       0.7763      1.00000
     24       0.8941      1.00000
     25       0.9810      1.00000
     26       1.8564      1.00000
     27       1.9978      1.00000
     28       6.3216      0.00000
     29       6.5055      0.00000
     30       6.5119      0.00000
     31       7.0245      0.00000
     32       7.4507      0.00000

 k-point    21 :       0.1250    0.3750    0.2500
  band No.  band energies     occupation 
      1     -49.2476      1.00000
      2     -49.1959      1.00000
      3     -49.1856      1.00000
      4     -42.7404      1.00000
      5     -42.6778      1.00000
      6     -42.6635      1.00000
      7     -22.7468      1.00000
      8     -22.5902      1.00000
      9     -22.4754      1.00000
     10     -22.4326      1.00000
     11      -4.5504      1.00000
     12      -4.1705      1.00000
     13      -3.9821      1.00000
     14      -3.7352      1.00000
     15      -3.5882      1.00000
[...]
     17      -3.1710      1.00000
     18      -3.0762      1.00000
     19      -2.7942      1.00000
     20      -2.4154      1.00000
     21      -2.3297      1.00000
     22      -2.2116      1.00000
     23       0.7823      1.00000
     24       0.8130      1.00000
     25       1.0669      1.00000
     26       1.7442      1.00000
     27       2.1294      1.00000
     28       6.3883      0.00000
     29       6.4404      0.00000
     30       6.5399      0.00000
     31       7.3208      0.00000
     32       7.5739      0.00000

 k-point    46 :       0.3750   -0.1250    0.4167
  band No.  band energies     occupation 
      1     -49.2460      1.00000
      2     -49.2050      1.00000
      3     -49.1851      1.00000
      4     -42.7372      1.00000
      5     -42.6927      1.00000
      6     -42.6627      1.00000
      7     -22.6401      1.00000
      8     -22.5351      1.00000
      9     -22.5010      1.00000
     10     -22.4664      1.00000
     11      -4.4421      1.00000
     12      -4.3409      1.00000
     13      -4.0239      1.00000
     14      -3.9612      1.00000
     15      -3.6200      1.00000
     16      -3.4701      1.00000
     17      -3.2657      1.00000
     18      -3.1394      1.00000
     19      -2.5214      1.00000
     20      -2.3949      1.00000
     21      -2.2038      1.00000
     22      -2.0816      1.00000
     23       0.7578      1.00000
     24       0.7961      1.00000
     25       1.0064      1.00000
     26       1.6992      1.00000
     27       2.2550      1.00000
     28       6.3759      0.00000
     29       6.4330      0.00000
     30       6.5971      0.00000
     31       7.2974      0.00000
     32       7.7352      0.00000

 k-point    47 :      -0.3750   -0.1250    0.4167
  band No.  band energies     occupation 
      1     -49.2460      1.00000
      2     -49.2050      1.00000
      3     -49.1851      1.00000
      4     -42.7372      1.00000
      5     -42.6927      1.00000
      6     -42.6627      1.00000
      7     -22.6204      1.00000
      8     -22.5638      1.00000
      9     -22.5138      1.00000
     10     -22.4446      1.00000
     11      -4.5050      1.00000
     12      -4.2483      1.00000
     13      -4.1659      1.00000
     14      -3.9877      1.00000
     15      -3.6183      1.00000
     16      -3.3823      1.00000
     17      -3.2083      1.00000
     18      -3.1035      1.00000
     19      -2.5352      1.00000
     20      -2.3751      1.00000
     21      -2.1965      1.00000
     22      -2.0939      1.00000
     23       0.7733      1.00000
     24       0.8024      1.00000
     25       1.0127      1.00000
     26       1.6563      1.00000
     27       2.1772      1.00000
     28       6.3813      0.00000
     29       6.4157      0.00000
     30       6.5818      0.00000
     31       7.3314      0.00000
     32       7.8499      0.00000

 k-point    48 :      -0.1250   -0.1250    0.4167
  band No.  band energies     occupation 
      1     -49.2460      1.00000
      2     -49.2050      1.00000
      3     -49.1850      1.00000
      4     -42.7372      1.00000
      5     -42.6927      1.00000
      6     -42.6626      1.00000
      7     -22.6770      1.00000
      8     -22.5424      1.00000
      9     -22.5031      1.00000
     10     -22.4205      1.00000
     11      -4.4652      1.00000
     12      -4.2159      1.00000
     13      -4.0278      1.00000
     14      -3.8461      1.00000
     15      -3.6867      1.00000
     16      -3.4928      1.00000
     17      -3.1111      1.00000
     18      -2.9328      1.00000
     19      -2.8000      1.00000
     20      -2.3933      1.00000
     21      -2.3051      1.00000
     22      -2.2463      1.00000
     23       0.7863      1.00000
     24       0.8296      1.00000
     25       1.0736      1.00000
     26       1.6994      1.00000
     27       2.0485      1.00000
     28       6.3933      0.00000
     29       6.4227      0.00000
     30       6.5259      0.00000
     31       7.3766      0.00000
     32       7.6688      0.00000


--------------------------------------------------------------------------------------------------------


 soft charge-density along one line, spin component           1
         0         1         2         3         4         5         6         7         8         9
 total charge-density along one line
 
 soft charge-density along one line, spin component           2
         0         1         2         3         4         5         6         7         8         9
 total charge-density along one line
 
 pseudopotential strength for first ion, spin component:           1
-45.227  -0.000  -0.038   7.798   0.000   0.016  -0.000   0.000
 -0.000 -45.193  -0.000   0.000   7.784   0.000  -0.000   0.000
 -0.038  -0.000 -45.227   0.016   0.000   7.798   0.000  -0.000
  7.798   0.000   0.016   5.590  -0.000   0.004  -0.000  -0.000
  0.000   7.784   0.000  -0.000   5.585  -0.000  -0.000   0.000
  0.016   0.000   7.798   0.004  -0.000   5.590  -0.000  -0.000
 -0.000  -0.000   0.000  -0.000  -0.000  -0.000  -2.984  -0.000
  0.000   0.000  -0.000  -0.000   0.000  -0.000  -0.000  -2.966
 -0.000   0.000   0.000   0.000   0.000   0.000   0.020  -0.000
 -0.000   0.000   0.000  -0.000   0.000  -0.000  -0.000  -0.018
  0.000  -0.000  -0.000  -0.000  -0.000  -0.000  -0.000   0.000
 -0.000  -0.000   0.000  -0.000  -0.000  -0.000  -3.499  -0.000
  0.000   0.000  -0.000  -0.000   0.000  -0.000  -0.000  -3.482
 -0.000   0.000   0.000   0.000   0.000   0.000   0.018  -0.000
 -0.000   0.000   0.000  -0.000   0.000  -0.000  -0.000  -0.018
  0.000  -0.000  -0.000  -0.000  -0.000  -0.000  -0.000   0.000
  0.000  -0.000   0.000   0.000  -0.000  -0.000   0.011   0.000
  0.000  -0.000   0.000   0.000  -0.000  -0.000   0.022   0.000
 pseudopotential strength for first ion, spin component:           2
-50.980   0.000  -0.005   9.797   0.000   0.016   0.000   0.000
  0.000 -50.980   0.000   0.000   9.783   0.000  -0.000   0.000
 -0.005   0.000 -50.980   0.016   0.000   9.797  -0.000  -0.000
  9.797   0.000   0.016   4.707   0.000   0.001  -0.000  -0.000
  0.000   9.783   0.000   0.000   4.706   0.000   0.000  -0.000
  0.016   0.000   9.797   0.001   0.000   4.707  -0.000   0.000
  0.000  -0.000  -0.000  -0.000   0.000  -0.000  -7.337  -0.000
  0.000   0.000  -0.000  -0.000  -0.000   0.000  -0.000  -7.327
  0.000   0.000  -0.000  -0.000  -0.000   0.000  -0.009   0.000
 -0.000  -0.000   0.000   0.000   0.000  -0.000  -0.000  -0.027
 -0.000  -0.000   0.000  -0.000  -0.000  -0.000   0.000  -0.000
  0.000  -0.000  -0.000  -0.000   0.000  -0.000  -7.808  -0.000
  0.000   0.000  -0.000  -0.000  -0.000   0.000  -0.000  -7.799
  0.000   0.000  -0.000  -0.000  -0.000   0.000  -0.008   0.000
 -0.000  -0.000   0.000   0.000   0.000  -0.000  -0.000  -0.027
 -0.000  -0.000   0.000  -0.000  -0.000  -0.000   0.000  -0.000
  0.000  -0.000  -0.000  -0.000   0.000   0.000   0.011   0.000
  0.000  -0.000  -0.000  -0.000   0.000   0.000   0.023   0.000
 total augmentation occupancy for first ion, spin component:           1
  2.001   0.000   0.000  -0.013  -0.000   0.001  -0.000  -0.000  -0.000  -0.000  -0.000   0.000   0.000   0.000   0.000   0.000
  0.000   2.001   0.000  -0.000  -0.013  -0.000   0.000   0.000  -0.000   0.000  -0.000  -0.000  -0.000   0.000  -0.000   0.000
  0.000   0.000   2.001   0.001  -0.000  -0.013  -0.000  -0.000   0.000   0.000  -0.000   0.000   0.000  -0.000  -0.000   0.000
 -0.013  -0.000   0.001   0.081  -0.000  -0.009   0.000  -0.000   0.000   0.000   0.000  -0.000   0.000  -0.000  -0.000  -0.000
 -0.000  -0.013  -0.000  -0.000   0.090  -0.000  -0.000   0.000  -0.000  -0.000  -0.000   0.000  -0.000   0.000   0.000   0.000
  0.001  -0.000  -0.013  -0.009  -0.000   0.081   0.000   0.000  -0.000   0.000   0.000   0.000  -0.000   0.000  -0.000   0.000
 -0.000   0.000  -0.000   0.000  -0.000   0.000   7.757   0.000   2.996   0.000   0.000  -5.784  -0.000  -2.817  -0.000  -0.000
 -0.000   0.000  -0.000  -0.000   0.000   0.000   0.000   6.564   0.000   2.534   0.000  -0.000  -4.636  -0.000  -2.380  -0.000
 -0.000  -0.000   0.000   0.000  -0.000  -0.000   2.996   0.000   5.955   0.000   0.000  -2.818  -0.000  -4.096  -0.000  -0.000
 -0.000   0.000   0.000   0.000  -0.000   0.000   0.000   2.534   0.000   6.564  -0.000  -0.000  -2.380  -0.000  -4.636   0.000
 -0.000  -0.000  -0.000   0.000  -0.000   0.000   0.000   0.000   0.000  -0.000   3.894  -0.000  -0.000  -0.000   0.000  -2.113
  0.000  -0.000   0.000  -0.000   0.000   0.000  -5.784  -0.000  -2.818  -0.000  -0.000   4.984  -0.000   2.683  -0.000   0.000
  0.000  -0.000   0.000   0.000  -0.000  -0.000  -0.000  -4.636  -0.000  -2.380  -0.000  -0.000   3.871   0.000   2.263   0.000
  0.000   0.000  -0.000  -0.000   0.000   0.000  -2.817  -0.000  -4.096  -0.000  -0.000   2.683   0.000   3.385   0.000   0.000
  0.000  -0.000  -0.000  -0.000   0.000  -0.000  -0.000  -2.380  -0.000  -4.636   0.000  -0.000   2.263   0.000   3.871  -0.000
  0.000   0.000   0.000  -0.000   0.000   0.000  -0.000  -0.000  -0.000   0.000  -2.113   0.000   0.000   0.000  -0.000   1.456
 -0.000   0.000   0.000   0.000  -0.000  -0.000   0.440   0.000  -0.297   0.000   0.000  -0.417  -0.000   0.276  -0.000  -0.000
  0.000  -0.000  -0.000  -0.000   0.000   0.000  -0.091  -0.000   0.068  -0.000  -0.000   0.097   0.000  -0.068   0.000   0.000
 total augmentation occupancy for first ion, spin component:           2
  0.004   0.000  -0.000   0.017  -0.000  -0.001   0.000   0.000  -0.000  -0.000  -0.000  -0.000  -0.000   0.000   0.000   0.000
  0.000   0.004   0.000  -0.000   0.018  -0.000   0.000   0.000   0.000   0.000  -0.000   0.000  -0.000  -0.000  -0.000   0.000
 -0.000   0.000   0.004  -0.001  -0.000   0.017   0.000  -0.000   0.000   0.000   0.000  -0.000  -0.000  -0.000  -0.000  -0.000
  0.017  -0.000  -0.001  -0.011   0.000  -0.000  -0.000   0.000   0.000   0.000  -0.000   0.000  -0.000  -0.000  -0.000   0.000
 -0.000   0.018  -0.000   0.000  -0.010   0.000   0.000   0.000  -0.000  -0.000  -0.000   0.000  -0.000   0.000   0.000   0.000
 -0.001  -0.000   0.017  -0.000   0.000  -0.011  -0.000   0.000   0.000   0.000  -0.000   0.000  -0.000   0.000  -0.000   0.000
  0.000   0.000   0.000  -0.000   0.000  -0.000  -5.102  -0.000  -1.493  -0.000   0.000   2.727   0.000   1.097   0.000  -0.000
  0.000   0.000  -0.000   0.000   0.000   0.000  -0.000  -4.548   0.000  -1.273  -0.000   0.000   2.299  -0.000   0.936   0.000
 -0.000   0.000   0.000   0.000  -0.000   0.000  -1.493   0.000  -4.149   0.000   0.000   1.097  -0.000   2.012  -0.000  -0.000
 -0.000   0.000   0.000   0.000  -0.000   0.000  -0.000  -1.273   0.000  -4.548   0.000   0.000   0.936  -0.000   2.299  -0.000
 -0.000  -0.000   0.000  -0.000  -0.000  -0.000   0.000  -0.000   0.000   0.000  -3.256  -0.000   0.000  -0.000  -0.000   1.355
 -0.000   0.000  -0.000   0.000   0.000   0.000   2.727   0.000   1.097   0.000  -0.000  -1.455  -0.000  -0.706  -0.000   0.000
 -0.000  -0.000  -0.000  -0.000  -0.000  -0.000   0.000   2.299  -0.000   0.936   0.000  -0.000  -1.155   0.000  -0.606  -0.000
  0.000  -0.000  -0.000  -0.000   0.000   0.000   1.097  -0.000   2.012  -0.000  -0.000  -0.706   0.000  -0.974   0.000   0.000
  0.000  -0.000  -0.000  -0.000   0.000  -0.000   0.000   0.936  -0.000   2.299  -0.000  -0.000  -0.606   0.000  -1.155   0.000
  0.000   0.000  -0.000   0.000   0.000   0.000  -0.000   0.000  -0.000  -0.000   1.355   0.000  -0.000   0.000   0.000  -0.556
 -0.000   0.000   0.000   0.000  -0.000   0.000  -0.098  -0.000   0.055  -0.000   0.000   0.022  -0.000   0.001  -0.000  -0.000
  0.000  -0.000  -0.000  -0.000   0.000   0.000  -0.000   0.000  -0.006   0.000  -0.000   0.009  -0.000  -0.004  -0.000   0.000


------------------------ aborting loop because EDIFF is reached ----------------------------------------


 


 total charge     
 
# of ion       s       p       d       tot
------------------------------------------
    1        0.170   6.147   4.968  11.285
    2        0.170   6.147   4.968  11.285
    3        1.731   4.400   0.000   6.130
    4        1.731   4.400   0.000   6.130
    5        1.731   4.400   0.000   6.130
    6        1.731   4.400   0.000   6.130
--------------------------------------------------
tot          7.262  29.891   9.936  47.090
 


 magnetization (x)
 
# of ion       s       p       d       tot
------------------------------------------
    1       -0.023  -0.017  -4.580  -4.619
    2        0.023   0.017   4.580   4.619
    3        0.003   0.023   0.000   0.026
    4        0.003   0.023   0.000   0.026
    5       -0.003  -0.023   0.000  -0.026
    6       -0.003  -0.023   0.000  -0.026
--------------------------------------------------
tot         -0.000   0.000  -0.000   0.000
 
    CHARGE:  cpu time    0.0719: real time    0.0720
    FORLOC:  cpu time    0.0006: real time    0.0006
    FORNL :  cpu time    0.4018: real time    0.4018
    STRESS:  cpu time    7.2912: real time    7.2913
    FORCOR:  cpu time    0.0250: real time    0.0250
    FORHAR:  cpu time    0.0019: real time    0.0019
    MIXING:  cpu time    0.0004: real time    0.0004
    OFIELD:  cpu time    0.0000: real time    0.0000

  FORCE on cell =-STRESS in cart. coord.  units (eV):
  Direction    XX          YY          ZZ          XY          YZ          ZX
  --------------------------------------------------------------------------------------
  Alpha Z   199.38839   199.38839   199.38839
  Ewald   -1586.09778 -1586.09778 -1030.87583    -0.00000     0.00000     0.00000
  Hartree   594.08469   594.08469   969.39603     0.00002     0.00008     0.00008
  E(xc)    -150.53604  -150.53604  -150.66004     0.00000    -0.00003    -0.00003
  Local     163.67415   163.67415  -759.97190    -0.00002    -0.00000    -0.00000
  n-local  -310.16894  -310.16894  -309.26857    -0.00000     0.00002     0.00002
  augment   158.51923   158.51923   158.02701    -0.00000    -0.00004    -0.00004
  Kinetic   931.14100   931.14100   923.95813     0.00000    -0.00006    -0.00006
  Fock        0.00000     0.00000     0.00000     0.00000     0.00000     0.00000
  -------------------------------------------------------------------------------------
  Total       0.00469     0.00469    -0.00678    -0.00000    -0.00002    -0.00002
  in kB       0.09710     0.09710    -0.14026    -0.00008    -0.00051    -0.00051
  external pressure =        0.02 kB  Pullay stress =        0.00 kB


 VOLUME and BASIS-vectors are now :
 -----------------------------------------------------------------------------
  energy-cutoff  :      600.00
  volume of cell :       77.42
      direct lattice vectors                 reciprocal lattice vectors
     4.852568500  0.000000000  0.000000000     0.206076431  0.000000000  0.000000000
     0.000000000  4.852568500  0.000000000     0.000000000  0.206076431  0.000000000
     0.000000000  0.000000000  3.288011935     0.000000000  0.000000000  0.304135149

  length of vectors
     4.852568500  4.852568500  3.288011935     0.206076431  0.206076431  0.304135149


 FORCES acting on ions
    electron-ion (+dipol)            ewald-force                    non-local-force                 convergence-correction
 -----------------------------------------------------------------------------------------------
   0.415E-05 -.126E-05 -.215E-07   -.568E-13 -.568E-13 -.305E-14   -.448E-05 0.129E-05 -.233E-07   0.928E-07 0.710E-08 0.402E-07
   0.420E-05 0.124E-05 0.684E-08   0.171E-12 0.171E-12 -.494E-14   -.444E-05 -.132E-05 0.108E-07   -.720E-09 0.360E-07 -.125E-07
   -.325E+02 0.325E+02 -.440E-07   0.337E+02 -.337E+02 0.930E-15   -.120E+01 0.120E+01 -.476E-07   0.177E-05 -.178E-05 0.860E-07
   0.325E+02 -.325E+02 0.123E-07   -.337E+02 0.337E+02 0.116E-14   0.120E+01 -.120E+01 0.126E-07   -.174E-05 0.180E-05 -.272E-07
   0.325E+02 0.325E+02 -.107E-03   -.337E+02 -.337E+02 -.175E-14   0.120E+01 0.120E+01 0.197E-03   0.879E-06 0.854E-06 0.879E-06
   -.325E+02 -.325E+02 0.107E-03   0.337E+02 0.337E+02 -.154E-14   -.120E+01 -.120E+01 -.197E-03   -.833E-06 -.939E-06 -.866E-06
 -----------------------------------------------------------------------------------------------
   0.375E-05 0.170E-07 -.535E-07   0.000E+00 0.000E+00 -.918E-14   -.380E-05 0.136E-08 -.574E-07   0.167E-06 -.218E-07 0.995E-07
 
 
 POSITION                                       TOTAL-FORCE (eV/Angst)
 -----------------------------------------------------------------------------------
      2.42628      2.42628      1.64401        -0.000000      0.000000     -0.000000
      0.00000      0.00000      0.00000        -0.000000     -0.000000      0.000000
      0.95159      3.90098      1.64401         0.001590     -0.001590     -0.000000
      3.90098      0.95159      1.64401        -0.001590      0.001590     -0.000000
      1.47470      1.47470      0.00000        -0.001590     -0.001590      0.000091
      3.37787      3.37787      0.00000         0.001590      0.001590     -0.000091
 -----------------------------------------------------------------------------------
    total drift:                                0.000000     -0.000000     -0.000000


--------------------------------------------------------------------------------------------------------



  FREE ENERGIE OF THE ION-ELECTRON SYSTEM (eV)
  ---------------------------------------------------
  free  energy   TOTEN  =       -68.02428184 eV

  energy  without entropy=      -68.02428184  energy(sigma->0) =      -68.02428184
 


--------------------------------------------------------------------------------------------------------


    POTLOK:  cpu time    1.4008: real time    1.4008


--------------------------------------------------------------------------------------------------------


 writing wavefunctions
     LOOP+:  cpu time   34.1755: real time   34.2384
    4ORBIT:  cpu time    0.0000: real time    0.0000
 


 total charge     
 
# of ion       s       p       d       tot
------------------------------------------
    1        0.170   6.147   4.968  11.285
    2        0.170   6.147   4.968  11.285
    3        1.731   4.400   0.000   6.130
    4        1.731   4.400   0.000   6.130
    5        1.731   4.400   0.000   6.130
    6        1.731   4.400   0.000   6.130
--------------------------------------------------
tot          7.262  29.891   9.936  47.090
 


 magnetization (x)
 
# of ion       s       p       d       tot
------------------------------------------
    1       -0.023  -0.017  -4.580  -4.619
    2        0.023   0.017   4.580   4.619
    3        0.003   0.023   0.000   0.026
    4        0.003   0.023   0.000   0.026
    5       -0.003  -0.023   0.000  -0.026
    6       -0.003  -0.023   0.000  -0.026
--------------------------------------------------
tot         -0.000   0.000  -0.000   0.000
 
 BZINTS: Fermi energy:  2.382646; 54.000000 electrons
         Band energy:-796.337493;  BLOECHL correction:  0.000000

 total amount of memory used by VASP MPI-rank0    79815. kBytes
=======================================================================

   base      :      30000. kBytes
   nonl-proj :      36303. kBytes
   fftplans  :       1489. kBytes
   grid      :       3580. kBytes
   one-center:        186. kBytes
   wavefun   :       8257. kBytes
 
  
  
 General timing and accounting informations for this job:
 ========================================================
  
                  Total CPU time used (sec):       36.868
                            User time (sec):       33.788
                          System time (sec):        3.080
                         Elapsed time (sec):       37.001
  
                   Maximum memory used (kb):       92800.
                   Average memory used (kb):           0.
  
                          Minor page faults:        17524
                          Major page faults:            5
                 Voluntary context switches:          475
