       N       E                     dE             d eps       ncg     rms          rms(c)
DAV:   1     0.674137220857E+03    0.67414E+03   -0.34123E+04  7200   0.189E+03
DAV:   2     0.671778277662E+01   -0.66742E+03   -0.64655E+03  8172   0.513E+02
DAV:   3    -0.407765749331E+02   -0.47494E+02   -0.47300E+02  8532   0.152E+02
DAV:   4    -0.414085087126E+02   -0.63193E+00   -0.63178E+00  8076   0.190E+01
DAV:   5    -0.414185324247E+02   -0.10024E-01   -0.10024E-01  8604   0.232E+00    0.248E+01
DAV:   6    -0.393421783928E+02    0.20764E+01   -0.15729E+01  9168   0.319E+01    0.159E+01
DAV:   7    -0.399803994829E+02   -0.63822E+00   -0.15598E+00  8412   0.107E+01    0.118E+01
DAV:   8    -0.398911215035E+02    0.89278E-01   -0.52333E-01  8484   0.599E+00    0.472E+00
DAV:   9    -0.401701581401E+02   -0.27904E+00   -0.75016E-02  8064   0.260E+00    0.136E+00
DAV:  10    -0.401705677166E+02   -0.40958E-03   -0.15710E-02  8736   0.101E+00    0.251E-01
DAV:  11    -0.401705281371E+02    0.39579E-04   -0.15525E-03  7800   0.269E-01    0.139E-01
DAV:  12    -0.401705694827E+02   -0.41346E-04   -0.39772E-05  9912   0.835E-02    0.623E-02
DAV:  13    -0.401705756752E+02   -0.61925E-05   -0.37874E-05  7752   0.336E-02    0.213E-02
DAV:  14    -0.401705772488E+02   -0.15736E-05   -0.18398E-06  8076   0.135E-02    0.388E-03
DAV:  15    -0.401705774173E+02   -0.16853E-06   -0.13026E-07  5844   0.299E-03    0.135E-03
DAV:  16    -0.401705774327E+02   -0.15401E-07   -0.17599E-08  3804   0.135E-03
   1 F= -.40170577E+02 E0= -.40170577E+02  d E =-.401706E+02  mag=     0.0000
