 vasp.5.4.4.18Apr17-6-g9f103f2a35 (build Apr 27 2017 11:13:10) complex          
  
 executed on           IFC91_ompi date 2020.05.13  12:16:52
 running on   12 total cores
 distrk:  each k-point on   12 cores,    1 groups
 distr:  one band on NCORES_PER_BAND=   1 cores,   12 groups


--------------------------------------------------------------------------------------------------------


 INCAR:
 POTCAR:    PAW Mn_pv 02Aug2007                   
 POTCAR:    PAW F 31May2000                       

 ----------------------------------------------------------------------------- 
|                                                                             |
|           W    W    AA    RRRRR   N    N  II  N    N   GGGG   !!!           |
|           W    W   A  A   R    R  NN   N  II  NN   N  G    G  !!!           |
|           W    W  A    A  R    R  N N  N  II  N N  N  G       !!!           |
|           W WW W  AAAAAA  RRRRR   N  N N  II  N  N N  G  GGG   !            |
|           WW  WW  A    A  R   R   N   NN  II  N   NN  G    G                |
|           W    W  A    A  R    R  N    N  II  N    N   GGGG   !!!           |
|                                                                             |
|      For optimal performance we recommend to set                            |
|        NCORE= 4 - approx SQRT( number of cores)                             |
|      NCORE specifies how many cores store one orbital (NPAR=cpu/NCORE).     |
|      This setting can  greatly improve the performance of VASP for DFT.     |
|      The default,   NCORE=1            might be grossly inefficient         |
|      on modern multi-core architectures or massively parallel machines.     |
|      Do your own testing !!!!                                               |
|      Unfortunately you need to use the default for GW and RPA calculations. |
|      (for HF NCORE is supported but not extensively tested yet)             |
|                                                                             |
 ----------------------------------------------------------------------------- 

 POTCAR:    PAW Mn_pv 02Aug2007                   
   VRHFIN =Mn: 3p4s3d                                                           
   LEXCH  = CA                                                                  
   EATOM  =  2028.0466 eV,  149.0572 Ry                                         
                                                                                
   TITEL  = PAW Mn_pv 02Aug2007                                                 
   LULTRA =        F    use ultrasoft PP ?                                      
   IUNSCR =        1    unscreen: 0-lin 1-nonlin 2-no                           
   RPACOR =    2.080    partial core radius                                     
   POMASS =   54.938; ZVAL   =   13.000    mass and valenz                      
   RCORE  =    2.300    outmost cutoff radius                                   
   RWIGS  =    2.500; RWIGS  =    1.323    wigner-seitz radius (au A)           
   ENMAX  =  269.944; ENMIN  =  202.458 eV                                      
   ICORE  =        3    local potential                                         
   LCOR   =        T    correct aug charges                                     
   LPAW   =        T    paw PP                                                  
   EAUG   =  569.085                                                            
   DEXC   =    0.000                                                            
   RMAX   =    2.343    core radius for proj-oper                               
   RAUG   =    1.300    factor for augmentation sphere                          
   RDEP   =    2.338    radius for radial grids                                 
   RDEPT  =    1.798    core radius for aug-charge                              
                                                                                
   Atomic configuration                                                         
    8 entries                                                                   
     n  l   j            E        occ.                                          
     1  0  0.50     -6393.6057   2.0000                                         
     2  0  0.50      -735.9993   2.0000                                         
     2  1  1.50      -624.3417   6.0000                                         
     3  0  0.50       -80.9782   2.0000                                         
     3  1  1.50       -50.3144   6.0000                                         
     3  2  2.50        -3.6171   6.0000                                         
     4  0  0.50        -4.3304   1.0000                                         
     4  3  2.50        -1.3606   0.0000                                         
   Description                                                                  
     l       E           TYP  RCUT    TYP  RCUT                                 
     1    -50.3143634     23  2.000                                             
     1     -1.3605826     23  2.000                                             
     2     -3.6171470     23  2.300                                             
     2     -4.9777296     23  2.300                                             
     0     -4.3303688     23  2.300                                             
     0      7.3408788     23  2.300                                             
     3      9.5240782     23  2.300                                             
  local pseudopotential read in
  partial core-charges read in
  partial kinetic energy density read in
  atomic valenz-charges read in
  non local Contribution for L=           1  read in
    real space projection operators read in
  non local Contribution for L=           1  read in
    real space projection operators read in
  non local Contribution for L=           2  read in
    real space projection operators read in
  non local Contribution for L=           2  read in
    real space projection operators read in
  non local Contribution for L=           0  read in
    real space projection operators read in
  non local Contribution for L=           0  read in
    real space projection operators read in
    PAW grid and wavefunctions read in
 
   number of l-projection  operators is LMAX  =           6
   number of lm-projection operators is LMMAX =          18
 
 POTCAR:    PAW F 31May2000                       
   VRHFIN =F: s2p5                                                              
   LEXCH  = CA                                                                  
   EATOM  =   658.3685 eV,   48.3887 Ry                                         
                                                                                
   TITEL  = PAW F 31May2000                                                     
   LULTRA =        F    use ultrasoft PP ?                                      
   IUNSCR =        1    unscreen: 0-lin 1-nonlin 2-no                           
   RPACOR =    1.200    partial core radius                                     
   POMASS =   18.998; ZVAL   =    7.000    mass and valenz                      
   RCORE  =    1.520    outmost cutoff radius                                   
   RWIGS  =    1.500; RWIGS  =    0.794    wigner-seitz radius (au A)           
   ENMAX  =  400.000; ENMIN  =  300.000 eV                                      
   ICORE  =        2    local potential                                         
   LCOR   =        T    correct aug charges                                     
   LPAW   =        T    paw PP                                                  
   EAUG   =  613.614                                                            
   DEXC   =    0.000                                                            
   RMAX   =    1.555    core radius for proj-oper                               
   RAUG   =    1.300    factor for augmentation sphere                          
   RDEP   =    1.539    radius for radial grids                                 
   RDEPT  =    1.299    core radius for aug-charge                              
                                                                                
   Atomic configuration                                                         
    4 entries                                                                   
     n  l   j            E        occ.                                          
     1  0  0.50      -658.3386   2.0000                                         
     2  0  0.50       -29.6221   2.0000                                         
     2  1  0.50       -11.2952   5.0000                                         
     3  2  1.50       -12.2452   0.0000                                         
   Description                                                                  
     l       E           TYP  RCUT    TYP  RCUT                                 
     0    -29.6221019     23  1.200                                             
     0     -9.5240782     23  1.200                                             
     1    -11.2951545     23  1.520                                             
     1      1.3605826     23  1.520                                             
     2    -12.2452434      7  1.500                                             
  local pseudopotential read in
  partial core-charges read in
  partial kinetic energy density read in
  kinetic energy density of atom read in
  atomic valenz-charges read in
  non local Contribution for L=           0  read in
    real space projection operators read in
  non local Contribution for L=           0  read in
    real space projection operators read in
  non local Contribution for L=           1  read in
    real space projection operators read in
  non local Contribution for L=           1  read in
    real space projection operators read in
    PAW grid and wavefunctions read in
 
   number of l-projection  operators is LMAX  =           4
   number of lm-projection operators is LMMAX =           8
 
  PAW Mn_pv 02Aug2007                   :
 energy of atom  1       EATOM=-2028.0466
 kinetic energy error for atom=    0.0047 (will be added to EATOM!!)
  PAW F 31May2000                       :
 energy of atom  2       EATOM= -658.3685
 kinetic energy error for atom=    0.0252 (will be added to EATOM!!)
 
 
 POSCAR: Mn  F                                   
  positions in cartesian coordinates
  No initial velocities read in
 exchange correlation table for  LEXCH =        2
   RHO(1)=    0.500       N(1)  =     2000
   RHO(2)=  100.500       N(2)  =     4000
 


--------------------------------------------------------------------------------------------------------


 ion  position               nearest neighbor table
   1  0.500  0.500  0.500-   3 2.06   4 2.06   5 2.10   6 2.10   5 2.10   6 2.10
   2  0.000  0.000  0.000-   5 2.06   6 2.06   3 2.10   4 2.10   3 2.10   4 2.10
   3  0.196  0.804  0.500-   1 2.06   2 2.10   2 2.10
   4  0.804  0.196  0.500-   1 2.06   2 2.10   2 2.10
   5  0.304  0.304  0.000-   2 2.06   1 2.10   1 2.10
   6  0.696  0.696  0.000-   2 2.06   1 2.10   1 2.10
 
  LATTYP: Found a simple tetragonal cell.
 ALAT       =     4.7959042861
 C/A-ratio  =     0.6772201529
  
  Lattice vectors:
  
 A1 = (   4.7959042861,   0.0000000000,   0.0000000000)
 A2 = (   0.0000000000,   4.7959042861,   0.0000000000)
 A3 = (   0.0000000000,   0.0000000000,   3.2478830338)


Analysis of symmetry for initial positions (statically):
=====================================================================
 Subroutine PRICEL returns:
 Original cell was already a primitive cell.
 

 Routine SETGRP: Setting up the symmetry group for a 
 simple tetragonal supercell.


 Subroutine GETGRP returns: Found 16 space group operations
 (whereof  8 operations were pure point group operations)
 out of a pool of 16 trial point group operations.


The static configuration has the point symmetry D_2h.
 The point group associated with its full space group is D_4h.


Analysis of symmetry for dynamics (positions and initial velocities):
=====================================================================
 Subroutine PRICEL returns:
 Original cell was already a primitive cell.
 

 Routine SETGRP: Setting up the symmetry group for a 
 simple tetragonal supercell.


 Subroutine GETGRP returns: Found 16 space group operations
 (whereof  8 operations were pure point group operations)
 out of a pool of 16 trial point group operations.


The dynamic configuration has the point symmetry D_2h.
 The point group associated with its full space group is D_4h.


Analysis of structural, dynamic, and magnetic symmetry:
=====================================================================
 Subroutine PRICEL returns:
 Original cell was already a primitive cell.
 

 Routine SETGRP: Setting up the symmetry group for a 
 simple tetragonal supercell.


 Subroutine GETGRP returns: Found 16 space group operations
 (whereof  8 operations were pure point group operations)
 out of a pool of 16 trial point group operations.


The magnetic configuration has the point symmetry D_2h.
 The point group associated with its full space group is D_4h.


 Subroutine INISYM returns: Found 16 space group operations
 (whereof  8 operations are pure point group operations),
 and found     1 'primitive' translations

 
 
 KPOINTS: KPOINTS created by Atomic Simulation Env

Automatic generation of k-mesh.
Space group operators:
 irot       det(A)        alpha          n_x          n_y          n_z        tau_x        tau_y        tau_z
    1     1.000000     0.000000     1.000000     0.000000     0.000000     0.000000     0.000000     0.000000
    2    -1.000000     0.000000     1.000000     0.000000     0.000000     0.000000     0.000000     0.000000
    3     1.000000   180.000000     0.000000     0.000000     1.000000     0.000000     0.000000     0.000000
    4    -1.000000   180.000000     0.000000     0.000000     1.000000     0.000000     0.000000     0.000000
    5     1.000000   180.000000     0.707107     0.707107     0.000000     0.000000     0.000000     0.000000
    6    -1.000000   180.000000     0.707107     0.707107     0.000000     0.000000     0.000000     0.000000
    7     1.000000   180.000000     0.707107    -0.707107     0.000000     0.000000     0.000000     0.000000
    8    -1.000000   180.000000     0.707107    -0.707107     0.000000     0.000000     0.000000     0.000000
    9     1.000000    90.000000     0.000000     0.000000    -1.000000     0.500000     0.500000     0.500000
   10    -1.000000    90.000000     0.000000     0.000000    -1.000000     0.500000     0.500000     0.500000
   11     1.000000    90.000000     0.000000     0.000000     1.000000     0.500000     0.500000     0.500000
   12    -1.000000    90.000000     0.000000     0.000000     1.000000     0.500000     0.500000     0.500000
   13     1.000000   180.000000     0.000000     1.000000     0.000000     0.500000     0.500000     0.500000
   14    -1.000000   180.000000     0.000000     1.000000     0.000000     0.500000     0.500000     0.500000
   15     1.000000   180.000000     1.000000     0.000000     0.000000     0.500000     0.500000     0.500000
   16    -1.000000   180.000000     1.000000     0.000000     0.000000     0.500000     0.500000     0.500000
 
 Subroutine IBZKPT returns following result:
 ===========================================
 
 Found     50 irreducible k-points:
 
 Following reciprocal coordinates:
            Coordinates               Weight
  0.000000  0.000000  0.050000      2.000000
  0.142857  0.000000  0.050000      8.000000
  0.285714  0.000000  0.050000      8.000000
  0.428571  0.000000  0.050000      8.000000
  0.142857  0.142857  0.050000      8.000000
  0.285714  0.142857  0.050000     16.000000
  0.428571  0.142857  0.050000     16.000000
  0.285714  0.285714  0.050000      8.000000
  0.428571  0.285714  0.050000     16.000000
  0.428571  0.428571  0.050000      8.000000
  0.000000  0.000000  0.150000      2.000000
  0.142857  0.000000  0.150000      8.000000
  0.285714  0.000000  0.150000      8.000000
  0.428571  0.000000  0.150000      8.000000
  0.142857  0.142857  0.150000      8.000000
  0.285714  0.142857  0.150000     16.000000
  0.428571  0.142857  0.150000     16.000000
  0.285714  0.285714  0.150000      8.000000
  0.428571  0.285714  0.150000     16.000000
  0.428571  0.428571  0.150000      8.000000
  0.000000  0.000000  0.250000      2.000000
  0.142857  0.000000  0.250000      8.000000
  0.285714  0.000000  0.250000      8.000000
  0.428571  0.000000  0.250000      8.000000
  0.142857  0.142857  0.250000      8.000000
  0.285714  0.142857  0.250000     16.000000
  0.428571  0.142857  0.250000     16.000000
  0.285714  0.285714  0.250000      8.000000
  0.428571  0.285714  0.250000     16.000000
  0.428571  0.428571  0.250000      8.000000
  0.000000  0.000000  0.350000      2.000000
  0.142857  0.000000  0.350000      8.000000
  0.285714  0.000000  0.350000      8.000000
  0.428571  0.000000  0.350000      8.000000
  0.142857  0.142857  0.350000      8.000000
  0.285714  0.142857  0.350000     16.000000
  0.428571  0.142857  0.350000     16.000000
  0.285714  0.285714  0.350000      8.000000
  0.428571  0.285714  0.350000     16.000000
  0.428571  0.428571  0.350000      8.000000
  0.000000  0.000000  0.450000      2.000000
  0.142857  0.000000  0.450000      8.000000
  0.285714  0.000000  0.450000      8.000000
  0.428571  0.000000  0.450000      8.000000
  0.142857  0.142857  0.450000      8.000000
  0.285714  0.142857  0.450000     16.000000
  0.428571  0.142857  0.450000     16.000000
  0.285714  0.285714  0.450000      8.000000
  0.428571  0.285714  0.450000     16.000000
  0.428571  0.428571  0.450000      8.000000
 
 Following cartesian coordinates:
            Coordinates               Weight
  0.000000  0.000000  0.015395      2.000000
  0.029787  0.000000  0.015395      8.000000
  0.059575  0.000000  0.015395      8.000000
  0.089362  0.000000  0.015395      8.000000
  0.029787  0.029787  0.015395      8.000000
  0.059575  0.029787  0.015395     16.000000
  0.089362  0.029787  0.015395     16.000000
  0.059575  0.059575  0.015395      8.000000
  0.089362  0.059575  0.015395     16.000000
  0.089362  0.089362  0.015395      8.000000
  0.000000  0.000000  0.046184      2.000000
  0.029787  0.000000  0.046184      8.000000
  0.059575  0.000000  0.046184      8.000000
  0.089362  0.000000  0.046184      8.000000
  0.029787  0.029787  0.046184      8.000000
  0.059575  0.029787  0.046184     16.000000
  0.089362  0.029787  0.046184     16.000000
  0.059575  0.059575  0.046184      8.000000
  0.089362  0.059575  0.046184     16.000000
  0.089362  0.089362  0.046184      8.000000
  0.000000  0.000000  0.076973      2.000000
  0.029787  0.000000  0.076973      8.000000
  0.059575  0.000000  0.076973      8.000000
  0.089362  0.000000  0.076973      8.000000
  0.029787  0.029787  0.076973      8.000000
  0.059575  0.029787  0.076973     16.000000
  0.089362  0.029787  0.076973     16.000000
  0.059575  0.059575  0.076973      8.000000
  0.089362  0.059575  0.076973     16.000000
  0.089362  0.089362  0.076973      8.000000
  0.000000  0.000000  0.107763      2.000000
  0.029787  0.000000  0.107763      8.000000
  0.059575  0.000000  0.107763      8.000000
  0.089362  0.000000  0.107763      8.000000
  0.029787  0.029787  0.107763      8.000000
  0.059575  0.029787  0.107763     16.000000
  0.089362  0.029787  0.107763     16.000000
  0.059575  0.059575  0.107763      8.000000
  0.089362  0.059575  0.107763     16.000000
  0.089362  0.089362  0.107763      8.000000
  0.000000  0.000000  0.138552      2.000000
  0.029787  0.000000  0.138552      8.000000
  0.059575  0.000000  0.138552      8.000000
  0.089362  0.000000  0.138552      8.000000
  0.029787  0.029787  0.138552      8.000000
  0.059575  0.029787  0.138552     16.000000
  0.089362  0.029787  0.138552     16.000000
  0.059575  0.059575  0.138552      8.000000
  0.089362  0.059575  0.138552     16.000000
  0.089362  0.089362  0.138552      8.000000
 


--------------------------------------------------------------------------------------------------------




 Dimension of arrays:
   k-points           NKPTS =     50   k-points in BZ     NKDIM =     50   number of bands    NBANDS=     36
   number of dos      NEDOS =    301   number of ions     NIONS =      6
   non local maximal  LDIM  =      6   non local SUM 2l+1 LMDIM =     18
   total plane-waves  NPLWV =  18000
   max r-space proj   IRMAX =      1   max aug-charges    IRDMAX=  58682
   dimension x,y,z NGX =    30 NGY =   30 NGZ =   20
   dimension x,y,z NGXF=    60 NGYF=   60 NGZF=   40
   support grid    NGXF=   120 NGYF=  120 NGZF=   80
   ions per type =               2   4
   NGX,Y,Z   is equivalent  to a cutoff of  10.40, 10.40, 10.24 a.u.
   NGXF,Y,Z  is equivalent  to a cutoff of  20.80, 20.80, 20.47 a.u.

 SYSTEM =  unknown system                          
 POSCAR =  Mn  F                                   

 Startparameter for this run:
   NWRITE =      2    write-flag & timer
   PREC   = normal    normal or accurate (medium, high low for compatibility)
   ISTART =      0    job   : 0-new  1-cont  2-samecut
   ICHARG =      2    charge: 1-file 2-atom 10-const
   ISPIN  =      2    spin polarized calculation?
   LNONCOLLINEAR =      F non collinear calculations
   LSORBIT =      F    spin-orbit coupling
   INIWAV =      1    electr: 0-lowe 1-rand  2-diag
   LASPH  =      T    aspherical Exc in radial PAW
   METAGGA=      F    non-selfconsistent MetaGGA calc.

 Electronic Relaxation 1
   ENCUT  =  600.0 eV  44.10 Ry    6.64 a.u.   9.58  9.58  6.49*2*pi/ulx,y,z
   ENINI  =  600.0     initial cutoff
   ENAUG  =  613.6 eV  augmentation charge cutoff
   NELM   =     60;   NELMIN=  2; NELMDL= -5     # of ELM steps 
   EDIFF  = 0.1E-06   stopping-criterion for ELM
   LREAL  =      F    real-space projection
   NLSPLINE    = F    spline interpolate recip. space projectors
   LCOMPAT=      F    compatible to vasp.4.4
   GGA_COMPAT  = T    GGA compatible to vasp.4.4-vasp.4.6
   LMAXPAW     = -100 max onsite density
   LMAXMIX     =    4 max onsite mixed and CHGCAR
   VOSKOWN=      0    Vosko Wilk Nusair interpolation
   ROPT   =    0.00000   0.00000
 Ionic relaxation
   EDIFFG = -.5E-02   stopping-criterion for IOM
   NSW    =     50    number of steps for IOM
   NBLOCK =      1;   KBLOCK =     50    inner block; outer block 
   IBRION =      2    ionic relax: 0-MD 1-quasi-New 2-CG
   NFREE  =      1    steps in history (QN), initial steepest desc. (CG)
   ISIF   =      3    stress and relaxation
   IWAVPR =     11    prediction:  0-non 1-charg 2-wave 3-comb
   ISYM   =      2    0-nonsym 1-usesym 2-fastsym
   LCORR  =      T    Harris-Foulkes like correction to forces

   POTIM  = 0.5000    time-step for ionic-motion
   TEIN   =    0.0    initial temperature
   TEBEG  =    0.0;   TEEND  =   0.0 temperature during run
   SMASS  =  -3.00    Nose mass-parameter (am)
   estimated Nose-frequenzy (Omega)   =  0.10E-29 period in steps =****** mass=  -0.526E-27a.u.
   SCALEE = 1.0000    scale energy and forces
   NPACO  =    256;   APACO  = 16.0  distance and # of slots for P.C.
   PSTRESS=    0.0 pullay stress

  Mass of Ions in am
   POMASS =  54.94 19.00
  Ionic Valenz
   ZVAL   =  13.00  7.00
  Atomic Wigner-Seitz radii
   RWIGS  =  -1.00 -1.00
  virtual crystal weights 
   VCA    =   1.00  1.00
   NELECT =      54.0000    total number of electrons
   NUPDOWN=      -1.0000    fix difference up-down

 DOS related values:
   EMIN   =  10.00;   EMAX   =-10.00  energy-range for DOS
   EFERMI =   0.00
   ISMEAR =     0;   SIGMA  =   0.02  broadening in eV -4-tet -1-fermi 0-gaus

 Electronic relaxation 2 (details)
   IALGO  =     38    algorithm
   LDIAG  =      T    sub-space diagonalisation (order eigenvalues)
   LSUBROT=      F    optimize rotation matrix (better conditioning)
   TURBO    =      0    0=normal 1=particle mesh
   IRESTART =      0    0=no restart 2=restart with 2 vectors
   NREBOOT  =      0    no. of reboots
   NMIN     =      0    reboot dimension
   EREF     =   0.00    reference energy to select bands
   IMIX   =      4    mixing-type and parameters
     AMIX     =   0.40;   BMIX     =  1.00
     AMIX_MAG =   1.60;   BMIX_MAG =  1.00
     AMIN     =   0.10
     WC   =   100.;   INIMIX=   1;  MIXPRE=   1;  MAXMIX= -45

 Intra band minimization:
   WEIMIN = 0.0010     energy-eigenvalue tresh-hold
   EBREAK =  0.69E-09  absolut break condition
   DEPER  =   0.30     relativ break condition  

   TIME   =   0.40     timestep for ELM

  volume/ion in A,a.u.               =      12.45        84.02
  Fermi-wavevector in a.u.,A,eV,Ry     =   1.469238  2.776458 29.370375  2.158662
  Thomas-Fermi vector in A             =   2.584640
 
 Write flags
   LWAVE        =      F    write WAVECAR
   LDOWNSAMPLE  =      F    k-point downsampling of WAVECAR
   LCHARG       =      F    write CHGCAR
   LVTOT        =      F    write LOCPOT, total local potential
   LVHAR        =      F    write LOCPOT, Hartree potential only
   LELF         =      F    write electronic localiz. function (ELF)
   LORBIT       =     11    0 simple, 1 ext, 2 COOP (PROOUT), +10 PAW based schemes


 Dipole corrections
   LMONO  =      F    monopole corrections only (constant potential shift)
   LDIPOL =      F    correct potential (dipole corrections)
   IDIPOL =      0    1-x, 2-y, 3-z, 4-all directions 
   EPSILON=  1.0000000 bulk dielectric constant

 LDA+U is selected, type is set to LDAUTYPE =  2
   angular momentum for each species LDAUL =     2   -1
   U (eV)           for each species LDAUU =   4.0  0.0
   J (eV)           for each species LDAUJ =   0.0  0.0
 Exchange correlation treatment:
   GGA     =    --    GGA type
   LEXCH   =     2    internal setting for exchange type
   VOSKOWN=      0    Vosko Wilk Nusair interpolation
   LHFCALC =     F    Hartree Fock is set to
   LHFONE  =     F    Hartree Fock one center treatment
   AEXX    =    0.0000 exact exchange contribution

 Linear response parameters
   LEPSILON=     F    determine dielectric tensor
   LRPA    =     F    only Hartree local field effects (RPA)
   LNABLA  =     F    use nabla operator in PAW spheres
   LVEL    =     F    velocity operator in full k-point grid
   LINTERFAST=   F  fast interpolation
   KINTER  =     0    interpolate to denser k-point grid
   CSHIFT  =0.1000    complex shift for real part using Kramers Kronig
   OMEGAMAX=  -1.0    maximum frequency
   DEG_THRESHOLD= 0.2000000E-02 threshold for treating states as degnerate
   RTIME   =   -0.100 relaxation time in fs
  (WPLASMAI=    0.000 imaginary part of plasma frequency in eV, 0.658/RTIME)
   DFIELD  = 0.0000000 0.0000000 0.0000000 field for delta impulse in time
 
 Orbital magnetization related:
   ORBITALMAG=     F  switch on orbital magnetization
   LCHIMAG   =     F  perturbation theory with respect to B field
   DQ        =  0.001000  dq finite difference perturbation B field
   LLRAUG    =     F  two centre corrections for induced B field



--------------------------------------------------------------------------------------------------------


 conjugate gradient relaxation of ions
 charge density and potential will be updated during run
 spin polarized calculation
 Variant of blocked Davidson
 Davidson routine will perform the subspace rotation
 perform sub-space diagonalisation
    after iterative eigenvector-optimisation
 modified Broyden-mixing scheme, WC =      100.0
 initial mixing is a Kerker type mixing with AMIX =  0.4000 and BMIX =      1.0000
 Hartree-type preconditioning will be used
 using additional bands            9
 reciprocal scheme for non local part
 use partial core corrections
 calculate Harris-corrections to forces 
   (improved forces if not selfconsistent)
 use of overlap-Matrix (Vanderbilt PP)
 Gauss-broadening in eV      SIGMA  =   0.02


--------------------------------------------------------------------------------------------------------


  energy-cutoff  :      600.00
  volume of cell :       74.70
      direct lattice vectors                 reciprocal lattice vectors
     4.795904286  0.000000000  0.000000000     0.208511251  0.000000000  0.000000000
     0.000000000  4.795904286  0.000000000     0.000000000  0.208511251  0.000000000
     0.000000000  0.000000000  3.247883034     0.000000000  0.000000000  0.307892861

  length of vectors
     4.795904286  4.795904286  3.247883034     0.208511251  0.208511251  0.307892861


 
 k-points in units of 2pi/SCALE and weight: KPOINTS created by Atomic Simulation Env
   0.00000000  0.00000000  0.01539464       0.004
   0.02978732  0.00000000  0.01539464       0.016
   0.05957464  0.00000000  0.01539464       0.016
   0.08936196  0.00000000  0.01539464       0.016
   0.02978732  0.02978732  0.01539464       0.016
   0.05957464  0.02978732  0.01539464       0.033
   0.08936196  0.02978732  0.01539464       0.033
   0.05957464  0.05957464  0.01539464       0.016
   0.08936196  0.05957464  0.01539464       0.033
   0.08936196  0.08936196  0.01539464       0.016
   0.00000000  0.00000000  0.04618393       0.004
   0.02978732  0.00000000  0.04618393       0.016
   0.05957464  0.00000000  0.04618393       0.016
   0.08936196  0.00000000  0.04618393       0.016
   0.02978732  0.02978732  0.04618393       0.016
   0.05957464  0.02978732  0.04618393       0.033
   0.08936196  0.02978732  0.04618393       0.033
   0.05957464  0.05957464  0.04618393       0.016
   0.08936196  0.05957464  0.04618393       0.033
   0.08936196  0.08936196  0.04618393       0.016
   0.00000000  0.00000000  0.07697322       0.004
   0.02978732  0.00000000  0.07697322       0.016
   0.05957464  0.00000000  0.07697322       0.016
   0.08936196  0.00000000  0.07697322       0.016
   0.02978732  0.02978732  0.07697322       0.016
   0.05957464  0.02978732  0.07697322       0.033
   0.08936196  0.02978732  0.07697322       0.033
   0.05957464  0.05957464  0.07697322       0.016
   0.08936196  0.05957464  0.07697322       0.033
   0.08936196  0.08936196  0.07697322       0.016
   0.00000000  0.00000000  0.10776250       0.004
   0.02978732  0.00000000  0.10776250       0.016
   0.05957464  0.00000000  0.10776250       0.016
   0.08936196  0.00000000  0.10776250       0.016
   0.02978732  0.02978732  0.10776250       0.016
   0.05957464  0.02978732  0.10776250       0.033
   0.08936196  0.02978732  0.10776250       0.033
   0.05957464  0.05957464  0.10776250       0.016
   0.08936196  0.05957464  0.10776250       0.033
   0.08936196  0.08936196  0.10776250       0.016
   0.00000000  0.00000000  0.13855179       0.004
   0.02978732  0.00000000  0.13855179       0.016
   0.05957464  0.00000000  0.13855179       0.016
   0.08936196  0.00000000  0.13855179       0.016
   0.02978732  0.02978732  0.13855179       0.016
   0.05957464  0.02978732  0.13855179       0.033
   0.08936196  0.02978732  0.13855179       0.033
   0.05957464  0.05957464  0.13855179       0.016
   0.08936196  0.05957464  0.13855179       0.033
   0.08936196  0.08936196  0.13855179       0.016
 
 k-points in reciprocal lattice and weights: KPOINTS created by Atomic Simulation Env
   0.00000000  0.00000000  0.05000000       0.004
   0.14285714  0.00000000  0.05000000       0.016
   0.28571429  0.00000000  0.05000000       0.016
   0.42857143  0.00000000  0.05000000       0.016
   0.14285714  0.14285714  0.05000000       0.016
   0.28571429  0.14285714  0.05000000       0.033
   0.42857143  0.14285714  0.05000000       0.033
   0.28571429  0.28571429  0.05000000       0.016
   0.42857143  0.28571429  0.05000000       0.033
   0.42857143  0.42857143  0.05000000       0.016
   0.00000000  0.00000000  0.15000000       0.004
   0.14285714  0.00000000  0.15000000       0.016
   0.28571429  0.00000000  0.15000000       0.016
   0.42857143  0.00000000  0.15000000       0.016
   0.14285714  0.14285714  0.15000000       0.016
   0.28571429  0.14285714  0.15000000       0.033
   0.42857143  0.14285714  0.15000000       0.033
   0.28571429  0.28571429  0.15000000       0.016
   0.42857143  0.28571429  0.15000000       0.033
   0.42857143  0.42857143  0.15000000       0.016
   0.00000000  0.00000000  0.25000000       0.004
   0.14285714  0.00000000  0.25000000       0.016
   0.28571429  0.00000000  0.25000000       0.016
   0.42857143  0.00000000  0.25000000       0.016
   0.14285714  0.14285714  0.25000000       0.016
   0.28571429  0.14285714  0.25000000       0.033
   0.42857143  0.14285714  0.25000000       0.033
   0.28571429  0.28571429  0.25000000       0.016
   0.42857143  0.28571429  0.25000000       0.033
   0.42857143  0.42857143  0.25000000       0.016
   0.00000000  0.00000000  0.35000000       0.004
   0.14285714  0.00000000  0.35000000       0.016
   0.28571429  0.00000000  0.35000000       0.016
   0.42857143  0.00000000  0.35000000       0.016
   0.14285714  0.14285714  0.35000000       0.016
   0.28571429  0.14285714  0.35000000       0.033
   0.42857143  0.14285714  0.35000000       0.033
   0.28571429  0.28571429  0.35000000       0.016
   0.42857143  0.28571429  0.35000000       0.033
   0.42857143  0.42857143  0.35000000       0.016
   0.00000000  0.00000000  0.45000000       0.004
   0.14285714  0.00000000  0.45000000       0.016
   0.28571429  0.00000000  0.45000000       0.016
   0.42857143  0.00000000  0.45000000       0.016
   0.14285714  0.14285714  0.45000000       0.016
   0.28571429  0.14285714  0.45000000       0.033
   0.42857143  0.14285714  0.45000000       0.033
   0.28571429  0.28571429  0.45000000       0.016
   0.42857143  0.28571429  0.45000000       0.033
   0.42857143  0.42857143  0.45000000       0.016
 
 position of ions in fractional coordinates (direct lattice) 
   0.50000000  0.50000000  0.50000000
   0.00000000  0.00000000  0.00000000
   0.19593145  0.80406855  0.50000000
   0.80406855  0.19593145  0.50000000
   0.30406855  0.30406855  0.00000000
   0.69593145  0.69593145  0.00000000
 
 position of ions in cartesian coordinates  (Angst):
   2.39795214  2.39795214  1.62394152
   0.00000000  0.00000000  0.00000000
   0.93966849  3.85623580  1.62394152
   3.85623580  0.93966849  1.62394152
   1.45828365  1.45828365  0.00000000
   3.33762063  3.33762063  0.00000000
 


--------------------------------------------------------------------------------------------------------


 k-point  1 :   0.0000 0.0000 0.0500  plane waves:    2501
 k-point  2 :   0.1429 0.0000 0.0500  plane waves:    2516
 k-point  3 :   0.2857 0.0000 0.0500  plane waves:    2512
 k-point  4 :   0.4286 0.0000 0.0500  plane waves:    2498
 k-point  5 :   0.1429 0.1429 0.0500  plane waves:    2505
 k-point  6 :   0.2857 0.1429 0.0500  plane waves:    2498
 k-point  7 :   0.4286 0.1429 0.0500  plane waves:    2497
 k-point  8 :   0.2857 0.2857 0.0500  plane waves:    2503
 k-point  9 :   0.4286 0.2857 0.0500  plane waves:    2499
 k-point 10 :   0.4286 0.4286 0.0500  plane waves:    2488
 k-point 11 :   0.0000 0.0000 0.1500  plane waves:    2517
 k-point 12 :   0.1429 0.0000 0.1500  plane waves:    2506
 k-point 13 :   0.2857 0.0000 0.1500  plane waves:    2500
 k-point 14 :   0.4286 0.0000 0.1500  plane waves:    2497
 k-point 15 :   0.1429 0.1429 0.1500  plane waves:    2499
 k-point 16 :   0.2857 0.1429 0.1500  plane waves:    2500
 k-point 17 :   0.4286 0.1429 0.1500  plane waves:    2498
 k-point 18 :   0.2857 0.2857 0.1500  plane waves:    2497
 k-point 19 :   0.4286 0.2857 0.1500  plane waves:    2495
 k-point 20 :   0.4286 0.4286 0.1500  plane waves:    2481
 k-point 21 :   0.0000 0.0000 0.2500  plane waves:    2529
 k-point 22 :   0.1429 0.0000 0.2500  plane waves:    2510
 k-point 23 :   0.2857 0.0000 0.2500  plane waves:    2489
 k-point 24 :   0.4286 0.0000 0.2500  plane waves:    2498
 k-point 25 :   0.1429 0.1429 0.2500  plane waves:    2508
 k-point 26 :   0.2857 0.1429 0.2500  plane waves:    2495
 k-point 27 :   0.4286 0.1429 0.2500  plane waves:    2488
 k-point 28 :   0.2857 0.2857 0.2500  plane waves:    2487
 k-point 29 :   0.4286 0.2857 0.2500  plane waves:    2486
 k-point 30 :   0.4286 0.4286 0.2500  plane waves:    2482
 k-point 31 :   0.0000 0.0000 0.3500  plane waves:    2501
 k-point 32 :   0.1429 0.0000 0.3500  plane waves:    2497
 k-point 33 :   0.2857 0.0000 0.3500  plane waves:    2478
 k-point 34 :   0.4286 0.0000 0.3500  plane waves:    2484
 k-point 35 :   0.1429 0.1429 0.3500  plane waves:    2494
 k-point 36 :   0.2857 0.1429 0.3500  plane waves:    2489
 k-point 37 :   0.4286 0.1429 0.3500  plane waves:    2487
 k-point 38 :   0.2857 0.2857 0.3500  plane waves:    2490
 k-point 39 :   0.4286 0.2857 0.3500  plane waves:    2488
 k-point 40 :   0.4286 0.4286 0.3500  plane waves:    2493
 k-point 41 :   0.0000 0.0000 0.4500  plane waves:    2485
 k-point 42 :   0.1429 0.0000 0.4500  plane waves:    2479
 k-point 43 :   0.2857 0.0000 0.4500  plane waves:    2478
 k-point 44 :   0.4286 0.0000 0.4500  plane waves:    2464
 k-point 45 :   0.1429 0.1429 0.4500  plane waves:    2476
 k-point 46 :   0.2857 0.1429 0.4500  plane waves:    2489
 k-point 47 :   0.4286 0.1429 0.4500  plane waves:    2479
 k-point 48 :   0.2857 0.2857 0.4500  plane waves:    2481
 k-point 49 :   0.4286 0.2857 0.4500  plane waves:    2485
 k-point 50 :   0.4286 0.4286 0.4500  plane waves:    2499

 maximum and minimum number of plane-waves per node :      2529     2464

 maximum number of plane-waves:      2529
 maximum index in each direction: 
   IXMAX=    9   IYMAX=    9   IZMAX=    6
   IXMIN=  -10   IYMIN=   -9   IZMIN=   -6


 serial   3D FFT for wavefunctions
 parallel 3D FFT for charge:
    minimum data exchange during FFTs selected (reduces bandwidth)


 total amount of memory used by VASP MPI-rank0    83730. kBytes
=======================================================================

   base      :      30000. kBytes
   nonl-proj :      36703. kBytes
   fftplans  :       1875. kBytes
   grid      :       2467. kBytes
   one-center:        186. kBytes
   wavefun   :      12499. kBytes
 
     INWAV:  cpu time    0.0000: real time    0.0000
 Broyden mixing: mesh for mixing (old mesh)
   NGX = 19   NGY = 19   NGZ = 13
  (NGX  = 60   NGY  = 60   NGZ  = 40)
  gives a total of   4693 points

 initial charge density was supplied:
 charge density of overlapping atoms calculated
 number of electron      54.0000000 magnetization       0.0000000
 keeping initial charge density in first step


--------------------------------------------------------------------------------------------------------


 Maximum index for augmentation-charges         4435 (set IRDMAX)


--------------------------------------------------------------------------------------------------------


 First call to EWALD:  gamma=   0.421
 Maximum number of real-space cells 2x 2x 3
 Maximum number of reciprocal cells 3x 3x 2

    FEWALD:  cpu time    0.0010: real time    0.0010


--------------------------------------- Iteration      1(   1)  ---------------------------------------


    POTLOK:  cpu time    0.0071: real time    0.0071
    SETDIJ:  cpu time    0.2544: real time    0.2544
atom =   1  type =  1  l = 2
 
 onsite density matrix
 
spin component  1
 
  0.2837  0.0000  0.0000  0.0000  0.0000
  0.0000  0.2837  0.0000  0.0000  0.0000
  0.0000  0.0000  0.2837  0.0000  0.0000
  0.0000  0.0000  0.0000  0.2837  0.0000
  0.0000  0.0000  0.0000  0.0000  0.2837
 
spin component  2
 
  0.7701  0.0000  0.0000  0.0000  0.0000
  0.0000  0.7701  0.0000  0.0000  0.0000
  0.0000  0.0000  0.7701  0.0000  0.0000
  0.0000  0.0000  0.0000  0.7701  0.0000
  0.0000  0.0000  0.0000  0.0000  0.7701
 
 occupancies and eigenvectors
 
  o =  0.2837  v =  1.0000  0.0000  0.0000  0.0000  0.0000  0.0000  0.0000  0.0000  0.0000  0.0000      0.0000  0.0000  0.0000  0.0000  0.0000  0.0000  0.0000  0.0000  0.0000  0.0000
  o =  0.2837  v =  0.0000  1.0000  0.0000  0.0000  0.0000  0.0000  0.0000  0.0000  0.0000  0.0000      0.0000  0.0000  0.0000  0.0000  0.0000  0.0000  0.0000  0.0000  0.0000  0.0000
  o =  0.2837  v =  0.0000  0.0000  1.0000  0.0000  0.0000  0.0000  0.0000  0.0000  0.0000  0.0000      0.0000  0.0000  0.0000  0.0000  0.0000  0.0000  0.0000  0.0000  0.0000  0.0000
  o =  0.2837  v =  0.0000  0.0000  0.0000  1.0000  0.0000  0.0000  0.0000  0.0000  0.0000  0.0000      0.0000  0.0000  0.0000  0.0000  0.0000  0.0000  0.0000  0.0000  0.0000  0.0000
  o =  0.2837  v =  0.0000  0.0000  0.0000  0.0000  1.0000  0.0000  0.0000  0.0000  0.0000  0.0000      0.0000  0.0000  0.0000  0.0000  0.0000  0.0000  0.0000  0.0000  0.0000  0.0000
  o =  0.7701  v =  0.0000  0.0000  0.0000  0.0000  0.0000  1.0000  0.0000  0.0000  0.0000  0.0000      0.0000  0.0000  0.0000  0.0000  0.0000  0.0000  0.0000  0.0000  0.0000  0.0000
  o =  0.7701  v =  0.0000  0.0000  0.0000  0.0000  0.0000  0.0000  1.0000  0.0000  0.0000  0.0000      0.0000  0.0000  0.0000  0.0000  0.0000  0.0000  0.0000  0.0000  0.0000  0.0000
  o =  0.7701  v =  0.0000  0.0000  0.0000  0.0000  0.0000  0.0000  0.0000  1.0000  0.0000  0.0000      0.0000  0.0000  0.0000  0.0000  0.0000  0.0000  0.0000  0.0000  0.0000  0.0000
  o =  0.7701  v =  0.0000  0.0000  0.0000  0.0000  0.0000  0.0000  0.0000  0.0000  1.0000  0.0000      0.0000  0.0000  0.0000  0.0000  0.0000  0.0000  0.0000  0.0000  0.0000  0.0000
  o =  0.7701  v =  0.0000  0.0000  0.0000  0.0000  0.0000  0.0000  0.0000  0.0000  0.0000  1.0000      0.0000  0.0000  0.0000  0.0000  0.0000  0.0000  0.0000  0.0000  0.0000  0.0000
atom =   2  type =  1  l = 2
 
 onsite density matrix
 
spin component  1
 
  0.7701  0.0000  0.0000  0.0000  0.0000
  0.0000  0.7701  0.0000  0.0000  0.0000
  0.0000  0.0000  0.7701  0.0000  0.0000
  0.0000  0.0000  0.0000  0.7701  0.0000
  0.0000  0.0000  0.0000  0.0000  0.7701
 
spin component  2
 
  0.2837  0.0000  0.0000  0.0000  0.0000
  0.0000  0.2837  0.0000  0.0000  0.0000
  0.0000  0.0000  0.2837  0.0000  0.0000
  0.0000  0.0000  0.0000  0.2837  0.0000
  0.0000  0.0000  0.0000  0.0000  0.2837
 
 occupancies and eigenvectors
 
  o =  0.2837  v =  0.0000  0.0000  0.0000  0.0000  0.0000  1.0000  0.0000  0.0000  0.0000  0.0000      0.0000  0.0000  0.0000  0.0000  0.0000  0.0000  0.0000  0.0000  0.0000  0.0000
  o =  0.2837  v =  0.0000  0.0000  0.0000  0.0000  0.0000  0.0000  1.0000  0.0000  0.0000  0.0000      0.0000  0.0000  0.0000  0.0000  0.0000  0.0000  0.0000  0.0000  0.0000  0.0000
  o =  0.2837  v =  0.0000  0.0000  0.0000  0.0000  0.0000  0.0000  0.0000  1.0000  0.0000  0.0000      0.0000  0.0000  0.0000  0.0000  0.0000  0.0000  0.0000  0.0000  0.0000  0.0000
  o =  0.2837  v =  0.0000  0.0000  0.0000  0.0000  0.0000  0.0000  0.0000  0.0000  1.0000  0.0000      0.0000  0.0000  0.0000  0.0000  0.0000  0.0000  0.0000  0.0000  0.0000  0.0000
  o =  0.2837  v =  0.0000  0.0000  0.0000  0.0000  0.0000  0.0000  0.0000  0.0000  0.0000  1.0000      0.0000  0.0000  0.0000  0.0000  0.0000  0.0000  0.0000  0.0000  0.0000  0.0000
  o =  0.7701  v =  1.0000  0.0000  0.0000  0.0000  0.0000  0.0000  0.0000  0.0000  0.0000  0.0000      0.0000  0.0000  0.0000  0.0000  0.0000  0.0000  0.0000  0.0000  0.0000  0.0000
  o =  0.7701  v =  0.0000  1.0000  0.0000  0.0000  0.0000  0.0000  0.0000  0.0000  0.0000  0.0000      0.0000  0.0000  0.0000  0.0000  0.0000  0.0000  0.0000  0.0000  0.0000  0.0000
  o =  0.7701  v =  0.0000  0.0000  1.0000  0.0000  0.0000  0.0000  0.0000  0.0000  0.0000  0.0000      0.0000  0.0000  0.0000  0.0000  0.0000  0.0000  0.0000  0.0000  0.0000  0.0000
  o =  0.7701  v =  0.0000  0.0000  0.0000  1.0000  0.0000  0.0000  0.0000  0.0000  0.0000  0.0000      0.0000  0.0000  0.0000  0.0000  0.0000  0.0000  0.0000  0.0000  0.0000  0.0000
  o =  0.7701  v =  0.0000  0.0000  0.0000  0.0000  1.0000  0.0000  0.0000  0.0000  0.0000  0.0000      0.0000  0.0000  0.0000  0.0000  0.0000  0.0000  0.0000  0.0000  0.0000  0.0000
     EDDAV:  cpu time    1.8175: real time    1.8366
       DOS:  cpu time    0.0010: real time    0.0010
    --------------------------------------------
      LOOP:  cpu time    2.0801: real time    2.0992

 eigenvalue-minimisations  :  7200
 total energy-change (2. order) : 0.6741372E+03  (-0.3412317E+04)
 number of electron      54.0000000 magnetization       0.0000000
 augmentation part       54.0000000 magnetization       0.0000000

 Free energy of the ion-electron system (eV)
  ---------------------------------------------------
  alpha Z        PSCENC =       203.95051221
  Ewald energy   TEWEN  =     -4253.05950503
  -Hartree energ DENC   =     -2091.75274385
  -exchange      EXHF   =         0.00000000
  -V(xc)+E(xc)   XCENC  =       295.21122973
  PAW double counting   =      5431.03059579    -5549.10764102
  entropy T*S    EENTRO =        -0.00077224
  eigenvalues    EBANDS =       -51.59123068
  atomic energy  EATOM  =      6689.45677594
  Solvation  Ediel_sol  =         0.00000000
  ---------------------------------------------------
  free energy    TOTEN  =       674.13722086 eV

  energy without entropy =      674.13799310  energy(sigma->0) =      674.13760698


--------------------------------------------------------------------------------------------------------




--------------------------------------- Iteration      1(   2)  ---------------------------------------


     EDDAV:  cpu time    1.9543: real time    1.9543
       DOS:  cpu time    0.0005: real time    0.0004
    --------------------------------------------
      LOOP:  cpu time    1.9547: real time    1.9547

 eigenvalue-minimisations  :  8172
 total energy-change (2. order) :-0.6674194E+03  (-0.6465460E+03)
 number of electron      54.0000000 magnetization       0.0000000
 augmentation part       54.0000000 magnetization       0.0000000

 Free energy of the ion-electron system (eV)
  ---------------------------------------------------
  alpha Z        PSCENC =       203.95051221
  Ewald energy   TEWEN  =     -4253.05950503
  -Hartree energ DENC   =     -2091.75274385
  -exchange      EXHF   =         0.00000000
  -V(xc)+E(xc)   XCENC  =       295.21122973
  PAW double counting   =      5431.03059579    -5549.10764102
  entropy T*S    EENTRO =        -0.00000000
  eigenvalues    EBANDS =      -719.01144100
  atomic energy  EATOM  =      6689.45677594
  Solvation  Ediel_sol  =         0.00000000
  ---------------------------------------------------
  free energy    TOTEN  =         6.71778278 eV

  energy without entropy =        6.71778278  energy(sigma->0) =        6.71778278


--------------------------------------------------------------------------------------------------------




--------------------------------------- Iteration      1(   3)  ---------------------------------------


     EDDAV:  cpu time    2.1177: real time    2.1178
       DOS:  cpu time    0.0006: real time    0.0006
    --------------------------------------------
      LOOP:  cpu time    2.1184: real time    2.1184

 eigenvalue-minimisations  :  8532
 total energy-change (2. order) :-0.4749436E+02  (-0.4730022E+02)
 number of electron      54.0000000 magnetization       0.0000000
 augmentation part       54.0000000 magnetization       0.0000000

 Free energy of the ion-electron system (eV)
  ---------------------------------------------------
  alpha Z        PSCENC =       203.95051221
  Ewald energy   TEWEN  =     -4253.05950503
  -Hartree energ DENC   =     -2091.75274385
  -exchange      EXHF   =         0.00000000
  -V(xc)+E(xc)   XCENC  =       295.21122973
  PAW double counting   =      5431.03059579    -5549.10764102
  entropy T*S    EENTRO =        -0.00000000
  eigenvalues    EBANDS =      -766.50579871
  atomic energy  EATOM  =      6689.45677594
  Solvation  Ediel_sol  =         0.00000000
  ---------------------------------------------------
  free energy    TOTEN  =       -40.77657493 eV

  energy without entropy =      -40.77657493  energy(sigma->0) =      -40.77657493


--------------------------------------------------------------------------------------------------------




--------------------------------------- Iteration      1(   4)  ---------------------------------------


     EDDAV:  cpu time    2.0478: real time    2.0479
       DOS:  cpu time    0.0005: real time    0.0005
    --------------------------------------------
      LOOP:  cpu time    2.0483: real time    2.0483

 eigenvalue-minimisations  :  8076
 total energy-change (2. order) :-0.6319338E+00  (-0.6317808E+00)
 number of electron      54.0000000 magnetization       0.0000000
 augmentation part       54.0000000 magnetization       0.0000000

 Free energy of the ion-electron system (eV)
  ---------------------------------------------------
  alpha Z        PSCENC =       203.95051221
  Ewald energy   TEWEN  =     -4253.05950503
  -Hartree energ DENC   =     -2091.75274385
  -exchange      EXHF   =         0.00000000
  -V(xc)+E(xc)   XCENC  =       295.21122973
  PAW double counting   =      5431.03059579    -5549.10764102
  entropy T*S    EENTRO =        -0.00000000
  eigenvalues    EBANDS =      -767.13773249
  atomic energy  EATOM  =      6689.45677594
  Solvation  Ediel_sol  =         0.00000000
  ---------------------------------------------------
  free energy    TOTEN  =       -41.40850871 eV

  energy without entropy =      -41.40850871  energy(sigma->0) =      -41.40850871


--------------------------------------------------------------------------------------------------------




--------------------------------------- Iteration      1(   5)  ---------------------------------------


     EDDAV:  cpu time    2.1985: real time    2.1985
       DOS:  cpu time    0.0005: real time    0.0004
    CHARGE:  cpu time    0.1010: real time    0.1010
    MIXING:  cpu time    0.0005: real time    0.0005
    --------------------------------------------
      LOOP:  cpu time    2.3003: real time    2.3004

 eigenvalue-minimisations  :  8604
 total energy-change (2. order) :-0.1002371E-01  (-0.1002359E-01)
 number of electron      53.9999998 magnetization      -0.0000000
 augmentation part       20.1229248 magnetization      -0.0000000

 Broyden mixing:
  rms(total) = 0.24766E+01    rms(broyden)= 0.24765E+01
  rms(prec ) = 0.32117E+01
  weight for this iteration     100.00

 Free energy of the ion-electron system (eV)
  ---------------------------------------------------
  alpha Z        PSCENC =       203.95051221
  Ewald energy   TEWEN  =     -4253.05950503
  -Hartree energ DENC   =     -2091.75274385
  -exchange      EXHF   =         0.00000000
  -V(xc)+E(xc)   XCENC  =       295.21122973
  PAW double counting   =      5431.03059579    -5549.10764102
  entropy T*S    EENTRO =        -0.00000000
  eigenvalues    EBANDS =      -767.14775620
  atomic energy  EATOM  =      6689.45677594
  Solvation  Ediel_sol  =         0.00000000
  ---------------------------------------------------
  free energy    TOTEN  =       -41.41853242 eV

  energy without entropy =      -41.41853242  energy(sigma->0) =      -41.41853242


--------------------------------------------------------------------------------------------------------




--------------------------------------- Iteration      1(   6)  ---------------------------------------


    POTLOK:  cpu time    0.0051: real time    0.0051
    SETDIJ:  cpu time    0.2302: real time    0.2302
atom =   1  type =  1  l = 2
 
 onsite density matrix
 
spin component  1
 
 -0.0728  0.0000  0.0050  0.0000 -0.0000
  0.0000 -0.0763  0.0000  0.0034  0.0000
  0.0050  0.0000 -0.0740  0.0000  0.0000
  0.0000  0.0034  0.0000 -0.0763  0.0000
 -0.0000  0.0000  0.0000  0.0000 -0.0828
 
spin component  2
 
  1.1008  0.0000  0.0137  0.0000  0.0000
  0.0000  1.0986  0.0000  0.0123  0.0000
  0.0137  0.0000  1.0919  0.0000 -0.0000
  0.0000  0.0123  0.0000  1.0986  0.0000
  0.0000  0.0000 -0.0000  0.0000  1.0886
 
 occupancies and eigenvectors
 
  o = -0.0828  v =  0.0000 -0.0000 -0.0000  0.0000  1.0000  0.0000  0.0000  0.0000  0.0000  0.0000      0.0000  0.0000  0.0000  0.0000  0.0000  0.0000  0.0000  0.0000  0.0000  0.0000
  o = -0.0797  v =  0.0000  0.7071 -0.0000 -0.7071  0.0000  0.0000  0.0000  0.0000  0.0000  0.0000      0.0000  0.0000  0.0000  0.0000  0.0000  0.0000  0.0000  0.0000  0.0000  0.0000
  o = -0.0785  v =  0.6619 -0.0000 -0.7496  0.0000 -0.0000  0.0000  0.0000  0.0000  0.0000  0.0000      0.0000  0.0000  0.0000  0.0000  0.0000  0.0000  0.0000  0.0000  0.0000  0.0000
  o = -0.0730  v =  0.0000 -0.7071 -0.0000 -0.7071 -0.0000  0.0000  0.0000  0.0000  0.0000  0.0000      0.0000  0.0000  0.0000  0.0000  0.0000  0.0000  0.0000  0.0000  0.0000  0.0000
  o = -0.0684  v =  0.7496  0.0000  0.6619  0.0000  0.0000  0.0000  0.0000  0.0000  0.0000  0.0000      0.0000  0.0000  0.0000  0.0000  0.0000  0.0000  0.0000  0.0000  0.0000  0.0000
  o =  1.0820  v =  0.0000  0.0000  0.0000  0.0000  0.0000 -0.5887  0.0000  0.8083  0.0000  0.0000      0.0000  0.0000  0.0000  0.0000  0.0000  0.0000  0.0000  0.0000  0.0000  0.0000
  o =  1.0863  v =  0.0000  0.0000  0.0000  0.0000  0.0000  0.0000  0.7071  0.0000 -0.7071  0.0000      0.0000  0.0000  0.0000  0.0000  0.0000  0.0000  0.0000  0.0000  0.0000  0.0000
  o =  1.0886  v =  0.0000  0.0000  0.0000  0.0000  0.0000  0.0000  0.0000  0.0000  0.0000 -1.0000      0.0000  0.0000  0.0000  0.0000  0.0000  0.0000  0.0000  0.0000  0.0000  0.0000
  o =  1.1107  v =  0.0000  0.0000  0.0000  0.0000  0.0000 -0.8083  0.0000 -0.5887  0.0000 -0.0000      0.0000  0.0000  0.0000  0.0000  0.0000  0.0000  0.0000  0.0000  0.0000  0.0000
  o =  1.1108  v =  0.0000  0.0000  0.0000  0.0000  0.0000  0.0000  0.7071  0.0000  0.7071  0.0000      0.0000  0.0000  0.0000  0.0000  0.0000  0.0000  0.0000  0.0000  0.0000  0.0000
atom =   2  type =  1  l = 2
 
 onsite density matrix
 
spin component  1
 
  1.1008  0.0000 -0.0137  0.0000  0.0000
  0.0000  1.0986  0.0000 -0.0123  0.0000
 -0.0137  0.0000  1.0919  0.0000 -0.0000
  0.0000 -0.0123  0.0000  1.0986  0.0000
  0.0000  0.0000 -0.0000  0.0000  1.0886
 
spin component  2
 
 -0.0728  0.0000 -0.0050  0.0000 -0.0000
  0.0000 -0.0763  0.0000 -0.0034  0.0000
 -0.0050  0.0000 -0.0740  0.0000 -0.0000
  0.0000 -0.0034  0.0000 -0.0763  0.0000
 -0.0000  0.0000 -0.0000  0.0000 -0.0828
 
 occupancies and eigenvectors
 
  o = -0.0828  v =  0.0000  0.0000  0.0000  0.0000  0.0000  0.0000  0.0000 -0.0000  0.0000  1.0000      0.0000  0.0000  0.0000  0.0000  0.0000  0.0000  0.0000  0.0000  0.0000  0.0000
  o = -0.0797  v =  0.0000  0.0000  0.0000  0.0000  0.0000  0.0000 -0.7071 -0.0000 -0.7071  0.0000      0.0000  0.0000  0.0000  0.0000  0.0000  0.0000  0.0000  0.0000  0.0000  0.0000
  o = -0.0785  v =  0.0000  0.0000  0.0000  0.0000  0.0000  0.6619  0.0000  0.7496  0.0000  0.0000      0.0000  0.0000  0.0000  0.0000  0.0000  0.0000  0.0000  0.0000  0.0000  0.0000
  o = -0.0730  v =  0.0000  0.0000  0.0000  0.0000  0.0000  0.0000  0.7071  0.0000 -0.7071 -0.0000      0.0000  0.0000  0.0000  0.0000  0.0000  0.0000  0.0000  0.0000  0.0000  0.0000
  o = -0.0684  v =  0.0000  0.0000  0.0000  0.0000  0.0000 -0.7496  0.0000  0.6619  0.0000  0.0000      0.0000  0.0000  0.0000  0.0000  0.0000  0.0000  0.0000  0.0000  0.0000  0.0000
  o =  1.0820  v = -0.5887  0.0000 -0.8083  0.0000  0.0000  0.0000  0.0000  0.0000  0.0000  0.0000      0.0000  0.0000  0.0000  0.0000  0.0000  0.0000  0.0000  0.0000  0.0000  0.0000
  o =  1.0863  v =  0.0000 -0.7071 -0.0000 -0.7071 -0.0000  0.0000  0.0000  0.0000  0.0000  0.0000      0.0000  0.0000  0.0000  0.0000  0.0000  0.0000  0.0000  0.0000  0.0000  0.0000
  o =  1.0886  v =  0.0000 -0.0000  0.0000 -0.0000  1.0000  0.0000  0.0000  0.0000  0.0000  0.0000      0.0000  0.0000  0.0000  0.0000  0.0000  0.0000  0.0000  0.0000  0.0000  0.0000
  o =  1.1107  v = -0.8083  0.0000  0.5887  0.0000 -0.0000  0.0000  0.0000  0.0000  0.0000  0.0000      0.0000  0.0000  0.0000  0.0000  0.0000  0.0000  0.0000  0.0000  0.0000  0.0000
  o =  1.1108  v =  0.0000 -0.7071  0.0000  0.7071  0.0000  0.0000  0.0000  0.0000  0.0000  0.0000      0.0000  0.0000  0.0000  0.0000  0.0000  0.0000  0.0000  0.0000  0.0000  0.0000
     EDDAV:  cpu time    2.2752: real time    2.2752
       DOS:  cpu time    0.0005: real time    0.0005
    CHARGE:  cpu time    0.1010: real time    0.1010
    MIXING:  cpu time    0.0005: real time    0.0005
    --------------------------------------------
      LOOP:  cpu time    2.6125: real time    2.6125

 eigenvalue-minimisations  :  9168
 total energy-change (2. order) : 0.2076354E+01  (-0.1572949E+01)
 number of electron      53.9999998 magnetization       0.0000000
 augmentation part       19.9699753 magnetization       0.0000000

 Broyden mixing:
  rms(total) = 0.15920E+01    rms(broyden)= 0.15919E+01
  rms(prec ) = 0.16417E+01
  weight for this iteration     100.00

 eigenvalues of (default mixing * dielectric matrix)
  average eigenvalue GAMMA=   0.8129
  0.8129

 Free energy of the ion-electron system (eV)
  ---------------------------------------------------
  alpha Z        PSCENC =       203.95051221
  Ewald energy   TEWEN  =     -4253.05950503
  -Hartree energ DENC   =     -2114.62805088
  -exchange      EXHF   =         0.00000000
  -V(xc)+E(xc)   XCENC  =       295.82967386
  PAW double counting   =      5723.36083394    -5833.00196379
  entropy T*S    EENTRO =        -0.00000000
  eigenvalues    EBANDS =      -751.25045464
  atomic energy  EATOM  =      6689.45677594
  Solvation  Ediel_sol  =         0.00000000
  ---------------------------------------------------
  free energy    TOTEN  =       -39.34217839 eV

  energy without entropy =      -39.34217839  energy(sigma->0) =      -39.34217839


--------------------------------------------------------------------------------------------------------




--------------------------------------- Iteration      1(   7)  ---------------------------------------


    POTLOK:  cpu time    0.0049: real time    0.0049
    SETDIJ:  cpu time    0.2307: real time    0.2307
atom =   1  type =  1  l = 2
 
 onsite density matrix
 
spin component  1
 
  0.1243  0.0000  0.0222  0.0000  0.0000
  0.0000  0.1172  0.0000  0.0184  0.0000
  0.0222  0.0000  0.1118  0.0000 -0.0000
  0.0000  0.0184  0.0000  0.1172  0.0000
  0.0000  0.0000 -0.0000  0.0000  0.0976
 
spin component  2
 
  0.8991  0.0000  0.0074  0.0000 -0.0000
  0.0000  0.8970  0.0000  0.0064  0.0000
  0.0074  0.0000  0.8954  0.0000  0.0000
  0.0000  0.0064  0.0000  0.8970  0.0000
 -0.0000  0.0000  0.0000  0.0000  0.8903
 
 occupancies and eigenvectors
 
  o =  0.0950  v = -0.6037 -0.0000  0.7972  0.0000  0.0000  0.0000  0.0000  0.0000  0.0000  0.0000      0.0000  0.0000  0.0000  0.0000  0.0000  0.0000  0.0000  0.0000  0.0000  0.0000
  o =  0.0976  v = -0.0000  0.0000  0.0000  0.0000 -1.0000  0.0000  0.0000  0.0000  0.0000  0.0000      0.0000  0.0000  0.0000  0.0000  0.0000  0.0000  0.0000  0.0000  0.0000  0.0000
  o =  0.0989  v =  0.0000  0.7071  0.0000 -0.7071  0.0000  0.0000  0.0000  0.0000  0.0000  0.0000      0.0000  0.0000  0.0000  0.0000  0.0000  0.0000  0.0000  0.0000  0.0000  0.0000
  o =  0.1356  v = -0.0000 -0.7071 -0.0000 -0.7071 -0.0000  0.0000  0.0000  0.0000  0.0000  0.0000      0.0000  0.0000  0.0000  0.0000  0.0000  0.0000  0.0000  0.0000  0.0000  0.0000
  o =  0.1411  v = -0.7972  0.0000 -0.6037  0.0000  0.0000  0.0000  0.0000  0.0000  0.0000  0.0000      0.0000  0.0000  0.0000  0.0000  0.0000  0.0000  0.0000  0.0000  0.0000  0.0000
  o =  0.8896  v =  0.0000  0.0000  0.0000  0.0000  0.0000 -0.6147  0.0000  0.7888 -0.0000 -0.0000      0.0000  0.0000  0.0000  0.0000  0.0000  0.0000  0.0000  0.0000  0.0000  0.0000
  o =  0.8903  v =  0.0000  0.0000  0.0000  0.0000  0.0000 -0.0000  0.0000  0.0000 -0.0000  1.0000      0.0000  0.0000  0.0000  0.0000  0.0000  0.0000  0.0000  0.0000  0.0000  0.0000
  o =  0.8906  v =  0.0000  0.0000  0.0000  0.0000  0.0000  0.0000  0.7071 -0.0000 -0.7071 -0.0000      0.0000  0.0000  0.0000  0.0000  0.0000  0.0000  0.0000  0.0000  0.0000  0.0000
  o =  0.9034  v =  0.0000  0.0000  0.0000  0.0000  0.0000  0.0000  0.7071  0.0000  0.7071 -0.0000      0.0000  0.0000  0.0000  0.0000  0.0000  0.0000  0.0000  0.0000  0.0000  0.0000
  o =  0.9049  v =  0.0000  0.0000  0.0000  0.0000  0.0000 -0.7888  0.0000 -0.6147  0.0000 -0.0000      0.0000  0.0000  0.0000  0.0000  0.0000  0.0000  0.0000  0.0000  0.0000  0.0000
atom =   2  type =  1  l = 2
 
 onsite density matrix
 
spin component  1
 
  0.8991  0.0000 -0.0074  0.0000 -0.0000
  0.0000  0.8970  0.0000 -0.0064  0.0000
 -0.0074  0.0000  0.8954  0.0000 -0.0000
  0.0000 -0.0064  0.0000  0.8970  0.0000
 -0.0000  0.0000 -0.0000  0.0000  0.8903
 
spin component  2
 
  0.1243  0.0000 -0.0222  0.0000  0.0000
  0.0000  0.1172  0.0000 -0.0184  0.0000
 -0.0222  0.0000  0.1118  0.0000 -0.0000
  0.0000 -0.0184  0.0000  0.1172  0.0000
  0.0000  0.0000 -0.0000  0.0000  0.0976
 
 occupancies and eigenvectors
 
  o =  0.0950  v =  0.0000  0.0000  0.0000  0.0000  0.0000 -0.6037  0.0000 -0.7972  0.0000 -0.0000      0.0000  0.0000  0.0000  0.0000  0.0000  0.0000  0.0000  0.0000  0.0000  0.0000
  o =  0.0976  v =  0.0000  0.0000  0.0000  0.0000  0.0000 -0.0000 -0.0000 -0.0000  0.0000  1.0000      0.0000  0.0000  0.0000  0.0000  0.0000  0.0000  0.0000  0.0000  0.0000  0.0000
  o =  0.0989  v =  0.0000  0.0000  0.0000  0.0000  0.0000 -0.0000  0.7071  0.0000  0.7071  0.0000      0.0000  0.0000  0.0000  0.0000  0.0000  0.0000  0.0000  0.0000  0.0000  0.0000
  o =  0.1356  v =  0.0000  0.0000  0.0000  0.0000  0.0000 -0.0000  0.7071  0.0000 -0.7071  0.0000      0.0000  0.0000  0.0000  0.0000  0.0000  0.0000  0.0000  0.0000  0.0000  0.0000
  o =  0.1411  v =  0.0000  0.0000  0.0000  0.0000  0.0000 -0.7972 -0.0000  0.6037  0.0000 -0.0000      0.0000  0.0000  0.0000  0.0000  0.0000  0.0000  0.0000  0.0000  0.0000  0.0000
  o =  0.8896  v = -0.6147  0.0000 -0.7888  0.0000 -0.0000  0.0000  0.0000  0.0000  0.0000  0.0000      0.0000  0.0000  0.0000  0.0000  0.0000  0.0000  0.0000  0.0000  0.0000  0.0000
  o =  0.8903  v = -0.0000 -0.0000 -0.0000 -0.0000  1.0000  0.0000  0.0000  0.0000  0.0000  0.0000      0.0000  0.0000  0.0000  0.0000  0.0000  0.0000  0.0000  0.0000  0.0000  0.0000
  o =  0.8906  v = -0.0000 -0.7071 -0.0000 -0.7071 -0.0000  0.0000  0.0000  0.0000  0.0000  0.0000      0.0000  0.0000  0.0000  0.0000  0.0000  0.0000  0.0000  0.0000  0.0000  0.0000
  o =  0.9034  v = -0.0000 -0.7071  0.0000  0.7071  0.0000  0.0000  0.0000  0.0000  0.0000  0.0000      0.0000  0.0000  0.0000  0.0000  0.0000  0.0000  0.0000  0.0000  0.0000  0.0000
  o =  0.9049  v = -0.7888  0.0000  0.6147 -0.0000 -0.0000  0.0000  0.0000  0.0000  0.0000  0.0000      0.0000  0.0000  0.0000  0.0000  0.0000  0.0000  0.0000  0.0000  0.0000  0.0000
     EDDAV:  cpu time    2.0458: real time    2.0459
       DOS:  cpu time    0.0004: real time    0.0004
    CHARGE:  cpu time    0.1044: real time    0.1044
    MIXING:  cpu time    0.0009: real time    0.0009
    --------------------------------------------
      LOOP:  cpu time    2.3871: real time    2.3872

 eigenvalue-minimisations  :  8412
 total energy-change (2. order) :-0.6382211E+00  (-0.1559841E+00)
 number of electron      53.9999998 magnetization      -0.0000000
 augmentation part       19.9480596 magnetization      -0.0000000

 Broyden mixing:
  rms(total) = 0.11819E+01    rms(broyden)= 0.11819E+01
  rms(prec ) = 0.12098E+01
  weight for this iteration     100.00

 eigenvalues of (default mixing * dielectric matrix)
  average eigenvalue GAMMA=   1.4383
  0.7018  2.1747

 Free energy of the ion-electron system (eV)
  ---------------------------------------------------
  alpha Z        PSCENC =       203.95051221
  Ewald energy   TEWEN  =     -4253.05950503
  -Hartree energ DENC   =     -2110.93886417
  -exchange      EXHF   =         0.00000000
  -V(xc)+E(xc)   XCENC  =       296.46345533
  PAW double counting   =      5975.38922109    -6094.83766613
  entropy T*S    EENTRO =        -0.00000000
  eigenvalues    EBANDS =      -746.40432872
  atomic energy  EATOM  =      6689.45677594
  Solvation  Ediel_sol  =         0.00000000
  ---------------------------------------------------
  free energy    TOTEN  =       -39.98039948 eV

  energy without entropy =      -39.98039948  energy(sigma->0) =      -39.98039948


--------------------------------------------------------------------------------------------------------




--------------------------------------- Iteration      1(   8)  ---------------------------------------


    POTLOK:  cpu time    0.0050: real time    0.0050
    SETDIJ:  cpu time    0.4139: real time    0.4248
atom =   1  type =  1  l = 2
 
 onsite density matrix
 
spin component  1
 
 -0.0257  0.0000  0.0237  0.0000  0.0000
  0.0000 -0.0336  0.0000  0.0183  0.0000
  0.0237  0.0000 -0.0365  0.0000 -0.0000
  0.0000  0.0183  0.0000 -0.0336  0.0000
  0.0000  0.0000 -0.0000  0.0000 -0.0565
 
spin component  2
 
  1.0505  0.0000  0.0209  0.0000  0.0000
  0.0000  1.0443  0.0000  0.0192  0.0000
  0.0209  0.0000  1.0363  0.0000  0.0000
  0.0000  0.0192  0.0000  1.0443  0.0000
  0.0000  0.0000  0.0000  0.0000  1.0272
 
 occupancies and eigenvectors
 
  o = -0.0565  v =  0.0000  0.0000 -0.0000 -0.0000 -1.0000  0.0000  0.0000  0.0000  0.0000  0.0000      0.0000  0.0000  0.0000  0.0000  0.0000  0.0000  0.0000  0.0000  0.0000  0.0000
  o = -0.0554  v =  0.6236  0.0000 -0.7818 -0.0000  0.0000  0.0000  0.0000  0.0000  0.0000  0.0000      0.0000  0.0000  0.0000  0.0000  0.0000  0.0000  0.0000  0.0000  0.0000  0.0000
  o = -0.0519  v = -0.0000  0.7071  0.0000 -0.7071  0.0000  0.0000  0.0000  0.0000  0.0000  0.0000      0.0000  0.0000  0.0000  0.0000  0.0000  0.0000  0.0000  0.0000  0.0000  0.0000
  o = -0.0153  v = -0.0000  0.7071 -0.0000  0.7071  0.0000  0.0000  0.0000  0.0000  0.0000  0.0000      0.0000  0.0000  0.0000  0.0000  0.0000  0.0000  0.0000  0.0000  0.0000  0.0000
  o = -0.0069  v =  0.7818  0.0000  0.6236  0.0000 -0.0000  0.0000  0.0000  0.0000  0.0000  0.0000      0.0000  0.0000  0.0000  0.0000  0.0000  0.0000  0.0000  0.0000  0.0000  0.0000
  o =  1.0213  v =  0.0000  0.0000  0.0000  0.0000  0.0000 -0.5822  0.0000  0.8131  0.0000 -0.0000      0.0000  0.0000  0.0000  0.0000  0.0000  0.0000  0.0000  0.0000  0.0000  0.0000
  o =  1.0251  v =  0.0000  0.0000  0.0000  0.0000  0.0000  0.0000  0.7071  0.0000 -0.7071  0.0000      0.0000  0.0000  0.0000  0.0000  0.0000  0.0000  0.0000  0.0000  0.0000  0.0000
  o =  1.0272  v =  0.0000  0.0000  0.0000  0.0000  0.0000 -0.0000 -0.0000  0.0000  0.0000  1.0000      0.0000  0.0000  0.0000  0.0000  0.0000  0.0000  0.0000  0.0000  0.0000  0.0000
  o =  1.0635  v =  0.0000  0.0000  0.0000  0.0000  0.0000  0.0000 -0.7071  0.0000 -0.7071 -0.0000      0.0000  0.0000  0.0000  0.0000  0.0000  0.0000  0.0000  0.0000  0.0000  0.0000
  o =  1.0655  v =  0.0000  0.0000  0.0000  0.0000  0.0000 -0.8131  0.0000 -0.5822  0.0000 -0.0000      0.0000  0.0000  0.0000  0.0000  0.0000  0.0000  0.0000  0.0000  0.0000  0.0000
atom =   2  type =  1  l = 2
 
 onsite density matrix
 
spin component  1
 
  1.0505  0.0000 -0.0209  0.0000 -0.0000
  0.0000  1.0443  0.0000 -0.0192  0.0000
 -0.0209  0.0000  1.0363  0.0000 -0.0000
  0.0000 -0.0192  0.0000  1.0443  0.0000
 -0.0000  0.0000 -0.0000  0.0000  1.0272
 
spin component  2
 
 -0.0257  0.0000 -0.0237  0.0000  0.0000
  0.0000 -0.0336  0.0000 -0.0183  0.0000
 -0.0237  0.0000 -0.0365  0.0000  0.0000
  0.0000 -0.0183  0.0000 -0.0336  0.0000
  0.0000  0.0000  0.0000  0.0000 -0.0565
 
 occupancies and eigenvectors
 
  o = -0.0565  v =  0.0000  0.0000  0.0000  0.0000  0.0000  0.0000  0.0000  0.0000  0.0000 -1.0000      0.0000  0.0000  0.0000  0.0000  0.0000  0.0000  0.0000  0.0000  0.0000  0.0000
  o = -0.0554  v =  0.0000  0.0000  0.0000  0.0000  0.0000  0.6236  0.0000  0.7818  0.0000  0.0000      0.0000  0.0000  0.0000  0.0000  0.0000  0.0000  0.0000  0.0000  0.0000  0.0000
  o = -0.0519  v =  0.0000  0.0000  0.0000  0.0000  0.0000 -0.0000  0.7071 -0.0000  0.7071  0.0000      0.0000  0.0000  0.0000  0.0000  0.0000  0.0000  0.0000  0.0000  0.0000  0.0000
  o = -0.0153  v =  0.0000  0.0000  0.0000  0.0000  0.0000 -0.0000  0.7071  0.0000 -0.7071  0.0000      0.0000  0.0000  0.0000  0.0000  0.0000  0.0000  0.0000  0.0000  0.0000  0.0000
  o = -0.0069  v =  0.0000  0.0000  0.0000  0.0000  0.0000  0.7818  0.0000 -0.6236 -0.0000 -0.0000      0.0000  0.0000  0.0000  0.0000  0.0000  0.0000  0.0000  0.0000  0.0000  0.0000
  o =  1.0213  v = -0.5822 -0.0000 -0.8131  0.0000 -0.0000  0.0000  0.0000  0.0000  0.0000  0.0000      0.0000  0.0000  0.0000  0.0000  0.0000  0.0000  0.0000  0.0000  0.0000  0.0000
  o =  1.0251  v =  0.0000 -0.7071  0.0000 -0.7071  0.0000  0.0000  0.0000  0.0000  0.0000  0.0000      0.0000  0.0000  0.0000  0.0000  0.0000  0.0000  0.0000  0.0000  0.0000  0.0000
  o =  1.0272  v = -0.0000  0.0000 -0.0000  0.0000  1.0000  0.0000  0.0000  0.0000  0.0000  0.0000      0.0000  0.0000  0.0000  0.0000  0.0000  0.0000  0.0000  0.0000  0.0000  0.0000
  o =  1.0635  v =  0.0000  0.7071  0.0000 -0.7071 -0.0000  0.0000  0.0000  0.0000  0.0000  0.0000      0.0000  0.0000  0.0000  0.0000  0.0000  0.0000  0.0000  0.0000  0.0000  0.0000
  o =  1.0655  v = -0.8131 -0.0000  0.5822  0.0000 -0.0000  0.0000  0.0000  0.0000  0.0000  0.0000      0.0000  0.0000  0.0000  0.0000  0.0000  0.0000  0.0000  0.0000  0.0000  0.0000
     EDDAV:  cpu time    2.2650: real time    2.2651
       DOS:  cpu time    0.0005: real time    0.0005
    CHARGE:  cpu time    0.1033: real time    0.1034
    MIXING:  cpu time    0.0006: real time    0.0006
    --------------------------------------------
      LOOP:  cpu time    2.7884: real time    2.7993

 eigenvalue-minimisations  :  8484
 total energy-change (2. order) : 0.8927798E-01  (-0.5233282E-01)
 number of electron      53.9999998 magnetization      -0.0000000
 augmentation part       19.9825023 magnetization      -0.0000000

 Broyden mixing:
  rms(total) = 0.47183E+00    rms(broyden)= 0.47182E+00
  rms(prec ) = 0.50306E+00
  weight for this iteration     100.00

 eigenvalues of (default mixing * dielectric matrix)
  average eigenvalue GAMMA=   1.2518
  2.0974  1.0244  0.6336

 Free energy of the ion-electron system (eV)
  ---------------------------------------------------
  alpha Z        PSCENC =       203.95051221
  Ewald energy   TEWEN  =     -4253.05950503
  -Hartree energ DENC   =     -2105.44191458
  -exchange      EXHF   =         0.00000000
  -V(xc)+E(xc)   XCENC  =       295.78743431
  PAW double counting   =      6247.07010699    -6363.16040808
  entropy T*S    EENTRO =        -0.00000000
  eigenvalues    EBANDS =      -754.49412326
  atomic energy  EATOM  =      6689.45677594
  Solvation  Ediel_sol  =         0.00000000
  ---------------------------------------------------
  free energy    TOTEN  =       -39.89112150 eV

  energy without entropy =      -39.89112150  energy(sigma->0) =      -39.89112150


--------------------------------------------------------------------------------------------------------




--------------------------------------- Iteration      1(   9)  ---------------------------------------


    POTLOK:  cpu time    0.0048: real time    0.0048
    SETDIJ:  cpu time    0.4212: real time    0.4212
atom =   1  type =  1  l = 2
 
 onsite density matrix
 
spin component  1
 
  0.0498  0.0000  0.0276  0.0000 -0.0000
  0.0000  0.0402  0.0000  0.0230  0.0000
  0.0276  0.0000  0.0344  0.0000  0.0000
  0.0000  0.0230  0.0000  0.0402  0.0000
 -0.0000  0.0000  0.0000  0.0000  0.0147
 
spin component  2
 
  0.9742  0.0000  0.0241  0.0000  0.0000
  0.0000  0.9672  0.0000  0.0206  0.0000
  0.0241  0.0000  0.9602  0.0000 -0.0000
  0.0000  0.0206  0.0000  0.9672  0.0000
  0.0000  0.0000 -0.0000  0.0000  0.9462
 
 occupancies and eigenvectors
 
  o =  0.0134  v = -0.6049  0.0000  0.7963 -0.0000 -0.0000  0.0000  0.0000  0.0000  0.0000  0.0000      0.0000  0.0000  0.0000  0.0000  0.0000  0.0000  0.0000  0.0000  0.0000  0.0000
  o =  0.0147  v =  0.0000 -0.0000 -0.0000  0.0000 -1.0000  0.0000  0.0000  0.0000  0.0000  0.0000      0.0000  0.0000  0.0000  0.0000  0.0000  0.0000  0.0000  0.0000  0.0000  0.0000
  o =  0.0172  v =  0.0000  0.7071 -0.0000 -0.7071 -0.0000  0.0000  0.0000  0.0000  0.0000  0.0000      0.0000  0.0000  0.0000  0.0000  0.0000  0.0000  0.0000  0.0000  0.0000  0.0000
  o =  0.0632  v =  0.0000  0.7071  0.0000  0.7071  0.0000  0.0000  0.0000  0.0000  0.0000  0.0000      0.0000  0.0000  0.0000  0.0000  0.0000  0.0000  0.0000  0.0000  0.0000  0.0000
  o =  0.0707  v = -0.7963  0.0000 -0.6049  0.0000 -0.0000  0.0000  0.0000  0.0000  0.0000  0.0000      0.0000  0.0000  0.0000  0.0000  0.0000  0.0000  0.0000  0.0000  0.0000  0.0000
  o =  0.9421  v =  0.0000  0.0000  0.0000  0.0000  0.0000 -0.6007 -0.0000  0.7995  0.0000  0.0000      0.0000  0.0000  0.0000  0.0000  0.0000  0.0000  0.0000  0.0000  0.0000  0.0000
  o =  0.9462  v =  0.0000  0.0000  0.0000  0.0000  0.0000 -0.0000  0.0000  0.0000  0.0000 -1.0000      0.0000  0.0000  0.0000  0.0000  0.0000  0.0000  0.0000  0.0000  0.0000  0.0000
  o =  0.9466  v =  0.0000  0.0000  0.0000  0.0000  0.0000  0.0000  0.7071  0.0000 -0.7071  0.0000      0.0000  0.0000  0.0000  0.0000  0.0000  0.0000  0.0000  0.0000  0.0000  0.0000
  o =  0.9878  v =  0.0000  0.0000  0.0000  0.0000  0.0000  0.0000 -0.7071  0.0000 -0.7071 -0.0000      0.0000  0.0000  0.0000  0.0000  0.0000  0.0000  0.0000  0.0000  0.0000  0.0000
  o =  0.9923  v =  0.0000  0.0000  0.0000  0.0000  0.0000 -0.7995 -0.0000 -0.6007  0.0000  0.0000      0.0000  0.0000  0.0000  0.0000  0.0000  0.0000  0.0000  0.0000  0.0000  0.0000
atom =   2  type =  1  l = 2
 
 onsite density matrix
 
spin component  1
 
  0.9742  0.0000 -0.0241  0.0000  0.0000
  0.0000  0.9672  0.0000 -0.0206  0.0000
 -0.0241  0.0000  0.9602  0.0000 -0.0000
  0.0000 -0.0206  0.0000  0.9672  0.0000
  0.0000  0.0000 -0.0000  0.0000  0.9462
 
spin component  2
 
  0.0498  0.0000 -0.0276  0.0000 -0.0000
  0.0000  0.0402  0.0000 -0.0230  0.0000
 -0.0276  0.0000  0.0344  0.0000 -0.0000
  0.0000 -0.0230  0.0000  0.0402  0.0000
 -0.0000  0.0000 -0.0000  0.0000  0.0147
 
 occupancies and eigenvectors
 
  o =  0.0134  v =  0.0000  0.0000  0.0000  0.0000  0.0000 -0.6049 -0.0000 -0.7963  0.0000 -0.0000      0.0000  0.0000  0.0000  0.0000  0.0000  0.0000  0.0000  0.0000  0.0000  0.0000
  o =  0.0147  v =  0.0000  0.0000  0.0000  0.0000  0.0000 -0.0000  0.0000 -0.0000  0.0000  1.0000      0.0000  0.0000  0.0000  0.0000  0.0000  0.0000  0.0000  0.0000  0.0000  0.0000
  o =  0.0172  v =  0.0000  0.0000  0.0000  0.0000  0.0000  0.0000 -0.7071  0.0000 -0.7071  0.0000      0.0000  0.0000  0.0000  0.0000  0.0000  0.0000  0.0000  0.0000  0.0000  0.0000
  o =  0.0632  v =  0.0000  0.0000  0.0000  0.0000  0.0000  0.0000  0.7071  0.0000 -0.7071 -0.0000      0.0000  0.0000  0.0000  0.0000  0.0000  0.0000  0.0000  0.0000  0.0000  0.0000
  o =  0.0707  v =  0.0000  0.0000  0.0000  0.0000  0.0000 -0.7963 -0.0000  0.6049  0.0000 -0.0000      0.0000  0.0000  0.0000  0.0000  0.0000  0.0000  0.0000  0.0000  0.0000  0.0000
  o =  0.9421  v = -0.6007  0.0000 -0.7995  0.0000 -0.0000  0.0000  0.0000  0.0000  0.0000  0.0000      0.0000  0.0000  0.0000  0.0000  0.0000  0.0000  0.0000  0.0000  0.0000  0.0000
  o =  0.9462  v = -0.0000  0.0000 -0.0000  0.0000  1.0000  0.0000  0.0000  0.0000  0.0000  0.0000      0.0000  0.0000  0.0000  0.0000  0.0000  0.0000  0.0000  0.0000  0.0000  0.0000
  o =  0.9466  v = -0.0000 -0.7071 -0.0000 -0.7071  0.0000  0.0000  0.0000  0.0000  0.0000  0.0000      0.0000  0.0000  0.0000  0.0000  0.0000  0.0000  0.0000  0.0000  0.0000  0.0000
  o =  0.9878  v = -0.0000 -0.7071  0.0000  0.7071  0.0000  0.0000  0.0000  0.0000  0.0000  0.0000      0.0000  0.0000  0.0000  0.0000  0.0000  0.0000  0.0000  0.0000  0.0000  0.0000
  o =  0.9923  v = -0.7995  0.0000  0.6007 -0.0000 -0.0000  0.0000  0.0000  0.0000  0.0000  0.0000      0.0000  0.0000  0.0000  0.0000  0.0000  0.0000  0.0000  0.0000  0.0000  0.0000
     EDDAV:  cpu time    1.8735: real time    1.8736
       DOS:  cpu time    0.0004: real time    0.0004
    CHARGE:  cpu time    0.1027: real time    0.1027
    MIXING:  cpu time    0.0007: real time    0.0007
    --------------------------------------------
      LOOP:  cpu time    2.4033: real time    2.4034

 eigenvalue-minimisations  :  8064
 total energy-change (2. order) :-0.2790366E+00  (-0.7501648E-02)
 number of electron      53.9999998 magnetization       0.0000000
 augmentation part       19.9717390 magnetization       0.0000000

 Broyden mixing:
  rms(total) = 0.13617E+00    rms(broyden)= 0.13617E+00
  rms(prec ) = 0.14557E+00
  weight for this iteration     100.00

 eigenvalues of (default mixing * dielectric matrix)
  average eigenvalue GAMMA=   1.2169
  2.6242  0.8090  0.8090  0.6257

 Free energy of the ion-electron system (eV)
  ---------------------------------------------------
  alpha Z        PSCENC =       203.95051221
  Ewald energy   TEWEN  =     -4253.05950503
  -Hartree energ DENC   =     -2105.63131014
  -exchange      EXHF   =         0.00000000
  -V(xc)+E(xc)   XCENC  =       296.07826475
  PAW double counting   =      6379.02897571    -6499.33790976
  entropy T*S    EENTRO =        -0.00000000
  eigenvalues    EBANDS =      -750.65596182
  atomic energy  EATOM  =      6689.45677594
  Solvation  Ediel_sol  =         0.00000000
  ---------------------------------------------------
  free energy    TOTEN  =       -40.17015814 eV

  energy without entropy =      -40.17015814  energy(sigma->0) =      -40.17015814


--------------------------------------------------------------------------------------------------------




--------------------------------------- Iteration      1(  10)  ---------------------------------------


    POTLOK:  cpu time    0.0045: real time    0.0045
    SETDIJ:  cpu time    0.4207: real time    0.4207
atom =   1  type =  1  l = 2
 
 onsite density matrix
 
spin component  1
 
  0.0546  0.0000  0.0299  0.0000  0.0000
  0.0000  0.0447  0.0000  0.0245  0.0000
  0.0299  0.0000  0.0385  0.0000 -0.0000
  0.0000  0.0245  0.0000  0.0447  0.0000
  0.0000  0.0000 -0.0000  0.0000  0.0173
 
spin component  2
 
  0.9697  0.0000  0.0216  0.0000 -0.0000
  0.0000  0.9631  0.0000  0.0190  0.0000
  0.0216  0.0000  0.9565  0.0000  0.0000
  0.0000  0.0190  0.0000  0.9631  0.0000
 -0.0000  0.0000  0.0000  0.0000  0.9443
 
 occupancies and eigenvectors
 
  o =  0.0156  v = -0.6078  0.0000  0.7941 -0.0000  0.0000  0.0000  0.0000  0.0000  0.0000  0.0000      0.0000  0.0000  0.0000  0.0000  0.0000  0.0000  0.0000  0.0000  0.0000  0.0000
  o =  0.0173  v =  0.0000  0.0000 -0.0000 -0.0000  1.0000  0.0000  0.0000  0.0000  0.0000  0.0000      0.0000  0.0000  0.0000  0.0000  0.0000  0.0000  0.0000  0.0000  0.0000  0.0000
  o =  0.0202  v = -0.0000 -0.7071  0.0000  0.7071  0.0000  0.0000  0.0000  0.0000  0.0000  0.0000      0.0000  0.0000  0.0000  0.0000  0.0000  0.0000  0.0000  0.0000  0.0000  0.0000
  o =  0.0692  v =  0.0000  0.7071  0.0000  0.7071  0.0000  0.0000  0.0000  0.0000  0.0000  0.0000      0.0000  0.0000  0.0000  0.0000  0.0000  0.0000  0.0000  0.0000  0.0000  0.0000
  o =  0.0775  v = -0.7941  0.0000 -0.6078  0.0000  0.0000  0.0000  0.0000  0.0000  0.0000  0.0000      0.0000  0.0000  0.0000  0.0000  0.0000  0.0000  0.0000  0.0000  0.0000  0.0000
  o =  0.9405  v =  0.0000  0.0000  0.0000  0.0000  0.0000 -0.5956 -0.0000  0.8033  0.0000 -0.0000      0.0000  0.0000  0.0000  0.0000  0.0000  0.0000  0.0000  0.0000  0.0000  0.0000
  o =  0.9441  v =  0.0000  0.0000  0.0000  0.0000  0.0000 -0.0000  0.7071  0.0000 -0.7071  0.0000      0.0000  0.0000  0.0000  0.0000  0.0000  0.0000  0.0000  0.0000  0.0000  0.0000
  o =  0.9443  v =  0.0000  0.0000  0.0000  0.0000  0.0000 -0.0000 -0.0000  0.0000  0.0000  1.0000      0.0000  0.0000  0.0000  0.0000  0.0000  0.0000  0.0000  0.0000  0.0000  0.0000
[...]
     34      10.7349      0.00000
     35      11.2702      0.00000
     36      12.0537      0.00000

 k-point    48 :       0.2857    0.2857    0.4500
  band No.  band energies     occupation 
      1     -45.9647      1.00000
      2     -45.9362      1.00000
      3     -45.9079      1.00000
      4     -41.3774      1.00000
      5     -41.3593      1.00000
      6     -41.3225      1.00000
      7     -20.4884      1.00000
      8     -20.4463      1.00000
      9     -20.4165      1.00000
     10     -20.2844      1.00000
     11      -4.4066      1.00000
     12      -4.1138      1.00000
     13      -4.0312      1.00000
     14      -3.8014      1.00000
     15      -3.3944      1.00000
     16      -3.0534      1.00000
     17      -2.7678      1.00000
     18      -2.4726      1.00000
     19      -2.1039      1.00000
     20      -1.8247      1.00000
     21      -1.6922      1.00000
     22      -1.5717      1.00000
     23      -0.0203      1.00000
     24       0.1231      1.00000
     25       0.4187      1.00000
     26       1.0253      1.00000
     27       1.5593      1.00000
     28       7.0471      0.00000
     29       7.0719      0.00000
     30       7.3280      0.00000
     31       7.9556      0.00000
     32       8.4687      0.00000
     33       9.7343      0.00000
     34      11.0303      0.00000
     35      11.9618      0.00000
     36      12.0066      0.00000

 k-point    49 :       0.4286    0.2857    0.4500
  band No.  band energies     occupation 
      1     -45.9647      1.00000
      2     -45.9362      1.00000
      3     -45.9079      1.00000
      4     -41.3774      1.00000
      5     -41.3593      1.00000
      6     -41.3225      1.00000
      7     -20.4718      1.00000
      8     -20.4569      1.00000
      9     -20.4059      1.00000
     10     -20.2995      1.00000
     11      -4.4257      1.00000
     12      -4.2350      1.00000
     13      -3.9873      1.00000
     14      -3.8632      1.00000
     15      -3.3954      1.00000
     16      -3.1010      1.00000
     17      -2.7123      1.00000
     18      -2.5614      1.00000
     19      -1.9991      1.00000
     20      -1.7689      1.00000
     21      -1.5848      1.00000
     22      -1.5280      1.00000
     23      -0.0209      1.00000
     24       0.0909      1.00000
     25       0.3786      1.00000
     26       1.0618      1.00000
     27       1.6454      1.00000
     28       7.0570      0.00000
     29       7.0709      0.00000
     30       7.3705      0.00000
     31       7.9203      0.00000
     32       8.3968      0.00000
     33      10.1829      0.00000
     34      11.0663      0.00000
     35      11.3722      0.00000
     36      12.0201      0.00000

 k-point    50 :       0.4286    0.4286    0.4500
  band No.  band energies     occupation 
      1     -45.9647      1.00000
      2     -45.9362      1.00000
      3     -45.9079      1.00000
      4     -41.3775      1.00000
      5     -41.3593      1.00000
      6     -41.3226      1.00000
      7     -20.4840      1.00000
      8     -20.4519      1.00000
      9     -20.3997      1.00000
     10     -20.2959      1.00000
     11      -4.5226      1.00000
     12      -4.3252      1.00000
     13      -3.9757      1.00000
     14      -3.8902      1.00000
     15      -3.5356      1.00000
     16      -3.0740      1.00000
     17      -2.6690      1.00000
     18      -2.4572      1.00000
     19      -1.8941      1.00000
     20      -1.6512      1.00000
     21      -1.5354      1.00000
     22      -1.5143      1.00000
     23      -0.0208      1.00000
     24       0.0844      1.00000
     25       0.3605      1.00000
     26       1.1062      1.00000
     27       1.6404      1.00000
     28       7.0622      0.00000
     29       7.0810      0.00000
     30       7.3873      0.00000
     31       7.8948      0.00000
     32       8.2992      0.00000
     33      10.5141      0.00000
     34      11.4041      0.00000
     35      11.4197      0.00000
     36      11.5669      0.00000


--------------------------------------------------------------------------------------------------------


 soft charge-density along one line, spin component           1
         0         1         2         3         4         5         6         7         8         9
 total charge-density along one line
 
 soft charge-density along one line, spin component           2
         0         1         2         3         4         5         6         7         8         9
 total charge-density along one line
 
 pseudopotential strength for first ion, spin component:           1
-41.890  -0.000  -0.031   7.899   0.000   0.013   0.000  -0.000
 -0.000 -41.864  -0.000   0.000   7.889   0.000  -0.000  -0.000
 -0.031  -0.000 -41.890   0.013   0.000   7.899  -0.000  -0.000
  7.899   0.000   0.013   5.348  -0.000  -0.005  -0.000   0.000
  0.000   7.889   0.000  -0.000   5.352  -0.000   0.000  -0.000
  0.013   0.000   7.899  -0.005  -0.000   5.348  -0.000   0.000
  0.000  -0.000  -0.000  -0.000   0.000  -0.000  -1.379  -0.000
 -0.000  -0.000  -0.000   0.000  -0.000   0.000  -0.000  -1.334
  0.000  -0.000  -0.000   0.000   0.000  -0.000  -0.075   0.000
 -0.000  -0.000  -0.000   0.000  -0.000   0.000  -0.000  -0.090
  0.000  -0.000  -0.000   0.000   0.000   0.000   0.000   0.000
  0.000  -0.000  -0.000  -0.000   0.000  -0.000  -1.822  -0.000
 -0.000  -0.000  -0.000   0.000  -0.000   0.000  -0.000  -1.776
  0.000  -0.000  -0.000   0.000   0.000  -0.000  -0.078   0.000
 -0.000  -0.000  -0.000   0.000  -0.000   0.000  -0.000  -0.093
  0.000  -0.000  -0.000   0.000   0.000   0.000   0.000   0.000
 -0.000   0.000   0.000  -0.000   0.000   0.000   0.006   0.000
 -0.000   0.000   0.000  -0.000   0.000   0.000   0.012   0.000
 pseudopotential strength for first ion, spin component:           2
-44.959  -0.000  -0.024   9.385   0.000   0.009   0.000  -0.000
 -0.000 -44.940  -0.000   0.000   9.379   0.000  -0.000  -0.000
 -0.024  -0.000 -44.959   0.009   0.000   9.385  -0.000  -0.000
  9.385   0.000   0.009   4.853  -0.000  -0.003   0.000   0.000
  0.000   9.379   0.000  -0.000   4.856  -0.000   0.000  -0.000
  0.009   0.000   9.385  -0.003  -0.000   4.853  -0.000   0.000
  0.000  -0.000  -0.000   0.000   0.000  -0.000  -7.382  -0.000
 -0.000  -0.000  -0.000   0.000  -0.000   0.000  -0.000  -7.351
  0.000  -0.000  -0.000   0.000   0.000  -0.000  -0.053   0.000
 -0.000  -0.000  -0.000   0.000  -0.000   0.000  -0.000  -0.073
  0.000  -0.000  -0.000   0.000   0.000  -0.000   0.000   0.000
  0.000  -0.000  -0.000   0.000   0.000  -0.000  -7.875  -0.000
 -0.000  -0.000  -0.000   0.000  -0.000   0.000  -0.000  -7.843
  0.000  -0.000  -0.000   0.000   0.000  -0.000  -0.055   0.000
 -0.000  -0.000  -0.000   0.000  -0.000   0.000  -0.000  -0.075
  0.000  -0.000  -0.000   0.000   0.000  -0.000   0.000   0.000
 -0.000   0.000   0.000  -0.000   0.000   0.000   0.004   0.000
 -0.000   0.000   0.000  -0.000   0.000   0.000   0.007   0.000
 total augmentation occupancy for first ion, spin component:           1
  1.998   0.000  -0.000  -0.013   0.000   0.000   0.000   0.000   0.000   0.000   0.000   0.000   0.000   0.000   0.000   0.000
  0.000   1.998   0.000   0.000  -0.013   0.000   0.000   0.000   0.000   0.000   0.000   0.000   0.000   0.000   0.000   0.000
 -0.000   0.000   1.998   0.000   0.000  -0.013   0.000   0.000   0.000   0.000   0.000   0.000   0.000   0.000   0.000   0.000
 -0.013   0.000   0.000   0.096   0.000  -0.010   0.000   0.000   0.000   0.000   0.000   0.000   0.000   0.000   0.000   0.000
  0.000  -0.013   0.000   0.000   0.108   0.000   0.000   0.000   0.000   0.000   0.000   0.000   0.000   0.000   0.000   0.000
  0.000   0.000  -0.013  -0.010   0.000   0.096   0.000   0.000   0.000   0.000   0.000   0.000   0.000   0.000   0.000   0.000
  0.000   0.000   0.000   0.000   0.000   0.000   8.373   0.000   3.386   0.000   0.000  -6.444   0.000  -3.213   0.000  -0.000
  0.000   0.000   0.000   0.000   0.000   0.000   0.000   6.992   0.000   2.915   0.000   0.000  -5.127   0.000  -2.754   0.000
  0.000   0.000   0.000   0.000   0.000   0.000   3.386   0.000   6.309   0.000   0.000  -3.214   0.000  -4.507   0.000   0.000
  0.000   0.000   0.000   0.000   0.000   0.000   0.000   2.915   0.000   6.992   0.000   0.000  -2.754   0.000  -5.127   0.000
  0.000   0.000   0.000   0.000   0.000   0.000   0.000   0.000   0.000   0.000   3.957   0.000   0.000   0.000   0.000  -2.232
  0.000   0.000   0.000   0.000   0.000   0.000  -6.444   0.000  -3.214   0.000   0.000   5.686   0.000   3.085   0.000   0.000
  0.000   0.000   0.000   0.000   0.000   0.000   0.000  -5.127   0.000  -2.754   0.000   0.000   4.421   0.000   2.630   0.000
  0.000   0.000   0.000   0.000   0.000   0.000  -3.213   0.000  -4.507   0.000   0.000   3.085   0.000   3.850   0.000  -0.000
  0.000   0.000   0.000   0.000   0.000   0.000   0.000  -2.754   0.000  -5.127   0.000   0.000   2.630   0.000   4.421   0.000
  0.000   0.000   0.000   0.000   0.000   0.000   0.000   0.000   0.000   0.000  -2.232   0.000   0.000   0.000   0.000   1.626
  0.000   0.000   0.000   0.000   0.000   0.000   0.265   0.000  -0.230   0.000   0.000  -0.295   0.000   0.238   0.000  -0.000
  0.000   0.000   0.000   0.000   0.000   0.000  -0.008   0.000   0.027   0.000  -0.000   0.033   0.000  -0.038   0.000  -0.000
 total augmentation occupancy for first ion, spin component:           2
  0.004   0.000  -0.000   0.016   0.000  -0.000   0.000   0.000   0.000   0.000   0.000   0.000   0.000   0.000   0.000   0.000
  0.000   0.004   0.000   0.000   0.017   0.000   0.000   0.000   0.000   0.000   0.000   0.000   0.000   0.000   0.000   0.000
 -0.000   0.000   0.004  -0.000   0.000   0.016   0.000   0.000   0.000   0.000   0.000   0.000   0.000   0.000   0.000   0.000
  0.016   0.000  -0.000  -0.009   0.000  -0.000   0.000   0.000   0.000   0.000   0.000   0.000   0.000   0.000   0.000   0.000
  0.000   0.017   0.000   0.000  -0.009   0.000   0.000   0.000   0.000   0.000   0.000   0.000   0.000   0.000   0.000   0.000
 -0.000   0.000   0.016  -0.000   0.000  -0.009   0.000   0.000   0.000   0.000   0.000   0.000   0.000   0.000   0.000   0.000
  0.000   0.000   0.000   0.000   0.000   0.000  -5.672   0.000  -1.870   0.000   0.000   3.336   0.000   1.476   0.000   0.000
  0.000   0.000   0.000   0.000   0.000   0.000   0.000  -4.908   0.000  -1.639   0.000   0.000   2.714   0.000   1.293   0.000
  0.000   0.000   0.000   0.000   0.000   0.000  -1.870   0.000  -4.440   0.000  -0.000   1.477   0.000   2.356   0.000   0.000
  0.000   0.000   0.000   0.000   0.000   0.000   0.000  -1.639   0.000  -4.908   0.000   0.000   1.293   0.000   2.714   0.000
  0.000   0.000   0.000   0.000   0.000   0.000   0.000   0.000  -0.000   0.000  -3.276   0.000   0.000   0.000   0.000   1.425
  0.000   0.000   0.000   0.000   0.000   0.000   3.336   0.000   1.477   0.000  -0.000  -2.102   0.000  -1.088   0.000   0.000
  0.000   0.000   0.000   0.000   0.000   0.000   0.000   2.714   0.000   1.293   0.000   0.000  -1.621   0.000  -0.954   0.000
  0.000   0.000   0.000   0.000   0.000   0.000   1.476   0.000   2.356   0.000   0.000  -1.088   0.000  -1.366   0.000   0.000
  0.000   0.000   0.000   0.000   0.000   0.000   0.000   1.293   0.000   2.714   0.000   0.000  -0.954   0.000  -1.621   0.000
  0.000   0.000   0.000   0.000   0.000   0.000   0.000   0.000   0.000   0.000   1.425   0.000   0.000   0.000   0.000  -0.670
  0.000   0.000   0.000   0.000   0.000   0.000   0.006   0.000   0.024   0.000   0.000  -0.015   0.000  -0.004   0.000   0.000
  0.000   0.000   0.000   0.000   0.000   0.000  -0.047   0.000   0.012   0.000   0.000   0.028   0.000  -0.006   0.000  -0.000


------------------------ aborting loop because EDIFF is reached ----------------------------------------


 


 total charge     
 
# of ion       s       p       d       tot
------------------------------------------
    1        0.179   6.172   4.981  11.332
    2        0.183   6.168   4.987  11.337
    3        1.721   4.363   0.000   6.085
    4        1.721   4.363   0.000   6.085
    5        1.721   4.360   0.000   6.081
    6        1.721   4.360   0.000   6.081
--------------------------------------------------
tot          7.247  29.786   9.968  47.001
 


 magnetization (x)
 
# of ion       s       p       d       tot
------------------------------------------
    1       -0.014  -0.015  -4.597  -4.626
    2        0.014   0.013   4.595   4.623
    3        0.002   0.021   0.000   0.022
    4        0.002   0.021   0.000   0.022
    5       -0.002  -0.017   0.000  -0.020
    6       -0.002  -0.017   0.000  -0.020
--------------------------------------------------
tot         -0.001   0.005  -0.002   0.002
 
    CHARGE:  cpu time    0.1002: real time    0.1002
    FORLOC:  cpu time    0.0011: real time    0.0011
    FORNL :  cpu time    0.5449: real time    0.5449
    STRESS:  cpu time    1.5073: real time    1.5073
    FORCOR:  cpu time    0.0041: real time    0.0041
    FORHAR:  cpu time    0.0021: real time    0.0021
    MIXING:  cpu time    0.0008: real time    0.0008
    OFIELD:  cpu time    0.0000: real time    0.0000

  FORCE on cell =-STRESS in cart. coord.  units (eV):
  Direction    XX          YY          ZZ          XY          YZ          ZX
  --------------------------------------------------------------------------------------
  Alpha Z   203.95051   203.95051   203.95051
  Ewald   -1606.36587 -1606.36587 -1040.33096    -0.00000    -0.00000    -0.00000
  Hartree   575.74491   575.74491   955.16591    -0.00000    -0.00000    -0.00000
  E(xc)    -309.49855  -309.49855  -309.54302    -0.00000     0.00000     0.00000
  Local     185.50643   185.50643  -752.68946    -0.00000    -0.00000    -0.00000
  n-local  -238.17113  -238.55816  -237.32608     0.02041     0.09569     0.11022
  augment   267.15613   267.15613   266.53850    -0.00000    -0.00000    -0.00000
  Kinetic   921.44694   922.30853   914.24063    -0.39766    -0.75842    -0.92579
  Fock        0.00000     0.00000     0.00000     0.00000     0.00000     0.00000
  -------------------------------------------------------------------------------------
  Total       0.00665     0.00665     0.00604     0.00000     0.00000     0.00000
  in kB       0.14271     0.14271     0.12951     0.00000     0.00000     0.00000
  external pressure =        0.14 kB  Pullay stress =        0.00 kB


 VOLUME and BASIS-vectors are now :
 -----------------------------------------------------------------------------
  energy-cutoff  :      600.00
  volume of cell :       74.70
      direct lattice vectors                 reciprocal lattice vectors
     4.795904286  0.000000000  0.000000000     0.208511251  0.000000000  0.000000000
     0.000000000  4.795904286  0.000000000     0.000000000  0.208511251  0.000000000
     0.000000000  0.000000000  3.247883034     0.000000000  0.000000000  0.307892861

  length of vectors
     4.795904286  4.795904286  3.247883034     0.208511251  0.208511251  0.307892861


 FORCES acting on ions
    electron-ion (+dipol)            ewald-force                    non-local-force                 convergence-correction
 -----------------------------------------------------------------------------------------------
   -.183E-11 0.653E-11 -.518E-12   0.000E+00 0.000E+00 0.167E-13   0.000E+00 0.000E+00 0.000E+00   0.105E-13 -.514E-13 0.625E-13
   -.210E-13 -.144E-13 0.492E-12   -.284E-13 -.853E-13 0.162E-13   0.000E+00 0.000E+00 0.000E+00   -.301E-13 0.598E-14 -.681E-13
   -.339E+02 0.339E+02 0.334E-11   0.351E+02 -.351E+02 -.409E-14   -.128E+01 0.128E+01 0.000E+00   -.302E-04 0.302E-04 0.744E-13
   0.339E+02 -.339E+02 0.823E-12   -.351E+02 0.351E+02 -.442E-14   0.128E+01 -.128E+01 0.000E+00   0.302E-04 -.302E-04 -.202E-13
   0.339E+02 0.339E+02 0.121E-08   -.351E+02 -.351E+02 -.835E-14   0.128E+01 0.128E+01 0.108E-18   0.302E-04 0.302E-04 -.233E-10
   -.339E+02 -.339E+02 -.121E-08   0.351E+02 0.351E+02 -.861E-14   -.128E+01 -.128E+01 -.108E-18   -.302E-04 -.302E-04 0.233E-10
 -----------------------------------------------------------------------------------------------
   -.982E-12 0.821E-11 0.621E-11   0.000E+00 -.711E-14 0.747E-14   0.000E+00 0.000E+00 0.000E+00   -.186E-13 -.736E-15 -.444E-13
 
 
 POSITION                                       TOTAL-FORCE (eV/Angst)
 -----------------------------------------------------------------------------------
      2.39795      2.39795      1.62394         0.000000      0.000000      0.000000
      0.00000      0.00000      0.00000         0.000000      0.000000      0.000000
      0.93967      3.85624      1.62394        -0.002583      0.002583      0.000000
      3.85624      0.93967      1.62394         0.002583     -0.002583     -0.000000
      1.45828      1.45828      0.00000         0.002583      0.002583      0.000000
      3.33762      3.33762      0.00000        -0.002583     -0.002583     -0.000000
 -----------------------------------------------------------------------------------
    total drift:                               -0.000000      0.000000      0.000000


--------------------------------------------------------------------------------------------------------



  FREE ENERGIE OF THE ION-ELECTRON SYSTEM (eV)
  ---------------------------------------------------
  free  energy   TOTEN  =       -40.17057743 eV

  energy  without entropy=      -40.17057743  energy(sigma->0) =      -40.17057743
 


--------------------------------------------------------------------------------------------------------


    POTLOK:  cpu time    0.4234: real time    0.4234


--------------------------------------------------------------------------------------------------------




--------------------------------------------------------------------------------------------------------


  
 reached required accuracy - stopping structural energy minimisation
     LOOP+:  cpu time   39.7102: real time   39.7409
    4ORBIT:  cpu time    0.0000: real time    0.0000
 


 total charge     
 
# of ion       s       p       d       tot
------------------------------------------
    1        0.179   6.172   4.981  11.332
    2        0.183   6.168   4.987  11.337
    3        1.721   4.363   0.000   6.085
    4        1.721   4.363   0.000   6.085
    5        1.721   4.360   0.000   6.081
    6        1.721   4.360   0.000   6.081
--------------------------------------------------
tot          7.247  29.786   9.968  47.001
 


 magnetization (x)
 
# of ion       s       p       d       tot
------------------------------------------
    1       -0.014  -0.015  -4.597  -4.626
    2        0.014   0.013   4.595   4.623
    3        0.002   0.021   0.000   0.022
    4        0.002   0.021   0.000   0.022
    5       -0.002  -0.017   0.000  -0.020
    6       -0.002  -0.017   0.000  -0.020
--------------------------------------------------
tot         -0.001   0.005  -0.002   0.002
 

 total amount of memory used by VASP MPI-rank0    83730. kBytes
=======================================================================

   base      :      30000. kBytes
   nonl-proj :      36703. kBytes
   fftplans  :       1875. kBytes
   grid      :       2467. kBytes
   one-center:        186. kBytes
   wavefun   :      12499. kBytes
 
  
  
 General timing and accounting informations for this job:
 ========================================================
  
                  Total CPU time used (sec):       41.443
                            User time (sec):       34.335
                          System time (sec):        7.108
                         Elapsed time (sec):       41.523
  
                   Maximum memory used (kb):       93760.
                   Average memory used (kb):           0.
  
                          Minor page faults:        18249
                          Major page faults:            6
                 Voluntary context switches:          316
