 vasp.5.4.4.18Apr17-6-g9f103f2a35 (build Apr 27 2017 11:13:10) complex          
  
 executed on           IFC91_ompi date 2021.06.08  16:51:14
 running on   12 total cores
 distrk:  each k-point on   12 cores,    1 groups
 distr:  one band on NCORES_PER_BAND=   1 cores,   12 groups


--------------------------------------------------------------------------------------------------------


 INCAR:
 POTCAR:    PAW_PBE Mn_pv 02Aug2007               
 POTCAR:    PAW_PBE F 08Apr2002                   

 ----------------------------------------------------------------------------- 
|                                                                             |
|           W    W    AA    RRRRR   N    N  II  N    N   GGGG   !!!           |
|           W    W   A  A   R    R  NN   N  II  NN   N  G    G  !!!           |
|           W    W  A    A  R    R  N N  N  II  N N  N  G       !!!           |
|           W WW W  AAAAAA  RRRRR   N  N N  II  N  N N  G  GGG   !            |
|           WW  WW  A    A  R   R   N   NN  II  N   NN  G    G                |
|           W    W  A    A  R    R  N    N  II  N    N   GGGG   !!!           |
|                                                                             |
|      For optimal performance we recommend to set                            |
|        NCORE= 4 - approx SQRT( number of cores)                             |
|      NCORE specifies how many cores store one orbital (NPAR=cpu/NCORE).     |
|      This setting can  greatly improve the performance of VASP for DFT.     |
|      The default,   NCORE=1            might be grossly inefficient         |
|      on modern multi-core architectures or massively parallel machines.     |
|      Do your own testing !!!!                                               |
|      Unfortunately you need to use the default for GW and RPA calculations. |
|      (for HF NCORE is supported but not extensively tested yet)             |
|                                                                             |
 ----------------------------------------------------------------------------- 

 POTCAR:    PAW_PBE Mn_pv 02Aug2007               
   VRHFIN =Mn: 3p4s3d                                                           
   LEXCH  = PE                                                                  
   EATOM  =  2025.2664 eV,  148.8529 Ry                                         
                                                                                
   TITEL  = PAW_PBE Mn_pv 02Aug2007                                             
   LULTRA =        F    use ultrasoft PP ?                                      
   IUNSCR =        1    unscreen: 0-lin 1-nonlin 2-no                           
   RPACOR =    2.080    partial core radius                                     
   POMASS =   54.938; ZVAL   =   13.000    mass and valenz                      
   RCORE  =    2.300    outmost cutoff radius                                   
   RWIGS  =    2.500; RWIGS  =    1.323    wigner-seitz radius (au A)           
   ENMAX  =  269.864; ENMIN  =  202.398 eV                                      
   ICORE  =        3    local potential                                         
   LCOR   =        T    correct aug charges                                     
   LPAW   =        T    paw PP                                                  
   EAUG   =  569.085                                                            
   DEXC   =    0.000                                                            
   RMAX   =    2.343    core radius for proj-oper                               
   RAUG   =    1.300    factor for augmentation sphere                          
   RDEP   =    2.338    radius for radial grids                                 
   RDEPT  =    1.798    core radius for aug-charge                              
                                                                                
   Atomic configuration                                                         
    8 entries                                                                   
     n  l   j            E        occ.                                          
     1  0  0.50     -6424.8287   2.0000                                         
     2  0  0.50      -739.1154   2.0000                                         
     2  1  1.50      -625.3949   6.0000                                         
     3  0  0.50       -81.6100   2.0000                                         
     3  1  1.50       -50.4667   6.0000                                         
     3  2  2.50        -3.3745   6.0000                                         
     4  0  0.50        -4.1331   1.0000                                         
     4  3  2.50        -1.3606   0.0000                                         
   Description                                                                  
     l       E           TYP  RCUT    TYP  RCUT                                 
     1    -50.4666628     23  2.000                                             
     1     -1.3605826     23  2.000                                             
     2     -3.3744729     23  2.300                                             
     2     -4.7350555     23  2.300                                             
     0     -4.1331431     23  2.300                                             
     0      7.6656591     23  2.300                                             
     3      9.5240782     23  2.300                                             
  local pseudopotential read in
  partial core-charges read in
  partial kinetic energy density read in
  atomic valenz-charges read in
  non local Contribution for L=           1  read in
    real space projection operators read in
  non local Contribution for L=           1  read in
    real space projection operators read in
  non local Contribution for L=           2  read in
    real space projection operators read in
  non local Contribution for L=           2  read in
    real space projection operators read in
  non local Contribution for L=           0  read in
    real space projection operators read in
  non local Contribution for L=           0  read in
    real space projection operators read in
    PAW grid and wavefunctions read in
 
   number of l-projection  operators is LMAX  =           6
   number of lm-projection operators is LMMAX =          18
 
 POTCAR:    PAW_PBE F 08Apr2002                   
   VRHFIN =F: s2p5                                                              
   LEXCH  = PE                                                                  
   EATOM  =   659.6475 eV,   48.4827 Ry                                         
                                                                                
   TITEL  = PAW_PBE F 08Apr2002                                                 
   LULTRA =        F    use ultrasoft PP ?                                      
   IUNSCR =        1    unscreen: 0-lin 1-nonlin 2-no                           
   RPACOR =    1.200    partial core radius                                     
   POMASS =   18.998; ZVAL   =    7.000    mass and valenz                      
   RCORE  =    1.520    outmost cutoff radius                                   
   RWIGS  =    1.500; RWIGS  =    0.794    wigner-seitz radius (au A)           
   ENMAX  =  400.000; ENMIN  =  300.000 eV                                      
   ICORE  =        2    local potential                                         
   LCOR   =        T    correct aug charges                                     
   LPAW   =        T    paw PP                                                  
   EAUG   =  613.614                                                            
   RMAX   =    1.555    core radius for proj-oper                               
   RAUG   =    1.300    factor for augmentation sphere                          
   RDEP   =    1.539    radius for radial grids                                 
   RDEPT  =    1.299    core radius for aug-charge                              
                                                                                
   Atomic configuration                                                         
    4 entries                                                                   
     n  l   j            E        occ.                                          
     1  0  0.50      -663.3661   2.0000                                         
     2  0  0.50       -29.8995   2.0000                                         
     2  1  0.50       -11.1114   5.0000                                         
     3  2  1.50       -10.8847   0.0000                                         
   Description                                                                  
     l       E           TYP  RCUT    TYP  RCUT                                 
     0    -29.8995018     23  1.200                                             
     0     -9.5240782     23  1.200                                             
     1    -11.1113914     23  1.520                                             
     1      1.3605826     23  1.520                                             
     2    -10.8846608      7  1.500                                             
  local pseudopotential read in
  partial core-charges read in
  partial kinetic energy density read in
  atomic valenz-charges read in
  non local Contribution for L=           0  read in
    real space projection operators read in
  non local Contribution for L=           0  read in
    real space projection operators read in
  non local Contribution for L=           1  read in
    real space projection operators read in
  non local Contribution for L=           1  read in
    real space projection operators read in
    PAW grid and wavefunctions read in
 
   number of l-projection  operators is LMAX  =           4
   number of lm-projection operators is LMMAX =           8
 
  PAW_PBE Mn_pv 02Aug2007               :
 energy of atom  1       EATOM=-2025.2664
 kinetic energy error for atom=    0.0047 (will be added to EATOM!!)
  PAW_PBE F 08Apr2002                   :
 energy of atom  2       EATOM= -659.6475
 kinetic energy error for atom=    0.0256 (will be added to EATOM!!)
 
 
 POSCAR: Mn  F                                   
  positions in cartesian coordinates
  No initial velocities read in

 METAGGA = SCAN     LMAXTAU =  6    LMIXTAU =  F

 exchange correlation table for  LEXCH =        8
   RHO(1)=    0.500       N(1)  =     2000
   RHO(2)=  100.500       N(2)  =     4000
 


--------------------------------------------------------------------------------------------------------


 ion  position               nearest neighbor table
   1  0.500  0.500  0.500-   3 2.11   4 2.11   5 2.14   6 2.14   5 2.14   6 2.14
   2  0.000  0.000  0.000-   5 2.11   6 2.11   3 2.14   4 2.14   3 2.14   4 2.14
   3  0.195  0.805  0.500-   1 2.11   2 2.14   2 2.14
   4  0.805  0.195  0.500-   1 2.11   2 2.14   2 2.14
   5  0.305  0.305  0.000-   2 2.11   1 2.14   1 2.14
   6  0.695  0.695  0.000-   2 2.11   1 2.14   1 2.14
 

IMPORTANT INFORMATION: All symmetrisations will be switched off!
NOSYMM: (Re-)initialisation of all symmetry stuff for point group C_1.

 
 
 KPOINTS: KPOINTS created by Atomic Simulation Env

Automatic generation of k-mesh.
Space group operators:
 irot       det(A)        alpha          n_x          n_y          n_z        tau_x        tau_y        tau_z
    1     1.000000     0.000000     1.000000     0.000000     0.000000     0.000000     0.000000     0.000000
 
 Subroutine IBZKPT returns following result:
 ===========================================
 
 Found     48 irreducible k-points:
 
 Following reciprocal coordinates:
            Coordinates               Weight
  0.125000  0.125000  0.083333      2.000000
  0.375000  0.125000  0.083333      2.000000
 -0.375000  0.125000  0.083333      2.000000
 -0.125000  0.125000  0.083333      2.000000
  0.125000  0.375000  0.083333      2.000000
  0.375000  0.375000  0.083333      2.000000
 -0.375000  0.375000  0.083333      2.000000
 -0.125000  0.375000  0.083333      2.000000
  0.125000 -0.375000  0.083333      2.000000
  0.375000 -0.375000  0.083333      2.000000
 -0.375000 -0.375000  0.083333      2.000000
 -0.125000 -0.375000  0.083333      2.000000
  0.125000 -0.125000  0.083333      2.000000
  0.375000 -0.125000  0.083333      2.000000
 -0.375000 -0.125000  0.083333      2.000000
 -0.125000 -0.125000  0.083333      2.000000
  0.125000  0.125000  0.250000      2.000000
  0.375000  0.125000  0.250000      2.000000
 -0.375000  0.125000  0.250000      2.000000
 -0.125000  0.125000  0.250000      2.000000
  0.125000  0.375000  0.250000      2.000000
  0.375000  0.375000  0.250000      2.000000
 -0.375000  0.375000  0.250000      2.000000
 -0.125000  0.375000  0.250000      2.000000
  0.125000 -0.375000  0.250000      2.000000
  0.375000 -0.375000  0.250000      2.000000
 -0.375000 -0.375000  0.250000      2.000000
 -0.125000 -0.375000  0.250000      2.000000
  0.125000 -0.125000  0.250000      2.000000
  0.375000 -0.125000  0.250000      2.000000
 -0.375000 -0.125000  0.250000      2.000000
 -0.125000 -0.125000  0.250000      2.000000
  0.125000  0.125000  0.416667      2.000000
  0.375000  0.125000  0.416667      2.000000
 -0.375000  0.125000  0.416667      2.000000
 -0.125000  0.125000  0.416667      2.000000
  0.125000  0.375000  0.416667      2.000000
  0.375000  0.375000  0.416667      2.000000
 -0.375000  0.375000  0.416667      2.000000
 -0.125000  0.375000  0.416667      2.000000
  0.125000 -0.375000  0.416667      2.000000
  0.375000 -0.375000  0.416667      2.000000
 -0.375000 -0.375000  0.416667      2.000000
 -0.125000 -0.375000  0.416667      2.000000
  0.125000 -0.125000  0.416667      2.000000
  0.375000 -0.125000  0.416667      2.000000
 -0.375000 -0.125000  0.416667      2.000000
 -0.125000 -0.125000  0.416667      2.000000
 
 Following cartesian coordinates:
            Coordinates               Weight
  0.025553  0.025553  0.025137      2.000000
  0.076659  0.025553  0.025137      2.000000
 -0.076659  0.025553  0.025137      2.000000
 -0.025553  0.025553  0.025137      2.000000
  0.025553  0.076659  0.025137      2.000000
  0.076659  0.076659  0.025137      2.000000
 -0.076659  0.076659  0.025137      2.000000
 -0.025553  0.076659  0.025137      2.000000
  0.025553 -0.076659  0.025137      2.000000
  0.076659 -0.076659  0.025137      2.000000
 -0.076659 -0.076659  0.025137      2.000000
 -0.025553 -0.076659  0.025137      2.000000
  0.025553 -0.025553  0.025137      2.000000
  0.076659 -0.025553  0.025137      2.000000
 -0.076659 -0.025553  0.025137      2.000000
 -0.025553 -0.025553  0.025137      2.000000
  0.025553  0.025553  0.075410      2.000000
  0.076659  0.025553  0.075410      2.000000
 -0.076659  0.025553  0.075410      2.000000
 -0.025553  0.025553  0.075410      2.000000
  0.025553  0.076659  0.075410      2.000000
  0.076659  0.076659  0.075410      2.000000
 -0.076659  0.076659  0.075410      2.000000
 -0.025553  0.076659  0.075410      2.000000
  0.025553 -0.076659  0.075410      2.000000
  0.076659 -0.076659  0.075410      2.000000
 -0.076659 -0.076659  0.075410      2.000000
 -0.025553 -0.076659  0.075410      2.000000
  0.025553 -0.025553  0.075410      2.000000
  0.076659 -0.025553  0.075410      2.000000
 -0.076659 -0.025553  0.075410      2.000000
 -0.025553 -0.025553  0.075410      2.000000
  0.025553  0.025553  0.125684      2.000000
  0.076659  0.025553  0.125684      2.000000
 -0.076659  0.025553  0.125684      2.000000
 -0.025553  0.025553  0.125684      2.000000
  0.025553  0.076659  0.125684      2.000000
  0.076659  0.076659  0.125684      2.000000
 -0.076659  0.076659  0.125684      2.000000
 -0.025553  0.076659  0.125684      2.000000
  0.025553 -0.076659  0.125684      2.000000
  0.076659 -0.076659  0.125684      2.000000
 -0.076659 -0.076659  0.125684      2.000000
 -0.025553 -0.076659  0.125684      2.000000
  0.025553 -0.025553  0.125684      2.000000
  0.076659 -0.025553  0.125684      2.000000
 -0.076659 -0.025553  0.125684      2.000000
 -0.025553 -0.025553  0.125684      2.000000
 
 TETIRR: Found    288 inequivalent tetrahedra from      576


--------------------------------------------------------------------------------------------------------




 Dimension of arrays:
   k-points           NKPTS =     48   k-points in BZ     NKDIM =     48   number of bands    NBANDS=     36
   number of dos      NEDOS =    301   number of ions     NIONS =      6
   non local maximal  LDIM  =      6   non local SUM 2l+1 LMDIM =     18
   total plane-waves  NPLWV =  18000
   max r-space proj   IRMAX =      1   max aug-charges    IRDMAX=  55270
   dimension x,y,z NGX =    30 NGY =   30 NGZ =   20
   dimension x,y,z NGXF=    60 NGYF=   60 NGZF=   40
   support grid    NGXF=   120 NGYF=  120 NGZF=   80
   ions per type =               2   4
   NGX,Y,Z   is equivalent  to a cutoff of  10.20, 10.20, 10.03 a.u.
   NGXF,Y,Z  is equivalent  to a cutoff of  20.39, 20.39, 20.06 a.u.

 SYSTEM =  unknown system                          
 POSCAR =  Mn  F                                   

 Startparameter for this run:
   NWRITE =      2    write-flag & timer
   PREC   = normal    normal or accurate (medium, high low for compatibility)
   ISTART =      1    job   : 0-new  1-cont  2-samecut
   ICHARG =      0    charge: 1-file 2-atom 10-const
   ISPIN  =      2    spin polarized calculation?
   LNONCOLLINEAR =      F non collinear calculations
   LSORBIT =      F    spin-orbit coupling
   INIWAV =      1    electr: 0-lowe 1-rand  2-diag
   LASPH  =      T    aspherical Exc in radial PAW
   METAGGA=      F    non-selfconsistent MetaGGA calc.

 Electronic Relaxation 1
   ENCUT  =  600.0 eV  44.10 Ry    6.64 a.u.   9.77  9.77  6.62*2*pi/ulx,y,z
   ENINI  =  600.0     initial cutoff
   ENAUG  =  613.6 eV  augmentation charge cutoff
   NELM   =     60;   NELMIN=  2; NELMDL=  0     # of ELM steps 
   EDIFF  = 0.1E-07   stopping-criterion for ELM
   LREAL  =      F    real-space projection
   NLSPLINE    = F    spline interpolate recip. space projectors
   LCOMPAT=      F    compatible to vasp.4.4
   GGA_COMPAT  = T    GGA compatible to vasp.4.4-vasp.4.6
   LMAXPAW     = -100 max onsite density
   LMAXMIX     =    4 max onsite mixed and CHGCAR
   VOSKOWN=      0    Vosko Wilk Nusair interpolation
   ROPT   =    0.00000   0.00000
 Ionic relaxation
   EDIFFG = 0.1E-06   stopping-criterion for IOM
   NSW    =      0    number of steps for IOM
   NBLOCK =      1;   KBLOCK =      1    inner block; outer block 
   IBRION =     -1    ionic relax: 0-MD 1-quasi-New 2-CG
   NFREE  =      0    steps in history (QN), initial steepest desc. (CG)
   ISIF   =      2    stress and relaxation
   IWAVPR =     10    prediction:  0-non 1-charg 2-wave 3-comb
   ISYM   =      0    0-nonsym 1-usesym 2-fastsym
   LCORR  =      T    Harris-Foulkes like correction to forces

   POTIM  = 0.5000    time-step for ionic-motion
   TEIN   =    0.0    initial temperature
   TEBEG  =    0.0;   TEEND  =   0.0 temperature during run
   SMASS  =  -3.00    Nose mass-parameter (am)
   estimated Nose-frequenzy (Omega)   =  0.10E-29 period in steps =****** mass=  -0.547E-27a.u.
   SCALEE = 1.0000    scale energy and forces
   NPACO  =    256;   APACO  = 16.0  distance and # of slots for P.C.
   PSTRESS=    0.0 pullay stress

  Mass of Ions in am
   POMASS =  54.94 19.00
  Ionic Valenz
   ZVAL   =  13.00  7.00
  Atomic Wigner-Seitz radii
   RWIGS  =  -1.00 -1.00
  virtual crystal weights 
   VCA    =   1.00  1.00
   NELECT =      54.0000    total number of electrons
   NUPDOWN=      -1.0000    fix difference up-down

 DOS related values:
   EMIN   =  10.00;   EMAX   =-10.00  energy-range for DOS
   EFERMI =   0.00
   ISMEAR =    -5;   SIGMA  =   0.20  broadening in eV -4-tet -1-fermi 0-gaus

 Electronic relaxation 2 (details)
   IALGO  =     38    algorithm
   LDIAG  =      T    sub-space diagonalisation (order eigenvalues)
   LSUBROT=      F    optimize rotation matrix (better conditioning)
   TURBO    =      0    0=normal 1=particle mesh
   IRESTART =      0    0=no restart 2=restart with 2 vectors
   NREBOOT  =      0    no. of reboots
   NMIN     =      0    reboot dimension
   EREF     =   0.00    reference energy to select bands
   IMIX   =      4    mixing-type and parameters
     AMIX     =   0.40;   BMIX     =  1.00
     AMIX_MAG =   1.60;   BMIX_MAG =  1.00
     AMIN     =   0.10
     WC   =   100.;   INIMIX=   1;  MIXPRE=   1;  MAXMIX= -45

 Intra band minimization:
   WEIMIN = 0.0000     energy-eigenvalue tresh-hold
   EBREAK =  0.69E-10  absolut break condition
   DEPER  =   0.30     relativ break condition  

   TIME   =   0.40     timestep for ELM

  volume/ion in A,a.u.               =      13.22        89.23
  Fermi-wavevector in a.u.,A,eV,Ry     =   1.440092  2.721380 28.216662  2.073866
  Thomas-Fermi vector in A             =   2.558875
 
 Write flags
   LWAVE        =      T    write WAVECAR
   LDOWNSAMPLE  =      F    k-point downsampling of WAVECAR
   LCHARG       =      T    write CHGCAR
   LVTOT        =      F    write LOCPOT, total local potential
   LVHAR        =      F    write LOCPOT, Hartree potential only
   LELF         =      F    write electronic localiz. function (ELF)
   LORBIT       =     11    0 simple, 1 ext, 2 COOP (PROOUT), +10 PAW based schemes


 Dipole corrections
   LMONO  =      F    monopole corrections only (constant potential shift)
   LDIPOL =      F    correct potential (dipole corrections)
   IDIPOL =      0    1-x, 2-y, 3-z, 4-all directions 
   EPSILON=  1.0000000 bulk dielectric constant

 LDA+U is selected, type is set to LDAUTYPE =  2
   angular momentum for each species LDAUL =     2   -1
   U (eV)           for each species LDAUU =   8.0  0.0
   J (eV)           for each species LDAUJ =   0.0  0.0
 Exchange correlation treatment:
   GGA     =    --    GGA type
   LEXCH   =     8    internal setting for exchange type
   VOSKOWN=      0    Vosko Wilk Nusair interpolation
   LHFCALC =     F    Hartree Fock is set to
   LHFONE  =     F    Hartree Fock one center treatment
   AEXX    =    0.0000 exact exchange contribution

 Linear response parameters
   LEPSILON=     F    determine dielectric tensor
   LRPA    =     F    only Hartree local field effects (RPA)
   LNABLA  =     F    use nabla operator in PAW spheres
   LVEL    =     F    velocity operator in full k-point grid
   LINTERFAST=   F  fast interpolation
   KINTER  =     0    interpolate to denser k-point grid
   CSHIFT  =0.1000    complex shift for real part using Kramers Kronig
   OMEGAMAX=  -1.0    maximum frequency
   DEG_THRESHOLD= 0.2000000E-02 threshold for treating states as degnerate
   RTIME   =   -0.100 relaxation time in fs
  (WPLASMAI=    0.000 imaginary part of plasma frequency in eV, 0.658/RTIME)
   DFIELD  = 0.0000000 0.0000000 0.0000000 field for delta impulse in time
 
 Orbital magnetization related:
   ORBITALMAG=     F  switch on orbital magnetization
   LCHIMAG   =     F  perturbation theory with respect to B field
   DQ        =  0.001000  dq finite difference perturbation B field
   LLRAUG    =     F  two centre corrections for induced B field



--------------------------------------------------------------------------------------------------------


 Static calculation
 charge density and potential will be updated during run
 spin polarized calculation
 Variant of blocked Davidson
 Davidson routine will perform the subspace rotation
 perform sub-space diagonalisation
    after iterative eigenvector-optimisation
 modified Broyden-mixing scheme, WC =      100.0
 initial mixing is a Kerker type mixing with AMIX =  0.4000 and BMIX =      1.0000
 Hartree-type preconditioning will be used
 using additional bands            9
 reciprocal scheme for non local part
 use partial core corrections
 calculate Harris-corrections to forces 
   (improved forces if not selfconsistent)
 use gradient corrections 
 use of overlap-Matrix (Vanderbilt PP)
 Fermi weights with tetrahedron method with Bloechl corrections


--------------------------------------------------------------------------------------------------------


  energy-cutoff  :      600.00
  volume of cell :       79.33
      direct lattice vectors                 reciprocal lattice vectors
     4.891796665  0.000000000  0.000000000     0.204423869  0.000000000  0.000000000
     0.000000000  4.891796665  0.000000000     0.000000000  0.204423869  0.000000000
     0.000000000  0.000000000  3.315204934     0.000000000  0.000000000  0.301640478

  length of vectors
     4.891796665  4.891796665  3.315204934     0.204423869  0.204423869  0.301640478


 
 old parameters found on file WAVECAR:
  energy-cutoff  :      600.00
  volume of cell :       79.33
      direct lattice vectors                 reciprocal lattice vectors
     4.891796665  0.000000000  0.000000000     0.204423869  0.000000000  0.000000000
     0.000000000  4.891796665  0.000000000     0.000000000  0.204423869  0.000000000
     0.000000000  0.000000000  3.315204934     0.000000000  0.000000000  0.301640478

  length of vectors

 
 k-points in units of 2pi/SCALE and weight: KPOINTS created by Atomic Simulation Env
   0.02555298  0.02555298  0.02513671       0.021
   0.07665895  0.02555298  0.02513671       0.021
  -0.07665895  0.02555298  0.02513671       0.021
  -0.02555298  0.02555298  0.02513671       0.021
   0.02555298  0.07665895  0.02513671       0.021
   0.07665895  0.07665895  0.02513671       0.021
  -0.07665895  0.07665895  0.02513671       0.021
  -0.02555298  0.07665895  0.02513671       0.021
   0.02555298 -0.07665895  0.02513671       0.021
   0.07665895 -0.07665895  0.02513671       0.021
  -0.07665895 -0.07665895  0.02513671       0.021
  -0.02555298 -0.07665895  0.02513671       0.021
   0.02555298 -0.02555298  0.02513671       0.021
   0.07665895 -0.02555298  0.02513671       0.021
  -0.07665895 -0.02555298  0.02513671       0.021
  -0.02555298 -0.02555298  0.02513671       0.021
   0.02555298  0.02555298  0.07541012       0.021
   0.07665895  0.02555298  0.07541012       0.021
  -0.07665895  0.02555298  0.07541012       0.021
  -0.02555298  0.02555298  0.07541012       0.021
   0.02555298  0.07665895  0.07541012       0.021
   0.07665895  0.07665895  0.07541012       0.021
  -0.07665895  0.07665895  0.07541012       0.021
  -0.02555298  0.07665895  0.07541012       0.021
   0.02555298 -0.07665895  0.07541012       0.021
   0.07665895 -0.07665895  0.07541012       0.021
  -0.07665895 -0.07665895  0.07541012       0.021
  -0.02555298 -0.07665895  0.07541012       0.021
   0.02555298 -0.02555298  0.07541012       0.021
   0.07665895 -0.02555298  0.07541012       0.021
  -0.07665895 -0.02555298  0.07541012       0.021
  -0.02555298 -0.02555298  0.07541012       0.021
   0.02555298  0.02555298  0.12568353       0.021
   0.07665895  0.02555298  0.12568353       0.021
  -0.07665895  0.02555298  0.12568353       0.021
  -0.02555298  0.02555298  0.12568353       0.021
   0.02555298  0.07665895  0.12568353       0.021
   0.07665895  0.07665895  0.12568353       0.021
  -0.07665895  0.07665895  0.12568353       0.021
  -0.02555298  0.07665895  0.12568353       0.021
   0.02555298 -0.07665895  0.12568353       0.021
   0.07665895 -0.07665895  0.12568353       0.021
  -0.07665895 -0.07665895  0.12568353       0.021
  -0.02555298 -0.07665895  0.12568353       0.021
   0.02555298 -0.02555298  0.12568353       0.021
   0.07665895 -0.02555298  0.12568353       0.021
  -0.07665895 -0.02555298  0.12568353       0.021
  -0.02555298 -0.02555298  0.12568353       0.021
 
 k-points in reciprocal lattice and weights: KPOINTS created by Atomic Simulation Env
   0.12500000  0.12500000  0.08333333       0.021
   0.37500000  0.12500000  0.08333333       0.021
  -0.37500000  0.12500000  0.08333333       0.021
  -0.12500000  0.12500000  0.08333333       0.021
   0.12500000  0.37500000  0.08333333       0.021
   0.37500000  0.37500000  0.08333333       0.021
  -0.37500000  0.37500000  0.08333333       0.021
  -0.12500000  0.37500000  0.08333333       0.021
   0.12500000 -0.37500000  0.08333333       0.021
   0.37500000 -0.37500000  0.08333333       0.021
  -0.37500000 -0.37500000  0.08333333       0.021
  -0.12500000 -0.37500000  0.08333333       0.021
   0.12500000 -0.12500000  0.08333333       0.021
   0.37500000 -0.12500000  0.08333333       0.021
  -0.37500000 -0.12500000  0.08333333       0.021
  -0.12500000 -0.12500000  0.08333333       0.021
   0.12500000  0.12500000  0.25000000       0.021
   0.37500000  0.12500000  0.25000000       0.021
  -0.37500000  0.12500000  0.25000000       0.021
  -0.12500000  0.12500000  0.25000000       0.021
   0.12500000  0.37500000  0.25000000       0.021
   0.37500000  0.37500000  0.25000000       0.021
  -0.37500000  0.37500000  0.25000000       0.021
  -0.12500000  0.37500000  0.25000000       0.021
   0.12500000 -0.37500000  0.25000000       0.021
   0.37500000 -0.37500000  0.25000000       0.021
  -0.37500000 -0.37500000  0.25000000       0.021
  -0.12500000 -0.37500000  0.25000000       0.021
   0.12500000 -0.12500000  0.25000000       0.021
   0.37500000 -0.12500000  0.25000000       0.021
  -0.37500000 -0.12500000  0.25000000       0.021
  -0.12500000 -0.12500000  0.25000000       0.021
   0.12500000  0.12500000  0.41666667       0.021
   0.37500000  0.12500000  0.41666667       0.021
  -0.37500000  0.12500000  0.41666667       0.021
  -0.12500000  0.12500000  0.41666667       0.021
   0.12500000  0.37500000  0.41666667       0.021
   0.37500000  0.37500000  0.41666667       0.021
  -0.37500000  0.37500000  0.41666667       0.021
  -0.12500000  0.37500000  0.41666667       0.021
   0.12500000 -0.37500000  0.41666667       0.021
   0.37500000 -0.37500000  0.41666667       0.021
  -0.37500000 -0.37500000  0.41666667       0.021
  -0.12500000 -0.37500000  0.41666667       0.021
   0.12500000 -0.12500000  0.41666667       0.021
   0.37500000 -0.12500000  0.41666667       0.021
  -0.37500000 -0.12500000  0.41666667       0.021
  -0.12500000 -0.12500000  0.41666667       0.021
 
 position of ions in fractional coordinates (direct lattice) 
   0.50000000  0.50000000  0.50000000
   0.00000000  0.00000000  0.00000000
   0.19508961  0.80491039  0.50000000
   0.80491039  0.19508961  0.50000000
   0.30491039  0.30491039  0.00000000
   0.69508961  0.69508961  0.00000000
 
 position of ions in cartesian coordinates  (Angst):
   2.44589833  2.44589833  1.65760247
   0.00000000  0.00000000  0.00000000
   0.95433872  3.93745795  1.65760247
   3.93745795  0.95433872  1.65760247
   1.49155962  1.49155962  0.00000000
   3.40023705  3.40023705  0.00000000
 


--------------------------------------------------------------------------------------------------------


 k-point  1 :   0.1250 0.1250 0.0833  plane waves:    2654
 k-point  2 :   0.3750 0.1250 0.0833  plane waves:    2650
 k-point  3 :  -0.3750 0.1250 0.0833  plane waves:    2650
 k-point  4 :  -0.1250 0.1250 0.0833  plane waves:    2654
 k-point  5 :   0.1250 0.3750 0.0833  plane waves:    2650
 k-point  6 :   0.3750 0.3750 0.0833  plane waves:    2651
 k-point  7 :  -0.3750 0.3750 0.0833  plane waves:    2651
 k-point  8 :  -0.1250 0.3750 0.0833  plane waves:    2650
 k-point  9 :   0.1250-0.3750 0.0833  plane waves:    2650
 k-point 10 :   0.3750-0.3750 0.0833  plane waves:    2651
 k-point 11 :  -0.3750-0.3750 0.0833  plane waves:    2651
 k-point 12 :  -0.1250-0.3750 0.0833  plane waves:    2650
 k-point 13 :   0.1250-0.1250 0.0833  plane waves:    2654
 k-point 14 :   0.3750-0.1250 0.0833  plane waves:    2650
 k-point 15 :  -0.3750-0.1250 0.0833  plane waves:    2650
 k-point 16 :  -0.1250-0.1250 0.0833  plane waves:    2654
 k-point 17 :   0.1250 0.1250 0.2500  plane waves:    2645
 k-point 18 :   0.3750 0.1250 0.2500  plane waves:    2653
 k-point 19 :  -0.3750 0.1250 0.2500  plane waves:    2653
 k-point 20 :  -0.1250 0.1250 0.2500  plane waves:    2645
 k-point 21 :   0.1250 0.3750 0.2500  plane waves:    2653
 k-point 22 :   0.3750 0.3750 0.2500  plane waves:    2652
 k-point 23 :  -0.3750 0.3750 0.2500  plane waves:    2652
 k-point 24 :  -0.1250 0.3750 0.2500  plane waves:    2653
 k-point 25 :   0.1250-0.3750 0.2500  plane waves:    2653
 k-point 26 :   0.3750-0.3750 0.2500  plane waves:    2652
 k-point 27 :  -0.3750-0.3750 0.2500  plane waves:    2652
 k-point 28 :  -0.1250-0.3750 0.2500  plane waves:    2653
 k-point 29 :   0.1250-0.1250 0.2500  plane waves:    2645
 k-point 30 :   0.3750-0.1250 0.2500  plane waves:    2653
 k-point 31 :  -0.3750-0.1250 0.2500  plane waves:    2653
 k-point 32 :  -0.1250-0.1250 0.2500  plane waves:    2645
 k-point 33 :   0.1250 0.1250 0.4167  plane waves:    2647
 k-point 34 :   0.3750 0.1250 0.4167  plane waves:    2641
 k-point 35 :  -0.3750 0.1250 0.4167  plane waves:    2641
 k-point 36 :  -0.1250 0.1250 0.4167  plane waves:    2647
 k-point 37 :   0.1250 0.3750 0.4167  plane waves:    2641
 k-point 38 :   0.3750 0.3750 0.4167  plane waves:    2635
 k-point 39 :  -0.3750 0.3750 0.4167  plane waves:    2635
 k-point 40 :  -0.1250 0.3750 0.4167  plane waves:    2641
 k-point 41 :   0.1250-0.3750 0.4167  plane waves:    2641
 k-point 42 :   0.3750-0.3750 0.4167  plane waves:    2635
 k-point 43 :  -0.3750-0.3750 0.4167  plane waves:    2635
 k-point 44 :  -0.1250-0.3750 0.4167  plane waves:    2641
 k-point 45 :   0.1250-0.1250 0.4167  plane waves:    2647
 k-point 46 :   0.3750-0.1250 0.4167  plane waves:    2641
 k-point 47 :  -0.3750-0.1250 0.4167  plane waves:    2641
 k-point 48 :  -0.1250-0.1250 0.4167  plane waves:    2647

 maximum and minimum number of plane-waves per node :      2654     2635

 maximum number of plane-waves:      2654
 maximum index in each direction: 
   IXMAX=   10   IYMAX=   10   IZMAX=    6
   IXMIN=  -10   IYMIN=  -10   IZMIN=   -7


 serial   3D FFT for wavefunctions
 parallel 3D FFT for charge:
    minimum data exchange during FFTs selected (reduces bandwidth)


 total amount of memory used by VASP MPI-rank0    85570. kBytes
=======================================================================

   base      :      30000. kBytes
   nonl-proj :      37082. kBytes
   fftplans  :       1875. kBytes
   grid      :       3820. kBytes
   one-center:        186. kBytes
   wavefun   :      12607. kBytes
 
     INWAV:  cpu time    0.4616: real time    0.4616
 Broyden mixing: mesh for mixing (old mesh)
   NGX = 19   NGY = 19   NGZ = 13
  (NGX  = 60   NGY  = 60   NGZ  = 40)
  gives a total of   4693 points

 charge density for first step will be calculated from the start-wavefunctions


--------------------------------------------------------------------------------------------------------


 Maximum index for augmentation-charges         4223 (set IRDMAX)


--------------------------------------------------------------------------------------------------------


 initial charge from wavefunction
 First call to EWALD:  gamma=   0.413
 Maximum number of real-space cells 2x 2x 3
 Maximum number of reciprocal cells 3x 3x 2

    FEWALD:  cpu time    0.0011: real time    0.0011


--------------------------------------- Iteration      1(   1)  ---------------------------------------


    POTLOK:  cpu time    0.0348: real time    0.0348
    SETDIJ:  cpu time    4.9754: real time    4.9755
atom =   1  type =  1  l = 2
 
 onsite density matrix
 
spin component  1
 
  0.1121  0.0127 -0.0127  0.0130  0.0000
  0.0127  0.0777  0.0089  0.0342 -0.0140
 -0.0127  0.0089  0.0616  0.0088  0.0013
  0.0130  0.0342  0.0088  0.0760  0.0144
  0.0000 -0.0140  0.0013  0.0144  0.0891
 
spin component  2
 
  0.9325 -0.0046  0.0259 -0.0047 -0.0001
 -0.0046  0.9284 -0.0032  0.0075  0.0054
  0.0259 -0.0032  0.9335 -0.0031 -0.0005
 -0.0047  0.0075 -0.0031  0.9290 -0.0056
 -0.0001  0.0054 -0.0005 -0.0056  0.9011
 
 occupancies and eigenvectors
 
  o =  0.0352  v =  0.0029  0.6550 -0.0116 -0.6698  0.3497  0.0000  0.0000  0.0000  0.0000  0.0000      0.0000  0.0000  0.0000  0.0000  0.0000  0.0000  0.0000  0.0000  0.0000  0.0000
  o =  0.0535  v =  0.2880 -0.1940  0.9122 -0.2163 -0.0230  0.0000  0.0000  0.0000  0.0000  0.0000      0.0000  0.0000  0.0000  0.0000  0.0000  0.0000  0.0000  0.0000  0.0000  0.0000
  o =  0.0966  v = -0.0613  0.2934  0.0107 -0.2004 -0.9327  0.0000  0.0000  0.0000  0.0000  0.0000      0.0000  0.0000  0.0000  0.0000  0.0000  0.0000  0.0000  0.0000  0.0000  0.0000
  o =  0.1014  v = -0.6294  0.4505  0.4094  0.4754  0.0856  0.0000  0.0000  0.0000  0.0000  0.0000      0.0000  0.0000  0.0000  0.0000  0.0000  0.0000  0.0000  0.0000  0.0000  0.0000
  o =  0.1298  v = -0.7191 -0.4943  0.0061 -0.4883 -0.0033  0.0000  0.0000  0.0000  0.0000  0.0000      0.0000  0.0000  0.0000  0.0000  0.0000  0.0000  0.0000  0.0000  0.0000  0.0000
  o =  0.8985  v =  0.0000  0.0000  0.0000  0.0000  0.0000  0.0133  0.2273 -0.0218 -0.2276 -0.9465      0.0000  0.0000  0.0000  0.0000  0.0000  0.0000  0.0000  0.0000  0.0000  0.0000
  o =  0.9070  v =  0.0000  0.0000  0.0000  0.0000  0.0000  0.7181  0.0257 -0.6934  0.0502  0.0202      0.0000  0.0000  0.0000  0.0000  0.0000  0.0000  0.0000  0.0000  0.0000  0.0000
  o =  0.9239  v =  0.0000  0.0000  0.0000  0.0000  0.0000 -0.0135 -0.6938 -0.0024  0.6442 -0.3216      0.0000  0.0000  0.0000  0.0000  0.0000  0.0000  0.0000  0.0000  0.0000  0.0000
  o =  0.9338  v =  0.0000  0.0000  0.0000  0.0000  0.0000 -0.1695 -0.6501 -0.2495 -0.6972  0.0149      0.0000  0.0000  0.0000  0.0000  0.0000  0.0000  0.0000  0.0000  0.0000  0.0000
  o =  0.9613  v =  0.0000  0.0000  0.0000  0.0000  0.0000 -0.6748  0.2089 -0.6756  0.2111  0.0055      0.0000  0.0000  0.0000  0.0000  0.0000  0.0000  0.0000  0.0000  0.0000  0.0000
atom =   2  type =  1  l = 2
 
 onsite density matrix
 
spin component  1
 
  0.9351 -0.0044 -0.0076 -0.0046  0.0000
 -0.0044  0.9277 -0.0028 -0.0251  0.0048
 -0.0076 -0.0028  0.9347 -0.0027 -0.0005
 -0.0046 -0.0251 -0.0027  0.9284 -0.0049
  0.0000  0.0048 -0.0005 -0.0049  0.9012
 
spin component  2
 
  0.1144  0.0136 -0.0431  0.0139  0.0001
  0.0136  0.0776  0.0096  0.0141 -0.0145
 -0.0431  0.0096  0.0614  0.0095  0.0013
  0.0139  0.0141  0.0095  0.0759  0.0148
  0.0001 -0.0145  0.0013  0.0148  0.0893
 
 occupancies and eigenvectors
 
  o =  0.0297  v =  0.0000  0.0000  0.0000  0.0000  0.0000 -0.4874  0.2366 -0.8068  0.2349  0.0173      0.0000  0.0000  0.0000  0.0000  0.0000  0.0000  0.0000  0.0000  0.0000  0.0000
  o =  0.0514  v =  0.0000  0.0000  0.0000  0.0000  0.0000  0.0076  0.6036 -0.0030 -0.6379  0.4782      0.0000  0.0000  0.0000  0.0000  0.0000  0.0000  0.0000  0.0000  0.0000  0.0000
  o =  0.0960  v =  0.0000  0.0000  0.0000  0.0000  0.0000 -0.0339  0.6799  0.3979  0.6139 -0.0362      0.0000  0.0000  0.0000  0.0000  0.0000  0.0000  0.0000  0.0000  0.0000  0.0000
  o =  0.1006  v =  0.0000  0.0000  0.0000  0.0000  0.0000  0.0142 -0.3038  0.0289  0.3703  0.8772      0.0000  0.0000  0.0000  0.0000  0.0000  0.0000  0.0000  0.0000  0.0000  0.0000
  o =  0.1408  v =  0.0000  0.0000  0.0000  0.0000  0.0000 -0.8724 -0.1583  0.4358 -0.1546  0.0102      0.0000  0.0000  0.0000  0.0000  0.0000  0.0000  0.0000  0.0000  0.0000  0.0000
  o =  0.9003  v =  0.0573  0.0918  0.0541  0.2653  0.9565  0.0000  0.0000  0.0000  0.0000  0.0000      0.0000  0.0000  0.0000  0.0000  0.0000  0.0000  0.0000  0.0000  0.0000  0.0000
  o =  0.9009  v = -0.2069 -0.6856 -0.1496 -0.6297  0.2613  0.0000  0.0000  0.0000  0.0000  0.0000      0.0000  0.0000  0.0000  0.0000  0.0000  0.0000  0.0000  0.0000  0.0000  0.0000
  o =  0.9293  v = -0.6472  0.1868 -0.7158  0.1837  0.0104  0.0000  0.0000  0.0000  0.0000  0.0000      0.0000  0.0000  0.0000  0.0000  0.0000  0.0000  0.0000  0.0000  0.0000  0.0000
  o =  0.9426  v =  0.7313 -0.0471 -0.6799 -0.0250  0.0061  0.0000  0.0000  0.0000  0.0000  0.0000      0.0000  0.0000  0.0000  0.0000  0.0000  0.0000  0.0000  0.0000  0.0000  0.0000
  o =  0.9541  v =  0.0117  0.6960 -0.0084 -0.7062  0.1288  0.0000  0.0000  0.0000  0.0000  0.0000      0.0000  0.0000  0.0000  0.0000  0.0000  0.0000  0.0000  0.0000  0.0000  0.0000
     EDDAV:  cpu time    4.4886: real time    4.5088
 BZINTS: Fermi energy:  2.765624; 54.000000 electrons
         Band energy:-835.677562;  BLOECHL correction:  0.000000
       DOS:  cpu time    0.0086: real time    0.0086
    CHARGE:  cpu time    0.5522: real time    0.5522
    MIXING:  cpu time    0.0005: real time    0.0005
    --------------------------------------------
      LOOP:  cpu time   10.0602: real time   10.0804

 eigenvalue-minimisations  :  8712
 total energy-change (2. order) :-0.4552695E+02  (-0.1121843E+03)
 number of electron      54.0000009 magnetization       0.0000000
 augmentation part       20.6503055 magnetization       0.0062857

 Broyden mixing:
  rms(total) = 0.18228E+01    rms(broyden)= 0.18228E+01
  rms(prec ) = 0.19804E+01
  weight for this iteration     100.00

 Free energy of the ion-electron system (eV)
  ---------------------------------------------------
  alpha Z        PSCENC =       194.59399051
  Ewald energy   TEWEN  =     -4167.81530784
  -Hartree energ DENC   =     -2151.94570095
  -exchange      EXHF   =         0.00000000
  -V(xc)+E(xc)   XCENC  =       166.48617266
  PAW double counting   =      7637.11586447    -7577.29516438
  entropy T*S    EENTRO =         0.00000000
  eigenvalues    EBANDS =      -835.67756187
  atomic energy  EATOM  =      6689.01075358
  Solvation  Ediel_sol  =         0.00000000
  ---------------------------------------------------
  free energy    TOTEN  =       -45.52695381 eV

  energy without entropy =      -45.52695381  energy(sigma->0) =      -45.52695381


--------------------------------------------------------------------------------------------------------




--------------------------------------- Iteration      1(   2)  ---------------------------------------


    POTLOK:  cpu time    0.0339: real time    0.0339
    SETDIJ:  cpu time    5.0311: real time    5.0311
atom =   1  type =  1  l = 2
 
 onsite density matrix
 
spin component  1
 
  0.0075 -0.0013  0.0220 -0.0015 -0.0001
 -0.0013  0.0040 -0.0014  0.0148  0.0013
  0.0220 -0.0014  0.0020 -0.0015 -0.0001
 -0.0015  0.0148 -0.0015  0.0043 -0.0017
 -0.0001  0.0013 -0.0001 -0.0017 -0.0256
 
spin component  2
 
  1.0253  0.0063 -0.0010  0.0066  0.0001
  0.0063  0.9994  0.0050  0.0209 -0.0057
 -0.0010  0.0050  0.9922  0.0052  0.0006
  0.0066  0.0209  0.0052  0.9984  0.0063
  0.0001 -0.0057  0.0006  0.0063  1.0082
 
 occupancies and eigenvectors
 
  o = -0.0259  v = -0.0024 -0.0943  0.0081  0.1038  0.9901  0.0000  0.0000  0.0000  0.0000  0.0000      0.0000  0.0000  0.0000  0.0000  0.0000  0.0000  0.0000  0.0000  0.0000  0.0000
  o = -0.0175  v =  0.6617 -0.0056 -0.7497 -0.0039  0.0076  0.0000  0.0000  0.0000  0.0000  0.0000      0.0000  0.0000  0.0000  0.0000  0.0000  0.0000  0.0000  0.0000  0.0000  0.0000
  o = -0.0104  v =  0.0017 -0.7042  0.0017  0.6961 -0.1401  0.0000  0.0000  0.0000  0.0000  0.0000      0.0000  0.0000  0.0000  0.0000  0.0000  0.0000  0.0000  0.0000  0.0000  0.0000
  o =  0.0181  v = -0.2336 -0.6706 -0.1976 -0.6757  0.0080  0.0000  0.0000  0.0000  0.0000  0.0000      0.0000  0.0000  0.0000  0.0000  0.0000  0.0000  0.0000  0.0000  0.0000  0.0000
  o =  0.0278  v =  0.7124 -0.2133  0.6315 -0.2193 -0.0008  0.0000  0.0000  0.0000  0.0000  0.0000      0.0000  0.0000  0.0000  0.0000  0.0000  0.0000  0.0000  0.0000  0.0000  0.0000
  o =  0.9757  v =  0.0000  0.0000  0.0000  0.0000  0.0000 -0.0074 -0.6730 -0.0053  0.6952 -0.2523      0.0000  0.0000  0.0000  0.0000  0.0000  0.0000  0.0000  0.0000  0.0000  0.0000
  o =  0.9901  v =  0.0000  0.0000  0.0000  0.0000  0.0000  0.0959 -0.1882  0.9598 -0.1831 -0.0255      0.0000  0.0000  0.0000  0.0000  0.0000  0.0000  0.0000  0.0000  0.0000  0.0000
  o =  1.0104  v =  0.0000  0.0000  0.0000  0.0000  0.0000  0.0354 -0.2289  0.0018  0.1288  0.9642      0.0000  0.0000  0.0000  0.0000  0.0000  0.0000  0.0000  0.0000  0.0000  0.0000
  o =  1.0148  v =  0.0000  0.0000  0.0000  0.0000  0.0000  0.6181 -0.5175 -0.2651 -0.5236 -0.0751      0.0000  0.0000  0.0000  0.0000  0.0000  0.0000  0.0000  0.0000  0.0000  0.0000
  o =  1.0324  v =  0.0000  0.0000  0.0000  0.0000  0.0000 -0.7794 -0.4376 -0.0920 -0.4386 -0.0165      0.0000  0.0000  0.0000  0.0000  0.0000  0.0000  0.0000  0.0000  0.0000  0.0000
atom =   2  type =  1  l = 2
 
 onsite density matrix
 
spin component  1
 
  1.0180  0.0066 -0.0275  0.0067 -0.0001
  0.0066  1.0052  0.0074  0.0038 -0.0078
 -0.0275  0.0074  0.9942  0.0073  0.0008
  0.0067  0.0038  0.0073  1.0037  0.0083
 -0.0001 -0.0078  0.0008  0.0083  1.0040
 
spin component  2
 
  0.0149 -0.0022 -0.0161 -0.0020  0.0002
 -0.0022 -0.0009 -0.0020 -0.0219  0.0021
 -0.0161 -0.0020  0.0020 -0.0020 -0.0004
 -0.0020 -0.0219 -0.0020 -0.0000 -0.0025
  0.0002  0.0021 -0.0004 -0.0025 -0.0223
 
 occupancies and eigenvectors
 
  o = -0.0236  v =  0.0000  0.0000  0.0000  0.0000  0.0000  0.1566  0.6430  0.2057  0.6606  0.2886      0.0000  0.0000  0.0000  0.0000  0.0000  0.0000  0.0000  0.0000  0.0000  0.0000
  o = -0.0225  v =  0.0000  0.0000  0.0000  0.0000  0.0000 -0.0473 -0.2510 -0.0482 -0.1464  0.9545      0.0000  0.0000  0.0000  0.0000  0.0000  0.0000  0.0000  0.0000  0.0000  0.0000
  o = -0.0078  v =  0.0000  0.0000  0.0000  0.0000  0.0000  0.5350 -0.1891  0.8017 -0.1873 -0.0115      0.0000  0.0000  0.0000  0.0000  0.0000  0.0000  0.0000  0.0000  0.0000  0.0000
  o =  0.0217  v =  0.0000  0.0000  0.0000  0.0000  0.0000 -0.0110 -0.6980  0.0080  0.7121 -0.0744      0.0000  0.0000  0.0000  0.0000  0.0000  0.0000  0.0000  0.0000  0.0000  0.0000
  o =  0.0258  v =  0.0000  0.0000  0.0000  0.0000  0.0000 -0.8288  0.0230  0.5591  0.0028 -0.0064      0.0000  0.0000  0.0000  0.0000  0.0000  0.0000  0.0000  0.0000  0.0000  0.0000
  o =  0.9710  v =  0.5237 -0.2453  0.7772 -0.2475 -0.0146  0.0000  0.0000  0.0000  0.0000  0.0000      0.0000  0.0000  0.0000  0.0000  0.0000  0.0000  0.0000  0.0000  0.0000  0.0000
  o =  0.9908  v =  0.0053  0.5054 -0.0109 -0.5624  0.6543  0.0000  0.0000  0.0000  0.0000  0.0000      0.0000  0.0000  0.0000  0.0000  0.0000  0.0000  0.0000  0.0000  0.0000  0.0000
  o =  1.0132  v =  0.1184  0.6644  0.3390  0.6533  0.0530  0.0000  0.0000  0.0000  0.0000  0.0000      0.0000  0.0000  0.0000  0.0000  0.0000  0.0000  0.0000  0.0000  0.0000  0.0000
  o =  1.0139  v =  0.0150 -0.4887 -0.0104  0.4385  0.7541  0.0000  0.0000  0.0000  0.0000  0.0000      0.0000  0.0000  0.0000  0.0000  0.0000  0.0000  0.0000  0.0000  0.0000  0.0000
  o =  1.0362  v =  0.8435  0.0645 -0.5299  0.0577 -0.0158  0.0000  0.0000  0.0000  0.0000  0.0000      0.0000  0.0000  0.0000  0.0000  0.0000  0.0000  0.0000  0.0000  0.0000  0.0000
     EDDAV:  cpu time    4.0849: real time    4.0850
 BZINTS: Fermi energy: -0.159576; 54.000000 electrons
         Band energy:-827.727071;  BLOECHL correction:  0.000000
       DOS:  cpu time    0.0047: real time    0.0047
    CHARGE:  cpu time    0.5566: real time    0.5566
    MIXING:  cpu time    0.0006: real time    0.0006
    --------------------------------------------
      LOOP:  cpu time    9.7118: real time    9.7119

 eigenvalue-minimisations  :  7596
 total energy-change (2. order) :-0.1966565E+02  (-0.2017022E+02)
 number of electron      54.0000009 magnetization       0.0000000
 augmentation part       20.0492414 magnetization      -0.0010517

 Broyden mixing:
  rms(total) = 0.21377E+01    rms(broyden)= 0.21377E+01
  rms(prec ) = 0.21560E+01
  weight for this iteration     100.00

 eigenvalues of (default mixing * dielectric matrix)
  average eigenvalue GAMMA=   0.2748
  0.2748

 Free energy of the ion-electron system (eV)
  ---------------------------------------------------
  alpha Z        PSCENC =       194.59399051
  Ewald energy   TEWEN  =     -4167.81530784
  -Hartree energ DENC   =     -2182.81606979
  -exchange      EXHF   =         0.00000000
  -V(xc)+E(xc)   XCENC  =       162.07982074
  PAW double counting   =      7487.83508673    -7420.35380714
  entropy T*S    EENTRO =         0.00000000
  eigenvalues    EBANDS =      -827.72707058
  atomic energy  EATOM  =      6689.01075358
  Solvation  Ediel_sol  =         0.00000000
  ---------------------------------------------------
  free energy    TOTEN  =       -65.19260379 eV

  energy without entropy =      -65.19260379  energy(sigma->0) =      -65.19260379


--------------------------------------------------------------------------------------------------------




--------------------------------------- Iteration      1(   3)  ---------------------------------------


    POTLOK:  cpu time    0.0338: real time    0.0338
    SETDIJ:  cpu time    5.2570: real time    5.2571
atom =   1  type =  1  l = 2
 
 onsite density matrix
 
spin component  1
 
  0.0259  0.0006  0.0151  0.0006 -0.0000
  0.0006  0.0166  0.0003  0.0157 -0.0006
  0.0151  0.0003  0.0136  0.0003  0.0000
  0.0006  0.0157  0.0003  0.0166  0.0005
 -0.0000 -0.0006  0.0000  0.0005 -0.0012
 
spin component  2
 
  1.0035  0.0036  0.0080  0.0038  0.0000
  0.0036  0.9862  0.0027  0.0191 -0.0031
  0.0080  0.0027  0.9804  0.0028  0.0003
  0.0038  0.0191  0.0028  0.9857  0.0033
  0.0000 -0.0031  0.0003  0.0033  0.9816
 
 occupancies and eigenvectors
 
  o = -0.0014  v =  0.0061  0.2197 -0.0095 -0.2177  0.9509  0.0000  0.0000  0.0000  0.0000  0.0000      0.0000  0.0000  0.0000  0.0000  0.0000  0.0000  0.0000  0.0000  0.0000  0.0000
  o =  0.0011  v = -0.0002 -0.6715  0.0012  0.6734  0.3093  0.0000  0.0000  0.0000  0.0000  0.0000      0.0000  0.0000  0.0000  0.0000  0.0000  0.0000  0.0000  0.0000  0.0000  0.0000
  o =  0.0034  v = -0.5577  0.0070  0.8300  0.0006  0.0104  0.0000  0.0000  0.0000  0.0000  0.0000      0.0000  0.0000  0.0000  0.0000  0.0000  0.0000  0.0000  0.0000  0.0000  0.0000
  o =  0.0320  v =  0.1891 -0.6884  0.1334 -0.6874  0.0018  0.0000  0.0000  0.0000  0.0000  0.0000      0.0000  0.0000  0.0000  0.0000  0.0000  0.0000  0.0000  0.0000  0.0000  0.0000
  o =  0.0363  v = -0.8082 -0.1641 -0.5416 -0.1631  0.0003  0.0000  0.0000  0.0000  0.0000  0.0000      0.0000  0.0000  0.0000  0.0000  0.0000  0.0000  0.0000  0.0000  0.0000  0.0000
  o =  0.9656  v =  0.0000  0.0000  0.0000  0.0000  0.0000 -0.0053 -0.6749  0.0034  0.6865 -0.2705      0.0000  0.0000  0.0000  0.0000  0.0000  0.0000  0.0000  0.0000  0.0000  0.0000
  o =  0.9777  v =  0.0000  0.0000  0.0000  0.0000  0.0000 -0.2800 -0.0449  0.9550 -0.0707 -0.0499      0.0000  0.0000  0.0000  0.0000  0.0000  0.0000  0.0000  0.0000  0.0000  0.0000
  o =  0.9829  v =  0.0000  0.0000  0.0000  0.0000  0.0000 -0.0196 -0.1970  0.0489  0.1848  0.9614      0.0000  0.0000  0.0000  0.0000  0.0000  0.0000  0.0000  0.0000  0.0000  0.0000
  o =  0.9995  v =  0.0000  0.0000  0.0000  0.0000  0.0000  0.6759 -0.5183  0.1363 -0.5059 -0.0021      0.0000  0.0000  0.0000  0.0000  0.0000  0.0000  0.0000  0.0000  0.0000  0.0000
  o =  1.0117  v =  0.0000  0.0000  0.0000  0.0000  0.0000 -0.6814 -0.4848 -0.2587 -0.4834 -0.0072      0.0000  0.0000  0.0000  0.0000  0.0000  0.0000  0.0000  0.0000  0.0000  0.0000
atom =   2  type =  1  l = 2
 
 onsite density matrix
 
spin component  1
 
  1.0008  0.0034 -0.0237  0.0035 -0.0000
  0.0034  0.9883  0.0039 -0.0060 -0.0042
 -0.0237  0.0039  0.9817  0.0038  0.0004
  0.0035 -0.0060  0.0038  0.9876  0.0044
 -0.0000 -0.0042  0.0004  0.0044  0.9798
 
spin component  2
 
  0.0286  0.0003 -0.0183  0.0004  0.0001
  0.0003  0.0152  0.0006 -0.0141 -0.0006
 -0.0183  0.0006  0.0139  0.0006 -0.0000
  0.0004 -0.0141  0.0006  0.0154  0.0004
  0.0001 -0.0006 -0.0000  0.0004 -0.0002
 
 occupancies and eigenvectors
 
  o = -0.0002  v =  0.0000  0.0000  0.0000  0.0000  0.0000 -0.0417  0.0949 -0.0580  0.0602  0.9911      0.0000  0.0000  0.0000  0.0000  0.0000  0.0000  0.0000  0.0000  0.0000  0.0000
  o =  0.0004  v =  0.0000  0.0000  0.0000  0.0000  0.0000 -0.3690  0.5221 -0.5476  0.5241 -0.1294      0.0000  0.0000  0.0000  0.0000  0.0000  0.0000  0.0000  0.0000  0.0000  0.0000
  o =  0.0023  v =  0.0000  0.0000  0.0000  0.0000  0.0000  0.4196  0.4707  0.6187  0.4682 -0.0197      0.0000  0.0000  0.0000  0.0000  0.0000  0.0000  0.0000  0.0000  0.0000  0.0000
  o =  0.0294  v =  0.0000  0.0000  0.0000  0.0000  0.0000  0.0049  0.7049 -0.0039 -0.7089 -0.0245      0.0000  0.0000  0.0000  0.0000  0.0000  0.0000  0.0000  0.0000  0.0000  0.0000
  o =  0.0410  v =  0.0000  0.0000  0.0000  0.0000  0.0000 -0.8283  0.0053  0.5603 -0.0036 -0.0023      0.0000  0.0000  0.0000  0.0000  0.0000  0.0000  0.0000  0.0000  0.0000  0.0000
  o =  0.9629  v = -0.5281  0.2507 -0.7711  0.2519  0.0147  0.0000  0.0000  0.0000  0.0000  0.0000      0.0000  0.0000  0.0000  0.0000  0.0000  0.0000  0.0000  0.0000  0.0000  0.0000
  o =  0.9775  v =  0.0035  0.2122 -0.0075 -0.2811  0.9359  0.0000  0.0000  0.0000  0.0000  0.0000      0.0000  0.0000  0.0000  0.0000  0.0000  0.0000  0.0000  0.0000  0.0000  0.0000
  o =  0.9848  v = -0.1768 -0.6580 -0.3098 -0.6612 -0.0512  0.0000  0.0000  0.0000  0.0000  0.0000      0.0000  0.0000  0.0000  0.0000  0.0000  0.0000  0.0000  0.0000  0.0000  0.0000
  o =  0.9962  v =  0.0005 -0.6773 -0.0022  0.6481  0.3482  0.0000  0.0000  0.0000  0.0000  0.0000      0.0000  0.0000  0.0000  0.0000  0.0000  0.0000  0.0000  0.0000  0.0000  0.0000
  o =  1.0169  v = -0.8306 -0.0188  0.5562 -0.0202  0.0058  0.0000  0.0000  0.0000  0.0000  0.0000      0.0000  0.0000  0.0000  0.0000  0.0000  0.0000  0.0000  0.0000  0.0000  0.0000
     EDDAV:  cpu time    4.3815: real time    4.3816
 BZINTS: Fermi energy: -0.162780; 54.000000 electrons
         Band energy:-831.452102;  BLOECHL correction:  0.000000
       DOS:  cpu time    0.0055: real time    0.0055
    CHARGE:  cpu time    0.5570: real time    0.5570
    MIXING:  cpu time    0.0006: real time    0.0006
    --------------------------------------------
      LOOP:  cpu time   10.2354: real time   10.2355

 eigenvalue-minimisations  :  8400
 total energy-change (2. order) :-0.5892488E+00  (-0.3090112E+00)
 number of electron      54.0000009 magnetization       0.0000000
 augmentation part       19.9885366 magnetization       0.0005647

 Broyden mixing:
  rms(total) = 0.17449E+01    rms(broyden)= 0.17449E+01
  rms(prec ) = 0.17675E+01
  weight for this iteration     100.00

 eigenvalues of (default mixing * dielectric matrix)
  average eigenvalue GAMMA=   0.8904
  1.0375  0.7433

 Free energy of the ion-electron system (eV)
  ---------------------------------------------------
  alpha Z        PSCENC =       194.59399051
  Ewald energy   TEWEN  =     -4167.81530784
  -Hartree energ DENC   =     -2183.73266253
  -exchange      EXHF   =         0.00000000
  -V(xc)+E(xc)   XCENC  =       166.73935714
  PAW double counting   =      7339.98137410    -7273.10725537
  entropy T*S    EENTRO =         0.00000000
  eigenvalues    EBANDS =      -831.45210221
  atomic energy  EATOM  =      6689.01075358
  Solvation  Ediel_sol  =         0.00000000
  ---------------------------------------------------
  free energy    TOTEN  =       -65.78185262 eV

  energy without entropy =      -65.78185262  energy(sigma->0) =      -65.78185262


--------------------------------------------------------------------------------------------------------




--------------------------------------- Iteration      1(   4)  ---------------------------------------


    POTLOK:  cpu time    0.0337: real time    0.0337
    SETDIJ:  cpu time    5.0077: real time    5.0077
atom =   1  type =  1  l = 2
 
 onsite density matrix
 
spin component  1
 
  0.0222 -0.0002  0.0194 -0.0001 -0.0000
 -0.0002  0.0175 -0.0004  0.0153  0.0005
  0.0194 -0.0004  0.0143 -0.0004 -0.0000
 -0.0001  0.0153 -0.0004  0.0175 -0.0008
 -0.0000  0.0005 -0.0000 -0.0008 -0.0046
 
spin component  2
 
  0.9993  0.0024  0.0087  0.0024  0.0000
  0.0024  0.9844  0.0020  0.0172 -0.0025
  0.0087  0.0020  0.9793  0.0021  0.0002
  0.0024  0.0172  0.0021  0.9841  0.0030
  0.0000 -0.0025  0.0002  0.0030  0.9803
 
 occupancies and eigenvectors
 
  o = -0.0048  v = -0.0023 -0.0913  0.0050  0.0987  0.9909  0.0000  0.0000  0.0000  0.0000  0.0000      0.0000  0.0000  0.0000  0.0000  0.0000  0.0000  0.0000  0.0000  0.0000  0.0000
  o = -0.0016  v =  0.6326 -0.0006 -0.7744 -0.0117  0.0065  0.0000  0.0000  0.0000  0.0000  0.0000      0.0000  0.0000  0.0000  0.0000  0.0000  0.0000  0.0000  0.0000  0.0000  0.0000
  o =  0.0023  v = -0.0057  0.7015  0.0065 -0.6998  0.1343  0.0000  0.0000  0.0000  0.0000  0.0000      0.0000  0.0000  0.0000  0.0000  0.0000  0.0000  0.0000  0.0000  0.0000  0.0000
  o =  0.0327  v =  0.0817  0.7034  0.0555  0.7039 -0.0053  0.0000  0.0000  0.0000  0.0000  0.0000      0.0000  0.0000  0.0000  0.0000  0.0000  0.0000  0.0000  0.0000  0.0000  0.0000
  o =  0.0381  v = -0.7701  0.0692 -0.6302  0.0699  0.0008  0.0000  0.0000  0.0000  0.0000  0.0000      0.0000  0.0000  0.0000  0.0000  0.0000  0.0000  0.0000  0.0000  0.0000  0.0000
  o =  0.9660  v =  0.0000  0.0000  0.0000  0.0000  0.0000 -0.0023 -0.6772  0.0010  0.6870 -0.2635      0.0000  0.0000  0.0000  0.0000  0.0000  0.0000  0.0000  0.0000  0.0000  0.0000
  o =  0.9759  v =  0.0000  0.0000  0.0000  0.0000  0.0000  0.3412  0.0366 -0.9372  0.0519  0.0348      0.0000  0.0000  0.0000  0.0000  0.0000  0.0000  0.0000  0.0000  0.0000  0.0000
  o =  0.9813  v =  0.0000  0.0000  0.0000  0.0000  0.0000 -0.0155 -0.1962  0.0322  0.1762  0.9639      0.0000  0.0000  0.0000  0.0000  0.0000  0.0000  0.0000  0.0000  0.0000  0.0000
  o =  0.9978  v =  0.0000  0.0000  0.0000  0.0000  0.0000 -0.6350  0.5342 -0.1807  0.5279  0.0081      0.0000  0.0000  0.0000  0.0000  0.0000  0.0000  0.0000  0.0000  0.0000  0.0000
  o =  1.0063  v =  0.0000  0.0000  0.0000  0.0000  0.0000 -0.6929 -0.4649 -0.2965 -0.4644 -0.0110      0.0000  0.0000  0.0000  0.0000  0.0000  0.0000  0.0000  0.0000  0.0000  0.0000
atom =   2  type =  1  l = 2
 
 onsite density matrix
 
spin component  1
 
  0.9959  0.0031 -0.0212  0.0031  0.0000
  0.0031  0.9878  0.0034 -0.0065 -0.0033
 -0.0212  0.0034  0.9794  0.0034  0.0004
  0.0031 -0.0065  0.0034  0.9873  0.0035
  0.0000 -0.0033  0.0004  0.0035  0.9787
 
spin component  2
 
  0.0254 -0.0010 -0.0173 -0.0010  0.0000
 -0.0010  0.0146 -0.0009 -0.0178  0.0007
 -0.0173 -0.0009  0.0149 -0.0009 -0.0002
 -0.0010 -0.0178 -0.0009  0.0148 -0.0009
  0.0000  0.0007 -0.0002 -0.0009 -0.0035
 
 occupancies and eigenvectors
 
  o = -0.0038  v =  0.0000  0.0000  0.0000  0.0000  0.0000  0.1675  0.5619  0.2175  0.5802  0.5218      0.0000  0.0000  0.0000  0.0000  0.0000  0.0000  0.0000  0.0000  0.0000  0.0000
  o = -0.0035  v =  0.0000  0.0000  0.0000  0.0000  0.0000 -0.0957 -0.3730 -0.1175 -0.3336  0.8524      0.0000  0.0000  0.0000  0.0000  0.0000  0.0000  0.0000  0.0000  0.0000  0.0000
  o =  0.0027  v =  0.0000  0.0000  0.0000  0.0000  0.0000  0.5630 -0.2213  0.7647 -0.2214 -0.0149      0.0000  0.0000  0.0000  0.0000  0.0000  0.0000  0.0000  0.0000  0.0000  0.0000
  o =  0.0325  v =  0.0000  0.0000  0.0000  0.0000  0.0000  0.0063  0.7042 -0.0056 -0.7093  0.0306      0.0000  0.0000  0.0000  0.0000  0.0000  0.0000  0.0000  0.0000  0.0000  0.0000
  o =  0.0382  v =  0.0000  0.0000  0.0000  0.0000  0.0000 -0.8036  0.0120  0.5950 -0.0000 -0.0030      0.0000  0.0000  0.0000  0.0000  0.0000  0.0000  0.0000  0.0000  0.0000  0.0000
  o =  0.9626  v = -0.5375  0.2344 -0.7756  0.2330  0.0173  0.0000  0.0000  0.0000  0.0000  0.0000      0.0000  0.0000  0.0000  0.0000  0.0000  0.0000  0.0000  0.0000  0.0000  0.0000
  o =  0.9773  v =  0.0058  0.1567 -0.0053 -0.2335  0.9596  0.0000  0.0000  0.0000  0.0000  0.0000      0.0000  0.0000  0.0000  0.0000  0.0000  0.0000  0.0000  0.0000  0.0000  0.0000
  o =  0.9833  v = -0.1601 -0.6650 -0.2915 -0.6665 -0.0542  0.0000  0.0000  0.0000  0.0000  0.0000      0.0000  0.0000  0.0000  0.0000  0.0000  0.0000  0.0000  0.0000  0.0000  0.0000
  o =  0.9955  v =  0.0020 -0.6911 -0.0033  0.6682  0.2754  0.0000  0.0000  0.0000  0.0000  0.0000      0.0000  0.0000  0.0000  0.0000  0.0000  0.0000  0.0000  0.0000  0.0000  0.0000
  o =  1.0104  v = -0.8279 -0.0241  0.5599 -0.0224  0.0066  0.0000  0.0000  0.0000  0.0000  0.0000      0.0000  0.0000  0.0000  0.0000  0.0000  0.0000  0.0000  0.0000  0.0000  0.0000
     EDDAV:  cpu time    4.4196: real time    4.4197
 BZINTS: Fermi energy: -0.396466; 54.000000 electrons
         Band energy:-835.647311;  BLOECHL correction:  0.000000
       DOS:  cpu time    0.0047: real time    0.0047
    CHARGE:  cpu time    0.5574: real time    0.5574
    MIXING:  cpu time    0.0006: real time    0.0006
    --------------------------------------------
      LOOP:  cpu time   10.0236: real time   10.0237

 eigenvalue-minimisations  :  8580
 total energy-change (2. order) : 0.1382150E+00  (-0.6874145E-01)
 number of electron      54.0000009 magnetization      -0.0000000
 augmentation part       20.0232286 magnetization      -0.0005435

 Broyden mixing:
  rms(total) = 0.68899E+00    rms(broyden)= 0.68899E+00
  rms(prec ) = 0.69387E+00
  weight for this iteration     100.00

 eigenvalues of (default mixing * dielectric matrix)
  average eigenvalue GAMMA=   1.0827
  1.7825  0.7328  0.7328

 Free energy of the ion-electron system (eV)
  ---------------------------------------------------
  alpha Z        PSCENC =       194.59399051
  Ewald energy   TEWEN  =     -4167.81530784
  -Hartree energ DENC   =     -2183.89194884
  -exchange      EXHF   =         0.00000000
  -V(xc)+E(xc)   XCENC  =       167.35276176
  PAW double counting   =      6905.78803557    -6835.03461152
  entropy T*S    EENTRO =         0.00000000
  eigenvalues    EBANDS =      -835.64731086
  atomic energy  EATOM  =      6689.01075358
  Solvation  Ediel_sol  =         0.00000000
  ---------------------------------------------------
  free energy    TOTEN  =       -65.64363763 eV

  energy without entropy =      -65.64363763  energy(sigma->0) =      -65.64363763


--------------------------------------------------------------------------------------------------------




--------------------------------------- Iteration      1(   5)  ---------------------------------------


    POTLOK:  cpu time    0.0339: real time    0.0339
    SETDIJ:  cpu time    4.9539: real time    4.9540
atom =   1  type =  1  l = 2
 
 onsite density matrix
 
spin component  1
 
  0.0434  0.0014  0.0122  0.0014  0.0000
  0.0014  0.0314  0.0013  0.0164 -0.0016
  0.0122  0.0013  0.0273  0.0013  0.0001
  0.0014  0.0164  0.0013  0.0312  0.0019
  0.0000 -0.0016  0.0001  0.0019  0.0231
 
spin component  2
 
  0.9728 -0.0009  0.0211 -0.0010 -0.0000
 -0.0009  0.9713 -0.0009  0.0144  0.0011
  0.0211 -0.0009  0.9675 -0.0009 -0.0001
 -0.0010  0.0144 -0.0009  0.9714 -0.0014
 -0.0000  0.0011 -0.0001 -0.0014  0.9492
 
 occupancies and eigenvectors
 
  o =  0.0142  v = -0.0014 -0.6772  0.0008  0.6839 -0.2712  0.0000  0.0000  0.0000  0.0000  0.0000      0.0000  0.0000  0.0000  0.0000  0.0000  0.0000  0.0000  0.0000  0.0000  0.0000
  o =  0.0207  v =  0.4722  0.0092 -0.8804  0.0246  0.0341  0.0000  0.0000  0.0000  0.0000  0.0000      0.0000  0.0000  0.0000  0.0000  0.0000  0.0000  0.0000  0.0000  0.0000  0.0000
  o =  0.0239  v = -0.0195 -0.1978  0.0299  0.1855  0.9619  0.0000  0.0000  0.0000  0.0000  0.0000      0.0000  0.0000  0.0000  0.0000  0.0000  0.0000  0.0000  0.0000  0.0000  0.0000
  o =  0.0460  v = -0.4967  0.5911 -0.2436  0.5870  0.0058  0.0000  0.0000  0.0000  0.0000  0.0000      0.0000  0.0000  0.0000  0.0000  0.0000  0.0000  0.0000  0.0000  0.0000  0.0000
  o =  0.0517  v = -0.7280 -0.3908 -0.4058 -0.3907 -0.0071  0.0000  0.0000  0.0000  0.0000  0.0000      0.0000  0.0000  0.0000  0.0000  0.0000  0.0000  0.0000  0.0000  0.0000  0.0000
  o =  0.9488  v =  0.0000  0.0000  0.0000  0.0000  0.0000  0.2595  0.1355 -0.2976 -0.1419 -0.8975      0.0000  0.0000  0.0000  0.0000  0.0000  0.0000  0.0000  0.0000  0.0000  0.0000
  o =  0.9489  v =  0.0000  0.0000  0.0000  0.0000  0.0000  0.6082 -0.0592 -0.6886  0.0603  0.3857      0.0000  0.0000  0.0000  0.0000  0.0000  0.0000  0.0000  0.0000  0.0000  0.0000
  o =  0.9574  v =  0.0000  0.0000  0.0000  0.0000  0.0000 -0.0001  0.6933 -0.0004 -0.6883  0.2135      0.0000  0.0000  0.0000  0.0000  0.0000  0.0000  0.0000  0.0000  0.0000  0.0000
  o =  0.9852  v =  0.0000  0.0000  0.0000  0.0000  0.0000  0.2108  0.6772  0.1844  0.6804 -0.0055      0.0000  0.0000  0.0000  0.0000  0.0000  0.0000  0.0000  0.0000  0.0000  0.0000
  o =  0.9920  v =  0.0000  0.0000  0.0000  0.0000  0.0000 -0.7199  0.1970 -0.6350  0.1991  0.0007      0.0000  0.0000  0.0000  0.0000  0.0000  0.0000  0.0000  0.0000  0.0000  0.0000
atom =   2  type =  1  l = 2
 
 onsite density matrix
 
spin component  1
 
  0.9757 -0.0016 -0.0159 -0.0015  0.0000
 -0.0016  0.9687 -0.0016 -0.0192  0.0015
 -0.0159 -0.0016  0.9677 -0.0016 -0.0002
 -0.0015 -0.0192 -0.0016  0.9691 -0.0016
  0.0000  0.0015 -0.0002 -0.0016  0.9504
 
spin component  2
 
  0.0402  0.0021 -0.0199  0.0021  0.0000
  0.0021  0.0342  0.0022 -0.0096 -0.0021
 -0.0199  0.0022  0.0270  0.0022  0.0003
  0.0021 -0.0096  0.0022  0.0338  0.0022
  0.0000 -0.0021  0.0003  0.0022  0.0218
 
 occupancies and eigenvectors
 
  o =  0.0113  v =  0.0000  0.0000  0.0000  0.0000  0.0000 -0.5598  0.2171 -0.7697  0.2161  0.0179      0.0000  0.0000  0.0000  0.0000  0.0000  0.0000  0.0000  0.0000  0.0000  0.0000
  o =  0.0214  v =  0.0000  0.0000  0.0000  0.0000  0.0000  0.0062  0.0610 -0.0014 -0.1322  0.9893      0.0000  0.0000  0.0000  0.0000  0.0000  0.0000  0.0000  0.0000  0.0000  0.0000
  o =  0.0258  v =  0.0000  0.0000  0.0000  0.0000  0.0000 -0.1649 -0.6699 -0.2594 -0.6742 -0.0481      0.0000  0.0000  0.0000  0.0000  0.0000  0.0000  0.0000  0.0000  0.0000  0.0000
  o =  0.0441  v =  0.0000  0.0000  0.0000  0.0000  0.0000  0.0014 -0.7073 -0.0026  0.6937  0.1363      0.0000  0.0000  0.0000  0.0000  0.0000  0.0000  0.0000  0.0000  0.0000  0.0000
  o =  0.0545  v =  0.0000  0.0000  0.0000  0.0000  0.0000 -0.8120 -0.0144  0.5833 -0.0119  0.0052      0.0000  0.0000  0.0000  0.0000  0.0000  0.0000  0.0000  0.0000  0.0000  0.0000
  o =  0.9483  v =  0.2537  0.6444  0.3142  0.6448  0.0768  0.0000  0.0000  0.0000  0.0000  0.0000      0.0000  0.0000  0.0000  0.0000  0.0000  0.0000  0.0000  0.0000  0.0000  0.0000
  o =  0.9502  v = -0.0124 -0.0957 -0.0085 -0.0139  0.9952  0.0000  0.0000  0.0000  0.0000  0.0000      0.0000  0.0000  0.0000  0.0000  0.0000  0.0000  0.0000  0.0000  0.0000  0.0000
  o =  0.9567  v =  0.5592 -0.2856  0.7239 -0.2852 -0.0183  0.0000  0.0000  0.0000  0.0000  0.0000      0.0000  0.0000  0.0000  0.0000  0.0000  0.0000  0.0000  0.0000  0.0000  0.0000
  o =  0.9881  v = -0.7881 -0.0297  0.6133  0.0417 -0.0068  0.0000  0.0000  0.0000  0.0000  0.0000      0.0000  0.0000  0.0000  0.0000  0.0000  0.0000  0.0000  0.0000  0.0000  0.0000
  o =  0.9882  v =  0.0404 -0.7023 -0.0309  0.7077 -0.0574  0.0000  0.0000  0.0000  0.0000  0.0000      0.0000  0.0000  0.0000  0.0000  0.0000  0.0000  0.0000  0.0000  0.0000  0.0000
     EDDAV:  cpu time    4.2512: real time    4.2513
 BZINTS: Fermi energy: -0.279113; 54.000000 electrons
         Band energy:-836.152783;  BLOECHL correction:  0.000000
       DOS:  cpu time    0.0055: real time    0.0055
    CHARGE:  cpu time    0.5624: real time    0.5624
    MIXING:  cpu time    0.0007: real time    0.0007
    --------------------------------------------
      LOOP:  cpu time    9.8075: real time    9.8077

 eigenvalue-minimisations  :  8112
 total energy-change (2. order) :-0.2161739E-01  (-0.1437160E-01)
 number of electron      54.0000009 magnetization      -0.0000000
 augmentation part       20.0360889 magnetization       0.0001532

 Broyden mixing:
  rms(total) = 0.24407E+00    rms(broyden)= 0.24407E+00
  rms(prec ) = 0.27532E+00
  weight for this iteration     100.00

 eigenvalues of (default mixing * dielectric matrix)
  average eigenvalue GAMMA=   1.1216
  2.3316  0.7841  0.7841  0.5865

 Free energy of the ion-electron system (eV)
  ---------------------------------------------------
  alpha Z        PSCENC =       194.59399051
  Ewald energy   TEWEN  =     -4167.81530784
  -Hartree energ DENC   =     -2183.40771082
  -exchange      EXHF   =         0.00000000
  -V(xc)+E(xc)   XCENC  =       166.40987524
  PAW double counting   =      6623.69417275    -6551.99824554
  entropy T*S    EENTRO =         0.00000000
  eigenvalues    EBANDS =      -836.15278291
  atomic energy  EATOM  =      6689.01075358
  Solvation  Ediel_sol  =         0.00000000
  ---------------------------------------------------
  free energy    TOTEN  =       -65.66525503 eV

  energy without entropy =      -65.66525503  energy(sigma->0) =      -65.66525503


--------------------------------------------------------------------------------------------------------




--------------------------------------- Iteration      1(   6)  ---------------------------------------


    POTLOK:  cpu time    0.0336: real time    0.0336
    SETDIJ:  cpu time    4.9966: real time    4.9966
atom =   1  type =  1  l = 2
 
 onsite density matrix
 
spin component  1
 
  0.0326  0.0002  0.0171  0.0002  0.0000
  0.0002  0.0257  0.0002  0.0156 -0.0002
  0.0171  0.0002  0.0219  0.0002  0.0000
  0.0002  0.0156  0.0002  0.0256  0.0002
  0.0000 -0.0002  0.0000  0.0002  0.0099
 
spin component  2
 
  0.9829 -0.0001  0.0174 -0.0001 -0.0000
 -0.0001  0.9775 -0.0000  0.0150 -0.0000
  0.0174 -0.0000  0.9733 -0.0001 -0.0000
 -0.0001  0.0150 -0.0001  0.9775  0.0000
 -0.0000 -0.0000 -0.0000  0.0000  0.9617
 
 occupancies and eigenvectors
 
  o =  0.0093  v = -0.5920 -0.0076  0.8055  0.0060 -0.0245  0.0000  0.0000  0.0000  0.0000  0.0000      0.0000  0.0000  0.0000  0.0000  0.0000  0.0000  0.0000  0.0000  0.0000  0.0000
  o =  0.0097  v = -0.0151  0.4256  0.0203 -0.4270  0.7974  0.0000  0.0000  0.0000  0.0000  0.0000      0.0000  0.0000  0.0000  0.0000  0.0000  0.0000  0.0000  0.0000  0.0000  0.0000
  o =  0.0103  v = -0.0046 -0.5641  0.0055  0.5642  0.6029  0.0000  0.0000  0.0000  0.0000  0.0000      0.0000  0.0000  0.0000  0.0000  0.0000  0.0000  0.0000  0.0000  0.0000  0.0000
  o =  0.0412  v =  0.0926 -0.7029  0.0666 -0.7020 -0.0006  0.0000  0.0000  0.0000  0.0000  0.0000      0.0000  0.0000  0.0000  0.0000  0.0000  0.0000  0.0000  0.0000  0.0000  0.0000
  o =  0.0452  v = -0.8004 -0.0805 -0.5885 -0.0808 -0.0005  0.0000  0.0000  0.0000  0.0000  0.0000      0.0000  0.0000  0.0000  0.0000  0.0000  0.0000  0.0000  0.0000  0.0000  0.0000
  o =  0.9600  v =  0.0000  0.0000  0.0000  0.0000  0.0000  0.6054 -0.0007 -0.7959  0.0021 -0.0004      0.0000  0.0000  0.0000  0.0000  0.0000  0.0000  0.0000  0.0000  0.0000  0.0000
  o =  0.9617  v =  0.0000  0.0000  0.0000  0.0000  0.0000  0.0004  0.0137 -0.0003 -0.0141  0.9998      0.0000  0.0000  0.0000  0.0000  0.0000  0.0000  0.0000  0.0000  0.0000  0.0000
  o =  0.9625  v =  0.0000  0.0000  0.0000  0.0000  0.0000  0.0010  0.7072 -0.0017 -0.7068 -0.0197      0.0000  0.0000  0.0000  0.0000  0.0000  0.0000  0.0000  0.0000  0.0000  0.0000
  o =  0.9925  v =  0.0000  0.0000  0.0000  0.0000  0.0000  0.0340  0.7063  0.0271  0.7066  0.0003      0.0000  0.0000  0.0000  0.0000  0.0000  0.0000  0.0000  0.0000  0.0000  0.0000
  o =  0.9962  v =  0.0000  0.0000  0.0000  0.0000  0.0000 -0.7952  0.0306 -0.6048  0.0309  0.0001      0.0000  0.0000  0.0000  0.0000  0.0000  0.0000  0.0000  0.0000  0.0000  0.0000
atom =   2  type =  1  l = 2
 
 onsite density matrix
 
spin component  1
 
  0.9830 -0.0000 -0.0173 -0.0000  0.0000
 -0.0000  0.9775  0.0000 -0.0152  0.0001
 -0.0173  0.0000  0.9731  0.0000 -0.0000
 -0.0000 -0.0152  0.0000  0.9775 -0.0001
  0.0000  0.0001 -0.0000 -0.0001  0.9618
 
spin component  2
 
  0.0323  0.0002 -0.0180  0.0002 -0.0000
  0.0002  0.0258  0.0002 -0.0147 -0.0003
 -0.0180  0.0002  0.0220  0.0002  0.0000
  0.0002 -0.0147  0.0002  0.0258  0.0003
 -0.0000 -0.0003  0.0000  0.0003  0.0098
 
 occupancies and eigenvectors
 
  o =  0.0083  v =  0.0000  0.0000  0.0000  0.0000  0.0000  0.5957 -0.1065  0.7889 -0.1062 -0.0116      0.0000  0.0000  0.0000  0.0000  0.0000  0.0000  0.0000  0.0000  0.0000  0.0000
  o =  0.0098  v =  0.0000  0.0000  0.0000  0.0000  0.0000  0.0064  0.0006  0.0074 -0.0183  0.9998      0.0000  0.0000  0.0000  0.0000  0.0000  0.0000  0.0000  0.0000  0.0000  0.0000
  o =  0.0112  v =  0.0000  0.0000  0.0000  0.0000  0.0000  0.0894  0.6984  0.1211  0.6997  0.0109      0.0000  0.0000  0.0000  0.0000  0.0000  0.0000  0.0000  0.0000  0.0000  0.0000
  o =  0.0405  v =  0.0000  0.0000  0.0000  0.0000  0.0000  0.0006  0.7078 -0.0002 -0.7063 -0.0134      0.0000  0.0000  0.0000  0.0000  0.0000  0.0000  0.0000  0.0000  0.0000  0.0000
  o =  0.0459  v =  0.0000  0.0000  0.0000  0.0000  0.0000 -0.7982 -0.0007  0.6024 -0.0015  0.0006      0.0000  0.0000  0.0000  0.0000  0.0000  0.0000  0.0000  0.0000  0.0000  0.0000
  o =  0.9600  v = -0.6018  0.0012 -0.7986  0.0010  0.0033  0.0000  0.0000  0.0000  0.0000  0.0000      0.0000  0.0000  0.0000  0.0000  0.0000  0.0000  0.0000  0.0000  0.0000  0.0000
  o =  0.9618  v =  0.0018  0.0022  0.0028  0.0062  1.0000  0.0000  0.0000  0.0000  0.0000  0.0000      0.0000  0.0000  0.0000  0.0000  0.0000  0.0000  0.0000  0.0000  0.0000  0.0000
  o =  0.9623  v =  0.0011  0.7074  0.0011  0.7068 -0.0059  0.0000  0.0000  0.0000  0.0000  0.0000      0.0000  0.0000  0.0000  0.0000  0.0000  0.0000  0.0000  0.0000  0.0000  0.0000
  o =  0.9927  v =  0.0009  0.7068 -0.0005 -0.7074  0.0028  0.0000  0.0000  0.0000  0.0000  0.0000      0.0000  0.0000  0.0000  0.0000  0.0000  0.0000  0.0000  0.0000  0.0000  0.0000
  o =  0.9960  v = -0.7986  0.0009  0.6018 -0.0006 -0.0003  0.0000  0.0000  0.0000  0.0000  0.0000      0.0000  0.0000  0.0000  0.0000  0.0000  0.0000  0.0000  0.0000  0.0000  0.0000
     EDDAV:  cpu time    4.2614: real time    4.2614
 BZINTS: Fermi energy: -0.430469; 54.000000 electrons
         Band energy:-837.239905;  BLOECHL correction:  0.000000
       DOS:  cpu time    0.0047: real time    0.0047
    CHARGE:  cpu time    0.5569: real time    0.5569
    MIXING:  cpu time    0.0007: real time    0.0007
    --------------------------------------------
      LOOP:  cpu time    9.8539: real time    9.8540

 eigenvalue-minimisations  :  8160
 total energy-change (2. order) : 0.7078559E-02  (-0.2035289E-02)
 number of electron      54.0000009 magnetization      -0.0000000
 augmentation part       20.0490405 magnetization       0.0000219

 Broyden mixing:
  rms(total) = 0.11919E+00    rms(broyden)= 0.11919E+00
  rms(prec ) = 0.14000E+00
  weight for this iteration     100.00

 eigenvalues of (default mixing * dielectric matrix)
  average eigenvalue GAMMA=   1.1381
  2.3639  0.9543  0.9543  0.7831  0.6351

 Free energy of the ion-electron system (eV)
  ---------------------------------------------------
  alpha Z        PSCENC =       194.59399051
  Ewald energy   TEWEN  =     -4167.81530784
  -Hartree energ DENC   =     -2182.99292075
  -exchange      EXHF   =         0.00000000
  -V(xc)+E(xc)   XCENC  =       166.04900274
  PAW double counting   =      6587.76181297    -6515.02560262
  entropy T*S    EENTRO =         0.00000000
  eigenvalues    EBANDS =      -837.23990507
  atomic energy  EATOM  =      6689.01075358
  Solvation  Ediel_sol  =         0.00000000
  ---------------------------------------------------
  free energy    TOTEN  =       -65.65817647 eV

  energy without entropy =      -65.65817647  energy(sigma->0) =      -65.65817647


--------------------------------------------------------------------------------------------------------




--------------------------------------- Iteration      1(   7)  ---------------------------------------


    POTLOK:  cpu time    0.0337: real time    0.0337
    SETDIJ:  cpu time    5.1259: real time    5.1260
atom =   1  type =  1  l = 2
 
 onsite density matrix
 
spin component  1
 
  0.0313  0.0000  0.0172  0.0001  0.0000
  0.0000  0.0249  0.0001  0.0152 -0.0001
  0.0172  0.0001  0.0213  0.0001  0.0000
  0.0001  0.0152  0.0001  0.0249  0.0001
  0.0000 -0.0001  0.0000  0.0001  0.0088
 
spin component  2
 
  0.9841  0.0000  0.0178  0.0000 -0.0000
  0.0000  0.9785  0.0000  0.0155 -0.0000
  0.0178  0.0000  0.9740  0.0000 -0.0000
  0.0000  0.0155  0.0000  0.9785 -0.0000
 -0.0000 -0.0000 -0.0000 -0.0000  0.9626
 
 occupancies and eigenvectors
 
  o =  0.0084  v = -0.6005 -0.0015  0.7994  0.0008 -0.0193  0.0000  0.0000  0.0000  0.0000  0.0000      0.0000  0.0000  0.0000  0.0000  0.0000  0.0000  0.0000  0.0000  0.0000  0.0000
  o =  0.0088  v = -0.0118  0.0717  0.0154 -0.0721  0.9946  0.0000  0.0000  0.0000  0.0000  0.0000      0.0000  0.0000  0.0000  0.0000  0.0000  0.0000  0.0000  0.0000  0.0000  0.0000
  o =  0.0098  v = -0.0003 -0.7034  0.0002  0.7035  0.1017  0.0000  0.0000  0.0000  0.0000  0.0000      0.0000  0.0000  0.0000  0.0000  0.0000  0.0000  0.0000  0.0000  0.0000  0.0000
  o =  0.0401  v =  0.0201 -0.7070  0.0145 -0.7068 -0.0003  0.0000  0.0000  0.0000  0.0000  0.0000      0.0000  0.0000  0.0000  0.0000  0.0000  0.0000  0.0000  0.0000  0.0000  0.0000
  o =  0.0442  v = -0.7993 -0.0175 -0.6004 -0.0176 -0.0002  0.0000  0.0000  0.0000  0.0000  0.0000      0.0000  0.0000  0.0000  0.0000  0.0000  0.0000  0.0000  0.0000  0.0000  0.0000
  o =  0.9606  v =  0.0000  0.0000  0.0000  0.0000  0.0000 -0.6030  0.0004  0.7977 -0.0004  0.0017      0.0000  0.0000  0.0000  0.0000  0.0000  0.0000  0.0000  0.0000  0.0000  0.0000
  o =  0.9626  v =  0.0000  0.0000  0.0000  0.0000  0.0000  0.0012  0.0011 -0.0012 -0.0010  1.0000      0.0000  0.0000  0.0000  0.0000  0.0000  0.0000  0.0000  0.0000  0.0000  0.0000
  o =  0.9631  v =  0.0000  0.0000  0.0000  0.0000  0.0000 -0.0003 -0.7071  0.0005  0.7071  0.0015      0.0000  0.0000  0.0000  0.0000  0.0000  0.0000  0.0000  0.0000  0.0000  0.0000
  o =  0.9940  v =  0.0000  0.0000  0.0000  0.0000  0.0000  0.0038 -0.7071  0.0028 -0.7071  0.0000      0.0000  0.0000  0.0000  0.0000  0.0000  0.0000  0.0000  0.0000  0.0000  0.0000
  o =  0.9976  v =  0.0000  0.0000  0.0000  0.0000  0.0000 -0.7977 -0.0034 -0.6030 -0.0033  0.0002      0.0000  0.0000  0.0000  0.0000  0.0000  0.0000  0.0000  0.0000  0.0000  0.0000
atom =   2  type =  1  l = 2
 
 onsite density matrix
 
spin component  1
 
  0.9841  0.0000 -0.0178  0.0000  0.0000
  0.0000  0.9785 -0.0000 -0.0155  0.0000
 -0.0178 -0.0000  0.9740 -0.0000 -0.0000
  0.0000 -0.0155 -0.0000  0.9785 -0.0000
  0.0000  0.0000 -0.0000 -0.0000  0.9627
 
spin component  2
 
  0.0312  0.0001 -0.0175  0.0001 -0.0000
  0.0001  0.0250  0.0001 -0.0149 -0.0001
 -0.0175  0.0001  0.0213  0.0001  0.0000
  0.0001 -0.0149  0.0001  0.0250  0.0001
 -0.0000 -0.0001  0.0000  0.0001  0.0087
 
 occupancies and eigenvectors
 
  o =  0.0081  v =  0.0000  0.0000  0.0000  0.0000  0.0000  0.6019 -0.0563  0.7945 -0.0562 -0.0112      0.0000  0.0000  0.0000  0.0000  0.0000  0.0000  0.0000  0.0000  0.0000  0.0000
  o =  0.0087  v =  0.0000  0.0000  0.0000  0.0000  0.0000  0.0066 -0.0022  0.0083 -0.0085  0.9999      0.0000  0.0000  0.0000  0.0000  0.0000  0.0000  0.0000  0.0000  0.0000  0.0000
  o =  0.0101  v =  0.0000  0.0000  0.0000  0.0000  0.0000  0.0480  0.7046  0.0635  0.7051  0.0067      0.0000  0.0000  0.0000  0.0000  0.0000  0.0000  0.0000  0.0000  0.0000  0.0000
  o =  0.0399  v =  0.0000  0.0000  0.0000  0.0000  0.0000  0.0004  0.7073 -0.0002 -0.7069 -0.0045      0.0000  0.0000  0.0000  0.0000  0.0000  0.0000  0.0000  0.0000  0.0000  0.0000
  o =  0.0444  v =  0.0000  0.0000  0.0000  0.0000  0.0000 -0.7971  0.0003  0.6039 -0.0004  0.0002      0.0000  0.0000  0.0000  0.0000  0.0000  0.0000  0.0000  0.0000  0.0000  0.0000
  o =  0.9606  v = -0.6023 -0.0014 -0.7982 -0.0015  0.0001  0.0000  0.0000  0.0000  0.0000  0.0000      0.0000  0.0000  0.0000  0.0000  0.0000  0.0000  0.0000  0.0000  0.0000  0.0000
  o =  0.9627  v = -0.0000  0.0105  0.0001  0.0114  0.9999  0.0000  0.0000  0.0000  0.0000  0.0000      0.0000  0.0000  0.0000  0.0000  0.0000  0.0000  0.0000  0.0000  0.0000  0.0000
[...]
     18      -3.3660      1.00000
     19      -3.0913      1.00000
     20      -2.7855      1.00000
     21      -2.6996      1.00000
     22      -2.2253      1.00000
     23      -2.1301      1.00000
     24      -1.8926      1.00000
     25      -1.6513      1.00000
     26      -1.2135      1.00000
     27      -0.5846      1.00000
     28       9.0663      0.00000
     29       9.4509      0.00000
     30       9.5486      0.00000
     31       9.8277      0.00000
     32      10.3223      0.00000
     33      10.9930      0.00000
     34      11.1976      0.00000
     35      11.5998      0.00000
     36      12.7933      0.00000

 k-point    48 :      -0.1250   -0.1250    0.4167
  band No.  band energies     occupation 
      1     -49.4630      1.00000
      2     -49.4250      1.00000
      3     -49.4104      1.00000
      4     -42.7828      1.00000
      5     -42.7380      1.00000
      6     -42.7187      1.00000
      7     -22.6463      1.00000
      8     -22.5354      1.00000
      9     -22.4960      1.00000
     10     -22.3928      1.00000
     11      -5.4071      1.00000
     12      -4.6896      1.00000
     13      -4.4519      1.00000
     14      -4.3413      1.00000
     15      -4.0742      1.00000
     16      -3.7741      1.00000
     17      -3.6831      1.00000
     18      -3.1791      1.00000
     19      -2.8433      1.00000
     20      -2.8098      1.00000
     21      -2.7137      1.00000
     22      -2.3455      1.00000
     23      -2.3320      1.00000
     24      -1.8512      1.00000
     25      -1.5282      1.00000
     26      -1.1895      1.00000
     27      -0.9164      1.00000
     28       8.4332      0.00000
     29       9.4142      0.00000
     30       9.5144      0.00000
     31       9.6031      0.00000
     32      10.5339      0.00000
     33      10.8036      0.00000
     34      11.7234      0.00000
     35      12.5136      0.00000
     36      12.8443      0.00000


--------------------------------------------------------------------------------------------------------


 soft charge-density along one line, spin component           1
         0         1         2         3         4         5         6         7         8         9
 total charge-density along one line
 
 soft charge-density along one line, spin component           2
         0         1         2         3         4         5         6         7         8         9
 total charge-density along one line
 
 pseudopotential strength for first ion, spin component:           1
-45.233  -0.000  -0.029   7.823   0.000   0.011  -0.000   0.000
 -0.000 -45.200  -0.000   0.000   7.812   0.000   0.000  -0.000
 -0.029  -0.000 -45.233   0.011   0.000   7.823   0.000   0.000
  7.823   0.000   0.011   5.632   0.000   0.008   0.000   0.000
  0.000   7.812   0.000   0.000   5.619   0.000   0.000  -0.000
  0.011   0.000   7.823   0.008   0.000   5.632   0.000   0.000
 -0.000   0.000   0.000   0.000   0.000   0.000   0.302   0.000
  0.000  -0.000   0.000   0.000  -0.000   0.000   0.000   0.358
 -0.000   0.000   0.000  -0.000   0.000  -0.000  -0.099  -0.000
  0.000  -0.000  -0.000   0.000  -0.000  -0.000   0.000  -0.113
  0.000  -0.000  -0.000   0.000  -0.000  -0.000  -0.000   0.000
 -0.000   0.000   0.000   0.000   0.000   0.000  -0.113   0.000
  0.000  -0.000   0.000   0.000  -0.000   0.000   0.000  -0.057
 -0.000   0.000   0.000  -0.000   0.000  -0.000  -0.104  -0.000
  0.000  -0.000  -0.000   0.000  -0.000  -0.000   0.000  -0.116
  0.000  -0.000  -0.000   0.000  -0.000  -0.000  -0.000   0.000
  0.000   0.000  -0.000  -0.000   0.000   0.000   0.009   0.000
  0.000   0.000  -0.000  -0.000   0.000   0.000   0.016   0.000
 pseudopotential strength for first ion, spin component:           2
-51.134   0.000  -0.007   9.862   0.000   0.011   0.000   0.000
  0.000 -51.131   0.000   0.000   9.851   0.000   0.000   0.000
 -0.007   0.000 -51.134   0.011   0.000   9.862  -0.000   0.000
  9.862   0.000   0.011   4.691   0.000   0.000  -0.000   0.000
  0.000   9.851   0.000   0.000   4.691   0.000  -0.000  -0.000
  0.011   0.000   9.862   0.000   0.000   4.691  -0.000  -0.000
  0.000   0.000  -0.000  -0.000  -0.000  -0.000 -10.869  -0.000
  0.000   0.000   0.000   0.000  -0.000  -0.000  -0.000 -10.817
  0.000  -0.000  -0.000  -0.000  -0.000   0.000  -0.133  -0.000
  0.000  -0.000  -0.000  -0.000  -0.000  -0.000  -0.000  -0.136
 -0.000  -0.000  -0.000  -0.000  -0.000  -0.000   0.000  -0.000
  0.000   0.000  -0.000  -0.000  -0.000  -0.000 -11.440  -0.000
  0.000   0.000   0.000   0.000  -0.000  -0.000  -0.000 -11.387
  0.000  -0.000  -0.000  -0.000  -0.000   0.000  -0.137  -0.000
  0.000  -0.000  -0.000  -0.000  -0.000  -0.000  -0.000  -0.138
 -0.000  -0.000  -0.000  -0.000  -0.000  -0.000   0.000  -0.000
  0.000   0.000  -0.000  -0.000  -0.000  -0.000   0.007   0.000
  0.000   0.000  -0.000  -0.000  -0.000  -0.000   0.015   0.000
 total augmentation occupancy for first ion, spin component:           1
  2.001   0.000   0.000  -0.012  -0.000   0.001  -0.000   0.000  -0.000   0.000   0.000   0.000  -0.000   0.000  -0.000  -0.000
  0.000   2.001   0.000  -0.000  -0.012  -0.000  -0.000  -0.000   0.000  -0.000  -0.000   0.000   0.000  -0.000   0.000   0.000
  0.000   0.000   2.001   0.001  -0.000  -0.012   0.000  -0.000   0.000  -0.000  -0.000  -0.000   0.000  -0.000   0.000   0.000
 -0.012  -0.000   0.001   0.077  -0.000  -0.007   0.000   0.000   0.000  -0.000   0.000  -0.000  -0.000  -0.000   0.000  -0.000
 -0.000  -0.012  -0.000  -0.000   0.088  -0.000   0.000  -0.000   0.000   0.000  -0.000  -0.000   0.000  -0.000  -0.000   0.000
  0.001  -0.000  -0.012  -0.007  -0.000   0.077   0.000  -0.000  -0.000  -0.000   0.000  -0.000   0.000   0.000   0.000  -0.000
 -0.000  -0.000   0.000   0.000   0.000   0.000   7.908   0.000   3.075   0.000   0.000  -5.872  -0.000  -2.884  -0.000  -0.000
  0.000  -0.000  -0.000   0.000  -0.000  -0.000   0.000   6.765  -0.000   2.668   0.000  -0.000  -4.786   0.000  -2.504  -0.000
 -0.000   0.000   0.000   0.000   0.000  -0.000   3.075  -0.000   6.148  -0.000   0.000  -2.885  -0.000  -4.228  -0.000  -0.000
  0.000  -0.000  -0.000  -0.000   0.000  -0.000   0.000   2.668  -0.000   6.765  -0.000  -0.000  -2.504   0.000  -4.786   0.000
  0.000  -0.000  -0.000   0.000  -0.000   0.000   0.000   0.000   0.000  -0.000   3.934  -0.000  -0.000  -0.000   0.000  -2.119
  0.000   0.000  -0.000  -0.000  -0.000  -0.000  -5.872  -0.000  -2.885  -0.000  -0.000   5.008   0.000   2.723   0.000   0.000
 -0.000   0.000   0.000  -0.000   0.000   0.000  -0.000  -4.786  -0.000  -2.504  -0.000   0.000   3.971   0.000   2.366   0.000
  0.000  -0.000  -0.000  -0.000  -0.000   0.000  -2.884   0.000  -4.228   0.000  -0.000   2.723   0.000   3.462   0.000   0.000
 -0.000   0.000   0.000   0.000  -0.000   0.000  -0.000  -2.504  -0.000  -4.786   0.000   0.000   2.366   0.000   3.971  -0.000
 -0.000   0.000   0.000  -0.000   0.000  -0.000  -0.000  -0.000  -0.000   0.000  -2.119   0.000   0.000   0.000  -0.000   1.441
  0.000   0.000  -0.000   0.000   0.000  -0.000   0.355   0.000  -0.330   0.000  -0.000  -0.343  -0.000   0.315  -0.000   0.000
 -0.000  -0.000   0.000  -0.000  -0.000   0.000  -0.076  -0.000   0.076  -0.000   0.000   0.080   0.000  -0.076   0.000  -0.000
 total augmentation occupancy for first ion, spin component:           2
  0.004   0.000  -0.000   0.016  -0.000  -0.000   0.000   0.000  -0.000   0.000   0.000  -0.000  -0.000   0.000  -0.000  -0.000
  0.000   0.004   0.000  -0.000   0.017  -0.000   0.000  -0.000   0.000  -0.000  -0.000  -0.000   0.000  -0.000   0.000   0.000
 -0.000   0.000   0.004  -0.000  -0.000   0.016   0.000   0.000  -0.000  -0.000   0.000  -0.000  -0.000   0.000   0.000  -0.000
  0.016  -0.000  -0.000  -0.012   0.000   0.000   0.000   0.000   0.000  -0.000  -0.000  -0.000  -0.000  -0.000   0.000   0.000
 -0.000   0.017  -0.000   0.000  -0.013   0.000  -0.000  -0.000   0.000  -0.000  -0.000   0.000   0.000  -0.000   0.000   0.000
 -0.000  -0.000   0.016   0.000   0.000  -0.012  -0.000  -0.000  -0.000  -0.000  -0.000   0.000   0.000   0.000   0.000   0.000
  0.000   0.000   0.000   0.000  -0.000  -0.000  -5.751  -0.000  -1.839  -0.000   0.000   3.458   0.000   1.504   0.000  -0.000
  0.000  -0.000   0.000   0.000  -0.000  -0.000  -0.000  -5.084   0.000  -1.591  -0.000   0.000   2.900  -0.000   1.301   0.000
 -0.000   0.000  -0.000   0.000   0.000  -0.000  -1.839   0.000  -4.660   0.000   0.000   1.504  -0.000   2.563  -0.000  -0.000
  0.000  -0.000  -0.000  -0.000  -0.000  -0.000  -0.000  -1.591   0.000  -5.084   0.000   0.000   1.301  -0.000   2.900  -0.000
  0.000  -0.000   0.000  -0.000  -0.000  -0.000   0.000  -0.000   0.000   0.000  -3.427  -0.000   0.000  -0.000  -0.000   1.543
 -0.000  -0.000  -0.000  -0.000   0.000   0.000   3.458   0.000   1.504   0.000  -0.000  -2.303  -0.000  -1.179  -0.000   0.000
 -0.000   0.000  -0.000  -0.000   0.000   0.000   0.000   2.900  -0.000   1.301   0.000  -0.000  -1.852   0.000  -1.021  -0.000
  0.000  -0.000   0.000  -0.000  -0.000   0.000   1.504  -0.000   2.563  -0.000  -0.000  -1.179   0.000  -1.598   0.000   0.000
 -0.000   0.000   0.000   0.000   0.000   0.000   0.000   1.301  -0.000   2.900  -0.000  -0.000  -1.021   0.000  -1.852   0.000
 -0.000   0.000  -0.000   0.000   0.000   0.000  -0.000   0.000  -0.000  -0.000   1.543   0.000  -0.000   0.000   0.000  -0.786
 -0.000  -0.000  -0.000   0.000   0.000  -0.000  -0.092  -0.000   0.089  -0.000  -0.000   0.051   0.000  -0.048   0.000   0.000
  0.000   0.000   0.000  -0.000  -0.000   0.000   0.006   0.000  -0.013   0.000   0.000  -0.003  -0.000   0.006  -0.000  -0.000


------------------------ aborting loop because EDIFF is reached ----------------------------------------


 


 total charge     
 
# of ion       s       p       d       tot
------------------------------------------
    1        0.166   6.141   4.969  11.276
    2        0.166   6.141   4.969  11.276
    3        1.729   4.412   0.000   6.141
    4        1.729   4.412   0.000   6.141
    5        1.729   4.412   0.000   6.141
    6        1.729   4.412   0.000   6.141
--------------------------------------------------
tot          7.246  29.930   9.939  47.115
 


 magnetization (x)
 
# of ion       s       p       d       tot
------------------------------------------
    1       -0.026  -0.020  -4.757  -4.803
    2        0.026   0.020   4.757   4.803
    3        0.002   0.007   0.000   0.009
    4        0.002   0.007   0.000   0.009
    5       -0.002  -0.007   0.000  -0.009
    6       -0.002  -0.007   0.000  -0.009
--------------------------------------------------
tot          0.000   0.000   0.000   0.000
 
    CHARGE:  cpu time    0.0958: real time    0.0958
    FORLOC:  cpu time    0.0011: real time    0.0011
    FORNL :  cpu time    0.5503: real time    0.5503
    STRESS:  cpu time   10.2227: real time   10.2228
    FORCOR:  cpu time    0.0294: real time    0.0294
    FORHAR:  cpu time    0.0022: real time    0.0022
    MIXING:  cpu time    0.0015: real time    0.0016
    OFIELD:  cpu time    0.0000: real time    0.0000

  FORCE on cell =-STRESS in cart. coord.  units (eV):
  Direction    XX          YY          ZZ          XY          YZ          ZX
  --------------------------------------------------------------------------------------
  Alpha Z   194.59399   194.59399   194.59399
  Ewald   -1579.42609 -1579.42609 -1008.96626     0.00000    -0.00000     0.00000
  Hartree   599.69093   599.69093   985.40065    -0.00000     0.00010     0.00010
  E(xc)    -150.53132  -150.53132  -150.67398    -0.00000    -0.00002    -0.00002
  Local     157.11157   157.11157  -792.12275     0.00000    -0.00001    -0.00001
  n-local  -311.89210  -311.89210  -310.52571    -0.00000     0.00004     0.00004
  augment   158.27067   158.27067   157.72101     0.00000    -0.00005    -0.00005
  Kinetic   932.18055   932.18055   924.55637     0.00000    -0.00013    -0.00013
  Fock        0.00000     0.00000     0.00000     0.00000     0.00000     0.00000
  -------------------------------------------------------------------------------------
  Total      -0.00179    -0.00179    -0.01669     0.00000    -0.00008    -0.00008
  in kB      -0.03615    -0.03615    -0.33709     0.00001    -0.00164    -0.00164
  external pressure =       -0.14 kB  Pullay stress =        0.00 kB


 VOLUME and BASIS-vectors are now :
 -----------------------------------------------------------------------------
  energy-cutoff  :      600.00
  volume of cell :       79.33
      direct lattice vectors                 reciprocal lattice vectors
     4.891796665  0.000000000  0.000000000     0.204423869  0.000000000  0.000000000
     0.000000000  4.891796665  0.000000000     0.000000000  0.204423869  0.000000000
     0.000000000  0.000000000  3.315204934     0.000000000  0.000000000  0.301640478

  length of vectors
     4.891796665  4.891796665  3.315204934     0.204423869  0.204423869  0.301640478


 FORCES acting on ions
    electron-ion (+dipol)            ewald-force                    non-local-force                 convergence-correction
 -----------------------------------------------------------------------------------------------
   0.518E-05 -.103E-04 -.629E-09   0.000E+00 -.568E-13 -.757E-14   -.571E-05 0.106E-04 -.155E-09   0.713E-09 0.123E-08 -.176E-09
   0.518E-05 0.103E-04 -.110E-10   0.000E+00 0.000E+00 -.937E-14   -.570E-05 -.105E-04 0.378E-09   -.497E-09 -.231E-08 0.876E-10
   -.343E+02 0.343E+02 0.248E-08   0.357E+02 -.357E+02 0.376E-14   -.136E+01 0.136E+01 -.753E-08   -.323E-06 0.368E-06 0.348E-08
   0.343E+02 -.343E+02 -.322E-08   -.357E+02 0.357E+02 0.355E-14   0.136E+01 -.136E+01 0.893E-08   0.323E-06 -.368E-06 -.332E-08
   0.343E+02 0.343E+02 -.181E-03   -.357E+02 -.357E+02 0.688E-14   0.136E+01 0.136E+01 0.309E-03   -.614E-06 -.644E-06 0.234E-06
   -.343E+02 -.343E+02 0.181E-03   0.357E+02 0.357E+02 0.656E-14   -.136E+01 -.136E+01 -.309E-03   0.614E-06 0.645E-06 -.234E-06
 -----------------------------------------------------------------------------------------------
   0.994E-05 -.205E-09 -.168E-08   0.711E-14 0.000E+00 0.381E-14   -.981E-05 0.171E-08 0.218E-08   0.248E-09 -.687E-09 -.201E-10
 
 
 POSITION                                       TOTAL-FORCE (eV/Angst)
 -----------------------------------------------------------------------------------
      2.44590      2.44590      1.65760        -0.000001      0.000000     -0.000000
      0.00000      0.00000      0.00000        -0.000001     -0.000000      0.000000
      0.95434      3.93746      1.65760        -0.001937      0.001937     -0.000000
      3.93746      0.95434      1.65760         0.001937     -0.001938      0.000000
      1.49156      1.49156      0.00000         0.001938      0.001938      0.000128
      3.40024      3.40024      0.00000        -0.001937     -0.001937     -0.000128
 -----------------------------------------------------------------------------------
    total drift:                                0.000000      0.000000      0.000000


--------------------------------------------------------------------------------------------------------



  FREE ENERGIE OF THE ION-ELECTRON SYSTEM (eV)
  ---------------------------------------------------
  free  energy   TOTEN  =       -65.65380708 eV

  energy  without entropy=      -65.65380708  energy(sigma->0) =      -65.65380708
 


--------------------------------------------------------------------------------------------------------


    POTLOK:  cpu time    4.9005: real time    4.9005

 Total magnetic moment S=     1.0000000

 Fermi contact (isotropic) hyperfine coupling parameter (MHz) 
 -------------------------------------------------------------
  ion      A_pw      A_1PS     A_1AE     A_1c      A_tot
 -------------------------------------------------------------
   1   -1319.338 -1319.487  -419.097  1260.048  -418.948
   2    1319.338  1319.487   419.097 -1260.048   418.948
   3      20.309    20.202   181.897   -11.679   182.004
   4      20.309    20.202   181.897   -11.679   182.004
   5     -20.309   -20.202  -181.886    11.680  -181.993
   6     -20.309   -20.202  -181.885    11.679  -181.993
 -------------------------------------------------------------


 Dipolar hyperfine coupling parameters (MHz)
 ---------------------------------------------------------------------
  ion      A_xx      A_yy      A_zz      A_xy      A_xz      A_yz
 ---------------------------------------------------------------------
   1       7.964     7.964   -15.927     5.052     0.002     0.002
   2      -7.964    -7.964    15.927     5.052     0.001     0.001
   3     -45.751   -45.750    91.501     7.443    -0.003    -0.003
   4     -45.750   -45.751    91.501     7.444    -0.003    -0.003
   5      45.750    45.751   -91.501     7.444    -0.004    -0.004
   6      45.751    45.750   -91.502     7.443    -0.004    -0.004
 ---------------------------------------------------------------------


 Total hyperfine coupling parameters after diagonalization (MHz)
 (convention: |A_zz| > |A_xx| > |A_yy|)
 ----------------------------------------------------------------------
  ion      A_xx      A_yy      A_zz     asymmetry (A_yy - A_xx)/ A_zz 
 ----------------------------------------------------------------------
   1    -416.037  -405.933  -434.875      -0.023
   2     416.037   405.933   434.876      -0.023
   3     143.697   128.810   273.505      -0.054
   4     143.698   128.809   273.506      -0.054
   5    -143.687  -128.798  -273.495      -0.054
   6    -143.685  -128.799  -273.494      -0.054
 ---------------------------------------------------------------------



--------------------------------------------------------------------------------------------------------


 writing wavefunctions
     LOOP+:  cpu time  227.0789: real time  227.1094
    4ORBIT:  cpu time    0.0000: real time    0.0000
 


 total charge     
 
# of ion       s       p       d       tot
------------------------------------------
    1        0.166   6.141   4.969  11.276
    2        0.166   6.141   4.969  11.276
    3        1.729   4.412   0.000   6.141
    4        1.729   4.412   0.000   6.141
    5        1.729   4.412   0.000   6.141
    6        1.729   4.412   0.000   6.141
--------------------------------------------------
tot          7.246  29.930   9.939  47.115
 


 magnetization (x)
 
# of ion       s       p       d       tot
------------------------------------------
    1       -0.026  -0.020  -4.757  -4.803
    2        0.026   0.020   4.757   4.803
    3        0.002   0.007   0.000   0.009
    4        0.002   0.007   0.000   0.009
    5       -0.002  -0.007   0.000  -0.009
    6       -0.002  -0.007   0.000  -0.009
--------------------------------------------------
tot          0.000   0.000   0.000   0.000
 
 BZINTS: Fermi energy: -0.388390; 54.000000 electrons
         Band energy:-835.792544;  BLOECHL correction:  0.000000

 total amount of memory used by VASP MPI-rank0    85570. kBytes
=======================================================================

   base      :      30000. kBytes
   nonl-proj :      37082. kBytes
   fftplans  :       1875. kBytes
   grid      :       3820. kBytes
   one-center:        186. kBytes
   wavefun   :      12607. kBytes
 
  
  
 General timing and accounting informations for this job:
 ========================================================
  
                  Total CPU time used (sec):      229.571
                            User time (sec):      161.731
                          System time (sec):       67.840
                         Elapsed time (sec):      229.644
  
                   Maximum memory used (kb):       96600.
                   Average memory used (kb):           0.
  
                          Minor page faults:        26685
                          Major page faults:            9
                 Voluntary context switches:          297
