       N       E                     dE             d eps       ncg     rms          rms(c)
DAV:   1     0.852736558330E+03    0.85274E+03   -0.31004E+04  1380   0.154E+03
DAV:   2     0.388333378485E+03   -0.46440E+03   -0.44502E+03  1500   0.431E+02
DAV:   3     0.363026412604E+03   -0.25307E+02   -0.25184E+02  1464   0.112E+02
DAV:   4     0.362778633202E+03   -0.24778E+00   -0.24766E+00  1572   0.119E+01
DAV:   5     0.362774401827E+03   -0.42314E-02   -0.42313E-02  1464   0.138E+00    0.613E+01
DAV:   6    -0.694884339416E+02   -0.43226E+03   -0.25393E+02  1572   0.221E+02    0.644E+01
DAV:   7    -0.717652161805E+02   -0.22768E+01   -0.51408E+01  1368   0.453E+01    0.174E+01
DAV:   8    -0.685123476090E+02    0.32529E+01   -0.75024E+00  1512   0.225E+01    0.726E+00
DAV:   9    -0.681283334039E+02    0.38401E+00   -0.70860E+00  1488   0.225E+01    0.973E+00
DAV:  10    -0.680680911014E+02    0.60242E-01   -0.61944E-01  1392   0.685E+00    0.755E+00
DAV:  11    -0.679228507137E+02    0.14524E+00   -0.14684E+00  1524   0.879E+00    0.217E+00
DAV:  12    -0.679227369432E+02    0.11377E-03   -0.81944E-02  1368   0.292E+00    0.145E+00
DAV:  13    -0.679058032484E+02    0.16934E-01   -0.61832E-02  1548   0.156E+00    0.102E+00
DAV:  14    -0.679022800487E+02    0.35232E-02   -0.60559E-02  1296   0.239E+00    0.488E-01
DAV:  15    -0.679029064730E+02   -0.62642E-03   -0.35657E-03  1500   0.465E-01    0.427E-01
DAV:  16    -0.679015712125E+02    0.13353E-02   -0.52416E-03  1464   0.460E-01    0.115E-01
DAV:  17    -0.679016305356E+02   -0.59323E-04   -0.28619E-03  1428   0.369E-01    0.117E-01
DAV:  18    -0.679013014837E+02    0.32905E-03   -0.24934E-04  1428   0.109E-01    0.393E-02
DAV:  19    -0.679013277325E+02   -0.26249E-04   -0.15189E-04  1464   0.813E-02    0.546E-03
DAV:  20    -0.679013702685E+02   -0.42536E-04   -0.97778E-06  1452   0.188E-02    0.844E-03
DAV:  21    -0.679013763930E+02   -0.61245E-05   -0.16913E-06  1356   0.912E-03    0.471E-03
DAV:  22    -0.679013735901E+02    0.28029E-05   -0.18031E-06  1452   0.813E-03    0.205E-03
DAV:  23    -0.679013739717E+02   -0.38154E-06   -0.10976E-07   816   0.253E-03    0.160E-03
DAV:  24    -0.679013745244E+02   -0.55276E-06   -0.15548E-08   648   0.960E-04    0.124E-03
DAV:  25    -0.679013749453E+02   -0.42083E-06   -0.32051E-08   648   0.110E-03    0.103E-03
DAV:  26    -0.679013753258E+02   -0.38057E-06   -0.52870E-09   648   0.435E-04    0.102E-03
DAV:  27    -0.679013753232E+02    0.26430E-08   -0.72320E-10   648   0.186E-04
   1 F= -.67901375E+02 E0= -.67901375E+02  d E =-.679014E+02  mag=     0.0000
       N       E                     dE             d eps       ncg     rms          rms(c)
DAV:   1    -0.689999793826E+02   -0.10986E+01   -0.22294E+01  1296   0.419E+01    0.877E+00
DAV:   2    -0.679429409641E+02    0.10570E+01   -0.18842E+00  1296   0.114E+01    0.532E+00
DAV:   3    -0.679008171854E+02    0.42124E-01   -0.80282E-01  1344   0.612E+00    0.203E+00
DAV:   4    -0.679069719192E+02   -0.61547E-02   -0.39600E-02  1572   0.164E+00    0.152E+00
DAV:   5    -0.679108865536E+02   -0.39146E-02   -0.11463E-01  1608   0.214E+00    0.113E+00
DAV:   6    -0.679028601192E+02    0.80264E-02   -0.78525E-03  1344   0.717E-01    0.594E-01
DAV:   7    -0.679031373964E+02   -0.27728E-03   -0.60951E-02  1572   0.152E+00    0.432E-01
DAV:   8    -0.679002516925E+02    0.28857E-02   -0.34292E-03  1296   0.495E-01    0.190E-01
DAV:   9    -0.679002346802E+02    0.17012E-04   -0.13703E-03  1560   0.210E-01    0.796E-02
DAV:  10    -0.679003518733E+02   -0.11719E-03   -0.39847E-04  1452   0.111E-01    0.263E-02
DAV:  11    -0.679004111087E+02   -0.59235E-04   -0.11753E-04  1524   0.630E-02    0.176E-02
DAV:  12    -0.679004276145E+02   -0.16506E-04   -0.32080E-06  1320   0.132E-02    0.153E-02
DAV:  13    -0.679004242881E+02    0.33264E-05   -0.26979E-06  1452   0.105E-02    0.856E-03
DAV:  14    -0.679004167064E+02    0.75817E-05   -0.10245E-05  1464   0.188E-02    0.376E-03
DAV:  15    -0.679004125290E+02    0.41774E-05   -0.32938E-07  1272   0.422E-03    0.327E-03
DAV:  16    -0.679004136021E+02   -0.10730E-05   -0.21348E-07   996   0.302E-03    0.149E-03
DAV:  17    -0.679004145326E+02   -0.93056E-06   -0.75682E-08   648   0.161E-03    0.106E-03
DAV:  18    -0.679004148511E+02   -0.31848E-06   -0.54912E-08   648   0.145E-03    0.109E-03
DAV:  19    -0.679004151980E+02   -0.34692E-06   -0.41023E-09   648   0.618E-04    0.105E-03
DAV:  20    -0.679004150570E+02    0.14099E-06   -0.20074E-09   648   0.260E-04    0.102E-03
DAV:  21    -0.679004149392E+02    0.11780E-06   -0.18153E-10   648   0.820E-05    0.102E-03
DAV:  22    -0.679004149061E+02    0.33106E-07   -0.95821E-11   648   0.566E-05
   2 F= -.67900415E+02 E0= -.67900415E+02  d E =0.960417E-03  mag=     0.0000
       N       E                     dE             d eps       ncg     rms          rms(c)
DAV:   1    -0.681645358221E+02   -0.26412E+00   -0.55775E+00  1296   0.215E+01    0.439E+00
DAV:   2    -0.679240774672E+02    0.24046E+00   -0.44119E-01  1296   0.558E+00    0.281E+00
DAV:   3    -0.679162249545E+02    0.78525E-02   -0.17277E-01  1368   0.291E+00    0.104E+00
DAV:   4    -0.679200328604E+02   -0.38079E-02   -0.12416E-02  1512   0.962E-01    0.825E-01
DAV:   5    -0.679202634950E+02   -0.23063E-03   -0.22461E-02  1608   0.953E-01    0.521E-01
DAV:   6    -0.679174307347E+02    0.28328E-02   -0.25700E-03  1404   0.391E-01    0.236E-01
DAV:   7    -0.679182657494E+02   -0.83501E-03   -0.12331E-02  1572   0.677E-01    0.239E-01
DAV:   8    -0.679178087698E+02    0.45698E-03   -0.11798E-03  1332   0.268E-01    0.838E-02
DAV:   9    -0.679176377605E+02    0.17101E-03   -0.36864E-04  1560   0.108E-01    0.298E-02
DAV:  10    -0.679175833499E+02    0.54411E-04   -0.12574E-04  1524   0.628E-02    0.103E-02
DAV:  11    -0.679175662278E+02    0.17122E-04   -0.10646E-05  1296   0.192E-02    0.124E-02
DAV:  12    -0.679175627508E+02    0.34770E-05   -0.10572E-06  1464   0.755E-03    0.740E-03
DAV:  13    -0.679175661749E+02   -0.34241E-05   -0.26504E-06  1476   0.944E-03    0.200E-03
DAV:  14    -0.679175720619E+02   -0.58870E-05   -0.15945E-06  1476   0.718E-03    0.260E-03
DAV:  15    -0.679175736079E+02   -0.15460E-05   -0.42999E-08   648   0.192E-03    0.166E-03
DAV:  16    -0.679175729093E+02    0.69856E-06   -0.79529E-08   648   0.161E-03    0.109E-03
DAV:  17    -0.679175720772E+02    0.83207E-06   -0.30981E-08   648   0.108E-03    0.102E-03
DAV:  18    -0.679175717416E+02    0.33560E-06   -0.27824E-09   648   0.459E-04    0.102E-03
DAV:  19    -0.679175718211E+02   -0.79487E-07   -0.34646E-10   648   0.127E-04
   3 F= -.67917572E+02 E0= -.67917572E+02  d E =-.161965E-01  mag=     0.0000
       N       E                     dE             d eps       ncg     rms          rms(c)
DAV:   1    -0.679188896594E+02   -0.13179E-02   -0.32093E-02  1296   0.162E+00    0.333E-01
DAV:   2    -0.679170975900E+02    0.17921E-02   -0.25907E-03  1296   0.427E-01    0.210E-01
DAV:   3    -0.679173881848E+02   -0.29059E-03   -0.10402E-03  1356   0.224E-01    0.777E-02
DAV:   4    -0.679175598888E+02   -0.17170E-03   -0.66638E-05  1536   0.697E-02    0.611E-02
DAV:   5    -0.679175332742E+02    0.26615E-04   -0.13987E-04  1608   0.748E-02    0.407E-02
DAV:   6    -0.679174724141E+02    0.60860E-04   -0.13764E-05  1368   0.289E-02    0.193E-02
DAV:   7    -0.679174901057E+02   -0.17692E-04   -0.83004E-05  1560   0.556E-02    0.192E-02
DAV:   8    -0.679175105872E+02   -0.20481E-04   -0.76693E-06  1332   0.217E-02    0.688E-03
DAV:   9    -0.679174992441E+02    0.11343E-04   -0.24197E-06  1572   0.871E-03    0.264E-03
DAV:  10    -0.679174944142E+02    0.48299E-05   -0.70027E-07  1344   0.466E-03    0.124E-03
DAV:  11    -0.679174928441E+02    0.15701E-05   -0.76467E-08   648   0.164E-03    0.133E-03
DAV:  12    -0.679174924809E+02    0.36319E-06   -0.47645E-09   648   0.493E-04    0.124E-03
DAV:  13    -0.679174926255E+02   -0.14463E-06   -0.17889E-08   648   0.888E-04    0.104E-03
DAV:  14    -0.679174931285E+02   -0.50300E-06   -0.13244E-08   648   0.661E-04    0.103E-03
DAV:  15    -0.679174933211E+02   -0.19253E-06   -0.15737E-09   648   0.263E-04    0.104E-03
DAV:  16    -0.679174933135E+02    0.75652E-08   -0.87338E-10   648   0.250E-04
   4 F= -.67917493E+02 E0= -.67917493E+02  d E =-.161180E-01  mag=    -0.0000
       N       E                     dE             d eps       ncg     rms          rms(c)
DAV:   1    -0.679187699105E+02   -0.12766E-02   -0.93331E-02  1296   0.221E+00    0.294E-01
DAV:   2    -0.679183463066E+02    0.42360E-03   -0.22522E-03  1620   0.398E-01    0.191E-01
DAV:   3    -0.679175926921E+02    0.75361E-03   -0.42591E-04  1596   0.159E-01    0.103E-01
DAV:   4    -0.679174484616E+02    0.14423E-03   -0.43134E-04  1560   0.150E-01    0.296E-02
DAV:   5    -0.679174625356E+02   -0.14074E-04   -0.35779E-05  1296   0.439E-02    0.158E-02
DAV:   6    -0.679174668732E+02   -0.43376E-05   -0.24860E-06  1620   0.116E-02    0.917E-03
DAV:   7    -0.679174723271E+02   -0.54540E-05   -0.35491E-07  1512   0.517E-03    0.251E-03
DAV:   8    -0.679174722654E+02    0.61737E-07   -0.15112E-07   756   0.261E-03
   5 F= -.67917472E+02 E0= -.67917472E+02  d E =0.210481E-04  mag=    -0.0000
       N       E                     dE             d eps       ncg     rms          rms(c)
DAV:   1    -0.679175659290E+02   -0.93602E-04   -0.86578E-03  1296   0.673E-01    0.894E-02
DAV:   2    -0.679175170246E+02    0.48904E-04   -0.20883E-04  1620   0.122E-01    0.583E-02
DAV:   3    -0.679174258968E+02    0.91128E-04   -0.39616E-05  1572   0.487E-02    0.313E-02
DAV:   4    -0.679174092719E+02    0.16625E-04   -0.40018E-05  1548   0.466E-02    0.911E-03
DAV:   5    -0.679174119117E+02   -0.26398E-05   -0.35636E-06  1296   0.139E-02    0.493E-03
DAV:   6    -0.679174134334E+02   -0.15217E-05   -0.23693E-07  1416   0.361E-03    0.300E-03
DAV:   7    -0.679174150655E+02   -0.16321E-05   -0.33385E-08   648   0.166E-03    0.123E-03
DAV:   8    -0.679174152465E+02   -0.18099E-06   -0.19706E-08   648   0.997E-04    0.108E-03
DAV:   9    -0.679174146299E+02    0.61663E-06   -0.20938E-09   648   0.374E-04    0.103E-03
DAV:  10    -0.679174144908E+02    0.13908E-06   -0.94330E-10   648   0.259E-04    0.102E-03
DAV:  11    -0.679174145148E+02   -0.24068E-07   -0.50918E-10   648   0.174E-04
   6 F= -.67917415E+02 E0= -.67917415E+02  d E =0.787987E-04  mag=    -0.0000
       N       E                     dE             d eps       ncg     rms          rms(c)
DAV:   1    -0.679173420148E+02    0.72476E-04   -0.57777E-03  1320   0.509E-01    0.344E-02
DAV:   2    -0.679173737485E+02   -0.31734E-04   -0.23365E-04  1584   0.107E-01    0.220E-02
DAV:   3    -0.679173685443E+02    0.52042E-05   -0.22543E-05  1440   0.285E-02    0.126E-02
DAV:   4    -0.679173710788E+02   -0.25344E-05   -0.35317E-06  1608   0.151E-02    0.652E-03
DAV:   5    -0.679173729990E+02   -0.19202E-05   -0.11521E-06  1344   0.823E-03    0.208E-03
DAV:   6    -0.679173724768E+02    0.52213E-06   -0.13509E-07   996   0.233E-03    0.148E-03
DAV:   7    -0.679173724041E+02    0.72757E-07   -0.50479E-08   660   0.138E-03
   7 F= -.67917372E+02 E0= -.67917372E+02  d E =0.421108E-04  mag=     0.0000
       N       E                     dE             d eps       ncg     rms          rms(c)
DAV:   1    -0.679171343608E+02    0.23812E-03   -0.15191E-02  1320   0.826E-01    0.558E-02
DAV:   2    -0.679172780055E+02   -0.14364E-03   -0.61402E-04  1584   0.173E-01    0.356E-02
DAV:   3    -0.679172658675E+02    0.12138E-04   -0.59198E-05  1440   0.460E-02    0.204E-02
DAV:   4    -0.679172667944E+02   -0.92689E-06   -0.92168E-06  1608   0.244E-02    0.105E-02
DAV:   5    -0.679172695814E+02   -0.27869E-05   -0.30117E-06  1344   0.133E-02    0.312E-03
DAV:   6    -0.679172688276E+02    0.75380E-06   -0.35124E-07  1440   0.367E-03    0.202E-03
DAV:   7    -0.679172686277E+02    0.19984E-06   -0.11150E-07   864   0.197E-03    0.137E-03
DAV:   8    -0.679172681554E+02    0.47235E-06   -0.62858E-08   828   0.147E-03    0.107E-03
DAV:   9    -0.679172683968E+02   -0.24147E-06   -0.54894E-09   648   0.483E-04    0.102E-03
DAV:  10    -0.679172683264E+02    0.70451E-07   -0.82284E-10   648   0.187E-04
   8 F= -.67917268E+02 E0= -.67917268E+02  d E =0.146188E-03  mag=     0.0000
