 vasp.5.4.4.18Apr17-6-g9f103f2a35 (build Apr 27 2017 11:13:10) complex          
  
 executed on           IFC91_ompi date 2020.05.13  11:33:27
 running on   12 total cores
 distrk:  each k-point on   12 cores,    1 groups
 distr:  one band on NCORES_PER_BAND=   1 cores,   12 groups


--------------------------------------------------------------------------------------------------------


 INCAR:
 POTCAR:    PAW_PBE Mn_pv 02Aug2007               
 POTCAR:    PAW_PBE F 08Apr2002                   

 ----------------------------------------------------------------------------- 
|                                                                             |
|           W    W    AA    RRRRR   N    N  II  N    N   GGGG   !!!           |
|           W    W   A  A   R    R  NN   N  II  NN   N  G    G  !!!           |
|           W    W  A    A  R    R  N N  N  II  N N  N  G       !!!           |
|           W WW W  AAAAAA  RRRRR   N  N N  II  N  N N  G  GGG   !            |
|           WW  WW  A    A  R   R   N   NN  II  N   NN  G    G                |
|           W    W  A    A  R    R  N    N  II  N    N   GGGG   !!!           |
|                                                                             |
|      For optimal performance we recommend to set                            |
|        NCORE= 4 - approx SQRT( number of cores)                             |
|      NCORE specifies how many cores store one orbital (NPAR=cpu/NCORE).     |
|      This setting can  greatly improve the performance of VASP for DFT.     |
|      The default,   NCORE=1            might be grossly inefficient         |
|      on modern multi-core architectures or massively parallel machines.     |
|      Do your own testing !!!!                                               |
|      Unfortunately you need to use the default for GW and RPA calculations. |
|      (for HF NCORE is supported but not extensively tested yet)             |
|                                                                             |
 ----------------------------------------------------------------------------- 

 POTCAR:    PAW_PBE Mn_pv 02Aug2007               
   VRHFIN =Mn: 3p4s3d                                                           
   LEXCH  = PE                                                                  
   EATOM  =  2025.2664 eV,  148.8529 Ry                                         
                                                                                
   TITEL  = PAW_PBE Mn_pv 02Aug2007                                             
   LULTRA =        F    use ultrasoft PP ?                                      
   IUNSCR =        1    unscreen: 0-lin 1-nonlin 2-no                           
   RPACOR =    2.080    partial core radius                                     
   POMASS =   54.938; ZVAL   =   13.000    mass and valenz                      
   RCORE  =    2.300    outmost cutoff radius                                   
   RWIGS  =    2.500; RWIGS  =    1.323    wigner-seitz radius (au A)           
   ENMAX  =  269.864; ENMIN  =  202.398 eV                                      
   ICORE  =        3    local potential                                         
   LCOR   =        T    correct aug charges                                     
   LPAW   =        T    paw PP                                                  
   EAUG   =  569.085                                                            
   DEXC   =    0.000                                                            
   RMAX   =    2.343    core radius for proj-oper                               
   RAUG   =    1.300    factor for augmentation sphere                          
   RDEP   =    2.338    radius for radial grids                                 
   RDEPT  =    1.798    core radius for aug-charge                              
                                                                                
   Atomic configuration                                                         
    8 entries                                                                   
     n  l   j            E        occ.                                          
     1  0  0.50     -6424.8287   2.0000                                         
     2  0  0.50      -739.1154   2.0000                                         
     2  1  1.50      -625.3949   6.0000                                         
     3  0  0.50       -81.6100   2.0000                                         
     3  1  1.50       -50.4667   6.0000                                         
     3  2  2.50        -3.3745   6.0000                                         
     4  0  0.50        -4.1331   1.0000                                         
     4  3  2.50        -1.3606   0.0000                                         
   Description                                                                  
     l       E           TYP  RCUT    TYP  RCUT                                 
     1    -50.4666628     23  2.000                                             
     1     -1.3605826     23  2.000                                             
     2     -3.3744729     23  2.300                                             
     2     -4.7350555     23  2.300                                             
     0     -4.1331431     23  2.300                                             
     0      7.6656591     23  2.300                                             
     3      9.5240782     23  2.300                                             
  local pseudopotential read in
  partial core-charges read in
  partial kinetic energy density read in
  atomic valenz-charges read in
  non local Contribution for L=           1  read in
    real space projection operators read in
  non local Contribution for L=           1  read in
    real space projection operators read in
  non local Contribution for L=           2  read in
    real space projection operators read in
  non local Contribution for L=           2  read in
    real space projection operators read in
  non local Contribution for L=           0  read in
    real space projection operators read in
  non local Contribution for L=           0  read in
    real space projection operators read in
    PAW grid and wavefunctions read in
 
   number of l-projection  operators is LMAX  =           6
   number of lm-projection operators is LMMAX =          18
 
 POTCAR:    PAW_PBE F 08Apr2002                   
   VRHFIN =F: s2p5                                                              
   LEXCH  = PE                                                                  
   EATOM  =   659.6475 eV,   48.4827 Ry                                         
                                                                                
   TITEL  = PAW_PBE F 08Apr2002                                                 
   LULTRA =        F    use ultrasoft PP ?                                      
   IUNSCR =        1    unscreen: 0-lin 1-nonlin 2-no                           
   RPACOR =    1.200    partial core radius                                     
   POMASS =   18.998; ZVAL   =    7.000    mass and valenz                      
   RCORE  =    1.520    outmost cutoff radius                                   
   RWIGS  =    1.500; RWIGS  =    0.794    wigner-seitz radius (au A)           
   ENMAX  =  400.000; ENMIN  =  300.000 eV                                      
   ICORE  =        2    local potential                                         
   LCOR   =        T    correct aug charges                                     
   LPAW   =        T    paw PP                                                  
   EAUG   =  613.614                                                            
   RMAX   =    1.555    core radius for proj-oper                               
   RAUG   =    1.300    factor for augmentation sphere                          
   RDEP   =    1.539    radius for radial grids                                 
   RDEPT  =    1.299    core radius for aug-charge                              
                                                                                
   Atomic configuration                                                         
    4 entries                                                                   
     n  l   j            E        occ.                                          
     1  0  0.50      -663.3661   2.0000                                         
     2  0  0.50       -29.8995   2.0000                                         
     2  1  0.50       -11.1114   5.0000                                         
     3  2  1.50       -10.8847   0.0000                                         
   Description                                                                  
     l       E           TYP  RCUT    TYP  RCUT                                 
     0    -29.8995018     23  1.200                                             
     0     -9.5240782     23  1.200                                             
     1    -11.1113914     23  1.520                                             
     1      1.3605826     23  1.520                                             
     2    -10.8846608      7  1.500                                             
  local pseudopotential read in
  partial core-charges read in
  partial kinetic energy density read in
  atomic valenz-charges read in
  non local Contribution for L=           0  read in
    real space projection operators read in
  non local Contribution for L=           0  read in
    real space projection operators read in
  non local Contribution for L=           1  read in
    real space projection operators read in
  non local Contribution for L=           1  read in
    real space projection operators read in
    PAW grid and wavefunctions read in
 
   number of l-projection  operators is LMAX  =           4
   number of lm-projection operators is LMMAX =           8
 
  PAW_PBE Mn_pv 02Aug2007               :
 energy of atom  1       EATOM=-2025.2664
 kinetic energy error for atom=    0.0284 (will be added to EATOM!!)
  PAW_PBE F 08Apr2002                   :
 energy of atom  2       EATOM= -659.6475
 kinetic energy error for atom=    0.1978 (will be added to EATOM!!)
 
 
 POSCAR: Mn  F                                   
  positions in cartesian coordinates
  No initial velocities read in

 METAGGA = SCAN     LMAXTAU =  6    LMIXTAU =  F

 exchange correlation table for  LEXCH =        8
   RHO(1)=    0.500       N(1)  =     2000
   RHO(2)=  100.500       N(2)  =     4000
 


--------------------------------------------------------------------------------------------------------


 ion  position               nearest neighbor table
   1  0.500  0.500  0.500-   3 2.03   4 2.03   5 2.09   6 2.09   5 2.09   6 2.09
   2  0.000  0.000  0.000-   5 2.03   6 2.03   3 2.09   4 2.09   3 2.09   4 2.09
   3  0.197  0.803  0.500-   1 2.03   2 2.09   2 2.09
   4  0.803  0.197  0.500-   1 2.03   2 2.09   2 2.09
   5  0.303  0.303  0.000-   2 2.03   1 2.09   1 2.09
   6  0.697  0.697  0.000-   2 2.03   1 2.09   1 2.09
 
  LATTYP: Found a simple tetragonal cell.
 ALAT       =     4.7412509556
 C/A-ratio  =     0.6813946527
  
  Lattice vectors:
  
 A1 = (   4.7412509556,   0.0000000000,   0.0000000000)
 A2 = (   0.0000000000,   4.7412509556,   0.0000000000)
 A3 = (   0.0000000000,   0.0000000000,   3.2306630482)


Analysis of symmetry for initial positions (statically):
=====================================================================
 Subroutine PRICEL returns:
 Original cell was already a primitive cell.
 

 Routine SETGRP: Setting up the symmetry group for a 
 simple tetragonal supercell.


 Subroutine GETGRP returns: Found 16 space group operations
 (whereof  8 operations were pure point group operations)
 out of a pool of 16 trial point group operations.


The static configuration has the point symmetry D_2h.
 The point group associated with its full space group is D_4h.


Analysis of symmetry for dynamics (positions and initial velocities):
=====================================================================
 Subroutine PRICEL returns:
 Original cell was already a primitive cell.
 

 Routine SETGRP: Setting up the symmetry group for a 
 simple tetragonal supercell.


 Subroutine GETGRP returns: Found 16 space group operations
 (whereof  8 operations were pure point group operations)
 out of a pool of 16 trial point group operations.


The dynamic configuration has the point symmetry D_2h.
 The point group associated with its full space group is D_4h.


Analysis of structural, dynamic, and magnetic symmetry:
=====================================================================
 Subroutine PRICEL returns:
 Original cell was already a primitive cell.
 

 Routine SETGRP: Setting up the symmetry group for a 
 simple tetragonal supercell.


 Subroutine GETGRP returns: Found 16 space group operations
 (whereof  8 operations were pure point group operations)
 out of a pool of 16 trial point group operations.


The magnetic configuration has the point symmetry D_2h.
 The point group associated with its full space group is D_4h.


 Subroutine INISYM returns: Found 16 space group operations
 (whereof  8 operations are pure point group operations),
 and found     1 'primitive' translations

 
 
 KPOINTS: KPOINTS created by Atomic Simulation Env

Automatic generation of k-mesh.
Space group operators:
 irot       det(A)        alpha          n_x          n_y          n_z        tau_x        tau_y        tau_z
    1     1.000000     0.000001     1.000000     0.000000     0.000000     0.000000     0.000000     0.000000
    2    -1.000000     0.000001     1.000000     0.000000     0.000000     0.000000     0.000000     0.000000
    3     1.000000   180.000000     0.000000     0.000000     1.000000     0.000000     0.000000     0.000000
    4    -1.000000   180.000000     0.000000     0.000000     1.000000     0.000000     0.000000     0.000000
    5     1.000000   180.000000     0.707107     0.707107     0.000000     0.000000     0.000000     0.000000
    6    -1.000000   180.000000     0.707107     0.707107     0.000000     0.000000     0.000000     0.000000
    7     1.000000   180.000000     0.707107    -0.707107     0.000000     0.000000     0.000000     0.000000
    8    -1.000000   180.000000     0.707107    -0.707107     0.000000     0.000000     0.000000     0.000000
    9     1.000000    90.000000     0.000000     0.000000    -1.000000     0.500000     0.500000     0.500000
   10    -1.000000    90.000000     0.000000     0.000000    -1.000000     0.500000     0.500000     0.500000
   11     1.000000    90.000000     0.000000     0.000000     1.000000     0.500000     0.500000     0.500000
   12    -1.000000    90.000000     0.000000     0.000000     1.000000     0.500000     0.500000     0.500000
   13     1.000000   180.000000     0.000000     1.000000     0.000000     0.500000     0.500000     0.500000
   14    -1.000000   180.000000     0.000000     1.000000     0.000000     0.500000     0.500000     0.500000
   15     1.000000   180.000000     1.000000     0.000000     0.000000     0.500000     0.500000     0.500000
   16    -1.000000   180.000000     1.000000     0.000000     0.000000     0.500000     0.500000     0.500000
 
 Subroutine IBZKPT returns following result:
 ===========================================
 
 Found      9 irreducible k-points:
 
 Following reciprocal coordinates:
            Coordinates               Weight
  0.125000  0.125000  0.083333      8.000000
  0.375000  0.125000  0.083333     16.000000
  0.375000  0.375000  0.083333      8.000000
  0.125000  0.125000  0.250000      8.000000
  0.375000  0.125000  0.250000     16.000000
  0.375000  0.375000  0.250000      8.000000
  0.125000  0.125000  0.416667      8.000000
  0.375000  0.125000  0.416667     16.000000
  0.375000  0.375000  0.416667      8.000000
 
 Following cartesian coordinates:
            Coordinates               Weight
  0.026364  0.026364  0.025794      8.000000
  0.079093  0.026364  0.025794     16.000000
  0.079093  0.079093  0.025794      8.000000
  0.026364  0.026364  0.077383      8.000000
  0.079093  0.026364  0.077383     16.000000
  0.079093  0.079093  0.077383      8.000000
  0.026364  0.026364  0.128972      8.000000
  0.079093  0.026364  0.128972     16.000000
  0.079093  0.079093  0.128972      8.000000
 
 TETIRR: Found    106 inequivalent tetrahedra from      576


--------------------------------------------------------------------------------------------------------




 Dimension of arrays:
   k-points           NKPTS =      9   k-points in BZ     NKDIM =      9   number of bands    NBANDS=     36
   number of dos      NEDOS =    301   number of ions     NIONS =      6
   non local maximal  LDIM  =      6   non local SUM 2l+1 LMDIM =     18
   total plane-waves  NPLWV =   9216
   max r-space proj   IRMAX =      1   max aug-charges    IRDMAX=  31000
   dimension x,y,z NGX =    24 NGY =   24 NGZ =   16
   dimension x,y,z NGXF=    48 NGYF=   48 NGZF=   32
   support grid    NGXF=    96 NGYF=   96 NGZF=   64
   ions per type =               2   4
   NGX,Y,Z   is equivalent  to a cutoff of   8.42,  8.42,  8.23 a.u.
   NGXF,Y,Z  is equivalent  to a cutoff of  16.83, 16.83, 16.47 a.u.

 SYSTEM =  unknown system                          
 POSCAR =  Mn  F                                   

 Startparameter for this run:
   NWRITE =      2    write-flag & timer
   PREC   = normal    normal or accurate (medium, high low for compatibility)
   ISTART =      0    job   : 0-new  1-cont  2-samecut
   ICHARG =      2    charge: 1-file 2-atom 10-const
   ISPIN  =      2    spin polarized calculation?
   LNONCOLLINEAR =      F non collinear calculations
   LSORBIT =      F    spin-orbit coupling
   INIWAV =      1    electr: 0-lowe 1-rand  2-diag
   LASPH  =      T    aspherical Exc in radial PAW
   METAGGA=      F    non-selfconsistent MetaGGA calc.

 Electronic Relaxation 1
   ENCUT  =  400.0 eV  29.40 Ry    5.42 a.u.   7.73  7.73  5.27*2*pi/ulx,y,z
   ENINI  =  400.0     initial cutoff
   ENAUG  =  613.6 eV  augmentation charge cutoff
   NELM   =     60;   NELMIN=  2; NELMDL= -5     # of ELM steps 
   EDIFF  = 0.1E-06   stopping-criterion for ELM
   LREAL  =      F    real-space projection
   NLSPLINE    = F    spline interpolate recip. space projectors
   LCOMPAT=      F    compatible to vasp.4.4
   GGA_COMPAT  = T    GGA compatible to vasp.4.4-vasp.4.6
   LMAXPAW     = -100 max onsite density
   LMAXMIX     =    4 max onsite mixed and CHGCAR
   VOSKOWN=      0    Vosko Wilk Nusair interpolation
   ROPT   =    0.00000   0.00000
 Ionic relaxation
   EDIFFG = -.5E-02   stopping-criterion for IOM
   NSW    =     50    number of steps for IOM
   NBLOCK =      1;   KBLOCK =     50    inner block; outer block 
   IBRION =      2    ionic relax: 0-MD 1-quasi-New 2-CG
   NFREE  =      1    steps in history (QN), initial steepest desc. (CG)
   ISIF   =      3    stress and relaxation
   IWAVPR =     11    prediction:  0-non 1-charg 2-wave 3-comb
   ISYM   =      2    0-nonsym 1-usesym 2-fastsym
   LCORR  =      T    Harris-Foulkes like correction to forces

   POTIM  = 0.5000    time-step for ionic-motion
   TEIN   =    0.0    initial temperature
   TEBEG  =    0.0;   TEEND  =   0.0 temperature during run
   SMASS  =  -3.00    Nose mass-parameter (am)
   estimated Nose-frequenzy (Omega)   =  0.10E-29 period in steps =****** mass=  -0.514E-27a.u.
   SCALEE = 1.0000    scale energy and forces
   NPACO  =    256;   APACO  = 16.0  distance and # of slots for P.C.
   PSTRESS=    0.0 pullay stress

  Mass of Ions in am
   POMASS =  54.94 19.00
  Ionic Valenz
   ZVAL   =  13.00  7.00
  Atomic Wigner-Seitz radii
   RWIGS  =  -1.00 -1.00
  virtual crystal weights 
   VCA    =   1.00  1.00
   NELECT =      54.0000    total number of electrons
   NUPDOWN=      -1.0000    fix difference up-down

 DOS related values:
   EMIN   =  10.00;   EMAX   =-10.00  energy-range for DOS
   EFERMI =   0.00
   ISMEAR =    -5;   SIGMA  =   0.20  broadening in eV -4-tet -1-fermi 0-gaus

 Electronic relaxation 2 (details)
   IALGO  =     38    algorithm
   LDIAG  =      T    sub-space diagonalisation (order eigenvalues)
   LSUBROT=      F    optimize rotation matrix (better conditioning)
   TURBO    =      0    0=normal 1=particle mesh
   IRESTART =      0    0=no restart 2=restart with 2 vectors
   NREBOOT  =      0    no. of reboots
   NMIN     =      0    reboot dimension
   EREF     =   0.00    reference energy to select bands
   IMIX   =      4    mixing-type and parameters
     AMIX     =   0.40;   BMIX     =  1.00
     AMIX_MAG =   1.60;   BMIX_MAG =  1.00
     AMIN     =   0.10
     WC   =   100.;   INIMIX=   1;  MIXPRE=   1;  MAXMIX= -45

 Intra band minimization:
   WEIMIN = 0.0010     energy-eigenvalue tresh-hold
   EBREAK =  0.69E-09  absolut break condition
   DEPER  =   0.30     relativ break condition  

   TIME   =   0.40     timestep for ELM

  volume/ion in A,a.u.               =      12.10        81.68
  Fermi-wavevector in a.u.,A,eV,Ry     =   1.483133  2.802716 29.928530  2.199685
  Thomas-Fermi vector in A             =   2.596833
 
 Write flags
   LWAVE        =      F    write WAVECAR
   LDOWNSAMPLE  =      F    k-point downsampling of WAVECAR
   LCHARG       =      F    write CHGCAR
   LVTOT        =      F    write LOCPOT, total local potential
   LVHAR        =      F    write LOCPOT, Hartree potential only
   LELF         =      F    write electronic localiz. function (ELF)
   LORBIT       =     11    0 simple, 1 ext, 2 COOP (PROOUT), +10 PAW based schemes


 Dipole corrections
   LMONO  =      F    monopole corrections only (constant potential shift)
   LDIPOL =      F    correct potential (dipole corrections)
   IDIPOL =      0    1-x, 2-y, 3-z, 4-all directions 
   EPSILON=  1.0000000 bulk dielectric constant

 LDA+U is selected, type is set to LDAUTYPE =  2
   angular momentum for each species LDAUL =     2   -1
   U (eV)           for each species LDAUU =   0.0  0.0
   J (eV)           for each species LDAUJ =   0.0  0.0
 Exchange correlation treatment:
   GGA     =    --    GGA type
   LEXCH   =     8    internal setting for exchange type
   VOSKOWN=      0    Vosko Wilk Nusair interpolation
   LHFCALC =     F    Hartree Fock is set to
   LHFONE  =     F    Hartree Fock one center treatment
   AEXX    =    0.0000 exact exchange contribution

 Linear response parameters
   LEPSILON=     F    determine dielectric tensor
   LRPA    =     F    only Hartree local field effects (RPA)
   LNABLA  =     F    use nabla operator in PAW spheres
   LVEL    =     F    velocity operator in full k-point grid
   LINTERFAST=   F  fast interpolation
   KINTER  =     0    interpolate to denser k-point grid
   CSHIFT  =0.1000    complex shift for real part using Kramers Kronig
   OMEGAMAX=  -1.0    maximum frequency
   DEG_THRESHOLD= 0.2000000E-02 threshold for treating states as degnerate
   RTIME   =   -0.100 relaxation time in fs
  (WPLASMAI=    0.000 imaginary part of plasma frequency in eV, 0.658/RTIME)
   DFIELD  = 0.0000000 0.0000000 0.0000000 field for delta impulse in time
 
 Orbital magnetization related:
   ORBITALMAG=     F  switch on orbital magnetization
   LCHIMAG   =     F  perturbation theory with respect to B field
   DQ        =  0.001000  dq finite difference perturbation B field
   LLRAUG    =     F  two centre corrections for induced B field



--------------------------------------------------------------------------------------------------------


 conjugate gradient relaxation of ions
 charge density and potential will be updated during run
 spin polarized calculation
 Variant of blocked Davidson
 Davidson routine will perform the subspace rotation
 perform sub-space diagonalisation
    after iterative eigenvector-optimisation
 modified Broyden-mixing scheme, WC =      100.0
 initial mixing is a Kerker type mixing with AMIX =  0.4000 and BMIX =      1.0000
 Hartree-type preconditioning will be used
 using additional bands            9
 reciprocal scheme for non local part
 use partial core corrections
 calculate Harris-corrections to forces 
   (improved forces if not selfconsistent)
 use gradient corrections 
 use of overlap-Matrix (Vanderbilt PP)
 Fermi weights with tetrahedron method with Bloechl corrections


--------------------------------------------------------------------------------------------------------


  energy-cutoff  :      400.00
  volume of cell :       72.62
      direct lattice vectors                 reciprocal lattice vectors
     4.741250956  0.000000000  0.000000000     0.210914801  0.000000000  0.000000000
     0.000000000  4.741250956  0.000000000     0.000000000  0.210914801  0.000000000
     0.000000000  0.000000000  3.230663048     0.000000000  0.000000000  0.309533983

  length of vectors
     4.741250956  4.741250956  3.230663048     0.210914801  0.210914801  0.309533983


 
 k-points in units of 2pi/SCALE and weight: KPOINTS created by Atomic Simulation Env
   0.02636435  0.02636435  0.02579450       0.083
   0.07909305  0.02636435  0.02579450       0.167
   0.07909305  0.07909305  0.02579450       0.083
   0.02636435  0.02636435  0.07738350       0.083
   0.07909305  0.02636435  0.07738350       0.167
   0.07909305  0.07909305  0.07738350       0.083
   0.02636435  0.02636435  0.12897249       0.083
   0.07909305  0.02636435  0.12897249       0.167
   0.07909305  0.07909305  0.12897249       0.083
 
 k-points in reciprocal lattice and weights: KPOINTS created by Atomic Simulation Env
   0.12500000  0.12500000  0.08333333       0.083
   0.37500000  0.12500000  0.08333333       0.167
   0.37500000  0.37500000  0.08333333       0.083
   0.12500000  0.12500000  0.25000000       0.083
   0.37500000  0.12500000  0.25000000       0.167
   0.37500000  0.37500000  0.25000000       0.083
   0.12500000  0.12500000  0.41666667       0.083
   0.37500000  0.12500000  0.41666667       0.167
   0.37500000  0.37500000  0.41666667       0.083
 
 position of ions in fractional coordinates (direct lattice) 
   0.50000000  0.50000000  0.50000000
   0.00000000  0.00000000  0.00000000
   0.19695738  0.80304262  0.50000000
   0.80304262  0.19695738  0.50000000
   0.30304262  0.30304262  0.00000000
   0.69695738  0.69695738  0.00000000
 
 position of ions in cartesian coordinates  (Angst):
   2.37062548  2.37062548  1.61533152
   0.00000000  0.00000000  0.00000000
   0.93382436  3.80742660  1.61533152
   3.80742660  0.93382436  1.61533152
   1.43680112  1.43680112  0.00000000
   3.30444984  3.30444984  0.00000000
 


--------------------------------------------------------------------------------------------------------


 k-point  1 :   0.1250 0.1250 0.0833  plane waves:    1318
 k-point  2 :   0.3750 0.1250 0.0833  plane waves:    1327
 k-point  3 :   0.3750 0.3750 0.0833  plane waves:    1314
 k-point  4 :   0.1250 0.1250 0.2500  plane waves:    1322
 k-point  5 :   0.3750 0.1250 0.2500  plane waves:    1318
 k-point  6 :   0.3750 0.3750 0.2500  plane waves:    1309
 k-point  7 :   0.1250 0.1250 0.4167  plane waves:    1314
 k-point  8 :   0.3750 0.1250 0.4167  plane waves:    1325
 k-point  9 :   0.3750 0.3750 0.4167  plane waves:    1324

 maximum and minimum number of plane-waves per node :      1327     1309

 maximum number of plane-waves:      1327
 maximum index in each direction: 
   IXMAX=    7   IYMAX=    7   IZMAX=    5
   IXMIN=   -8   IYMIN=   -8   IZMIN=   -5


 serial   3D FFT for wavefunctions
 parallel 3D FFT for charge:
    minimum data exchange during FFTs selected (reduces bandwidth)


 total amount of memory used by VASP MPI-rank0    37910. kBytes
=======================================================================

   base      :      30000. kBytes
   nonl-proj :       3580. kBytes
   fftplans  :        966. kBytes
   grid      :       1965. kBytes
   one-center:        186. kBytes
   wavefun   :       1213. kBytes
 
     INWAV:  cpu time    0.0000: real time    0.0000
 Broyden mixing: mesh for mixing (old mesh)
   NGX = 15   NGY = 15   NGZ = 11
  (NGX  = 48   NGY  = 48   NGZ  = 32)
  gives a total of   2475 points

 initial charge density was supplied:
 charge density of overlapping atoms calculated
 number of electron      54.0000000 magnetization       0.0000000
 keeping initial charge density in first step


--------------------------------------------------------------------------------------------------------


 Maximum index for augmentation-charges         2589 (set IRDMAX)


--------------------------------------------------------------------------------------------------------


 First call to EWALD:  gamma=   0.425
 Maximum number of real-space cells 2x 2x 3
 Maximum number of reciprocal cells 3x 3x 2

    FEWALD:  cpu time    0.0010: real time    0.0010


--------------------------------------- Iteration      1(   1)  ---------------------------------------


    POTLOK:  cpu time    0.0186: real time    0.0186
    SETDIJ:  cpu time    0.7715: real time    0.7715
atom =   1  type =  1  l = 2
 
 onsite density matrix
 
spin component  1
 
  0.2835  0.0000  0.0000  0.0000  0.0000
  0.0000  0.2835  0.0000  0.0000  0.0000
  0.0000  0.0000  0.2835  0.0000  0.0000
  0.0000  0.0000  0.0000  0.2835  0.0000
  0.0000  0.0000  0.0000  0.0000  0.2835
 
spin component  2
 
  0.7694  0.0000  0.0000  0.0000  0.0000
  0.0000  0.7694  0.0000  0.0000  0.0000
  0.0000  0.0000  0.7694  0.0000  0.0000
  0.0000  0.0000  0.0000  0.7694  0.0000
  0.0000  0.0000  0.0000  0.0000  0.7694
 
 occupancies and eigenvectors
 
  o =  0.2835  v =  1.0000  0.0000  0.0000  0.0000  0.0000  0.0000  0.0000  0.0000  0.0000  0.0000      0.0000  0.0000  0.0000  0.0000  0.0000  0.0000  0.0000  0.0000  0.0000  0.0000
  o =  0.2835  v =  0.0000  1.0000  0.0000  0.0000  0.0000  0.0000  0.0000  0.0000  0.0000  0.0000      0.0000  0.0000  0.0000  0.0000  0.0000  0.0000  0.0000  0.0000  0.0000  0.0000
  o =  0.2835  v =  0.0000  0.0000  1.0000  0.0000  0.0000  0.0000  0.0000  0.0000  0.0000  0.0000      0.0000  0.0000  0.0000  0.0000  0.0000  0.0000  0.0000  0.0000  0.0000  0.0000
  o =  0.2835  v =  0.0000  0.0000  0.0000  1.0000  0.0000  0.0000  0.0000  0.0000  0.0000  0.0000      0.0000  0.0000  0.0000  0.0000  0.0000  0.0000  0.0000  0.0000  0.0000  0.0000
  o =  0.2835  v =  0.0000  0.0000  0.0000  0.0000  1.0000  0.0000  0.0000  0.0000  0.0000  0.0000      0.0000  0.0000  0.0000  0.0000  0.0000  0.0000  0.0000  0.0000  0.0000  0.0000
  o =  0.7694  v =  0.0000  0.0000  0.0000  0.0000  0.0000  1.0000  0.0000  0.0000  0.0000  0.0000      0.0000  0.0000  0.0000  0.0000  0.0000  0.0000  0.0000  0.0000  0.0000  0.0000
  o =  0.7694  v =  0.0000  0.0000  0.0000  0.0000  0.0000  0.0000  1.0000  0.0000  0.0000  0.0000      0.0000  0.0000  0.0000  0.0000  0.0000  0.0000  0.0000  0.0000  0.0000  0.0000
  o =  0.7694  v =  0.0000  0.0000  0.0000  0.0000  0.0000  0.0000  0.0000  1.0000  0.0000  0.0000      0.0000  0.0000  0.0000  0.0000  0.0000  0.0000  0.0000  0.0000  0.0000  0.0000
  o =  0.7694  v =  0.0000  0.0000  0.0000  0.0000  0.0000  0.0000  0.0000  0.0000  1.0000  0.0000      0.0000  0.0000  0.0000  0.0000  0.0000  0.0000  0.0000  0.0000  0.0000  0.0000
  o =  0.7694  v =  0.0000  0.0000  0.0000  0.0000  0.0000  0.0000  0.0000  0.0000  0.0000  1.0000      0.0000  0.0000  0.0000  0.0000  0.0000  0.0000  0.0000  0.0000  0.0000  0.0000
atom =   2  type =  1  l = 2
 
 onsite density matrix
 
spin component  1
 
  0.7694  0.0000  0.0000  0.0000  0.0000
  0.0000  0.7694  0.0000  0.0000  0.0000
  0.0000  0.0000  0.7694  0.0000  0.0000
  0.0000  0.0000  0.0000  0.7694  0.0000
  0.0000  0.0000  0.0000  0.0000  0.7694
 
spin component  2
 
  0.2835  0.0000  0.0000  0.0000  0.0000
  0.0000  0.2835  0.0000  0.0000  0.0000
  0.0000  0.0000  0.2835  0.0000  0.0000
  0.0000  0.0000  0.0000  0.2835  0.0000
  0.0000  0.0000  0.0000  0.0000  0.2835
 
 occupancies and eigenvectors
 
  o =  0.2835  v =  0.0000  0.0000  0.0000  0.0000  0.0000  1.0000  0.0000  0.0000  0.0000  0.0000      0.0000  0.0000  0.0000  0.0000  0.0000  0.0000  0.0000  0.0000  0.0000  0.0000
  o =  0.2835  v =  0.0000  0.0000  0.0000  0.0000  0.0000  0.0000  1.0000  0.0000  0.0000  0.0000      0.0000  0.0000  0.0000  0.0000  0.0000  0.0000  0.0000  0.0000  0.0000  0.0000
  o =  0.2835  v =  0.0000  0.0000  0.0000  0.0000  0.0000  0.0000  0.0000  1.0000  0.0000  0.0000      0.0000  0.0000  0.0000  0.0000  0.0000  0.0000  0.0000  0.0000  0.0000  0.0000
  o =  0.2835  v =  0.0000  0.0000  0.0000  0.0000  0.0000  0.0000  0.0000  0.0000  1.0000  0.0000      0.0000  0.0000  0.0000  0.0000  0.0000  0.0000  0.0000  0.0000  0.0000  0.0000
  o =  0.2835  v =  0.0000  0.0000  0.0000  0.0000  0.0000  0.0000  0.0000  0.0000  0.0000  1.0000      0.0000  0.0000  0.0000  0.0000  0.0000  0.0000  0.0000  0.0000  0.0000  0.0000
  o =  0.7694  v =  1.0000  0.0000  0.0000  0.0000  0.0000  0.0000  0.0000  0.0000  0.0000  0.0000      0.0000  0.0000  0.0000  0.0000  0.0000  0.0000  0.0000  0.0000  0.0000  0.0000
  o =  0.7694  v =  0.0000  1.0000  0.0000  0.0000  0.0000  0.0000  0.0000  0.0000  0.0000  0.0000      0.0000  0.0000  0.0000  0.0000  0.0000  0.0000  0.0000  0.0000  0.0000  0.0000
  o =  0.7694  v =  0.0000  0.0000  1.0000  0.0000  0.0000  0.0000  0.0000  0.0000  0.0000  0.0000      0.0000  0.0000  0.0000  0.0000  0.0000  0.0000  0.0000  0.0000  0.0000  0.0000
  o =  0.7694  v =  0.0000  0.0000  0.0000  1.0000  0.0000  0.0000  0.0000  0.0000  0.0000  0.0000      0.0000  0.0000  0.0000  0.0000  0.0000  0.0000  0.0000  0.0000  0.0000  0.0000
  o =  0.7694  v =  0.0000  0.0000  0.0000  0.0000  1.0000  0.0000  0.0000  0.0000  0.0000  0.0000      0.0000  0.0000  0.0000  0.0000  0.0000  0.0000  0.0000  0.0000  0.0000  0.0000
     EDDAV:  cpu time    0.3498: real time    0.3700
 BZINTS: Fermi energy: 23.164695; 54.000000 electrons
         Band energy: 287.085090;  BLOECHL correction: -0.331432
       DOS:  cpu time    0.0062: real time    0.0062
    --------------------------------------------
      LOOP:  cpu time    1.1461: real time    1.1663

 eigenvalue-minimisations  :  1380
 total energy-change (2. order) : 0.8527366E+03  (-0.3100406E+04)
 number of electron      54.0000000 magnetization       0.0000000
 augmentation part       54.0000000 magnetization       0.0000000

 Free energy of the ion-electron system (eV)
  ---------------------------------------------------
  alpha Z        PSCENC =       212.56856789
  Ewald energy   TEWEN  =     -4296.86209297
  -Hartree energ DENC   =     -2072.67422352
  -exchange      EXHF   =         0.00000000
  -V(xc)+E(xc)   XCENC  =        -3.96105361
  PAW double counting   =      5566.43601843    -5528.13058630
  entropy T*S    EENTRO =         0.00000000
  eigenvalues    EBANDS =       287.08509027
  atomic energy  EATOM  =      6688.27483813
  Solvation  Ediel_sol  =         0.00000000
  ---------------------------------------------------
  free energy    TOTEN  =       852.73655833 eV

  energy without entropy =      852.73655833  energy(sigma->0) =      852.73655833


--------------------------------------------------------------------------------------------------------




--------------------------------------- Iteration      1(   2)  ---------------------------------------


     EDDAV:  cpu time    0.3699: real time    0.3699
 BZINTS: Fermi energy: 11.592195; 54.000000 electrons
         Band energy:-177.318090;  BLOECHL correction:  0.000000
       DOS:  cpu time    0.0013: real time    0.0013
    --------------------------------------------
      LOOP:  cpu time    0.3712: real time    0.3712

 eigenvalue-minimisations  :  1500
 total energy-change (2. order) :-0.4644032E+03  (-0.4450162E+03)
 number of electron      54.0000000 magnetization       0.0000000
 augmentation part       54.0000000 magnetization       0.0000000

 Free energy of the ion-electron system (eV)
  ---------------------------------------------------
  alpha Z        PSCENC =       212.56856789
  Ewald energy   TEWEN  =     -4296.86209297
  -Hartree energ DENC   =     -2072.67422352
  -exchange      EXHF   =         0.00000000
  -V(xc)+E(xc)   XCENC  =        -3.96105361
  PAW double counting   =      5566.43601843    -5528.13058630
  entropy T*S    EENTRO =         0.00000000
  eigenvalues    EBANDS =      -177.31808957
  atomic energy  EATOM  =      6688.27483813
  Solvation  Ediel_sol  =         0.00000000
  ---------------------------------------------------
  free energy    TOTEN  =       388.33337849 eV

  energy without entropy =      388.33337849  energy(sigma->0) =      388.33337849


--------------------------------------------------------------------------------------------------------




--------------------------------------- Iteration      1(   3)  ---------------------------------------


     EDDAV:  cpu time    0.3622: real time    0.3622
 BZINTS: Fermi energy: 10.410141; 54.000000 electrons
         Band energy:-202.625055;  BLOECHL correction:  0.000000
       DOS:  cpu time    0.0012: real time    0.0012
    --------------------------------------------
      LOOP:  cpu time    0.3634: real time    0.3634

 eigenvalue-minimisations  :  1464
 total energy-change (2. order) :-0.2530697E+02  (-0.2518360E+02)
 number of electron      54.0000000 magnetization       0.0000000
 augmentation part       54.0000000 magnetization       0.0000000

 Free energy of the ion-electron system (eV)
  ---------------------------------------------------
  alpha Z        PSCENC =       212.56856789
  Ewald energy   TEWEN  =     -4296.86209297
  -Hartree energ DENC   =     -2072.67422352
  -exchange      EXHF   =         0.00000000
  -V(xc)+E(xc)   XCENC  =        -3.96105361
  PAW double counting   =      5566.43601843    -5528.13058630
  entropy T*S    EENTRO =         0.00000000
  eigenvalues    EBANDS =      -202.62505545
  atomic energy  EATOM  =      6688.27483813
  Solvation  Ediel_sol  =         0.00000000
  ---------------------------------------------------
  free energy    TOTEN  =       363.02641260 eV

  energy without entropy =      363.02641260  energy(sigma->0) =      363.02641260


--------------------------------------------------------------------------------------------------------




--------------------------------------- Iteration      1(   4)  ---------------------------------------


     EDDAV:  cpu time    0.3820: real time    0.3820
 BZINTS: Fermi energy: 10.440538; 54.000000 electrons
         Band energy:-202.872835;  BLOECHL correction:  0.000000
       DOS:  cpu time    0.0011: real time    0.0011
    --------------------------------------------
      LOOP:  cpu time    0.3831: real time    0.3831

 eigenvalue-minimisations  :  1572
 total energy-change (2. order) :-0.2477794E+00  (-0.2476646E+00)
 number of electron      54.0000000 magnetization       0.0000000
 augmentation part       54.0000000 magnetization       0.0000000

 Free energy of the ion-electron system (eV)
  ---------------------------------------------------
  alpha Z        PSCENC =       212.56856789
  Ewald energy   TEWEN  =     -4296.86209297
  -Hartree energ DENC   =     -2072.67422352
  -exchange      EXHF   =         0.00000000
  -V(xc)+E(xc)   XCENC  =        -3.96105361
  PAW double counting   =      5566.43601843    -5528.13058630
  entropy T*S    EENTRO =         0.00000000
  eigenvalues    EBANDS =      -202.87283486
  atomic energy  EATOM  =      6688.27483813
  Solvation  Ediel_sol  =         0.00000000
  ---------------------------------------------------
  free energy    TOTEN  =       362.77863320 eV

  energy without entropy =      362.77863320  energy(sigma->0) =      362.77863320


--------------------------------------------------------------------------------------------------------




--------------------------------------- Iteration      1(   5)  ---------------------------------------


     EDDAV:  cpu time    0.3629: real time    0.3629
 BZINTS: Fermi energy: 10.431003; 54.000000 electrons
         Band energy:-202.877066;  BLOECHL correction:  0.000000
       DOS:  cpu time    0.0012: real time    0.0012
    CHARGE:  cpu time    0.0679: real time    0.0679
    MIXING:  cpu time    0.0003: real time    0.0003
    --------------------------------------------
      LOOP:  cpu time    0.4324: real time    0.4324

 eigenvalue-minimisations  :  1464
 total energy-change (2. order) :-0.4231374E-02  (-0.4231314E-02)
 number of electron      54.0000022 magnetization      -0.0000000
 augmentation part       22.5030189 magnetization      -0.0000000

 Broyden mixing:
  rms(total) = 0.61276E+01    rms(broyden)= 0.61260E+01
  rms(prec ) = 0.63613E+01
  weight for this iteration     100.00

 Free energy of the ion-electron system (eV)
  ---------------------------------------------------
  alpha Z        PSCENC =       212.56856789
  Ewald energy   TEWEN  =     -4296.86209297
  -Hartree energ DENC   =     -2072.67422352
  -exchange      EXHF   =         0.00000000
  -V(xc)+E(xc)   XCENC  =        -3.96105361
  PAW double counting   =      5566.43601843    -5528.13058630
  entropy T*S    EENTRO =         0.00000000
  eigenvalues    EBANDS =      -202.87706623
  atomic energy  EATOM  =      6688.27483813
  Solvation  Ediel_sol  =         0.00000000
  ---------------------------------------------------
  free energy    TOTEN  =       362.77440183 eV

  energy without entropy =      362.77440183  energy(sigma->0) =      362.77440183


--------------------------------------------------------------------------------------------------------




--------------------------------------- Iteration      1(   6)  ---------------------------------------


    POTLOK:  cpu time    0.0164: real time    0.0164
    SETDIJ:  cpu time    0.7846: real time    0.7847
atom =   1  type =  1  l = 2
 
 onsite density matrix
 
spin component  1
 
  0.0449  0.0000  0.0675  0.0000  0.0000
  0.0000  0.0161  0.0000  0.0577  0.0000
  0.0675  0.0000  0.0017  0.0000 -0.0000
  0.0000  0.0577  0.0000  0.0161  0.0000
  0.0000  0.0000 -0.0000  0.0000 -0.0604
 
spin component  2
 
  1.0522  0.0000 -0.0307  0.0000  0.0000
  0.0000  1.0666  0.0000 -0.0262  0.0000
 -0.0307  0.0000  1.0721  0.0000  0.0000
  0.0000 -0.0262  0.0000  1.0666  0.0000
  0.0000  0.0000  0.0000  0.0000  1.1023
 
 occupancies and eigenvectors
 
  o = -0.0604  v =  0.0000  0.0000 -0.0000  0.0000 -1.0000  0.0000  0.0000  0.0000  0.0000  0.0000      0.0000  0.0000  0.0000  0.0000  0.0000  0.0000  0.0000  0.0000  0.0000  0.0000
  o = -0.0475  v = -0.5895  0.0000  0.8078  0.0000 -0.0000  0.0000  0.0000  0.0000  0.0000  0.0000      0.0000  0.0000  0.0000  0.0000  0.0000  0.0000  0.0000  0.0000  0.0000  0.0000
  o = -0.0416  v =  0.0000  0.7071  0.0000 -0.7071  0.0000  0.0000  0.0000  0.0000  0.0000  0.0000      0.0000  0.0000  0.0000  0.0000  0.0000  0.0000  0.0000  0.0000  0.0000  0.0000
  o =  0.0739  v =  0.0000  0.7071  0.0000  0.7071  0.0000  0.0000  0.0000  0.0000  0.0000  0.0000      0.0000  0.0000  0.0000  0.0000  0.0000  0.0000  0.0000  0.0000  0.0000  0.0000
  o =  0.0942  v =  0.8078  0.0000  0.5895  0.0000 -0.0000  0.0000  0.0000  0.0000  0.0000  0.0000      0.0000  0.0000  0.0000  0.0000  0.0000  0.0000  0.0000  0.0000  0.0000  0.0000
  o =  1.0299  v =  0.0000  0.0000  0.0000  0.0000  0.0000  0.8086  0.0000  0.5884  0.0000 -0.0000      0.0000  0.0000  0.0000  0.0000  0.0000  0.0000  0.0000  0.0000  0.0000  0.0000
  o =  1.0404  v =  0.0000  0.0000  0.0000  0.0000  0.0000  0.0000 -0.7071  0.0000 -0.7071 -0.0000      0.0000  0.0000  0.0000  0.0000  0.0000  0.0000  0.0000  0.0000  0.0000  0.0000
  o =  1.0928  v =  0.0000  0.0000  0.0000  0.0000  0.0000  0.0000 -0.7071  0.0000  0.7071 -0.0000      0.0000  0.0000  0.0000  0.0000  0.0000  0.0000  0.0000  0.0000  0.0000  0.0000
  o =  1.0944  v =  0.0000  0.0000  0.0000  0.0000  0.0000  0.5884 -0.0000 -0.8086  0.0000  0.0000      0.0000  0.0000  0.0000  0.0000  0.0000  0.0000  0.0000  0.0000  0.0000  0.0000
  o =  1.1023  v =  0.0000  0.0000  0.0000  0.0000  0.0000  0.0000  0.0000 -0.0000  0.0000 -1.0000      0.0000  0.0000  0.0000  0.0000  0.0000  0.0000  0.0000  0.0000  0.0000  0.0000
atom =   2  type =  1  l = 2
 
 onsite density matrix
 
spin component  1
 
  1.0522  0.0000  0.0307  0.0000 -0.0000
  0.0000  1.0666  0.0000  0.0262  0.0000
  0.0307  0.0000  1.0721  0.0000  0.0000
  0.0000  0.0262  0.0000  1.0666  0.0000
 -0.0000  0.0000  0.0000  0.0000  1.1023
 
spin component  2
 
  0.0449  0.0000 -0.0675  0.0000  0.0000
  0.0000  0.0161  0.0000 -0.0577  0.0000
 -0.0675  0.0000  0.0017  0.0000 -0.0000
  0.0000 -0.0577  0.0000  0.0161  0.0000
  0.0000  0.0000 -0.0000  0.0000 -0.0604
 
 occupancies and eigenvectors
 
  o = -0.0604  v =  0.0000  0.0000  0.0000  0.0000  0.0000  0.0000 -0.0000  0.0000  0.0000  1.0000      0.0000  0.0000  0.0000  0.0000  0.0000  0.0000  0.0000  0.0000  0.0000  0.0000
  o = -0.0475  v =  0.0000  0.0000  0.0000  0.0000  0.0000 -0.5895 -0.0000 -0.8078  0.0000  0.0000      0.0000  0.0000  0.0000  0.0000  0.0000  0.0000  0.0000  0.0000  0.0000  0.0000
  o = -0.0416  v =  0.0000  0.0000  0.0000  0.0000  0.0000  0.0000 -0.7071  0.0000 -0.7071 -0.0000      0.0000  0.0000  0.0000  0.0000  0.0000  0.0000  0.0000  0.0000  0.0000  0.0000
  o =  0.0739  v =  0.0000  0.0000  0.0000  0.0000  0.0000  0.0000  0.7071  0.0000 -0.7071  0.0000      0.0000  0.0000  0.0000  0.0000  0.0000  0.0000  0.0000  0.0000  0.0000  0.0000
  o =  0.0942  v =  0.0000  0.0000  0.0000  0.0000  0.0000  0.8078 -0.0000 -0.5895  0.0000  0.0000      0.0000  0.0000  0.0000  0.0000  0.0000  0.0000  0.0000  0.0000  0.0000  0.0000
  o =  1.0299  v = -0.8086  0.0000  0.5884  0.0000 -0.0000  0.0000  0.0000  0.0000  0.0000  0.0000      0.0000  0.0000  0.0000  0.0000  0.0000  0.0000  0.0000  0.0000  0.0000  0.0000
  o =  1.0404  v =  0.0000  0.7071  0.0000 -0.7071 -0.0000  0.0000  0.0000  0.0000  0.0000  0.0000      0.0000  0.0000  0.0000  0.0000  0.0000  0.0000  0.0000  0.0000  0.0000  0.0000
  o =  1.0928  v =  0.0000 -0.7071  0.0000 -0.7071  0.0000  0.0000  0.0000  0.0000  0.0000  0.0000      0.0000  0.0000  0.0000  0.0000  0.0000  0.0000  0.0000  0.0000  0.0000  0.0000
  o =  1.0944  v = -0.5884  0.0000 -0.8086  0.0000  0.0000  0.0000  0.0000  0.0000  0.0000  0.0000      0.0000  0.0000  0.0000  0.0000  0.0000  0.0000  0.0000  0.0000  0.0000  0.0000
  o =  1.1023  v =  0.0000  0.0000  0.0000  0.0000  1.0000  0.0000  0.0000  0.0000  0.0000  0.0000      0.0000  0.0000  0.0000  0.0000  0.0000  0.0000  0.0000  0.0000  0.0000  0.0000
     EDDAV:  cpu time    0.3789: real time    0.3789
 BZINTS: Fermi energy:  7.781292; 54.000000 electrons
         Band energy:-717.672836;  BLOECHL correction: -0.008434
       DOS:  cpu time    0.0064: real time    0.0064
    CHARGE:  cpu time    0.0708: real time    0.0708
    MIXING:  cpu time    0.0003: real time    0.0003
    --------------------------------------------
      LOOP:  cpu time    1.2576: real time    1.2576

 eigenvalue-minimisations  :  1572
 total energy-change (2. order) :-0.4322628E+03  (-0.2539261E+02)
 number of electron      54.0000020 magnetization      -0.0000000
 augmentation part       19.6857260 magnetization      -0.0000000

 Broyden mixing:
  rms(total) = 0.64443E+01    rms(broyden)= 0.64441E+01
  rms(prec ) = 0.69854E+01
  weight for this iteration     100.00

 eigenvalues of (default mixing * dielectric matrix)
  average eigenvalue GAMMA=   0.4174
  0.4174

 Free energy of the ion-electron system (eV)
  ---------------------------------------------------
  alpha Z        PSCENC =       212.56856789
  Ewald energy   TEWEN  =     -4296.86209297
  -Hartree energ DENC   =     -2133.40669221
  -exchange      EXHF   =         0.00000000
  -V(xc)+E(xc)   XCENC  =       144.41401714
  PAW double counting   =      6547.33835496    -6514.14259068
  entropy T*S    EENTRO =         0.00000000
  eigenvalues    EBANDS =      -717.67283622
  atomic energy  EATOM  =      6688.27483813
  Solvation  Ediel_sol  =         0.00000000
  ---------------------------------------------------
  free energy    TOTEN  =       -69.48843394 eV

  energy without entropy =      -69.48843394  energy(sigma->0) =      -69.48843394


--------------------------------------------------------------------------------------------------------




--------------------------------------- Iteration      1(   7)  ---------------------------------------


    POTLOK:  cpu time    0.0162: real time    0.0162
    SETDIJ:  cpu time    0.7718: real time    0.7718
atom =   1  type =  1  l = 2
 
 onsite density matrix
 
spin component  1
 
  0.0948  0.0000  0.0383  0.0000 -0.0000
  0.0000  0.0608  0.0000  0.0252  0.0000
  0.0383  0.0000  0.0625  0.0000 -0.0000
  0.0000  0.0252  0.0000  0.0608  0.0000
 -0.0000  0.0000 -0.0000  0.0000  0.0240
 
spin component  2
 
  0.9679  0.0000 -0.0054  0.0000  0.0000
  0.0000  1.0006  0.0000  0.0071  0.0000
 -0.0054  0.0000  0.9870  0.0000  0.0000
  0.0000  0.0071  0.0000  1.0006  0.0000
  0.0000  0.0000  0.0000  0.0000  0.9972
 
 occupancies and eigenvectors
 
  o =  0.0240  v =  0.0000 -0.0000 -0.0000  0.0000 -1.0000  0.0000  0.0000  0.0000  0.0000  0.0000      0.0000  0.0000  0.0000  0.0000  0.0000  0.0000  0.0000  0.0000  0.0000  0.0000
  o =  0.0355  v =  0.0000  0.7071  0.0000 -0.7071 -0.0000  0.0000  0.0000  0.0000  0.0000  0.0000      0.0000  0.0000  0.0000  0.0000  0.0000  0.0000  0.0000  0.0000  0.0000  0.0000
  o =  0.0371  v = -0.5529 -0.0000  0.8333  0.0000 -0.0000  0.0000  0.0000  0.0000  0.0000  0.0000      0.0000  0.0000  0.0000  0.0000  0.0000  0.0000  0.0000  0.0000  0.0000  0.0000
  o =  0.0860  v =  0.0000  0.7071  0.0000  0.7071 -0.0000  0.0000  0.0000  0.0000  0.0000  0.0000      0.0000  0.0000  0.0000  0.0000  0.0000  0.0000  0.0000  0.0000  0.0000  0.0000
  o =  0.1202  v = -0.8333  0.0000 -0.5529  0.0000  0.0000  0.0000  0.0000  0.0000  0.0000  0.0000      0.0000  0.0000  0.0000  0.0000  0.0000  0.0000  0.0000  0.0000  0.0000  0.0000
  o =  0.9664  v =  0.0000  0.0000  0.0000  0.0000  0.0000  0.9668 -0.0000  0.2555  0.0000 -0.0000      0.0000  0.0000  0.0000  0.0000  0.0000  0.0000  0.0000  0.0000  0.0000  0.0000
  o =  0.9884  v =  0.0000  0.0000  0.0000  0.0000  0.0000 -0.2555 -0.0000  0.9668  0.0000 -0.0000      0.0000  0.0000  0.0000  0.0000  0.0000  0.0000  0.0000  0.0000  0.0000  0.0000
  o =  0.9935  v =  0.0000  0.0000  0.0000  0.0000  0.0000  0.0000 -0.7071 -0.0000  0.7071 -0.0000      0.0000  0.0000  0.0000  0.0000  0.0000  0.0000  0.0000  0.0000  0.0000  0.0000
  o =  0.9972  v =  0.0000  0.0000  0.0000  0.0000  0.0000 -0.0000 -0.0000  0.0000  0.0000  1.0000      0.0000  0.0000  0.0000  0.0000  0.0000  0.0000  0.0000  0.0000  0.0000  0.0000
  o =  1.0078  v =  0.0000  0.0000  0.0000  0.0000  0.0000  0.0000 -0.7071 -0.0000 -0.7071  0.0000      0.0000  0.0000  0.0000  0.0000  0.0000  0.0000  0.0000  0.0000  0.0000  0.0000
atom =   2  type =  1  l = 2
 
 onsite density matrix
 
spin component  1
 
  0.9679  0.0000  0.0054  0.0000  0.0000
  0.0000  1.0006  0.0000 -0.0071  0.0000
  0.0054  0.0000  0.9870  0.0000  0.0000
  0.0000 -0.0071  0.0000  1.0006  0.0000
  0.0000  0.0000  0.0000  0.0000  0.9972
 
spin component  2
 
  0.0948  0.0000 -0.0383  0.0000 -0.0000
  0.0000  0.0608  0.0000 -0.0252  0.0000
 -0.0383  0.0000  0.0625  0.0000 -0.0000
  0.0000 -0.0252  0.0000  0.0608  0.0000
 -0.0000  0.0000 -0.0000  0.0000  0.0240
 
 occupancies and eigenvectors
 
  o =  0.0240  v =  0.0000  0.0000  0.0000  0.0000  0.0000  0.0000  0.0000  0.0000  0.0000  1.0000      0.0000  0.0000  0.0000  0.0000  0.0000  0.0000  0.0000  0.0000  0.0000  0.0000
  o =  0.0355  v =  0.0000  0.0000  0.0000  0.0000  0.0000  0.0000 -0.7071  0.0000 -0.7071  0.0000      0.0000  0.0000  0.0000  0.0000  0.0000  0.0000  0.0000  0.0000  0.0000  0.0000
  o =  0.0371  v =  0.0000  0.0000  0.0000  0.0000  0.0000 -0.5529  0.0000 -0.8333  0.0000  0.0000      0.0000  0.0000  0.0000  0.0000  0.0000  0.0000  0.0000  0.0000  0.0000  0.0000
  o =  0.0860  v =  0.0000  0.0000  0.0000  0.0000  0.0000  0.0000  0.7071  0.0000 -0.7071 -0.0000      0.0000  0.0000  0.0000  0.0000  0.0000  0.0000  0.0000  0.0000  0.0000  0.0000
  o =  0.1202  v =  0.0000  0.0000  0.0000  0.0000  0.0000 -0.8333 -0.0000  0.5529  0.0000 -0.0000      0.0000  0.0000  0.0000  0.0000  0.0000  0.0000  0.0000  0.0000  0.0000  0.0000
  o =  0.9664  v =  0.9668 -0.0000 -0.2555 -0.0000  0.0000  0.0000  0.0000  0.0000  0.0000  0.0000      0.0000  0.0000  0.0000  0.0000  0.0000  0.0000  0.0000  0.0000  0.0000  0.0000
  o =  0.9884  v = -0.2555 -0.0000 -0.9668 -0.0000  0.0000  0.0000  0.0000  0.0000  0.0000  0.0000      0.0000  0.0000  0.0000  0.0000  0.0000  0.0000  0.0000  0.0000  0.0000  0.0000
  o =  0.9935  v = -0.0000  0.7071 -0.0000  0.7071  0.0000  0.0000  0.0000  0.0000  0.0000  0.0000      0.0000  0.0000  0.0000  0.0000  0.0000  0.0000  0.0000  0.0000  0.0000  0.0000
  o =  0.9972  v =  0.0000  0.0000  0.0000 -0.0000  1.0000  0.0000  0.0000  0.0000  0.0000  0.0000      0.0000  0.0000  0.0000  0.0000  0.0000  0.0000  0.0000  0.0000  0.0000  0.0000
  o =  1.0078  v = -0.0000  0.7071 -0.0000 -0.7071 -0.0000  0.0000  0.0000  0.0000  0.0000  0.0000      0.0000  0.0000  0.0000  0.0000  0.0000  0.0000  0.0000  0.0000  0.0000  0.0000
     EDDAV:  cpu time    0.3446: real time    0.3446
 BZINTS: Fermi energy:  5.785557; 54.000000 electrons
         Band energy:-761.404615;  BLOECHL correction:  0.000000
       DOS:  cpu time    0.0012: real time    0.0012
    CHARGE:  cpu time    0.0658: real time    0.0658
    MIXING:  cpu time    0.0004: real time    0.0004
    --------------------------------------------
      LOOP:  cpu time    1.2000: real time    1.2000

 eigenvalue-minimisations  :  1368
 total energy-change (2. order) :-0.2276782E+01  (-0.5140806E+01)
 number of electron      54.0000020 magnetization      -0.0000000
 augmentation part       19.7440825 magnetization      -0.0000000

 Broyden mixing:
  rms(total) = 0.17394E+01    rms(broyden)= 0.17386E+01
  rms(prec ) = 0.26540E+01
  weight for this iteration     100.00

 eigenvalues of (default mixing * dielectric matrix)
  average eigenvalue GAMMA=   0.6982
  0.6982  0.6982

 Free energy of the ion-electron system (eV)
  ---------------------------------------------------
  alpha Z        PSCENC =       212.56856789
  Ewald energy   TEWEN  =     -4296.86209297
  -Hartree energ DENC   =     -2115.78619777
  -exchange      EXHF   =         0.00000000
  -V(xc)+E(xc)   XCENC  =       168.46419329
  PAW double counting   =      6630.28373821    -6597.30364778
  entropy T*S    EENTRO =         0.00000000
  eigenvalues    EBANDS =      -761.40461519
  atomic energy  EATOM  =      6688.27483813
  Solvation  Ediel_sol  =         0.00000000
  ---------------------------------------------------
  free energy    TOTEN  =       -71.76521618 eV

  energy without entropy =      -71.76521618  energy(sigma->0) =      -71.76521618


--------------------------------------------------------------------------------------------------------




--------------------------------------- Iteration      1(   8)  ---------------------------------------


    POTLOK:  cpu time    0.0162: real time    0.0162
    SETDIJ:  cpu time    0.7722: real time    0.7722
atom =   1  type =  1  l = 2
 
 onsite density matrix
 
spin component  1
 
  0.0513  0.0000  0.0165  0.0000 -0.0000
  0.0000  0.0536  0.0000  0.0201  0.0000
  0.0165  0.0000  0.0464  0.0000  0.0000
  0.0000  0.0201  0.0000  0.0536  0.0000
 -0.0000  0.0000  0.0000  0.0000  0.0277
 
spin component  2
 
  0.9921  0.0000  0.0239  0.0000  0.0000
  0.0000  0.9833  0.0000  0.0143  0.0000
  0.0239  0.0000  0.9796  0.0000  0.0000
  0.0000  0.0143  0.0000  0.9833  0.0000
  0.0000  0.0000  0.0000  0.0000  0.9681
 
 occupancies and eigenvectors
 
  o =  0.0277  v =  0.0000  0.0000 -0.0000  0.0000  1.0000  0.0000  0.0000  0.0000  0.0000  0.0000      0.0000  0.0000  0.0000  0.0000  0.0000  0.0000  0.0000  0.0000  0.0000  0.0000
  o =  0.0322  v = -0.6540  0.0000  0.7565  0.0000  0.0000  0.0000  0.0000  0.0000  0.0000  0.0000      0.0000  0.0000  0.0000  0.0000  0.0000  0.0000  0.0000  0.0000  0.0000  0.0000
  o =  0.0335  v =  0.0000  0.7071  0.0000 -0.7071 -0.0000  0.0000  0.0000  0.0000  0.0000  0.0000      0.0000  0.0000  0.0000  0.0000  0.0000  0.0000  0.0000  0.0000  0.0000  0.0000
  o =  0.0655  v = -0.7565 -0.0000 -0.6540  0.0000 -0.0000  0.0000  0.0000  0.0000  0.0000  0.0000      0.0000  0.0000  0.0000  0.0000  0.0000  0.0000  0.0000  0.0000  0.0000  0.0000
  o =  0.0737  v =  0.0000 -0.7071  0.0000 -0.7071  0.0000  0.0000  0.0000  0.0000  0.0000  0.0000      0.0000  0.0000  0.0000  0.0000  0.0000  0.0000  0.0000  0.0000  0.0000  0.0000
  o =  0.9611  v =  0.0000  0.0000  0.0000  0.0000  0.0000 -0.6114  0.0000  0.7913  0.0000  0.0000      0.0000  0.0000  0.0000  0.0000  0.0000  0.0000  0.0000  0.0000  0.0000  0.0000
  o =  0.9681  v =  0.0000  0.0000  0.0000  0.0000  0.0000  0.0000 -0.0000 -0.0000  0.0000  1.0000      0.0000  0.0000  0.0000  0.0000  0.0000  0.0000  0.0000  0.0000  0.0000  0.0000
  o =  0.9690  v =  0.0000  0.0000  0.0000  0.0000  0.0000  0.0000  0.7071  0.0000 -0.7071  0.0000      0.0000  0.0000  0.0000  0.0000  0.0000  0.0000  0.0000  0.0000  0.0000  0.0000
  o =  0.9976  v =  0.0000  0.0000  0.0000  0.0000  0.0000  0.0000 -0.7071  0.0000 -0.7071 -0.0000      0.0000  0.0000  0.0000  0.0000  0.0000  0.0000  0.0000  0.0000  0.0000  0.0000
  o =  1.0106  v =  0.0000  0.0000  0.0000  0.0000  0.0000 -0.7913  0.0000 -0.6114  0.0000 -0.0000      0.0000  0.0000  0.0000  0.0000  0.0000  0.0000  0.0000  0.0000  0.0000  0.0000
atom =   2  type =  1  l = 2
 
 onsite density matrix
 
spin component  1
 
  0.9921  0.0000 -0.0239  0.0000 -0.0000
  0.0000  0.9833  0.0000 -0.0143  0.0000
 -0.0239  0.0000  0.9796  0.0000  0.0000
  0.0000 -0.0143  0.0000  0.9833  0.0000
 -0.0000  0.0000  0.0000  0.0000  0.9681
 
spin component  2
 
  0.0513  0.0000 -0.0165  0.0000  0.0000
  0.0000  0.0536  0.0000 -0.0201  0.0000
 -0.0165  0.0000  0.0464  0.0000 -0.0000
  0.0000 -0.0201  0.0000  0.0536  0.0000
  0.0000  0.0000 -0.0000  0.0000  0.0277
 
 occupancies and eigenvectors
 
  o =  0.0277  v =  0.0000  0.0000  0.0000  0.0000  0.0000  0.0000 -0.0000  0.0000  0.0000  1.0000      0.0000  0.0000  0.0000  0.0000  0.0000  0.0000  0.0000  0.0000  0.0000  0.0000
  o =  0.0322  v =  0.0000  0.0000  0.0000  0.0000  0.0000 -0.6540 -0.0000 -0.7565  0.0000  0.0000      0.0000  0.0000  0.0000  0.0000  0.0000  0.0000  0.0000  0.0000  0.0000  0.0000
  o =  0.0335  v =  0.0000  0.0000  0.0000  0.0000  0.0000  0.0000 -0.7071  0.0000 -0.7071 -0.0000      0.0000  0.0000  0.0000  0.0000  0.0000  0.0000  0.0000  0.0000  0.0000  0.0000
  o =  0.0655  v =  0.0000  0.0000  0.0000  0.0000  0.0000 -0.7565  0.0000  0.6540  0.0000 -0.0000      0.0000  0.0000  0.0000  0.0000  0.0000  0.0000  0.0000  0.0000  0.0000  0.0000
  o =  0.0737  v =  0.0000  0.0000  0.0000  0.0000  0.0000  0.0000  0.7071  0.0000 -0.7071  0.0000      0.0000  0.0000  0.0000  0.0000  0.0000  0.0000  0.0000  0.0000  0.0000  0.0000
  o =  0.9611  v = -0.6114  0.0000 -0.7913  0.0000 -0.0000  0.0000  0.0000  0.0000  0.0000  0.0000      0.0000  0.0000  0.0000  0.0000  0.0000  0.0000  0.0000  0.0000  0.0000  0.0000
  o =  0.9681  v =  0.0000 -0.0000  0.0000  0.0000 -1.0000  0.0000  0.0000  0.0000  0.0000  0.0000      0.0000  0.0000  0.0000  0.0000  0.0000  0.0000  0.0000  0.0000  0.0000  0.0000
  o =  0.9690  v =  0.0000 -0.7071  0.0000 -0.7071  0.0000  0.0000  0.0000  0.0000  0.0000  0.0000      0.0000  0.0000  0.0000  0.0000  0.0000  0.0000  0.0000  0.0000  0.0000  0.0000
  o =  0.9976  v =  0.0000 -0.7071  0.0000  0.7071  0.0000  0.0000  0.0000  0.0000  0.0000  0.0000      0.0000  0.0000  0.0000  0.0000  0.0000  0.0000  0.0000  0.0000  0.0000  0.0000
  o =  1.0106  v = -0.7913  0.0000  0.6114  0.0000  0.0000  0.0000  0.0000  0.0000  0.0000  0.0000      0.0000  0.0000  0.0000  0.0000  0.0000  0.0000  0.0000  0.0000  0.0000  0.0000
     EDDAV:  cpu time    0.3673: real time    0.3673
 BZINTS: Fermi energy:  4.154898; 54.000000 electrons
         Band energy:-766.210563;  BLOECHL correction:  0.000000
       DOS:  cpu time    0.0013: real time    0.0013
    CHARGE:  cpu time    0.0660: real time    0.0660
    MIXING:  cpu time    0.0004: real time    0.0004
    --------------------------------------------
      LOOP:  cpu time    1.2233: real time    1.2234

 eigenvalue-minimisations  :  1512
 total energy-change (2. order) : 0.3252869E+01  (-0.7502412E+00)
 number of electron      54.0000020 magnetization      -0.0000000
 augmentation part       19.8992749 magnetization      -0.0000000

 Broyden mixing:
  rms(total) = 0.72630E+00    rms(broyden)= 0.72574E+00
  rms(prec ) = 0.10915E+01
  weight for this iteration     100.00

 eigenvalues of (default mixing * dielectric matrix)
  average eigenvalue GAMMA=   0.8201
  1.1653  0.6475  0.6475

 Free energy of the ion-electron system (eV)
  ---------------------------------------------------
  alpha Z        PSCENC =       212.56856789
  Ewald energy   TEWEN  =     -4296.86209297
  -Hartree energ DENC   =     -2112.61605980
  -exchange      EXHF   =         0.00000000
  -V(xc)+E(xc)   XCENC  =       171.38416684
  PAW double counting   =      6568.70456573    -6533.75577026
  entropy T*S    EENTRO =         0.00000000
  eigenvalues    EBANDS =      -766.21056319
  atomic energy  EATOM  =      6688.27483813
  Solvation  Ediel_sol  =         0.00000000
  ---------------------------------------------------
  free energy    TOTEN  =       -68.51234761 eV

  energy without entropy =      -68.51234761  energy(sigma->0) =      -68.51234761


--------------------------------------------------------------------------------------------------------




--------------------------------------- Iteration      1(   9)  ---------------------------------------


    POTLOK:  cpu time    0.0163: real time    0.0163
    SETDIJ:  cpu time    0.7714: real time    0.7714
atom =   1  type =  1  l = 2
 
 onsite density matrix
 
spin component  1
 
  0.0760  0.0000  0.0418  0.0000 -0.0000
  0.0000  0.0521  0.0000  0.0231  0.0000
  0.0418  0.0000  0.0528  0.0000 -0.0000
  0.0000  0.0231  0.0000  0.0521  0.0000
 -0.0000  0.0000 -0.0000  0.0000  0.0232
 
spin component  2
 
  0.9478  0.0000  0.0080  0.0000  0.0000
  0.0000  0.9567  0.0000  0.0153  0.0000
  0.0080  0.0000  0.9454  0.0000  0.0000
  0.0000  0.0153  0.0000  0.9567  0.0000
  0.0000  0.0000  0.0000  0.0000  0.9429
 
 occupancies and eigenvectors
 
  o =  0.0211  v = -0.6052  0.0000  0.7961  0.0000  0.0000  0.0000  0.0000  0.0000  0.0000  0.0000      0.0000  0.0000  0.0000  0.0000  0.0000  0.0000  0.0000  0.0000  0.0000  0.0000
  o =  0.0232  v = -0.0000 -0.0000  0.0000  0.0000 -1.0000  0.0000  0.0000  0.0000  0.0000  0.0000      0.0000  0.0000  0.0000  0.0000  0.0000  0.0000  0.0000  0.0000  0.0000  0.0000
  o =  0.0290  v =  0.0000  0.7071  0.0000 -0.7071 -0.0000  0.0000  0.0000  0.0000  0.0000  0.0000      0.0000  0.0000  0.0000  0.0000  0.0000  0.0000  0.0000  0.0000  0.0000  0.0000
  o =  0.0752  v =  0.0000  0.7071  0.0000  0.7071 -0.0000  0.0000  0.0000  0.0000  0.0000  0.0000      0.0000  0.0000  0.0000  0.0000  0.0000  0.0000  0.0000  0.0000  0.0000  0.0000
  o =  0.1078  v = -0.7961  0.0000 -0.6052  0.0000  0.0000  0.0000  0.0000  0.0000  0.0000  0.0000      0.0000  0.0000  0.0000  0.0000  0.0000  0.0000  0.0000  0.0000  0.0000  0.0000
  o =  0.9386  v =  0.0000  0.0000  0.0000  0.0000  0.0000 -0.6518  0.0000  0.7584  0.0000  0.0000      0.0000  0.0000  0.0000  0.0000  0.0000  0.0000  0.0000  0.0000  0.0000  0.0000
  o =  0.9414  v =  0.0000  0.0000  0.0000  0.0000  0.0000  0.0000 -0.7071 -0.0000  0.7071  0.0000      0.0000  0.0000  0.0000  0.0000  0.0000  0.0000  0.0000  0.0000  0.0000  0.0000
  o =  0.9429  v =  0.0000  0.0000  0.0000  0.0000  0.0000  0.0000  0.0000 -0.0000 -0.0000  1.0000      0.0000  0.0000  0.0000  0.0000  0.0000  0.0000  0.0000  0.0000  0.0000  0.0000
  o =  0.9547  v =  0.0000  0.0000  0.0000  0.0000  0.0000 -0.7584  0.0000 -0.6518  0.0000 -0.0000      0.0000  0.0000  0.0000  0.0000  0.0000  0.0000  0.0000  0.0000  0.0000  0.0000
  o =  0.9719  v =  0.0000  0.0000  0.0000  0.0000  0.0000  0.0000 -0.7071  0.0000 -0.7071 -0.0000      0.0000  0.0000  0.0000  0.0000  0.0000  0.0000  0.0000  0.0000  0.0000  0.0000
atom =   2  type =  1  l = 2
 
 onsite density matrix
 
spin component  1
 
  0.9478  0.0000 -0.0080  0.0000  0.0000
  0.0000  0.9567  0.0000 -0.0153  0.0000
 -0.0080  0.0000  0.9454  0.0000 -0.0000
  0.0000 -0.0153  0.0000  0.9567  0.0000
  0.0000  0.0000 -0.0000  0.0000  0.9429
 
spin component  2
 
  0.0760  0.0000 -0.0418  0.0000 -0.0000
  0.0000  0.0521  0.0000 -0.0231  0.0000
 -0.0418  0.0000  0.0528  0.0000  0.0000
  0.0000 -0.0231  0.0000  0.0521  0.0000
 -0.0000  0.0000  0.0000  0.0000  0.0232
 
 occupancies and eigenvectors
 
  o =  0.0211  v =  0.0000  0.0000  0.0000  0.0000  0.0000 -0.6052  0.0000 -0.7961  0.0000  0.0000      0.0000  0.0000  0.0000  0.0000  0.0000  0.0000  0.0000  0.0000  0.0000  0.0000
  o =  0.0232  v =  0.0000  0.0000  0.0000  0.0000  0.0000 -0.0000 -0.0000 -0.0000  0.0000 -1.0000      0.0000  0.0000  0.0000  0.0000  0.0000  0.0000  0.0000  0.0000  0.0000  0.0000
  o =  0.0290  v =  0.0000  0.0000  0.0000  0.0000  0.0000  0.0000 -0.7071  0.0000 -0.7071  0.0000      0.0000  0.0000  0.0000  0.0000  0.0000  0.0000  0.0000  0.0000  0.0000  0.0000
  o =  0.0752  v =  0.0000  0.0000  0.0000  0.0000  0.0000  0.0000 -0.7071  0.0000  0.7071  0.0000      0.0000  0.0000  0.0000  0.0000  0.0000  0.0000  0.0000  0.0000  0.0000  0.0000
  o =  0.1078  v =  0.0000  0.0000  0.0000  0.0000  0.0000 -0.7961  0.0000  0.6052  0.0000  0.0000      0.0000  0.0000  0.0000  0.0000  0.0000  0.0000  0.0000  0.0000  0.0000  0.0000
  o =  0.9386  v = -0.6518  0.0000 -0.7584  0.0000 -0.0000  0.0000  0.0000  0.0000  0.0000  0.0000      0.0000  0.0000  0.0000  0.0000  0.0000  0.0000  0.0000  0.0000  0.0000  0.0000
  o =  0.9414  v =  0.0000 -0.7071  0.0000 -0.7071 -0.0000  0.0000  0.0000  0.0000  0.0000  0.0000      0.0000  0.0000  0.0000  0.0000  0.0000  0.0000  0.0000  0.0000  0.0000  0.0000
  o =  0.9429  v = -0.0000 -0.0000 -0.0000  0.0000  1.0000  0.0000  0.0000  0.0000  0.0000  0.0000      0.0000  0.0000  0.0000  0.0000  0.0000  0.0000  0.0000  0.0000  0.0000  0.0000
  o =  0.9547  v = -0.7584  0.0000  0.6518  0.0000 -0.0000  0.0000  0.0000  0.0000  0.0000  0.0000      0.0000  0.0000  0.0000  0.0000  0.0000  0.0000  0.0000  0.0000  0.0000  0.0000
  o =  0.9719  v =  0.0000 -0.7071  0.0000  0.7071 -0.0000  0.0000  0.0000  0.0000  0.0000  0.0000      0.0000  0.0000  0.0000  0.0000  0.0000  0.0000  0.0000  0.0000  0.0000  0.0000
     EDDAV:  cpu time    0.3633: real time    0.3633
 BZINTS: Fermi energy:  2.990879; 54.000000 electrons
         Band energy:-767.813145;  BLOECHL correction:  0.000000
       DOS:  cpu time    0.0013: real time    0.0013
    CHARGE:  cpu time    0.0673: real time    0.0673
    MIXING:  cpu time    0.0004: real time    0.0004
    --------------------------------------------
      LOOP:  cpu time    1.2199: real time    1.2200

 eigenvalue-minimisations  :  1488
 total energy-change (2. order) : 0.3840142E+00  (-0.7086023E+00)
 number of electron      54.0000019 magnetization      -0.0000000
 augmentation part       20.0094593 magnetization      -0.0000000

 Broyden mixing:
  rms(total) = 0.97288E+00    rms(broyden)= 0.97274E+00
  rms(prec ) = 0.11106E+01
  weight for this iteration     100.00

 eigenvalues of (default mixing * dielectric matrix)
  average eigenvalue GAMMA=   0.9562
  1.7978  0.7307  0.7307  0.5656

 Free energy of the ion-electron system (eV)
  ---------------------------------------------------
  alpha Z        PSCENC =       212.56856789
  Ewald energy   TEWEN  =     -4296.86209297
  -Hartree energ DENC   =     -2110.02512754
  -exchange      EXHF   =         0.00000000
  -V(xc)+E(xc)   XCENC  =       169.27637167
  PAW double counting   =      6624.83308087    -6588.38082632
  entropy T*S    EENTRO =         0.00000000
  eigenvalues    EBANDS =      -767.81314514
  atomic energy  EATOM  =      6688.27483813
  Solvation  Ediel_sol  =         0.00000000
  ---------------------------------------------------
  free energy    TOTEN  =       -68.12833340 eV

  energy without entropy =      -68.12833340  energy(sigma->0) =      -68.12833340


--------------------------------------------------------------------------------------------------------




--------------------------------------- Iteration      1(  10)  ---------------------------------------


    POTLOK:  cpu time    0.0161: real time    0.0161
    SETDIJ:  cpu time    0.7697: real time    0.7697
atom =   1  type =  1  l = 2
 
 onsite density matrix
 
spin component  1
 
  0.0572  0.0000  0.0223  0.0000  0.0000
  0.0000  0.0555  0.0000  0.0209  0.0000
  0.0223  0.0000  0.0480  0.0000  0.0000
  0.0000  0.0209  0.0000  0.0555  0.0000
  0.0000  0.0000  0.0000  0.0000  0.0322
 
spin component  2
 
  0.9655  0.0000  0.0292  0.0000  0.0000
  0.0000  0.9528  0.0000  0.0191  0.0000
  0.0292  0.0000  0.9490  0.0000 -0.0000
  0.0000  0.0191  0.0000  0.9528  0.0000
  0.0000  0.0000 -0.0000  0.0000  0.9317
 
 occupancies and eigenvectors
 
  o =  0.0299  v = -0.6320  0.0000  0.7749 -0.0000 -0.0000  0.0000  0.0000  0.0000  0.0000  0.0000      0.0000  0.0000  0.0000  0.0000  0.0000  0.0000  0.0000  0.0000  0.0000  0.0000
  o =  0.0322  v =  0.0000  0.0000 -0.0000 -0.0000 -1.0000  0.0000  0.0000  0.0000  0.0000  0.0000      0.0000  0.0000  0.0000  0.0000  0.0000  0.0000  0.0000  0.0000  0.0000  0.0000
  o =  0.0345  v =  0.0000  0.7071 -0.0000 -0.7071  0.0000  0.0000  0.0000  0.0000  0.0000  0.0000      0.0000  0.0000  0.0000  0.0000  0.0000  0.0000  0.0000  0.0000  0.0000  0.0000
  o =  0.0753  v = -0.7749 -0.0000 -0.6320 -0.0000 -0.0000  0.0000  0.0000  0.0000  0.0000  0.0000      0.0000  0.0000  0.0000  0.0000  0.0000  0.0000  0.0000  0.0000  0.0000  0.0000
  o =  0.0764  v = -0.0000  0.7071 -0.0000  0.7071  0.0000  0.0000  0.0000  0.0000  0.0000  0.0000      0.0000  0.0000  0.0000  0.0000  0.0000  0.0000  0.0000  0.0000  0.0000  0.0000
  o =  0.9269  v =  0.0000  0.0000  0.0000  0.0000  0.0000 -0.6035  0.0000  0.7974 -0.0000  0.0000      0.0000  0.0000  0.0000  0.0000  0.0000  0.0000  0.0000  0.0000  0.0000  0.0000
  o =  0.9317  v =  0.0000  0.0000  0.0000  0.0000  0.0000 -0.0000 -0.0000  0.0000  0.0000 -1.0000      0.0000  0.0000  0.0000  0.0000  0.0000  0.0000  0.0000  0.0000  0.0000  0.0000
  o =  0.9337  v =  0.0000  0.0000  0.0000  0.0000  0.0000  0.0000  0.7071 -0.0000 -0.7071 -0.0000      0.0000  0.0000  0.0000  0.0000  0.0000  0.0000  0.0000  0.0000  0.0000  0.0000
  o =  0.9720  v =  0.0000  0.0000  0.0000  0.0000  0.0000 -0.0000 -0.7071 -0.0000 -0.7071  0.0000      0.0000  0.0000  0.0000  0.0000  0.0000  0.0000  0.0000  0.0000  0.0000  0.0000
  o =  0.9875  v =  0.0000  0.0000  0.0000  0.0000  0.0000 -0.7974  0.0000 -0.6035  0.0000  0.0000      0.0000  0.0000  0.0000  0.0000  0.0000  0.0000  0.0000  0.0000  0.0000  0.0000
atom =   2  type =  1  l = 2
 
 onsite density matrix
 
spin component  1
 
  0.9655  0.0000 -0.0292  0.0000 -0.0000
  0.0000  0.9528  0.0000 -0.0191  0.0000
 -0.0292  0.0000  0.9490  0.0000 -0.0000
  0.0000 -0.0191  0.0000  0.9528  0.0000
 -0.0000  0.0000 -0.0000  0.0000  0.9317
 
spin component  2
 
  0.0572  0.0000 -0.0223  0.0000  0.0000
  0.0000  0.0555  0.0000 -0.0209  0.0000
 -0.0223  0.0000  0.0480  0.0000  0.0000
  0.0000 -0.0209  0.0000  0.0555  0.0000
  0.0000  0.0000  0.0000  0.0000  0.0322
 
 occupancies and eigenvectors
 
  o =  0.0299  v =  0.0000  0.0000  0.0000  0.0000  0.0000 -0.6320 -0.0000 -0.7749  0.0000  0.0000      0.0000  0.0000  0.0000  0.0000  0.0000  0.0000  0.0000  0.0000  0.0000  0.0000
  o =  0.0322  v =  0.0000  0.0000  0.0000  0.0000  0.0000 -0.0000  0.0000 -0.0000  0.0000 -1.0000      0.0000  0.0000  0.0000  0.0000  0.0000  0.0000  0.0000  0.0000  0.0000  0.0000
  o =  0.0345  v =  0.0000  0.0000  0.0000  0.0000  0.0000  0.0000  0.7071  0.0000  0.7071  0.0000      0.0000  0.0000  0.0000  0.0000  0.0000  0.0000  0.0000  0.0000  0.0000  0.0000
  o =  0.0753  v =  0.0000  0.0000  0.0000  0.0000  0.0000 -0.7749 -0.0000  0.6320  0.0000  0.0000      0.0000  0.0000  0.0000  0.0000  0.0000  0.0000  0.0000  0.0000  0.0000  0.0000
  o =  0.0764  v =  0.0000  0.0000  0.0000  0.0000  0.0000  0.0000 -0.7071  0.0000  0.7071 -0.0000      0.0000  0.0000  0.0000  0.0000  0.0000  0.0000  0.0000  0.0000  0.0000  0.0000
  o =  0.9269  v = -0.6035  0.0000 -0.7974  0.0000 -0.0000  0.0000  0.0000  0.0000  0.0000  0.0000      0.0000  0.0000  0.0000  0.0000  0.0000  0.0000  0.0000  0.0000  0.0000  0.0000
  o =  0.9317  v = -0.0000  0.0000 -0.0000  0.0000  1.0000  0.0000  0.0000  0.0000  0.0000  0.0000      0.0000  0.0000  0.0000  0.0000  0.0000  0.0000  0.0000  0.0000  0.0000  0.0000
  o =  0.9337  v = -0.0000 -0.7071 -0.0000 -0.7071  0.0000  0.0000  0.0000  0.0000  0.0000  0.0000      0.0000  0.0000  0.0000  0.0000  0.0000  0.0000  0.0000  0.0000  0.0000  0.0000
  o =  0.9720  v = -0.0000 -0.7071  0.0000  0.7071 -0.0000  0.0000  0.0000  0.0000  0.0000  0.0000      0.0000  0.0000  0.0000  0.0000  0.0000  0.0000  0.0000  0.0000  0.0000  0.0000
  o =  0.9875  v = -0.7974  0.0000  0.6035 -0.0000 -0.0000  0.0000  0.0000  0.0000  0.0000  0.0000      0.0000  0.0000  0.0000  0.0000  0.0000  0.0000  0.0000  0.0000  0.0000  0.0000
     EDDAV:  cpu time    0.3506: real time    0.3508
 BZINTS: Fermi energy:  3.039173; 54.000000 electrons
         Band energy:-769.720917;  BLOECHL correction:  0.000000
       DOS:  cpu time    0.0012: real time    0.0012
    CHARGE:  cpu time    0.0665: real time    0.0665
    MIXING:  cpu time    0.0004: real time    0.0004
    --------------------------------------------
      LOOP:  cpu time    1.2045: real time    1.2047

 eigenvalue-minimisations  :  1392
 total energy-change (2. order) : 0.6024230E-01  (-0.6194366E-01)
 number of electron      54.0000019 magnetization       0.0000000
 augmentation part       19.9821756 magnetization       0.0000000

 Broyden mixing:
  rms(total) = 0.75461E+00    rms(broyden)= 0.75460E+00
  rms(prec ) = 0.87270E+00
  weight for this iteration     100.00

 eigenvalues of (default mixing * dielectric matrix)
  average eigenvalue GAMMA=   1.1249
  2.5107  0.9853  0.9853  0.5715  0.5715

 Free energy of the ion-electron system (eV)
  ---------------------------------------------------
  alpha Z        PSCENC =       212.56856789
  Ewald energy   TEWEN  =     -4296.86209297
  -Hartree energ DENC   =     -2103.44382414
  -exchange      EXHF   =         0.00000000
  -V(xc)+E(xc)   XCENC  =       165.90234087
  PAW double counting   =      6693.53317684    -6658.32018078
  entropy T*S    EENTRO =         0.00000000
  eigenvalues    EBANDS =      -769.72091696
  atomic energy  EATOM  =      6688.27483813
  Solvation  Ediel_sol  =         0.00000000
  ---------------------------------------------------
  free energy    TOTEN  =       -68.06809110 eV

  energy without entropy =      -68.06809110  energy(sigma->0) =      -68.06809110


--------------------------------------------------------------------------------------------------------




--------------------------------------- Iteration      1(  11)  ---------------------------------------


    POTLOK:  cpu time    0.0164: real time    0.0164
    SETDIJ:  cpu time    0.7722: real time    0.7722
atom =   1  type =  1  l = 2
 
 onsite density matrix
 
spin component  1
 
  0.0577  0.0000  0.0320  0.0000 -0.0000
  0.0000  0.0509  0.0000  0.0258  0.0000
  0.0320  0.0000  0.0443  0.0000  0.0000
  0.0000  0.0258  0.0000  0.0509  0.0000
 -0.0000  0.0000  0.0000  0.0000  0.0205
 
spin component  2
 
  0.9676  0.0000  0.0238  0.0000  0.0000
  0.0000  0.9600  0.0000  0.0189  0.0000
  0.0238  0.0000  0.9531  0.0000 -0.0000
  0.0000  0.0189  0.0000  0.9600  0.0000
  0.0000  0.0000 -0.0000  0.0000  0.9415
 
 occupancies and eigenvectors
 
  o =  0.0183  v = -0.6305 -0.0000  0.7762  0.0000 -0.0000  0.0000  0.0000  0.0000  0.0000  0.0000      0.0000  0.0000  0.0000  0.0000  0.0000  0.0000  0.0000  0.0000  0.0000  0.0000
  o =  0.0205  v = -0.0000  0.0000  0.0000  0.0000  1.0000  0.0000  0.0000  0.0000  0.0000  0.0000      0.0000  0.0000  0.0000  0.0000  0.0000  0.0000  0.0000  0.0000  0.0000  0.0000
  o =  0.0251  v =  0.0000  0.7071  0.0000 -0.7071 -0.0000  0.0000  0.0000  0.0000  0.0000  0.0000      0.0000  0.0000  0.0000  0.0000  0.0000  0.0000  0.0000  0.0000  0.0000  0.0000
  o =  0.0767  v =  0.0000  0.7071  0.0000  0.7071 -0.0000  0.0000  0.0000  0.0000  0.0000  0.0000      0.0000  0.0000  0.0000  0.0000  0.0000  0.0000  0.0000  0.0000  0.0000  0.0000
  o =  0.0837  v = -0.7762 -0.0000 -0.6305  0.0000 -0.0000  0.0000  0.0000  0.0000  0.0000  0.0000      0.0000  0.0000  0.0000  0.0000  0.0000  0.0000  0.0000  0.0000  0.0000  0.0000
  o =  0.9354  v =  0.0000  0.0000  0.0000  0.0000  0.0000 -0.5959  0.0000  0.8030  0.0000  0.0000      0.0000  0.0000  0.0000  0.0000  0.0000  0.0000  0.0000  0.0000  0.0000  0.0000
  o =  0.9411  v =  0.0000  0.0000  0.0000  0.0000  0.0000  0.0000 -0.7071  0.0000  0.7071 -0.0000      0.0000  0.0000  0.0000  0.0000  0.0000  0.0000  0.0000  0.0000  0.0000  0.0000
  o =  0.9415  v =  0.0000  0.0000  0.0000  0.0000  0.0000  0.0000  0.0000  0.0000  0.0000 -1.0000      0.0000  0.0000  0.0000  0.0000  0.0000  0.0000  0.0000  0.0000  0.0000  0.0000
  o =  0.9789  v =  0.0000  0.0000  0.0000  0.0000  0.0000  0.0000 -0.7071  0.0000 -0.7071 -0.0000      0.0000  0.0000  0.0000  0.0000  0.0000  0.0000  0.0000  0.0000  0.0000  0.0000
  o =  0.9853  v =  0.0000  0.0000  0.0000  0.0000  0.0000 -0.8030  0.0000 -0.5959  0.0000 -0.0000      0.0000  0.0000  0.0000  0.0000  0.0000  0.0000  0.0000  0.0000  0.0000  0.0000
atom =   2  type =  1  l = 2
 
 onsite density matrix
 
spin component  1
 
  0.9676  0.0000 -0.0238  0.0000  0.0000
  0.0000  0.9600  0.0000 -0.0189  0.0000
 -0.0238  0.0000  0.9531  0.0000 -0.0000
  0.0000 -0.0189  0.0000  0.9600  0.0000
  0.0000  0.0000 -0.0000  0.0000  0.9415
 
spin component  2
 
  0.0577  0.0000 -0.0320  0.0000 -0.0000
  0.0000  0.0509  0.0000 -0.0258  0.0000
 -0.0320  0.0000  0.0443  0.0000  0.0000
  0.0000 -0.0258  0.0000  0.0509  0.0000
 -0.0000  0.0000  0.0000  0.0000  0.0205
 
 occupancies and eigenvectors
 
  o =  0.0183  v =  0.0000  0.0000  0.0000  0.0000  0.0000 -0.6305  0.0000 -0.7762  0.0000  0.0000      0.0000  0.0000  0.0000  0.0000  0.0000  0.0000  0.0000  0.0000  0.0000  0.0000
  o =  0.0205  v =  0.0000  0.0000  0.0000  0.0000  0.0000 -0.0000 -0.0000 -0.0000  0.0000 -1.0000      0.0000  0.0000  0.0000  0.0000  0.0000  0.0000  0.0000  0.0000  0.0000  0.0000
  o =  0.0251  v =  0.0000  0.0000  0.0000  0.0000  0.0000  0.0000 -0.7071  0.0000 -0.7071  0.0000      0.0000  0.0000  0.0000  0.0000  0.0000  0.0000  0.0000  0.0000  0.0000  0.0000
  o =  0.0767  v =  0.0000  0.0000  0.0000  0.0000  0.0000  0.0000 -0.7071  0.0000  0.7071  0.0000      0.0000  0.0000  0.0000  0.0000  0.0000  0.0000  0.0000  0.0000  0.0000  0.0000
  o =  0.0837  v =  0.0000  0.0000  0.0000  0.0000  0.0000 -0.7762  0.0000  0.6305  0.0000  0.0000      0.0000  0.0000  0.0000  0.0000  0.0000  0.0000  0.0000  0.0000  0.0000  0.0000
  o =  0.9354  v = -0.5959  0.0000 -0.8030  0.0000  0.0000  0.0000  0.0000  0.0000  0.0000  0.0000      0.0000  0.0000  0.0000  0.0000  0.0000  0.0000  0.0000  0.0000  0.0000  0.0000
  o =  0.9411  v =  0.0000  0.7071 -0.0000  0.7071 -0.0000  0.0000  0.0000  0.0000  0.0000  0.0000      0.0000  0.0000  0.0000  0.0000  0.0000  0.0000  0.0000  0.0000  0.0000  0.0000
  o =  0.9415  v =  0.0000  0.0000  0.0000  0.0000  1.0000  0.0000  0.0000  0.0000  0.0000  0.0000      0.0000  0.0000  0.0000  0.0000  0.0000  0.0000  0.0000  0.0000  0.0000  0.0000
[...]
      4     -41.7846      1.00000
      5     -41.7461      1.00000
      6     -41.6981      1.00000
      7     -22.3318      1.00000
      8     -22.1693      1.00000
      9     -22.1144      1.00000
     10     -22.0283      1.00000
     11      -4.2012      1.00000
     12      -3.9329      1.00000
     13      -3.7446      1.00000
     14      -3.5136      1.00000
     15      -3.4086      1.00000
     16      -3.1341      1.00000
     17      -2.7163      1.00000
     18      -2.5224      1.00000
     19      -2.4805      1.00000
     20      -1.9642      1.00000
     21      -1.8940      1.00000
     22      -1.8594      1.00000
     23       1.7516      1.00000
     24       1.8240      1.00000
     25       2.0754      1.00000
     26       2.7675      1.00000
     27       3.2234      1.00000
     28       7.3172      0.00000
     29       7.3602      0.00000
     30       7.4295      0.00000
     31       8.4391      0.00000
     32       8.8429      0.00000
     33      10.2181      0.00000
     34      12.5497      0.00000
     35      14.1141      0.00000
     36      14.3341      0.00000

 k-point     8 :       0.3750    0.1250    0.4167
  band No.  band energies     occupation 
      1     -48.2556      1.00000
      2     -48.2176      1.00000
      3     -48.1871      1.00000
      4     -41.7848      1.00000
      5     -41.7463      1.00000
      6     -41.6985      1.00000
      7     -22.2566      1.00000
      8     -22.1896      1.00000
      9     -22.1388      1.00000
     10     -22.0618      1.00000
     11      -4.2452      1.00000
     12      -3.9803      1.00000
     13      -3.9005      1.00000
     14      -3.7008      1.00000
     15      -3.2873      1.00000
     16      -3.0270      1.00000
     17      -2.8435      1.00000
     18      -2.7180      1.00000
     19      -2.1561      1.00000
     20      -1.9499      1.00000
     21      -1.7738      1.00000
     22      -1.6650      1.00000
     23       1.7446      1.00000
     24       1.7801      1.00000
     25       2.0042      1.00000
     26       2.7192      1.00000
     27       3.3603      1.00000
     28       7.2965      0.00000
     29       7.3535      0.00000
     30       7.4959      0.00000
     31       8.3940      0.00000
     32       9.0415      0.00000
     33      10.8772      0.00000
     34      12.3415      0.00000
     35      13.0169      0.00000
     36      14.2916      0.00000

 k-point     9 :       0.3750    0.3750    0.4167
  band No.  band energies     occupation 
      1     -48.2556      1.00000
      2     -48.2179      1.00000
      3     -48.1867      1.00000
      4     -41.7845      1.00000
      5     -41.7466      1.00000
      6     -41.6986      1.00000
      7     -22.2435      1.00000
      8     -22.2098      1.00000
      9     -22.1335      1.00000
     10     -22.0539      1.00000
     11      -4.5023      1.00000
     12      -4.2798      1.00000
     13      -3.9243      1.00000
     14      -3.8807      1.00000
     15      -3.2305      1.00000
     16      -2.9217      1.00000
     17      -2.7840      1.00000
     18      -2.4952      1.00000
     19      -1.9280      1.00000
     20      -1.8031      1.00000
     21      -1.6626      1.00000
     22      -1.5866      1.00000
     23       1.7488      1.00000
     24       1.7639      1.00000
     25       1.9915      1.00000
     26       2.7558      1.00000
     27       3.3367      1.00000
     28       7.2983      0.00000
     29       7.3457      0.00000
     30       7.5182      0.00000
     31       8.3606      0.00000
     32       8.9344      0.00000
     33      11.4491      0.00000
     34      12.7942      0.00000
     35      13.0773      0.00000
     36      13.2493      0.00000


--------------------------------------------------------------------------------------------------------


 soft charge-density along one line, spin component           1
         0         1         2         3         4         5         6         7         8         9
 total charge-density along one line
 
 soft charge-density along one line, spin component           2
         0         1         2         3         4         5         6         7         8         9
 total charge-density along one line
 
 pseudopotential strength for first ion, spin component:           1
-44.557   0.000  -0.049   7.491  -0.000   0.020  -0.000  -0.000
  0.000 -44.528  -0.000  -0.000   7.479   0.000   0.000  -0.000
 -0.049  -0.000 -44.557   0.020   0.000   7.491  -0.000   0.000
  7.491  -0.000   0.020   5.651   0.000   0.004  -0.000   0.000
 -0.000   7.479   0.000   0.000   5.645  -0.000  -0.000  -0.000
  0.020   0.000   7.491   0.004  -0.000   5.651   0.000  -0.000
 -0.000   0.000  -0.000  -0.000  -0.000   0.000  -2.426  -0.000
 -0.000  -0.000   0.000   0.000  -0.000  -0.000  -0.000  -2.409
 -0.000  -0.000  -0.000  -0.000   0.000  -0.000   0.024   0.000
  0.000  -0.000  -0.000  -0.000  -0.000   0.000   0.000  -0.023
 -0.000   0.000  -0.000   0.000  -0.000   0.000  -0.000  -0.000
 -0.000   0.000  -0.000  -0.000  -0.000   0.000  -2.952  -0.000
 -0.000  -0.000   0.000   0.000  -0.000  -0.000  -0.000  -2.934
 -0.000  -0.000  -0.000  -0.000   0.000  -0.000   0.022   0.000
  0.000  -0.000  -0.000  -0.000  -0.000   0.000   0.000  -0.023
 -0.000   0.000  -0.000   0.000  -0.000   0.000  -0.000  -0.000
 -0.000   0.000  -0.000   0.000   0.000   0.000   0.014  -0.000
 -0.000   0.000  -0.000   0.000   0.000   0.000   0.027  -0.000
 pseudopotential strength for first ion, spin component:           2
-50.288   0.000  -0.005   9.491  -0.000   0.020   0.000  -0.000
  0.000 -50.288  -0.000  -0.000   9.477   0.000   0.000   0.000
 -0.005  -0.000 -50.288   0.020   0.000   9.491  -0.000   0.000
  9.491  -0.000   0.020   4.793   0.000   0.001  -0.000   0.000
 -0.000   9.477   0.000   0.000   4.793  -0.000  -0.000  -0.000
  0.020   0.000   9.491   0.001  -0.000   4.793  -0.000  -0.000
  0.000   0.000  -0.000  -0.000  -0.000  -0.000  -6.752  -0.000
 -0.000   0.000   0.000   0.000  -0.000  -0.000  -0.000  -6.743
  0.000  -0.000  -0.000  -0.000   0.000   0.000  -0.011   0.000
  0.000  -0.000  -0.000  -0.000   0.000   0.000   0.000  -0.034
 -0.000   0.000  -0.000  -0.000  -0.000  -0.000   0.000  -0.000
  0.000   0.000  -0.000  -0.000  -0.000  -0.000  -7.231  -0.000
 -0.000   0.000   0.000   0.000  -0.000  -0.000  -0.000  -7.222
  0.000  -0.000  -0.000  -0.000   0.000   0.000  -0.011   0.000
  0.000  -0.000  -0.000  -0.000   0.000   0.000   0.000  -0.033
 -0.000   0.000  -0.000  -0.000  -0.000  -0.000   0.000  -0.000
  0.000   0.000  -0.000  -0.000   0.000   0.000   0.014  -0.000
  0.000   0.000  -0.000  -0.000   0.000   0.000   0.029  -0.000
 total augmentation occupancy for first ion, spin component:           1
  2.002   0.000   0.000  -0.008   0.000   0.001   0.000   0.000   0.000   0.000   0.000   0.000   0.000   0.000   0.000   0.000
  0.000   2.003   0.000   0.000  -0.008   0.000   0.000   0.000   0.000   0.000   0.000   0.000   0.000   0.000   0.000   0.000
  0.000   0.000   2.002   0.001   0.000  -0.008   0.000   0.000   0.000   0.000   0.000   0.000   0.000   0.000   0.000   0.000
 -0.008   0.000   0.001   0.096   0.000  -0.014   0.000   0.000   0.000   0.000   0.000   0.000   0.000   0.000   0.000   0.000
  0.000  -0.008   0.000   0.000   0.103   0.000   0.000   0.000   0.000   0.000   0.000   0.000   0.000   0.000   0.000   0.000
  0.001   0.000  -0.008  -0.014   0.000   0.096   0.000   0.000   0.000   0.000   0.000   0.000   0.000   0.000   0.000   0.000
  0.000   0.000   0.000   0.000   0.000   0.000   8.954   0.000   3.850   0.000  -0.000  -7.016   0.000  -3.641   0.000   0.000
  0.000   0.000   0.000   0.000   0.000   0.000   0.000   7.185   0.000   3.001   0.000   0.000  -5.296   0.000  -2.826   0.000
  0.000   0.000   0.000   0.000   0.000   0.000   3.850   0.000   6.596   0.000  -0.000  -3.642   0.000  -4.782   0.000   0.000
  0.000   0.000   0.000   0.000   0.000   0.000   0.000   3.001   0.000   7.185   0.000   0.000  -2.826   0.000  -5.296   0.000
  0.000   0.000   0.000   0.000   0.000   0.000  -0.000   0.000  -0.000   0.000   4.026   0.000   0.000   0.000   0.000  -2.300
  0.000   0.000   0.000   0.000   0.000   0.000  -7.016   0.000  -3.642   0.000   0.000   6.256   0.000   3.483   0.000  -0.000
  0.000   0.000   0.000   0.000   0.000   0.000   0.000  -5.296   0.000  -2.826   0.000   0.000   4.572   0.000   2.691   0.000
  0.000   0.000   0.000   0.000   0.000   0.000  -3.641   0.000  -4.782   0.000   0.000   3.483   0.000   4.120   0.000  -0.000
  0.000   0.000   0.000   0.000   0.000   0.000   0.000  -2.826   0.000  -5.296   0.000   0.000   2.691   0.000   4.572   0.000
  0.000   0.000   0.000   0.000   0.000   0.000   0.000   0.000   0.000   0.000  -2.300  -0.000   0.000  -0.000   0.000   1.699
  0.000   0.000   0.000   0.000   0.000   0.000   0.689   0.000  -0.240   0.000  -0.000  -0.658   0.000   0.221   0.000  -0.000
  0.000   0.000   0.000   0.000   0.000   0.000  -0.149   0.000   0.059   0.000  -0.000   0.156   0.000  -0.058   0.000   0.000
 total augmentation occupancy for first ion, spin component:           2
  0.004   0.000  -0.000   0.017   0.000  -0.001   0.000   0.000   0.000   0.000   0.000   0.000   0.000   0.000   0.000   0.000
  0.000   0.004   0.000   0.000   0.018   0.000   0.000   0.000   0.000   0.000   0.000   0.000   0.000   0.000   0.000   0.000
 -0.000   0.000   0.004  -0.001   0.000   0.017   0.000   0.000   0.000   0.000   0.000   0.000   0.000   0.000   0.000   0.000
  0.017   0.000  -0.001  -0.012   0.000  -0.000   0.000   0.000   0.000   0.000   0.000   0.000   0.000   0.000   0.000   0.000
  0.000   0.018   0.000   0.000  -0.011   0.000   0.000   0.000   0.000   0.000   0.000   0.000   0.000   0.000   0.000   0.000
 -0.001   0.000   0.017  -0.000   0.000  -0.012   0.000   0.000   0.000   0.000   0.000   0.000   0.000   0.000   0.000   0.000
  0.000   0.000   0.000   0.000   0.000   0.000  -5.403   0.000  -1.835   0.000   0.000   2.970   0.000   1.356   0.000  -0.000
  0.000   0.000   0.000   0.000   0.000   0.000   0.000  -4.641   0.000  -1.459   0.000   0.000   2.373   0.000   1.079   0.000
  0.000   0.000   0.000   0.000   0.000   0.000  -1.835   0.000  -4.247   0.000   0.000   1.357   0.000   2.096   0.000  -0.000
  0.000   0.000   0.000   0.000   0.000   0.000   0.000  -1.459   0.000  -4.641   0.000   0.000   1.079   0.000   2.373   0.000
  0.000   0.000   0.000   0.000   0.000   0.000   0.000   0.000   0.000   0.000  -3.171  -0.000   0.000  -0.000   0.000   1.297
  0.000   0.000   0.000   0.000   0.000   0.000   2.970   0.000   1.357   0.000  -0.000  -1.634   0.000  -0.885   0.000   0.000
  0.000   0.000   0.000   0.000   0.000   0.000   0.000   2.373   0.000   1.079   0.000   0.000  -1.205   0.000  -0.705   0.000
  0.000   0.000   0.000   0.000   0.000   0.000   1.356   0.000   2.096   0.000  -0.000  -0.885   0.000  -1.038   0.000   0.000
  0.000   0.000   0.000   0.000   0.000   0.000   0.000   1.079   0.000   2.373   0.000   0.000  -0.705   0.000  -1.205   0.000
  0.000   0.000   0.000   0.000   0.000   0.000  -0.000   0.000  -0.000   0.000   1.297   0.000   0.000   0.000   0.000  -0.519
  0.000   0.000   0.000   0.000   0.000   0.000  -0.154   0.000   0.024   0.000   0.000   0.047   0.000   0.026   0.000   0.000
  0.000   0.000   0.000   0.000   0.000   0.000   0.004   0.000  -0.004   0.000   0.000   0.009   0.000  -0.006   0.000  -0.000


------------------------ aborting loop because EDIFF is reached ----------------------------------------


 


 total charge     
 
# of ion       s       p       d       tot
------------------------------------------
    1        0.186   6.179   5.009  11.374
    2        0.192   6.174   5.016  11.381
    3        1.766   4.435   0.000   6.201
    4        1.766   4.435   0.000   6.201
    5        1.766   4.432   0.000   6.197
    6        1.766   4.432   0.000   6.197
--------------------------------------------------
tot          7.442  30.086  10.024  47.552
 


 magnetization (x)
 
# of ion       s       p       d       tot
------------------------------------------
    1       -0.022  -0.019  -4.556  -4.597
    2        0.023   0.017   4.552   4.593
    3        0.003   0.026   0.000   0.029
    4        0.003   0.026   0.000   0.029
    5       -0.004  -0.022   0.000  -0.026
    6       -0.004  -0.022   0.000  -0.026
--------------------------------------------------
tot         -0.000   0.006  -0.004   0.003
 
    CHARGE:  cpu time    0.0146: real time    0.0146
    FORLOC:  cpu time    0.0005: real time    0.0005
    FORNL :  cpu time    0.0798: real time    0.0798
    STRESS:  cpu time    1.0119: real time    1.0119
    FORCOR:  cpu time    0.0148: real time    0.0148
    FORHAR:  cpu time    0.0011: real time    0.0011
    MIXING:  cpu time    0.0005: real time    0.0005
    OFIELD:  cpu time    0.0000: real time    0.0000

  FORCE on cell =-STRESS in cart. coord.  units (eV):
  Direction    XX          YY          ZZ          XY          YZ          ZX
  --------------------------------------------------------------------------------------
  Alpha Z   216.55747   216.55747   216.55747
  Ewald   -1621.27096 -1621.27096 -1082.63176    -0.00000     0.00000     0.00000
  Hartree   574.96742   574.96742   935.77020    -0.00000    -0.00000    -0.00000
  E(xc)    -151.18767  -151.16782  -151.30760    -0.01793    -0.02742    -0.02897
  Local     199.15008   199.15008  -693.46266     0.00000    -0.00000     0.00000
  n-local  -311.62108  -311.90212  -311.11154     0.03428     0.08469     0.10709
  augment   158.12410   158.12410   157.63957     0.00000    -0.00000     0.00000
  Kinetic   935.17379   935.64560   928.54499    -0.48319    -0.90265    -0.92464
  Fock        0.00000     0.00000     0.00000     0.00000     0.00000     0.00000
  -------------------------------------------------------------------------------------
  Total      -0.00153    -0.00153    -0.00134     0.00000     0.00000     0.00000
  in kB      -0.03450    -0.03450    -0.03002     0.00000     0.00000     0.00000
  external pressure =       -0.03 kB  Pullay stress =        0.00 kB


 VOLUME and BASIS-vectors are now :
 -----------------------------------------------------------------------------
  energy-cutoff  :      400.00
  volume of cell :       71.29
      direct lattice vectors                 reciprocal lattice vectors
     4.705036209 -0.000000000  0.000000000     0.212538216  0.000000000  0.000000000
    -0.000000000  4.705036209  0.000000000     0.000000000  0.212538216  0.000000000
     0.000000000  0.000000000  3.220160317     0.000000000  0.000000000  0.310543545

  length of vectors
     4.705036209  4.705036209  3.220160317     0.212538216  0.212538216  0.310543545


 FORCES acting on ions
    electron-ion (+dipol)            ewald-force                    non-local-force                 convergence-correction
 -----------------------------------------------------------------------------------------------
   0.371E-11 -.118E-11 -.292E-11   -.853E-13 -.853E-13 0.184E-13   0.203E-24 0.000E+00 0.000E+00   0.940E-14 -.145E-13 0.175E-13
   0.210E-13 0.930E-14 0.153E-12   0.142E-12 0.142E-12 0.167E-13   -.204E-24 0.000E+00 0.000E+00   0.429E-13 0.550E-13 0.112E-13
   -.290E+02 0.290E+02 -.221E-11   0.298E+02 -.298E+02 -.921E-14   -.747E+00 0.747E+00 0.434E-18   0.111E-03 -.111E-03 0.294E-13
   0.290E+02 -.290E+02 0.108E-10   -.298E+02 0.298E+02 -.919E-14   0.747E+00 -.747E+00 -.434E-18   -.111E-03 0.111E-03 0.650E-14
   0.290E+02 0.290E+02 0.480E-06   -.298E+02 -.298E+02 -.468E-14   0.747E+00 0.747E+00 0.379E-18   -.111E-03 -.111E-03 0.379E-12
   -.290E+02 -.290E+02 -.480E-06   0.298E+02 0.298E+02 -.465E-14   -.747E+00 -.747E+00 -.379E-18   0.111E-03 0.111E-03 -.384E-12
 -----------------------------------------------------------------------------------------------
   0.377E-11 -.147E-11 -.826E-11   -.355E-14 -.355E-14 0.738E-14   0.000E+00 -.111E-15 0.000E+00   0.785E-13 0.346E-14 0.594E-13
 
 
 POSITION                                       TOTAL-FORCE (eV/Angst)
 -----------------------------------------------------------------------------------
      2.35252      2.35252      1.61008        -0.000000      0.000000      0.000000
     -0.00000     -0.00000     -0.00000        -0.000000      0.000000      0.000000
      0.92671      3.77833      1.61008        -0.000240      0.000240      0.000000
      3.77833      0.92671      1.61008         0.000240     -0.000240     -0.000000
      1.42581      1.42581      0.00000         0.000240      0.000240      0.000000
      3.27922      3.27922     -0.00000        -0.000240     -0.000240     -0.000000
 -----------------------------------------------------------------------------------
    total drift:                                0.000000     -0.000000     -0.000000


--------------------------------------------------------------------------------------------------------



  FREE ENERGIE OF THE ION-ELECTRON SYSTEM (eV)
  ---------------------------------------------------
  free  energy   TOTEN  =       -67.91726833 eV

  energy  without entropy=      -67.91726833  energy(sigma->0) =      -67.91726833
 
 d Force = 0.1036056E-04[ 0.101E-05, 0.197E-04]  d Energy =-0.1040777E-03 0.114E-03
 d Force =-0.1245802E+00[-0.125E+00,-0.124E+00]  d Ewald  = 0.3504024E-01-0.160E+00


--------------------------------------------------------------------------------------------------------


    POTLOK:  cpu time    0.7863: real time    0.7863


--------------------------------------------------------------------------------------------------------




--------------------------------------------------------------------------------------------------------


  
 reached required accuracy - stopping structural energy minimisation
     LOOP+:  cpu time   14.3864: real time   14.3866
    4ORBIT:  cpu time    0.0000: real time    0.0000
 


 total charge     
 
# of ion       s       p       d       tot
------------------------------------------
    1        0.186   6.179   5.009  11.374
    2        0.192   6.174   5.016  11.381
    3        1.766   4.435   0.000   6.201
    4        1.766   4.435   0.000   6.201
    5        1.766   4.432   0.000   6.197
    6        1.766   4.432   0.000   6.197
--------------------------------------------------
tot          7.442  30.086  10.024  47.552
 


 magnetization (x)
 
# of ion       s       p       d       tot
------------------------------------------
    1       -0.022  -0.019  -4.556  -4.597
    2        0.023   0.017   4.552   4.593
    3        0.003   0.026   0.000   0.029
    4        0.003   0.026   0.000   0.029
    5       -0.004  -0.022   0.000  -0.026
    6       -0.004  -0.022   0.000  -0.026
--------------------------------------------------
tot         -0.000   0.006  -0.004   0.003
 
 BZINTS: Fermi energy:  3.600268; 54.000000 electrons
         Band energy:-762.866187;  BLOECHL correction:  0.000000

 total amount of memory used by VASP MPI-rank0    37910. kBytes
=======================================================================

   base      :      30000. kBytes
   nonl-proj :       3580. kBytes
   fftplans  :        966. kBytes
   grid      :       1965. kBytes
   one-center:        186. kBytes
   wavefun   :       1213. kBytes
 
  
  
 General timing and accounting informations for this job:
 ========================================================
  
                  Total CPU time used (sec):      160.863
                            User time (sec):      101.217
                          System time (sec):       59.646
                         Elapsed time (sec):      160.957
  
                   Maximum memory used (kb):       52720.
                   Average memory used (kb):           0.
  
                          Minor page faults:        14721
                          Major page faults:            6
                 Voluntary context switches:          292
