 vasp.5.4.4.18Apr17-6-g9f103f2a35 (build Apr 27 2017 11:13:10) complex          
  
 executed on           IFC91_ompi date 2020.05.30  02:25:47
 running on    4 total cores
 distrk:  each k-point on    4 cores,    1 groups
 distr:  one band on NCORES_PER_BAND=   1 cores,    4 groups


--------------------------------------------------------------------------------------------------------


 INCAR:
 POTCAR:    PAW Mn_pv 02Aug2007                   
 POTCAR:    PAW F 31May2000                       
 POTCAR:    PAW Mn_pv 02Aug2007                   
   VRHFIN =Mn: 3p4s3d                                                           
   LEXCH  = CA                                                                  
   EATOM  =  2028.0466 eV,  149.0572 Ry                                         
                                                                                
   TITEL  = PAW Mn_pv 02Aug2007                                                 
   LULTRA =        F    use ultrasoft PP ?                                      
   IUNSCR =        1    unscreen: 0-lin 1-nonlin 2-no                           
   RPACOR =    2.080    partial core radius                                     
   POMASS =   54.938; ZVAL   =   13.000    mass and valenz                      
   RCORE  =    2.300    outmost cutoff radius                                   
   RWIGS  =    2.500; RWIGS  =    1.323    wigner-seitz radius (au A)           
   ENMAX  =  269.944; ENMIN  =  202.458 eV                                      
   ICORE  =        3    local potential                                         
   LCOR   =        T    correct aug charges                                     
   LPAW   =        T    paw PP                                                  
   EAUG   =  569.085                                                            
   DEXC   =    0.000                                                            
   RMAX   =    2.343    core radius for proj-oper                               
   RAUG   =    1.300    factor for augmentation sphere                          
   RDEP   =    2.338    radius for radial grids                                 
   RDEPT  =    1.798    core radius for aug-charge                              
                                                                                
   Atomic configuration                                                         
    8 entries                                                                   
     n  l   j            E        occ.                                          
     1  0  0.50     -6393.6057   2.0000                                         
     2  0  0.50      -735.9993   2.0000                                         
     2  1  1.50      -624.3417   6.0000                                         
     3  0  0.50       -80.9782   2.0000                                         
     3  1  1.50       -50.3144   6.0000                                         
     3  2  2.50        -3.6171   6.0000                                         
     4  0  0.50        -4.3304   1.0000                                         
     4  3  2.50        -1.3606   0.0000                                         
   Description                                                                  
     l       E           TYP  RCUT    TYP  RCUT                                 
     1    -50.3143634     23  2.000                                             
     1     -1.3605826     23  2.000                                             
     2     -3.6171470     23  2.300                                             
     2     -4.9777296     23  2.300                                             
     0     -4.3303688     23  2.300                                             
     0      7.3408788     23  2.300                                             
     3      9.5240782     23  2.300                                             
  local pseudopotential read in
  partial core-charges read in
  partial kinetic energy density read in
  atomic valenz-charges read in
  non local Contribution for L=           1  read in
    real space projection operators read in
  non local Contribution for L=           1  read in
    real space projection operators read in
  non local Contribution for L=           2  read in
    real space projection operators read in
  non local Contribution for L=           2  read in
    real space projection operators read in
  non local Contribution for L=           0  read in
    real space projection operators read in
  non local Contribution for L=           0  read in
    real space projection operators read in
    PAW grid and wavefunctions read in
 
   number of l-projection  operators is LMAX  =           6
   number of lm-projection operators is LMMAX =          18
 
 POTCAR:    PAW F 31May2000                       
   VRHFIN =F: s2p5                                                              
   LEXCH  = CA                                                                  
   EATOM  =   658.3685 eV,   48.3887 Ry                                         
                                                                                
   TITEL  = PAW F 31May2000                                                     
   LULTRA =        F    use ultrasoft PP ?                                      
   IUNSCR =        1    unscreen: 0-lin 1-nonlin 2-no                           
   RPACOR =    1.200    partial core radius                                     
   POMASS =   18.998; ZVAL   =    7.000    mass and valenz                      
   RCORE  =    1.520    outmost cutoff radius                                   
   RWIGS  =    1.500; RWIGS  =    0.794    wigner-seitz radius (au A)           
   ENMAX  =  400.000; ENMIN  =  300.000 eV                                      
   ICORE  =        2    local potential                                         
   LCOR   =        T    correct aug charges                                     
   LPAW   =        T    paw PP                                                  
   EAUG   =  613.614                                                            
   DEXC   =    0.000                                                            
   RMAX   =    1.555    core radius for proj-oper                               
   RAUG   =    1.300    factor for augmentation sphere                          
   RDEP   =    1.539    radius for radial grids                                 
   RDEPT  =    1.299    core radius for aug-charge                              
                                                                                
   Atomic configuration                                                         
    4 entries                                                                   
     n  l   j            E        occ.                                          
     1  0  0.50      -658.3386   2.0000                                         
     2  0  0.50       -29.6221   2.0000                                         
     2  1  0.50       -11.2952   5.0000                                         
     3  2  1.50       -12.2452   0.0000                                         
   Description                                                                  
     l       E           TYP  RCUT    TYP  RCUT                                 
     0    -29.6221019     23  1.200                                             
     0     -9.5240782     23  1.200                                             
     1    -11.2951545     23  1.520                                             
     1      1.3605826     23  1.520                                             
     2    -12.2452434      7  1.500                                             
  local pseudopotential read in
  partial core-charges read in
  partial kinetic energy density read in
  kinetic energy density of atom read in
  atomic valenz-charges read in
  non local Contribution for L=           0  read in
    real space projection operators read in
  non local Contribution for L=           0  read in
    real space projection operators read in
  non local Contribution for L=           1  read in
    real space projection operators read in
  non local Contribution for L=           1  read in
    real space projection operators read in
    PAW grid and wavefunctions read in
 
   number of l-projection  operators is LMAX  =           4
   number of lm-projection operators is LMMAX =           8
 
  PAW Mn_pv 02Aug2007                   :
 energy of atom  1       EATOM=-2028.0466
 kinetic energy error for atom=    0.0020 (will be added to EATOM!!)
  PAW F 31May2000                       :
 energy of atom  2       EATOM= -658.3685
 kinetic energy error for atom=    0.0137 (will be added to EATOM!!)
 
 
 POSCAR: Mn  F                                   
  positions in cartesian coordinates
  No initial velocities read in
 exchange correlation table for  LEXCH =        2
   RHO(1)=    0.500       N(1)  =     2000
   RHO(2)=  100.500       N(2)  =     4000
 


--------------------------------------------------------------------------------------------------------


 ion  position               nearest neighbor table
   1  0.500  0.500  0.500-   3 2.11   4 2.11   5 2.14   6 2.14   5 2.14   6 2.14
   2  0.000  0.000  0.000-   5 2.11   6 2.11   3 2.14   4 2.14   3 2.14   4 2.14
   3  0.195  0.805  0.500-   1 2.11   2 2.14   2 2.14
   4  0.805  0.195  0.500-   1 2.11   2 2.14   2 2.14
   5  0.305  0.305  0.000-   2 2.11   1 2.14   1 2.14
   6  0.695  0.695  0.000-   2 2.11   1 2.14   1 2.14
 

IMPORTANT INFORMATION: All symmetrisations will be switched off!
NOSYMM: (Re-)initialisation of all symmetry stuff for point group C_1.

 
 
 KPOINTS: KPOINTS created by Atomic Simulation Env
  k-points in reciprocal lattice
Space group operators:
 irot       det(A)        alpha          n_x          n_y          n_z        tau_x        tau_y        tau_z
    1     1.000000     0.000000     1.000000     0.000000     0.000000     0.000000     0.000000     0.000000


--------------------------------------------------------------------------------------------------------




 Dimension of arrays:
   k-points           NKPTS =    152   k-points in BZ     NKDIM =    152   number of bands    NBANDS=     48
   number of dos      NEDOS =    301   number of ions     NIONS =      6
   non local maximal  LDIM  =      6   non local SUM 2l+1 LMDIM =     18
   total plane-waves  NPLWV =  24576
   max r-space proj   IRMAX =      1   max aug-charges    IRDMAX=  75389
   dimension x,y,z NGX =    32 NGY =   32 NGZ =   24
   dimension x,y,z NGXF=    64 NGYF=   64 NGZF=   48
   support grid    NGXF=   128 NGYF=  128 NGZF=   96
   ions per type =               2   4
   NGX,Y,Z   is equivalent  to a cutoff of  10.88, 10.88, 12.04 a.u.
   NGXF,Y,Z  is equivalent  to a cutoff of  21.75, 21.75, 24.07 a.u.

 SYSTEM =  unknown system                          
 POSCAR =  Mn  F                                   

 Startparameter for this run:
   NWRITE =      2    write-flag & timer
   PREC   = normal    normal or accurate (medium, high low for compatibility)
   ISTART =      0    job   : 0-new  1-cont  2-samecut
   ICHARG =     11    charge: 1-file 2-atom 10-const
   ISPIN  =      2    spin polarized calculation?
   LNONCOLLINEAR =      F non collinear calculations
   LSORBIT =      F    spin-orbit coupling
   INIWAV =      1    electr: 0-lowe 1-rand  2-diag
   LASPH  =      T    aspherical Exc in radial PAW
   METAGGA=      F    non-selfconsistent MetaGGA calc.

 Electronic Relaxation 1
   ENCUT  =  700.0 eV  51.45 Ry    7.17 a.u.  10.55 10.55  7.15*2*pi/ulx,y,z
   ENINI  =  700.0     initial cutoff
   ENAUG  =  613.6 eV  augmentation charge cutoff
   NELM   =     60;   NELMIN=  2; NELMDL=  0     # of ELM steps 
   EDIFF  = 0.1E-06   stopping-criterion for ELM
   LREAL  =      F    real-space projection
   NLSPLINE    = F    spline interpolate recip. space projectors
   LCOMPAT=      F    compatible to vasp.4.4
   GGA_COMPAT  = T    GGA compatible to vasp.4.4-vasp.4.6
   LMAXPAW     = -100 max onsite density
   LMAXMIX     =    4 max onsite mixed and CHGCAR
   VOSKOWN=      0    Vosko Wilk Nusair interpolation
   ROPT   =    0.00000   0.00000
 Ionic relaxation
   EDIFFG = 0.1E-05   stopping-criterion for IOM
   NSW    =      0    number of steps for IOM
   NBLOCK =      1;   KBLOCK =      1    inner block; outer block 
   IBRION =     -1    ionic relax: 0-MD 1-quasi-New 2-CG
   NFREE  =      0    steps in history (QN), initial steepest desc. (CG)
   ISIF   =      2    stress and relaxation
   IWAVPR =     10    prediction:  0-non 1-charg 2-wave 3-comb
   ISYM   =      0    0-nonsym 1-usesym 2-fastsym
   LCORR  =      T    Harris-Foulkes like correction to forces

   POTIM  = 0.5000    time-step for ionic-motion
   TEIN   =    0.0    initial temperature
   TEBEG  =    0.0;   TEEND  =   0.0 temperature during run
   SMASS  =  -3.00    Nose mass-parameter (am)
   estimated Nose-frequenzy (Omega)   =  0.10E-29 period in steps =****** mass=  -0.547E-27a.u.
   SCALEE = 1.0000    scale energy and forces
   NPACO  =    256;   APACO  = 16.0  distance and # of slots for P.C.
   PSTRESS=    0.0 pullay stress

  Mass of Ions in am
   POMASS =  54.94 19.00
  Ionic Valenz
   ZVAL   =  13.00  7.00
  Atomic Wigner-Seitz radii
   RWIGS  =  -1.00 -1.00
  virtual crystal weights 
   VCA    =   1.00  1.00
   NELECT =      54.0000    total number of electrons
   NUPDOWN=      -1.0000    fix difference up-down

 DOS related values:
   EMIN   =  10.00;   EMAX   =-10.00  energy-range for DOS
   EFERMI =   0.00
   ISMEAR =     0;   SIGMA  =   0.01  broadening in eV -4-tet -1-fermi 0-gaus

 Electronic relaxation 2 (details)
   IALGO  =     38    algorithm
   LDIAG  =      T    sub-space diagonalisation (order eigenvalues)
   LSUBROT=      F    optimize rotation matrix (better conditioning)
   TURBO    =      0    0=normal 1=particle mesh
   IRESTART =      0    0=no restart 2=restart with 2 vectors
   NREBOOT  =      0    no. of reboots
   NMIN     =      0    reboot dimension
   EREF     =   0.00    reference energy to select bands
   IMIX   =      4    mixing-type and parameters
     AMIX     =   0.40;   BMIX     =  1.00
     AMIX_MAG =   1.60;   BMIX_MAG =  1.00
     AMIN     =   0.10
     WC   =   100.;   INIMIX=   1;  MIXPRE=   1;  MAXMIX= -45

 Intra band minimization:
   WEIMIN = 0.0000     energy-eigenvalue tresh-hold
   EBREAK =  0.52E-09  absolut break condition
   DEPER  =   0.30     relativ break condition  

   TIME   =   0.40     timestep for ELM

  volume/ion in A,a.u.               =      13.22        89.23
  Fermi-wavevector in a.u.,A,eV,Ry     =   1.440092  2.721380 28.216662  2.073866
  Thomas-Fermi vector in A             =   2.558875
 
 Write flags
   LWAVE        =      F    write WAVECAR
   LDOWNSAMPLE  =      F    k-point downsampling of WAVECAR
   LCHARG       =      T    write CHGCAR
   LVTOT        =      F    write LOCPOT, total local potential
   LVHAR        =      F    write LOCPOT, Hartree potential only
   LELF         =      F    write electronic localiz. function (ELF)
   LORBIT       =     11    0 simple, 1 ext, 2 COOP (PROOUT), +10 PAW based schemes


 Dipole corrections
   LMONO  =      F    monopole corrections only (constant potential shift)
   LDIPOL =      F    correct potential (dipole corrections)
   IDIPOL =      0    1-x, 2-y, 3-z, 4-all directions 
   EPSILON=  1.0000000 bulk dielectric constant

 LDA+U is selected, type is set to LDAUTYPE =  2
   angular momentum for each species LDAUL =     2   -1
   U (eV)           for each species LDAUU =   6.0  0.0
   J (eV)           for each species LDAUJ =   0.0  0.0
 Exchange correlation treatment:
   GGA     =    --    GGA type
   LEXCH   =     2    internal setting for exchange type
   VOSKOWN=      0    Vosko Wilk Nusair interpolation
   LHFCALC =     F    Hartree Fock is set to
   LHFONE  =     F    Hartree Fock one center treatment
   AEXX    =    0.0000 exact exchange contribution

 Linear response parameters
   LEPSILON=     F    determine dielectric tensor
   LRPA    =     F    only Hartree local field effects (RPA)
   LNABLA  =     F    use nabla operator in PAW spheres
   LVEL    =     F    velocity operator in full k-point grid
   LINTERFAST=   F  fast interpolation
   KINTER  =     0    interpolate to denser k-point grid
   CSHIFT  =0.1000    complex shift for real part using Kramers Kronig
   OMEGAMAX=  -1.0    maximum frequency
   DEG_THRESHOLD= 0.2000000E-02 threshold for treating states as degnerate
   RTIME   =   -0.100 relaxation time in fs
  (WPLASMAI=    0.000 imaginary part of plasma frequency in eV, 0.658/RTIME)
   DFIELD  = 0.0000000 0.0000000 0.0000000 field for delta impulse in time
 
 Orbital magnetization related:
   ORBITALMAG=     F  switch on orbital magnetization
   LCHIMAG   =     F  perturbation theory with respect to B field
   DQ        =  0.001000  dq finite difference perturbation B field
   LLRAUG    =     F  two centre corrections for induced B field



--------------------------------------------------------------------------------------------------------


 Static calculation
 charge density and potential remain constant during run
 spin polarized calculation
 Variant of blocked Davidson
 Davidson routine will perform the subspace rotation
 perform sub-space diagonalisation
    after iterative eigenvector-optimisation
 no mixing
 using additional bands           21
 reciprocal scheme for non local part
 use partial core corrections
 calculate Harris-corrections to forces 
   (improved forces if not selfconsistent)
 use of overlap-Matrix (Vanderbilt PP)
 Gauss-broadening in eV      SIGMA  =   0.01


--------------------------------------------------------------------------------------------------------


  energy-cutoff  :      700.00
  volume of cell :       79.33
      direct lattice vectors                 reciprocal lattice vectors
     4.891796665  0.000000000  0.000000000     0.204423869  0.000000000  0.000000000
     0.000000000  4.891796665  0.000000000     0.000000000  0.204423869  0.000000000
     0.000000000  0.000000000  3.315204934     0.000000000  0.000000000  0.301640478

  length of vectors
     4.891796665  4.891796665  3.315204934     0.204423869  0.204423869  0.301640478


 
 k-points in units of 2pi/SCALE and weight: KPOINTS created by Atomic Simulation Env
   0.00000000  0.00000000  0.00000000       0.007
   0.00000000  0.00786255  0.00000000       0.007
   0.00000000  0.01572490  0.00000000       0.007
   0.00000000  0.02358745  0.00000000       0.007
   0.00000000  0.03144979  0.00000000       0.007
   0.00000000  0.03931235  0.00000000       0.007
   0.00000000  0.04717469  0.00000000       0.007
   0.00000000  0.05503724  0.00000000       0.007
   0.00000000  0.06289959  0.00000000       0.007
   0.00000000  0.07076214  0.00000000       0.007
   0.00000000  0.07862449  0.00000000       0.007
   0.00000000  0.08648704  0.00000000       0.007
   0.00000000  0.09434938  0.00000000       0.007
   0.00000000  0.10221193  0.00000000       0.007
   0.00786255  0.10221193  0.00000000       0.007
   0.01572490  0.10221193  0.00000000       0.007
   0.02358745  0.10221193  0.00000000       0.007
   0.03144979  0.10221193  0.00000000       0.007
   0.03931235  0.10221193  0.00000000       0.007
   0.04717469  0.10221193  0.00000000       0.007
   0.05503724  0.10221193  0.00000000       0.007
   0.06289959  0.10221193  0.00000000       0.007
   0.07076214  0.10221193  0.00000000       0.007
   0.07862449  0.10221193  0.00000000       0.007
   0.08648704  0.10221193  0.00000000       0.007
   0.09434938  0.10221193  0.00000000       0.007
   0.10221193  0.10221193  0.00000000       0.007
   0.09653345  0.09653345  0.00000000       0.007
   0.09085496  0.09085496  0.00000000       0.007
   0.08517668  0.08517668  0.00000000       0.007
   0.07949819  0.07949819  0.00000000       0.007
   0.07381971  0.07381971  0.00000000       0.007
   0.06814122  0.06814122  0.00000000       0.007
   0.06246294  0.06246294  0.00000000       0.007
   0.05678445  0.05678445  0.00000000       0.007
   0.05110597  0.05110597  0.00000000       0.007
   0.04542748  0.04542748  0.00000000       0.007
   0.03974899  0.03974899  0.00000000       0.007
   0.03407071  0.03407071  0.00000000       0.007
   0.02839223  0.02839223  0.00000000       0.007
   0.02271374  0.02271374  0.00000000       0.007
   0.01703525  0.01703525  0.00000000       0.007
   0.01135697  0.01135697  0.00000000       0.007
   0.00567849  0.00567849  0.00000000       0.007
   0.00000000  0.00000000  0.00000000       0.007
   0.00000000  0.00000000  0.00793797       0.007
   0.00000000  0.00000000  0.01587594       0.007
   0.00000000  0.00000000  0.02381361       0.007
   0.00000000  0.00000000  0.03175158       0.007
   0.00000000  0.00000000  0.03968955       0.007
   0.00000000  0.00000000  0.04762752       0.007
   0.00000000  0.00000000  0.05556549       0.007
   0.00000000  0.00000000  0.06350316       0.007
   0.00000000  0.00000000  0.07144113       0.007
   0.00000000  0.00000000  0.07937910       0.007
   0.00000000  0.00000000  0.08731708       0.007
   0.00000000  0.00000000  0.09525474       0.007
   0.00000000  0.00000000  0.10319272       0.007
   0.00000000  0.00000000  0.11113069       0.007
   0.00000000  0.00000000  0.11906866       0.007
   0.00000000  0.00000000  0.12700663       0.007
   0.00000000  0.00000000  0.13494430       0.007
   0.00000000  0.00000000  0.14288227       0.007
   0.00000000  0.00000000  0.15082024       0.007
   0.00000000  0.00786255  0.15082024       0.007
   0.00000000  0.01572490  0.15082024       0.007
   0.00000000  0.02358745  0.15082024       0.007
   0.00000000  0.03144979  0.15082024       0.007
   0.00000000  0.03931235  0.15082024       0.007
   0.00000000  0.04717469  0.15082024       0.007
   0.00000000  0.05503724  0.15082024       0.007
   0.00000000  0.06289959  0.15082024       0.007
   0.00000000  0.07076214  0.15082024       0.007
   0.00000000  0.07862449  0.15082024       0.007
   0.00000000  0.08648704  0.15082024       0.007
   0.00000000  0.09434938  0.15082024       0.007
   0.00000000  0.10221193  0.15082024       0.007
   0.00786255  0.10221193  0.15082024       0.007
   0.01572490  0.10221193  0.15082024       0.007
   0.02358745  0.10221193  0.15082024       0.007
   0.03144979  0.10221193  0.15082024       0.007
   0.03931235  0.10221193  0.15082024       0.007
   0.04717469  0.10221193  0.15082024       0.007
   0.05503724  0.10221193  0.15082024       0.007
   0.06289959  0.10221193  0.15082024       0.007
   0.07076214  0.10221193  0.15082024       0.007
   0.07862449  0.10221193  0.15082024       0.007
   0.08648704  0.10221193  0.15082024       0.007
   0.09434938  0.10221193  0.15082024       0.007
   0.10221193  0.10221193  0.15082024       0.007
   0.09683232  0.09683232  0.15082024       0.007
   0.09145270  0.09145270  0.15082024       0.007
   0.08607328  0.08607328  0.15082024       0.007
   0.08069366  0.08069366  0.15082024       0.007
   0.07531405  0.07531405  0.15082024       0.007
   0.06993443  0.06993443  0.15082024       0.007
   0.06455481  0.06455481  0.15082024       0.007
   0.05917540  0.05917540  0.15082024       0.007
   0.05379578  0.05379578  0.15082024       0.007
   0.04841616  0.04841616  0.15082024       0.007
   0.04303654  0.04303654  0.15082024       0.007
   0.03765713  0.03765713  0.15082024       0.007
   0.03227751  0.03227751  0.15082024       0.007
   0.02689789  0.02689789  0.15082024       0.007
   0.02151827  0.02151827  0.15082024       0.007
   0.01613865  0.01613865  0.15082024       0.007
   0.01075924  0.01075924  0.15082024       0.007
   0.00537962  0.00537962  0.15082024       0.007
   0.00000000  0.00000000  0.15082024       0.007
   0.00000000  0.10221193  0.00000000       0.007
   0.00000000  0.10221193  0.00754101       0.007
   0.00000000  0.10221193  0.01508202       0.007
   0.00000000  0.10221193  0.02262304       0.007
   0.00000000  0.10221193  0.03016405       0.007
   0.00000000  0.10221193  0.03770506       0.007
   0.00000000  0.10221193  0.04524607       0.007
   0.00000000  0.10221193  0.05278708       0.007
   0.00000000  0.10221193  0.06032810       0.007
   0.00000000  0.10221193  0.06786911       0.007
   0.00000000  0.10221193  0.07541012       0.007
   0.00000000  0.10221193  0.08295113       0.007
   0.00000000  0.10221193  0.09049214       0.007
   0.00000000  0.10221193  0.09803316       0.007
   0.00000000  0.10221193  0.10557417       0.007
   0.00000000  0.10221193  0.11311518       0.007
   0.00000000  0.10221193  0.12065619       0.007
   0.00000000  0.10221193  0.12819720       0.007
   0.00000000  0.10221193  0.13573821       0.007
   0.00000000  0.10221193  0.14327923       0.007
   0.00000000  0.10221193  0.15082024       0.007
   0.10221193  0.10221193  0.00000000       0.007
   0.10221193  0.10221193  0.00718206       0.007
   0.10221193  0.10221193  0.01436382       0.007
   0.10221193  0.10221193  0.02154588       0.007
   0.10221193  0.10221193  0.02872764       0.007
   0.10221193  0.10221193  0.03590970       0.007
   0.10221193  0.10221193  0.04309145       0.007
   0.10221193  0.10221193  0.05027351       0.007
   0.10221193  0.10221193  0.05745527       0.007
   0.10221193  0.10221193  0.06463733       0.007
   0.10221193  0.10221193  0.07181909       0.007
   0.10221193  0.10221193  0.07900115       0.007
   0.10221193  0.10221193  0.08618291       0.007
   0.10221193  0.10221193  0.09336497       0.007
   0.10221193  0.10221193  0.10054673       0.007
   0.10221193  0.10221193  0.10772879       0.007
   0.10221193  0.10221193  0.11491054       0.007
   0.10221193  0.10221193  0.12209260       0.007
   0.10221193  0.10221193  0.12927436       0.007
   0.10221193  0.10221193  0.13645642       0.007
   0.10221193  0.10221193  0.14363818       0.007
   0.10221193  0.10221193  0.15082024       0.007
 
 k-points in reciprocal lattice and weights: KPOINTS created by Atomic Simulation Env
   0.00000000  0.00000000  0.00000000       0.007
   0.00000000  0.03846200  0.00000000       0.007
   0.00000000  0.07692300  0.00000000       0.007
   0.00000000  0.11538500  0.00000000       0.007
   0.00000000  0.15384600  0.00000000       0.007
   0.00000000  0.19230800  0.00000000       0.007
   0.00000000  0.23076900  0.00000000       0.007
   0.00000000  0.26923100  0.00000000       0.007
   0.00000000  0.30769200  0.00000000       0.007
   0.00000000  0.34615400  0.00000000       0.007
   0.00000000  0.38461500  0.00000000       0.007
   0.00000000  0.42307700  0.00000000       0.007
   0.00000000  0.46153800  0.00000000       0.007
   0.00000000  0.50000000  0.00000000       0.007
   0.03846200  0.50000000  0.00000000       0.007
   0.07692300  0.50000000  0.00000000       0.007
   0.11538500  0.50000000  0.00000000       0.007
   0.15384600  0.50000000  0.00000000       0.007
   0.19230800  0.50000000  0.00000000       0.007
   0.23076900  0.50000000  0.00000000       0.007
   0.26923100  0.50000000  0.00000000       0.007
   0.30769200  0.50000000  0.00000000       0.007
   0.34615400  0.50000000  0.00000000       0.007
   0.38461500  0.50000000  0.00000000       0.007
   0.42307700  0.50000000  0.00000000       0.007
   0.46153800  0.50000000  0.00000000       0.007
   0.50000000  0.50000000  0.00000000       0.007
   0.47222200  0.47222200  0.00000000       0.007
   0.44444400  0.44444400  0.00000000       0.007
   0.41666700  0.41666700  0.00000000       0.007
   0.38888900  0.38888900  0.00000000       0.007
   0.36111100  0.36111100  0.00000000       0.007
   0.33333300  0.33333300  0.00000000       0.007
   0.30555600  0.30555600  0.00000000       0.007
   0.27777800  0.27777800  0.00000000       0.007
   0.25000000  0.25000000  0.00000000       0.007
   0.22222200  0.22222200  0.00000000       0.007
   0.19444400  0.19444400  0.00000000       0.007
   0.16666700  0.16666700  0.00000000       0.007
   0.13888900  0.13888900  0.00000000       0.007
   0.11111100  0.11111100  0.00000000       0.007
   0.08333300  0.08333300  0.00000000       0.007
   0.05555600  0.05555600  0.00000000       0.007
   0.02777800  0.02777800  0.00000000       0.007
   0.00000000  0.00000000  0.00000000       0.007
   0.00000000  0.00000000  0.02631600       0.007
   0.00000000  0.00000000  0.05263200       0.007
   0.00000000  0.00000000  0.07894700       0.007
   0.00000000  0.00000000  0.10526300       0.007
   0.00000000  0.00000000  0.13157900       0.007
   0.00000000  0.00000000  0.15789500       0.007
   0.00000000  0.00000000  0.18421100       0.007
   0.00000000  0.00000000  0.21052600       0.007
   0.00000000  0.00000000  0.23684200       0.007
   0.00000000  0.00000000  0.26315800       0.007
   0.00000000  0.00000000  0.28947400       0.007
   0.00000000  0.00000000  0.31578900       0.007
   0.00000000  0.00000000  0.34210500       0.007
   0.00000000  0.00000000  0.36842100       0.007
   0.00000000  0.00000000  0.39473700       0.007
   0.00000000  0.00000000  0.42105300       0.007
   0.00000000  0.00000000  0.44736800       0.007
   0.00000000  0.00000000  0.47368400       0.007
   0.00000000  0.00000000  0.50000000       0.007
   0.00000000  0.03846200  0.50000000       0.007
   0.00000000  0.07692300  0.50000000       0.007
   0.00000000  0.11538500  0.50000000       0.007
   0.00000000  0.15384600  0.50000000       0.007
   0.00000000  0.19230800  0.50000000       0.007
   0.00000000  0.23076900  0.50000000       0.007
   0.00000000  0.26923100  0.50000000       0.007
   0.00000000  0.30769200  0.50000000       0.007
   0.00000000  0.34615400  0.50000000       0.007
   0.00000000  0.38461500  0.50000000       0.007
   0.00000000  0.42307700  0.50000000       0.007
   0.00000000  0.46153800  0.50000000       0.007
   0.00000000  0.50000000  0.50000000       0.007
   0.03846200  0.50000000  0.50000000       0.007
   0.07692300  0.50000000  0.50000000       0.007
   0.11538500  0.50000000  0.50000000       0.007
   0.15384600  0.50000000  0.50000000       0.007
   0.19230800  0.50000000  0.50000000       0.007
   0.23076900  0.50000000  0.50000000       0.007
   0.26923100  0.50000000  0.50000000       0.007
   0.30769200  0.50000000  0.50000000       0.007
   0.34615400  0.50000000  0.50000000       0.007
   0.38461500  0.50000000  0.50000000       0.007
   0.42307700  0.50000000  0.50000000       0.007
   0.46153800  0.50000000  0.50000000       0.007
   0.50000000  0.50000000  0.50000000       0.007
   0.47368400  0.47368400  0.50000000       0.007
   0.44736800  0.44736800  0.50000000       0.007
   0.42105300  0.42105300  0.50000000       0.007
   0.39473700  0.39473700  0.50000000       0.007
   0.36842100  0.36842100  0.50000000       0.007
   0.34210500  0.34210500  0.50000000       0.007
   0.31578900  0.31578900  0.50000000       0.007
   0.28947400  0.28947400  0.50000000       0.007
   0.26315800  0.26315800  0.50000000       0.007
   0.23684200  0.23684200  0.50000000       0.007
   0.21052600  0.21052600  0.50000000       0.007
   0.18421100  0.18421100  0.50000000       0.007
   0.15789500  0.15789500  0.50000000       0.007
   0.13157900  0.13157900  0.50000000       0.007
   0.10526300  0.10526300  0.50000000       0.007
   0.07894700  0.07894700  0.50000000       0.007
   0.05263200  0.05263200  0.50000000       0.007
   0.02631600  0.02631600  0.50000000       0.007
   0.00000000  0.00000000  0.50000000       0.007
   0.00000000  0.50000000  0.00000000       0.007
   0.00000000  0.50000000  0.02500000       0.007
   0.00000000  0.50000000  0.05000000       0.007
   0.00000000  0.50000000  0.07500000       0.007
   0.00000000  0.50000000  0.10000000       0.007
   0.00000000  0.50000000  0.12500000       0.007
   0.00000000  0.50000000  0.15000000       0.007
   0.00000000  0.50000000  0.17500000       0.007
   0.00000000  0.50000000  0.20000000       0.007
   0.00000000  0.50000000  0.22500000       0.007
   0.00000000  0.50000000  0.25000000       0.007
   0.00000000  0.50000000  0.27500000       0.007
   0.00000000  0.50000000  0.30000000       0.007
   0.00000000  0.50000000  0.32500000       0.007
   0.00000000  0.50000000  0.35000000       0.007
   0.00000000  0.50000000  0.37500000       0.007
   0.00000000  0.50000000  0.40000000       0.007
   0.00000000  0.50000000  0.42500000       0.007
   0.00000000  0.50000000  0.45000000       0.007
   0.00000000  0.50000000  0.47500000       0.007
   0.00000000  0.50000000  0.50000000       0.007
   0.50000000  0.50000000  0.00000000       0.007
   0.50000000  0.50000000  0.02381000       0.007
   0.50000000  0.50000000  0.04761900       0.007
   0.50000000  0.50000000  0.07142900       0.007
   0.50000000  0.50000000  0.09523800       0.007
   0.50000000  0.50000000  0.11904800       0.007
   0.50000000  0.50000000  0.14285700       0.007
   0.50000000  0.50000000  0.16666700       0.007
   0.50000000  0.50000000  0.19047600       0.007
   0.50000000  0.50000000  0.21428600       0.007
   0.50000000  0.50000000  0.23809500       0.007
   0.50000000  0.50000000  0.26190500       0.007
   0.50000000  0.50000000  0.28571400       0.007
   0.50000000  0.50000000  0.30952400       0.007
   0.50000000  0.50000000  0.33333300       0.007
   0.50000000  0.50000000  0.35714300       0.007
   0.50000000  0.50000000  0.38095200       0.007
   0.50000000  0.50000000  0.40476200       0.007
   0.50000000  0.50000000  0.42857100       0.007
   0.50000000  0.50000000  0.45238100       0.007
   0.50000000  0.50000000  0.47619000       0.007
   0.50000000  0.50000000  0.50000000       0.007
 
 position of ions in fractional coordinates (direct lattice) 
   0.50000000  0.50000000  0.50000000
   0.00000000  0.00000000  0.00000000
   0.19508961  0.80491039  0.50000000
   0.80491039  0.19508961  0.50000000
   0.30491039  0.30491039  0.00000000
   0.69508961  0.69508961  0.00000000
 
 position of ions in cartesian coordinates  (Angst):
   2.44589833  2.44589833  1.65760247
   0.00000000  0.00000000  0.00000000
   0.95433872  3.93745795  1.65760247
   3.93745795  0.95433872  1.65760247
   1.49155962  1.49155962  0.00000000
   3.40023705  3.40023705  0.00000000
 


--------------------------------------------------------------------------------------------------------


 k-point  1 :   0.0000 0.0000 0.0000  plane waves:    3347
 k-point  2 :   0.0000 0.0385 0.0000  plane waves:    3339
 k-point  3 :   0.0000 0.0769 0.0000  plane waves:    3347
 k-point  4 :   0.0000 0.1154 0.0000  plane waves:    3349
 k-point  5 :   0.0000 0.1538 0.0000  plane waves:    3343
 k-point  6 :   0.0000 0.1923 0.0000  plane waves:    3341
 k-point  7 :   0.0000 0.2308 0.0000  plane waves:    3337
 k-point  8 :   0.0000 0.2692 0.0000  plane waves:    3339
 k-point  9 :   0.0000 0.3077 0.0000  plane waves:    3333
 k-point 10 :   0.0000 0.3462 0.0000  plane waves:    3335
 k-point 11 :   0.0000 0.3846 0.0000  plane waves:    3335
 k-point 12 :   0.0000 0.4231 0.0000  plane waves:    3329
 k-point 13 :   0.0000 0.4615 0.0000  plane waves:    3346
 k-point 14 :   0.0000 0.5000 0.0000  plane waves:    3350
 k-point 15 :   0.0385 0.5000 0.0000  plane waves:    3336
 k-point 16 :   0.0769 0.5000 0.0000  plane waves:    3332
 k-point 17 :   0.1154 0.5000 0.0000  plane waves:    3328
 k-point 18 :   0.1538 0.5000 0.0000  plane waves:    3320
 k-point 19 :   0.1923 0.5000 0.0000  plane waves:    3332
 k-point 20 :   0.2308 0.5000 0.0000  plane waves:    3340
 k-point 21 :   0.2692 0.5000 0.0000  plane waves:    3332
 k-point 22 :   0.3077 0.5000 0.0000  plane waves:    3332
 k-point 23 :   0.3462 0.5000 0.0000  plane waves:    3330
 k-point 24 :   0.3846 0.5000 0.0000  plane waves:    3330
 k-point 25 :   0.4231 0.5000 0.0000  plane waves:    3324
 k-point 26 :   0.4615 0.5000 0.0000  plane waves:    3328
 k-point 27 :   0.5000 0.5000 0.0000  plane waves:    3356
 k-point 28 :   0.4722 0.4722 0.0000  plane waves:    3328
 k-point 29 :   0.4444 0.4444 0.0000  plane waves:    3327
 k-point 30 :   0.4167 0.4167 0.0000  plane waves:    3325
 k-point 31 :   0.3889 0.3889 0.0000  plane waves:    3333
 k-point 32 :   0.3611 0.3611 0.0000  plane waves:    3339
 k-point 33 :   0.3333 0.3333 0.0000  plane waves:    3333
 k-point 34 :   0.3056 0.3056 0.0000  plane waves:    3345
 k-point 35 :   0.2778 0.2778 0.0000  plane waves:    3335
 k-point 36 :   0.2500 0.2500 0.0000  plane waves:    3331
 k-point 37 :   0.2222 0.2222 0.0000  plane waves:    3325
 k-point 38 :   0.1944 0.1944 0.0000  plane waves:    3329
 k-point 39 :   0.1667 0.1667 0.0000  plane waves:    3325
 k-point 40 :   0.1389 0.1389 0.0000  plane waves:    3337
 k-point 41 :   0.1111 0.1111 0.0000  plane waves:    3333
 k-point 42 :   0.0833 0.0833 0.0000  plane waves:    3347
 k-point 43 :   0.0556 0.0556 0.0000  plane waves:    3349
 k-point 44 :   0.0278 0.0278 0.0000  plane waves:    3339
 k-point 45 :   0.0000 0.0000 0.0000  plane waves:    3347
 k-point 46 :   0.0000 0.0000 0.0263  plane waves:    3351
 k-point 47 :   0.0000 0.0000 0.0526  plane waves:    3355
 k-point 48 :   0.0000 0.0000 0.0789  plane waves:    3355
 k-point 49 :   0.0000 0.0000 0.1053  plane waves:    3351
 k-point 50 :   0.0000 0.0000 0.1316  plane waves:    3355
 k-point 51 :   0.0000 0.0000 0.1579  plane waves:    3342
 k-point 52 :   0.0000 0.0000 0.1842  plane waves:    3342
 k-point 53 :   0.0000 0.0000 0.2105  plane waves:    3342
 k-point 54 :   0.0000 0.0000 0.2368  plane waves:    3334
 k-point 55 :   0.0000 0.0000 0.2632  plane waves:    3322
 k-point 56 :   0.0000 0.0000 0.2895  plane waves:    3330
 k-point 57 :   0.0000 0.0000 0.3158  plane waves:    3314
 k-point 58 :   0.0000 0.0000 0.3421  plane waves:    3326
 k-point 59 :   0.0000 0.0000 0.3684  plane waves:    3322
 k-point 60 :   0.0000 0.0000 0.3947  plane waves:    3342
 k-point 61 :   0.0000 0.0000 0.4211  plane waves:    3350
 k-point 62 :   0.0000 0.0000 0.4474  plane waves:    3366
 k-point 63 :   0.0000 0.0000 0.4737  plane waves:    3362
 k-point 64 :   0.0000 0.0000 0.5000  plane waves:    3342
 k-point 65 :   0.0000 0.0385 0.5000  plane waves:    3354
 k-point 66 :   0.0000 0.0769 0.5000  plane waves:    3346
 k-point 67 :   0.0000 0.1154 0.5000  plane waves:    3344
 k-point 68 :   0.0000 0.1538 0.5000  plane waves:    3344
 k-point 69 :   0.0000 0.1923 0.5000  plane waves:    3360
 k-point 70 :   0.0000 0.2308 0.5000  plane waves:    3352
 k-point 71 :   0.0000 0.2692 0.5000  plane waves:    3354
 k-point 72 :   0.0000 0.3077 0.5000  plane waves:    3342
 k-point 73 :   0.0000 0.3462 0.5000  plane waves:    3344
 k-point 74 :   0.0000 0.3846 0.5000  plane waves:    3352
 k-point 75 :   0.0000 0.4231 0.5000  plane waves:    3350
 k-point 76 :   0.0000 0.4615 0.5000  plane waves:    3346
 k-point 77 :   0.0000 0.5000 0.5000  plane waves:    3364
 k-point 78 :   0.0385 0.5000 0.5000  plane waves:    3344
 k-point 79 :   0.0769 0.5000 0.5000  plane waves:    3340
 k-point 80 :   0.1154 0.5000 0.5000  plane waves:    3332
 k-point 81 :   0.1538 0.5000 0.5000  plane waves:    3344
 k-point 82 :   0.1923 0.5000 0.5000  plane waves:    3340
 k-point 83 :   0.2308 0.5000 0.5000  plane waves:    3336
 k-point 84 :   0.2692 0.5000 0.5000  plane waves:    3340
 k-point 85 :   0.3077 0.5000 0.5000  plane waves:    3340
 k-point 86 :   0.3462 0.5000 0.5000  plane waves:    3336
 k-point 87 :   0.3846 0.5000 0.5000  plane waves:    3332
 k-point 88 :   0.4231 0.5000 0.5000  plane waves:    3320
 k-point 89 :   0.4615 0.5000 0.5000  plane waves:    3320
 k-point 90 :   0.5000 0.5000 0.5000  plane waves:    3344
 k-point 91 :   0.4737 0.4737 0.5000  plane waves:    3322
 k-point 92 :   0.4474 0.4474 0.5000  plane waves:    3318
 k-point 93 :   0.4211 0.4211 0.5000  plane waves:    3324
 k-point 94 :   0.3947 0.3947 0.5000  plane waves:    3320
 k-point 95 :   0.3684 0.3684 0.5000  plane waves:    3328
 k-point 96 :   0.3421 0.3421 0.5000  plane waves:    3328
 k-point 97 :   0.3158 0.3158 0.5000  plane waves:    3336
 k-point 98 :   0.2895 0.2895 0.5000  plane waves:    3342
 k-point 99 :   0.2632 0.2632 0.5000  plane waves:    3338
 k-point ** :   0.2368 0.2368 0.5000  plane waves:    3342
 k-point ** :   0.2105 0.2105 0.5000  plane waves:    3340
 k-point ** :   0.1842 0.1842 0.5000  plane waves:    3334
 k-point ** :   0.1579 0.1579 0.5000  plane waves:    3334
 k-point ** :   0.1316 0.1316 0.5000  plane waves:    3338
 k-point ** :   0.1053 0.1053 0.5000  plane waves:    3344
 k-point ** :   0.0789 0.0789 0.5000  plane waves:    3348
 k-point ** :   0.0526 0.0526 0.5000  plane waves:    3352
 k-point ** :   0.0263 0.0263 0.5000  plane waves:    3352
 k-point ** :   0.0000 0.0000 0.5000  plane waves:    3342
 k-point ** :   0.0000 0.5000 0.0000  plane waves:    3350
 k-point ** :   0.0000 0.5000 0.0250  plane waves:    3342
 k-point ** :   0.0000 0.5000 0.0500  plane waves:    3328
 k-point ** :   0.0000 0.5000 0.0750  plane waves:    3330
 k-point ** :   0.0000 0.5000 0.1000  plane waves:    3324
 k-point ** :   0.0000 0.5000 0.1250  plane waves:    3324
 k-point ** :   0.0000 0.5000 0.1500  plane waves:    3326
 k-point ** :   0.0000 0.5000 0.1750  plane waves:    3338
 k-point ** :   0.0000 0.5000 0.2000  plane waves:    3338
 k-point ** :   0.0000 0.5000 0.2250  plane waves:    3346
 k-point ** :   0.0000 0.5000 0.2500  plane waves:    3336
 k-point ** :   0.0000 0.5000 0.2750  plane waves:    3322
 k-point ** :   0.0000 0.5000 0.3000  plane waves:    3336
 k-point ** :   0.0000 0.5000 0.3250  plane waves:    3340
 k-point ** :   0.0000 0.5000 0.3500  plane waves:    3328
 k-point ** :   0.0000 0.5000 0.3750  plane waves:    3334
 k-point ** :   0.0000 0.5000 0.4000  plane waves:    3334
 k-point ** :   0.0000 0.5000 0.4250  plane waves:    3342
 k-point ** :   0.0000 0.5000 0.4500  plane waves:    3342
 k-point ** :   0.0000 0.5000 0.4750  plane waves:    3356
 k-point ** :   0.0000 0.5000 0.5000  plane waves:    3364
 k-point ** :   0.5000 0.5000 0.0000  plane waves:    3356
 k-point ** :   0.5000 0.5000 0.0238  plane waves:    3304
 k-point ** :   0.5000 0.5000 0.0476  plane waves:    3304
 k-point ** :   0.5000 0.5000 0.0714  plane waves:    3320
 k-point ** :   0.5000 0.5000 0.0952  plane waves:    3320
 k-point ** :   0.5000 0.5000 0.1190  plane waves:    3304
 k-point ** :   0.5000 0.5000 0.1429  plane waves:    3316
 k-point ** :   0.5000 0.5000 0.1667  plane waves:    3320
 k-point ** :   0.5000 0.5000 0.1905  plane waves:    3320
 k-point ** :   0.5000 0.5000 0.2143  plane waves:    3320
 k-point ** :   0.5000 0.5000 0.2381  plane waves:    3304
 k-point ** :   0.5000 0.5000 0.2619  plane waves:    3308
 k-point ** :   0.5000 0.5000 0.2857  plane waves:    3324
 k-point ** :   0.5000 0.5000 0.3095  plane waves:    3320
 k-point ** :   0.5000 0.5000 0.3333  plane waves:    3324
 k-point ** :   0.5000 0.5000 0.3571  plane waves:    3324
 k-point ** :   0.5000 0.5000 0.3810  plane waves:    3340
 k-point ** :   0.5000 0.5000 0.4048  plane waves:    3340
 k-point ** :   0.5000 0.5000 0.4286  plane waves:    3340
 k-point ** :   0.5000 0.5000 0.4524  plane waves:    3324
 k-point ** :   0.5000 0.5000 0.4762  plane waves:    3332
 k-point ** :   0.5000 0.5000 0.5000  plane waves:    3344

 maximum and minimum number of plane-waves per node :      3366     3304

 maximum number of plane-waves:      3366
 maximum index in each direction: 
   IXMAX=   10   IYMAX=   10   IZMAX=    7
   IXMIN=  -11   IYMIN=  -11   IZMIN=   -7


 serial   3D FFT for wavefunctions
 parallel 3D FFT for charge:
    minimum data exchange during FFTs selected (reduces bandwidth)


 total amount of memory used by VASP MPI-rank0   391980. kBytes
=======================================================================

   base      :      30000. kBytes
   nonl-proj :     147760. kBytes
   fftplans  :       7420. kBytes
   grid      :       6062. kBytes
   one-center:        186. kBytes
   wavefun   :     200552. kBytes
 
     INWAV:  cpu time    0.0000: real time    0.0000
 initial charge density was supplied:
 number of electron      53.9999996 magnetization       0.0000000
 keeping initial charge density in first step


--------------------------------------------------------------------------------------------------------


 Maximum index for augmentation-charges        18257 (set IRDMAX)


--------------------------------------------------------------------------------------------------------


 First call to EWALD:  gamma=   0.413
 Maximum number of real-space cells 2x 2x 3
 Maximum number of reciprocal cells 3x 3x 2

    FEWALD:  cpu time    0.0012: real time    0.0012


--------------------------------------- Iteration      1(   1)  ---------------------------------------


    POTLOK:  cpu time    0.0253: real time    0.0253
    SETDIJ:  cpu time    0.7186: real time    0.7186
atom =   1  type =  1  l = 2
 
 onsite density matrix
 
spin component  1
 
  0.0416  0.0000  0.0230  0.0000  0.0000
  0.0000  0.0341  0.0000  0.0197 -0.0000
  0.0230  0.0000  0.0289  0.0000  0.0000
  0.0000  0.0197  0.0000  0.0341 -0.0000
  0.0000 -0.0000  0.0000 -0.0000  0.0126
 
spin component  2
 
  0.9735  0.0000  0.0193 -0.0000 -0.0000
  0.0000  0.9677  0.0000  0.0170 -0.0000
  0.0193  0.0000  0.9623  0.0000 -0.0000
 -0.0000  0.0170  0.0000  0.9677 -0.0000
 -0.0000 -0.0000 -0.0000 -0.0000  0.9507
 
 occupancies and eigenvectors
 
  o =  0.0114  v = -0.6066 -0.0000  0.7950  0.0000  0.0000  0.0000  0.0000  0.0000  0.0000  0.0000      0.0000  0.0000  0.0000  0.0000  0.0000  0.0000  0.0000  0.0000  0.0000  0.0000
  o =  0.0126  v =  0.0000  0.0000 -0.0000 -0.0000  1.0000  0.0000  0.0000  0.0000  0.0000  0.0000      0.0000  0.0000  0.0000  0.0000  0.0000  0.0000  0.0000  0.0000  0.0000  0.0000
  o =  0.0144  v = -0.0000  0.7071  0.0000 -0.7071 -0.0000  0.0000  0.0000  0.0000  0.0000  0.0000      0.0000  0.0000  0.0000  0.0000  0.0000  0.0000  0.0000  0.0000  0.0000  0.0000
  o =  0.0538  v = -0.0000  0.7071 -0.0000  0.7071 -0.0000  0.0000  0.0000  0.0000  0.0000  0.0000      0.0000  0.0000  0.0000  0.0000  0.0000  0.0000  0.0000  0.0000  0.0000  0.0000
  o =  0.0591  v = -0.7950 -0.0000 -0.6066 -0.0000 -0.0000  0.0000  0.0000  0.0000  0.0000  0.0000      0.0000  0.0000  0.0000  0.0000  0.0000  0.0000  0.0000  0.0000  0.0000  0.0000
  o =  0.9478  v =  0.0000  0.0000  0.0000  0.0000  0.0000 -0.5996  0.0000  0.8003 -0.0000 -0.0000      0.0000  0.0000  0.0000  0.0000  0.0000  0.0000  0.0000  0.0000  0.0000  0.0000
  o =  0.9507  v =  0.0000  0.0000  0.0000  0.0000  0.0000 -0.0000 -0.7071  0.0000  0.7071 -0.0000      0.0000  0.0000  0.0000  0.0000  0.0000  0.0000  0.0000  0.0000  0.0000  0.0000
  o =  0.9507  v =  0.0000  0.0000  0.0000  0.0000  0.0000 -0.0000 -0.0000  0.0000  0.0000  1.0000      0.0000  0.0000  0.0000  0.0000  0.0000  0.0000  0.0000  0.0000  0.0000  0.0000
  o =  0.9847  v =  0.0000  0.0000  0.0000  0.0000  0.0000 -0.0000 -0.7071 -0.0000 -0.7071  0.0000      0.0000  0.0000  0.0000  0.0000  0.0000  0.0000  0.0000  0.0000  0.0000  0.0000
  o =  0.9880  v =  0.0000  0.0000  0.0000  0.0000  0.0000 -0.8003  0.0000 -0.5996  0.0000  0.0000      0.0000  0.0000  0.0000  0.0000  0.0000  0.0000  0.0000  0.0000  0.0000  0.0000
atom =   2  type =  1  l = 2
 
 onsite density matrix
 
spin component  1
 
  0.9735  0.0000 -0.0193 -0.0000 -0.0000
  0.0000  0.9677 -0.0000 -0.0170 -0.0000
 -0.0193 -0.0000  0.9623  0.0000  0.0000
 -0.0000 -0.0170  0.0000  0.9677  0.0000
 -0.0000 -0.0000  0.0000  0.0000  0.9507
 
spin component  2
 
  0.0416  0.0000 -0.0230  0.0000  0.0000
  0.0000  0.0341  0.0000 -0.0197 -0.0000
 -0.0230  0.0000  0.0289  0.0000  0.0000
  0.0000 -0.0197  0.0000  0.0341  0.0000
  0.0000 -0.0000  0.0000  0.0000  0.0126
 
 occupancies and eigenvectors
 
  o =  0.0114  v =  0.0000  0.0000  0.0000  0.0000  0.0000 -0.6066  0.0000 -0.7950  0.0000  0.0000      0.0000  0.0000  0.0000  0.0000  0.0000  0.0000  0.0000  0.0000  0.0000  0.0000
  o =  0.0126  v =  0.0000  0.0000  0.0000  0.0000  0.0000  0.0000 -0.0000  0.0000 -0.0000  1.0000      0.0000  0.0000  0.0000  0.0000  0.0000  0.0000  0.0000  0.0000  0.0000  0.0000
  o =  0.0144  v =  0.0000  0.0000  0.0000  0.0000  0.0000  0.0000  0.7071  0.0000  0.7071  0.0000      0.0000  0.0000  0.0000  0.0000  0.0000  0.0000  0.0000  0.0000  0.0000  0.0000
  o =  0.0538  v =  0.0000  0.0000  0.0000  0.0000  0.0000 -0.0000  0.7071  0.0000 -0.7071 -0.0000      0.0000  0.0000  0.0000  0.0000  0.0000  0.0000  0.0000  0.0000  0.0000  0.0000
  o =  0.0591  v =  0.0000  0.0000  0.0000  0.0000  0.0000 -0.7950 -0.0000  0.6066  0.0000 -0.0000      0.0000  0.0000  0.0000  0.0000  0.0000  0.0000  0.0000  0.0000  0.0000  0.0000
  o =  0.9478  v = -0.5996  0.0000 -0.8003  0.0000 -0.0000  0.0000  0.0000  0.0000  0.0000  0.0000      0.0000  0.0000  0.0000  0.0000  0.0000  0.0000  0.0000  0.0000  0.0000  0.0000
  o =  0.9507  v =  0.0000 -0.7071 -0.0000 -0.7071 -0.0000  0.0000  0.0000  0.0000  0.0000  0.0000      0.0000  0.0000  0.0000  0.0000  0.0000  0.0000  0.0000  0.0000  0.0000  0.0000
  o =  0.9507  v =  0.0000  0.0000  0.0000  0.0000 -1.0000  0.0000  0.0000  0.0000  0.0000  0.0000      0.0000  0.0000  0.0000  0.0000  0.0000  0.0000  0.0000  0.0000  0.0000  0.0000
  o =  0.9847  v =  0.0000 -0.7071 -0.0000  0.7071  0.0000  0.0000  0.0000  0.0000  0.0000  0.0000      0.0000  0.0000  0.0000  0.0000  0.0000  0.0000  0.0000  0.0000  0.0000  0.0000
  o =  0.9880  v = -0.8003 -0.0000  0.5996  0.0000  0.0000  0.0000  0.0000  0.0000  0.0000  0.0000      0.0000  0.0000  0.0000  0.0000  0.0000  0.0000  0.0000  0.0000  0.0000  0.0000
     EDDAV:  cpu time   31.3584: real time   31.4905
       DOS:  cpu time    0.0085: real time    0.0085
    --------------------------------------------
      LOOP:  cpu time   32.1108: real time   32.2430

 eigenvalue-minimisations  : 29240
 total energy-change (2. order) : 0.7373119E+03  (-0.3339916E+04)
 number of electron      53.9999996 magnetization       0.0000000
 augmentation part       53.9999996 magnetization       0.0000000

 Free energy of the ion-electron system (eV)
  ---------------------------------------------------
  alpha Z        PSCENC =       192.05208299
  Ewald energy   TEWEN  =     -4167.81530784
  -Hartree energ DENC   =     -2157.27541646
  -exchange      EXHF   =         0.00000000
  -V(xc)+E(xc)   XCENC  =       295.73399570
  PAW double counting   =      6246.31280916    -6356.67704085
  entropy T*S    EENTRO =        -0.00009176
  eigenvalues    EBANDS =        -4.52757136
  atomic energy  EATOM  =      6689.50845332
  Solvation  Ediel_sol  =         0.00000000
  ---------------------------------------------------
  free energy    TOTEN  =       737.31191290 eV

  energy without entropy =      737.31200467  energy(sigma->0) =      737.31195878


--------------------------------------------------------------------------------------------------------




--------------------------------------- Iteration      1(   2)  ---------------------------------------


     EDDAV:  cpu time   24.3401: real time   24.3477
       DOS:  cpu time    0.0022: real time    0.0022
    --------------------------------------------
      LOOP:  cpu time   24.3423: real time   24.3499

 eigenvalue-minimisations  : 29248
 total energy-change (2. order) :-0.7071563E+03  (-0.6537473E+03)
 number of electron      53.9999996 magnetization       0.0000000
 augmentation part       53.9999996 magnetization       0.0000000

 Free energy of the ion-electron system (eV)
  ---------------------------------------------------
  alpha Z        PSCENC =       192.05208299
  Ewald energy   TEWEN  =     -4167.81530784
  -Hartree energ DENC   =     -2157.27541646
  -exchange      EXHF   =         0.00000000
  -V(xc)+E(xc)   XCENC  =       295.73399570
  PAW double counting   =      6246.31280916    -6356.67704085
  entropy T*S    EENTRO =        -0.00000000
  eigenvalues    EBANDS =      -711.68392604
  atomic energy  EATOM  =      6689.50845332
  Solvation  Ediel_sol  =         0.00000000
  ---------------------------------------------------
  free energy    TOTEN  =        30.15564999 eV

  energy without entropy =       30.15564999  energy(sigma->0) =       30.15564999


--------------------------------------------------------------------------------------------------------




--------------------------------------- Iteration      1(   3)  ---------------------------------------


     EDDAV:  cpu time   35.6739: real time   35.7079
       DOS:  cpu time    0.0020: real time    0.0020
    --------------------------------------------
      LOOP:  cpu time   35.6759: real time   35.7100

 eigenvalue-minimisations  : 33216
 total energy-change (2. order) :-0.6823213E+02  (-0.6704793E+02)
 number of electron      53.9999996 magnetization       0.0000000
 augmentation part       53.9999996 magnetization       0.0000000

 Free energy of the ion-electron system (eV)
  ---------------------------------------------------
  alpha Z        PSCENC =       192.05208299
  Ewald energy   TEWEN  =     -4167.81530784
  -Hartree energ DENC   =     -2157.27541646
  -exchange      EXHF   =         0.00000000
  -V(xc)+E(xc)   XCENC  =       295.73399570
  PAW double counting   =      6246.31280916    -6356.67704085
  entropy T*S    EENTRO =        -0.00000000
  eigenvalues    EBANDS =      -779.91605281
  atomic energy  EATOM  =      6689.50845332
  Solvation  Ediel_sol  =         0.00000000
  ---------------------------------------------------
  free energy    TOTEN  =       -38.07647678 eV

  energy without entropy =      -38.07647678  energy(sigma->0) =      -38.07647678


--------------------------------------------------------------------------------------------------------




--------------------------------------- Iteration      1(   4)  ---------------------------------------


     EDDAV:  cpu time   26.4432: real time   26.4493
       DOS:  cpu time    0.0018: real time    0.0018
    --------------------------------------------
      LOOP:  cpu time   26.4450: real time   26.4511

 eigenvalue-minimisations  : 32352
 total energy-change (2. order) :-0.1283952E+01  (-0.1281731E+01)
 number of electron      53.9999996 magnetization       0.0000000
 augmentation part       53.9999996 magnetization       0.0000000

 Free energy of the ion-electron system (eV)
  ---------------------------------------------------
  alpha Z        PSCENC =       192.05208299
  Ewald energy   TEWEN  =     -4167.81530784
  -Hartree energ DENC   =     -2157.27541646
  -exchange      EXHF   =         0.00000000
  -V(xc)+E(xc)   XCENC  =       295.73399570
  PAW double counting   =      6246.31280916    -6356.67704085
  entropy T*S    EENTRO =        -0.00000000
  eigenvalues    EBANDS =      -781.20000442
  atomic energy  EATOM  =      6689.50845332
  Solvation  Ediel_sol  =         0.00000000
  ---------------------------------------------------
  free energy    TOTEN  =       -39.36042839 eV

  energy without entropy =      -39.36042839  energy(sigma->0) =      -39.36042839


--------------------------------------------------------------------------------------------------------




--------------------------------------- Iteration      1(   5)  ---------------------------------------


     EDDAV:  cpu time   34.1262: real time   34.1294
       DOS:  cpu time    0.0017: real time    0.0017
    --------------------------------------------
      LOOP:  cpu time   34.1280: real time   34.1312

 eigenvalue-minimisations  : 34904
 total energy-change (2. order) :-0.1353496E-01  (-0.1353442E-01)
 number of electron      53.9999996 magnetization       0.0000000
 augmentation part       53.9999996 magnetization       0.0000000

 Free energy of the ion-electron system (eV)
  ---------------------------------------------------
  alpha Z        PSCENC =       192.05208299
  Ewald energy   TEWEN  =     -4167.81530784
  -Hartree energ DENC   =     -2157.27541646
  -exchange      EXHF   =         0.00000000
  -V(xc)+E(xc)   XCENC  =       295.73399570
  PAW double counting   =      6246.31280916    -6356.67704085
  entropy T*S    EENTRO =        -0.00000000
  eigenvalues    EBANDS =      -781.21353938
  atomic energy  EATOM  =      6689.50845332
  Solvation  Ediel_sol  =         0.00000000
  ---------------------------------------------------
  free energy    TOTEN  =       -39.37396336 eV

  energy without entropy =      -39.37396336  energy(sigma->0) =      -39.37396336


--------------------------------------------------------------------------------------------------------




--------------------------------------- Iteration      1(   6)  ---------------------------------------


     EDDAV:  cpu time   24.8499: real time   24.8501
       DOS:  cpu time    0.0017: real time    0.0017
    --------------------------------------------
      LOOP:  cpu time   24.8516: real time   24.8518

 eigenvalue-minimisations  : 32752
 total energy-change (2. order) :-0.3503006E-03  (-0.3502972E-03)
 number of electron      53.9999996 magnetization       0.0000000
 augmentation part       53.9999996 magnetization       0.0000000

 Free energy of the ion-electron system (eV)
  ---------------------------------------------------
  alpha Z        PSCENC =       192.05208299
  Ewald energy   TEWEN  =     -4167.81530784
  -Hartree energ DENC   =     -2157.27541646
  -exchange      EXHF   =         0.00000000
  -V(xc)+E(xc)   XCENC  =       295.73399570
  PAW double counting   =      6246.31280916    -6356.67704085
  entropy T*S    EENTRO =        -0.00000000
  eigenvalues    EBANDS =      -781.21388968
  atomic energy  EATOM  =      6689.50845332
  Solvation  Ediel_sol  =         0.00000000
  ---------------------------------------------------
  free energy    TOTEN  =       -39.37431366 eV

  energy without entropy =      -39.37431366  energy(sigma->0) =      -39.37431366


--------------------------------------------------------------------------------------------------------




--------------------------------------- Iteration      1(   7)  ---------------------------------------


     EDDAV:  cpu time   37.1886: real time   37.2336
       DOS:  cpu time    0.0020: real time    0.0020
    --------------------------------------------
      LOOP:  cpu time   37.1906: real time   37.2356

 eigenvalue-minimisations  : 37944
 total energy-change (2. order) :-0.1371484E-04  (-0.1371481E-04)
 number of electron      53.9999996 magnetization       0.0000000
 augmentation part       53.9999996 magnetization       0.0000000

 Free energy of the ion-electron system (eV)
  ---------------------------------------------------
  alpha Z        PSCENC =       192.05208299
  Ewald energy   TEWEN  =     -4167.81530784
  -Hartree energ DENC   =     -2157.27541646
  -exchange      EXHF   =         0.00000000
  -V(xc)+E(xc)   XCENC  =       295.73399570
  PAW double counting   =      6246.31280916    -6356.67704085
  entropy T*S    EENTRO =        -0.00000000
  eigenvalues    EBANDS =      -781.21390339
  atomic energy  EATOM  =      6689.50845332
  Solvation  Ediel_sol  =         0.00000000
  ---------------------------------------------------
  free energy    TOTEN  =       -39.37432737 eV

  energy without entropy =      -39.37432737  energy(sigma->0) =      -39.37432737


--------------------------------------------------------------------------------------------------------




--------------------------------------- Iteration      1(   8)  ---------------------------------------


     EDDAV:  cpu time   25.1165: real time   25.1167
       DOS:  cpu time    0.0019: real time    0.0019
    --------------------------------------------
      LOOP:  cpu time   25.1184: real time   25.1187

 eigenvalue-minimisations  : 28176
 total energy-change (2. order) :-0.5858092E-06  (-0.5857895E-06)
 number of electron      53.9999996 magnetization       0.0000000
 augmentation part       53.9999996 magnetization       0.0000000

 Free energy of the ion-electron system (eV)
  ---------------------------------------------------
  alpha Z        PSCENC =       192.05208299
  Ewald energy   TEWEN  =     -4167.81530784
  -Hartree energ DENC   =     -2157.27541646
  -exchange      EXHF   =         0.00000000
  -V(xc)+E(xc)   XCENC  =       295.73399570
  PAW double counting   =      6246.31280916    -6356.67704085
  entropy T*S    EENTRO =        -0.00000000
  eigenvalues    EBANDS =      -781.21390398
  atomic energy  EATOM  =      6689.50845332
  Solvation  Ediel_sol  =         0.00000000
  ---------------------------------------------------
  free energy    TOTEN  =       -39.37432796 eV

  energy without entropy =      -39.37432796  energy(sigma->0) =      -39.37432796


--------------------------------------------------------------------------------------------------------




--------------------------------------- Iteration      1(   9)  ---------------------------------------


     EDDAV:  cpu time   21.0859: real time   21.0875
       DOS:  cpu time    0.0020: real time    0.0020
    --------------------------------------------
      LOOP:  cpu time   21.0879: real time   21.0895

 eigenvalue-minimisations  : 23112
 total energy-change (2. order) :-0.2901561E-07  (-0.2901350E-07)
 number of electron      53.9999996 magnetization       0.0000000
 augmentation part       53.9999996 magnetization       0.0000000

 Free energy of the ion-electron system (eV)
  ---------------------------------------------------
  alpha Z        PSCENC =       192.05208299
  Ewald energy   TEWEN  =     -4167.81530784
  -Hartree energ DENC   =     -2157.27541646
  -exchange      EXHF   =         0.00000000
  -V(xc)+E(xc)   XCENC  =       295.73399570
  PAW double counting   =      6246.31280916    -6356.67704085
  entropy T*S    EENTRO =        -0.00000000
  eigenvalues    EBANDS =      -781.21390401
  atomic energy  EATOM  =      6689.50845332
  Solvation  Ediel_sol  =         0.00000000
  ---------------------------------------------------
  free energy    TOTEN  =       -39.37432799 eV

  energy without entropy =      -39.37432799  energy(sigma->0) =      -39.37432799


--------------------------------------------------------------------------------------------------------




 average (electrostatic) potential at core
  the test charge radii are     0.9577  0.7167
  (the norm of the test charge is              1.0000)
       1 -71.9327       2 -71.9327       3 -77.0062       4 -77.0062       5 -77.0062
       6 -77.0062
 
 
 
 E-fermi :   0.6838     XC(G=0): -10.4142     alpha+bet : -8.4173


 spin component 1

 k-point     1 :       0.0000    0.0000    0.0000
  band No.  band energies     occupation 
      1     -46.6568      1.00000
      2     -46.6019      1.00000
      3     -46.5977      1.00000
      4     -42.0170      1.00000
      5     -41.9600      1.00000
      6     -41.9526      1.00000
      7     -21.1366      1.00000
      8     -20.6046      1.00000
      9     -20.5573      1.00000
     10     -20.5184      1.00000
     11      -5.2207      1.00000
     12      -4.6561      1.00000
     13      -4.4323      1.00000
     14      -3.9221      1.00000
     15      -3.0650      1.00000
     16      -3.0465      1.00000
     17      -3.0235      1.00000
     18      -2.9993      1.00000
     19      -2.1031      1.00000
     20      -1.6962      1.00000
     21      -1.6811      1.00000
     22      -1.5880      1.00000
     23      -1.3831      1.00000
     24      -1.3678      1.00000
     25      -1.0441      1.00000
     26      -0.0129      1.00000
     27       0.4592      1.00000
     28       4.2321      0.00000
     29       6.8701      0.00000
     30       7.5493      0.00000
     31       7.6498      0.00000
     32       8.3639      0.00000
     33       8.4765      0.00000
     34       9.3186      0.00000
     35       9.6706      0.00000
     36      11.3423      0.00000
     37      12.4338      0.00000
     38      13.9245      0.00000
     39      14.9156      0.00000
     40      15.1988      0.00000
     41      15.4187      0.00000
     42      16.4712      0.00000
     43      17.9577      0.00000
     44      18.7733      0.00000
     45      21.8384      0.00000
     46      22.2434      0.00000
     47      23.0324      0.00000
     48      23.0935      0.00000

 k-point     2 :       0.0000    0.0385    0.0000
  band No.  band energies     occupation 
      1     -46.6568      1.00000
      2     -46.6019      1.00000
      3     -46.5977      1.00000
      4     -42.0170      1.00000
      5     -41.9600      1.00000
      6     -41.9526      1.00000
      7     -21.1348      1.00000
      8     -20.6074      1.00000
      9     -20.5560      1.00000
     10     -20.5189      1.00000
     11      -5.2151      1.00000
     12      -4.6552      1.00000
     13      -4.4325      1.00000
     14      -3.9185      1.00000
     15      -3.0722      1.00000
     16      -3.0458      1.00000
     17      -3.0214      1.00000
     18      -2.9971      1.00000
     19      -2.1078      1.00000
     20      -1.7128      1.00000
     21      -1.6881      1.00000
     22      -1.5820      1.00000
     23      -1.3860      1.00000
     24      -1.3662      1.00000
     25      -1.0405      1.00000
     26      -0.0070      1.00000
     27       0.4598      1.00000
     28       4.2503      0.00000
     29       6.8711      0.00000
     30       7.5491      0.00000
     31       7.6492      0.00000
     32       8.3606      0.00000
     33       8.4763      0.00000
     34       9.3040      0.00000
     35       9.6621      0.00000
     36      11.3584      0.00000
     37      12.4538      0.00000
     38      13.8950      0.00000
     39      14.7775      0.00000
     40      15.3372      0.00000
     41      15.4582      0.00000
     42      16.4770      0.00000
     43      17.9579      0.00000
     44      18.7785      0.00000
     45      21.8268      0.00000
     46      22.1021      0.00000
     47      23.0516      0.00000
     48      23.1519      0.00000

 k-point     3 :       0.0000    0.0769    0.0000
  band No.  band energies     occupation 
      1     -46.6568      1.00000
      2     -46.6019      1.00000
      3     -46.5977      1.00000
      4     -42.0170      1.00000
      5     -41.9600      1.00000
      6     -41.9526      1.00000
      7     -21.1294      1.00000
      8     -20.6154      1.00000
      9     -20.5526      1.00000
     10     -20.5202      1.00000
     11      -5.1987      1.00000
     12      -4.6522      1.00000
     13      -4.4333      1.00000
     14      -3.9076      1.00000
     15      -3.0952      1.00000
     16      -3.0433      1.00000
     17      -3.0156      1.00000
     18      -2.9895      1.00000
     19      -2.1214      1.00000
     20      -1.7627      1.00000
     21      -1.7016      1.00000
     22      -1.5700      1.00000
     23      -1.3948      1.00000
     24      -1.3619      1.00000
     25      -1.0309      1.00000
     26       0.0101      1.00000
     27       0.4613      1.00000
     28       4.3042      0.00000
     29       6.8741      0.00000
     30       7.5485      0.00000
     31       7.6476      0.00000
     32       8.3507      0.00000
     33       8.4756      0.00000
     34       9.2477      0.00000
     35       9.6550      0.00000
     36      11.3989      0.00000
     37      12.5150      0.00000
     38      13.8134      0.00000
     39      14.5680      0.00000
     40      15.4664      0.00000
     41      15.6504      0.00000
     42      16.4942      0.00000
     43      17.9583      0.00000
     44      18.7941      0.00000
     45      21.7900      0.00000
     46      21.7905      0.00000
     47      22.7263      0.00000
     48      23.0398      0.00000

 k-point     4 :       0.0000    0.1154    0.0000
  band No.  band energies     occupation 
      1     -46.6568      1.00000
      2     -46.6019      1.00000
      3     -46.5977      1.00000
      4     -42.0170      1.00000
      5     -41.9600      1.00000
      6     -41.9526      1.00000
      7     -21.1206      1.00000
      8     -20.6273      1.00000
      9     -20.5484      1.00000
     10     -20.5223      1.00000
     11      -5.1721      1.00000
     12      -4.6469      1.00000
     13      -4.4344      1.00000
     14      -3.8893      1.00000
     15      -3.1348      1.00000
     16      -3.0385      1.00000
     17      -3.0070      1.00000
     18      -2.9753      1.00000
     19      -2.1432      1.00000
     20      -1.8367      1.00000
     21      -1.7197      1.00000
     22      -1.5573      1.00000
     23      -1.4094      1.00000
     24      -1.3552      1.00000
     25      -1.0172      1.00000
     26       0.0368      1.00000
     27       0.4637      1.00000
     28       4.3922      0.00000
     29       6.8788      0.00000
     30       7.5474      0.00000
     31       7.6451      0.00000
     32       8.3344      0.00000
     33       8.4745      0.00000
     34       9.1347      0.00000
     35       9.6784      0.00000
     36      11.4471      0.00000
     37      12.6193      0.00000
     38      13.6964      0.00000
     39      14.3614      0.00000
     40      15.5667      0.00000
     41      15.9228      0.00000
     42      16.5221      0.00000
     43      17.9588      0.00000
     44      18.8201      0.00000
     45      21.4193      0.00000
     46      21.7232      0.00000
     47      22.2112      0.00000
     48      23.0142      0.00000

 k-point     5 :       0.0000    0.1538    0.0000
  band No.  band energies     occupation 
      1     -46.6568      1.00000
      2     -46.6019      1.00000
      3     -46.5977      1.00000
      4     -42.0170      1.00000
      5     -41.9600      1.00000
      6     -41.9526      1.00000
      7     -21.1083      1.00000
      8     -20.6424      1.00000
      9     -20.5440      1.00000
     10     -20.5250      1.00000
     11      -5.1364      1.00000
     12      -4.6386      1.00000
     13      -4.4359      1.00000
     14      -3.8634      1.00000
     15      -3.1898      1.00000
     16      -3.0305      1.00000
     17      -2.9964      1.00000
     18      -2.9554      1.00000
     19      -2.1718      1.00000
     20      -1.9288      1.00000
     21      -1.7408      1.00000
     22      -1.5451      1.00000
     23      -1.4298      1.00000
     24      -1.3470      1.00000
     25      -1.0019      1.00000
     26       0.0706      1.00000
     27       0.4670      1.00000
     28       4.5118      0.00000
     29       6.8848      0.00000
     30       7.5460      0.00000
     31       7.6417      0.00000
     32       8.3105      0.00000
     33       8.4731      0.00000
     34       8.9749      0.00000
     35       9.7376      0.00000
     36      11.4876      0.00000
     37      12.7645      0.00000
     38      13.5629      0.00000
     39      14.1633      0.00000
     40      15.6837      0.00000
     41      16.2028      0.00000
     42      16.5595      0.00000
     43      17.9593      0.00000
     44      18.8566      0.00000
     45      21.0307      0.00000
     46      21.6215      0.00000
     47      21.7042      0.00000
     48      22.9756      0.00000

 k-point     6 :       0.0000    0.1923    0.0000
  band No.  band energies     occupation 
      1     -46.6568      1.00000
      2     -46.6019      1.00000
      3     -46.5977      1.00000
      4     -42.0170      1.00000
      5     -41.9600      1.00000
      6     -41.9527      1.00000
      7     -21.0928      1.00000
      8     -20.6606      1.00000
      9     -20.5399      1.00000
     10     -20.5278      1.00000
     11      -5.0934      1.00000
     12      -4.6261      1.00000
     13      -4.4377      1.00000
     14      -3.8297      1.00000
     15      -3.2589      1.00000
     16      -3.0196      1.00000
     17      -2.9847      1.00000
     18      -2.9313      1.00000
     19      -2.2058      1.00000
     20      -2.0340      1.00000
     21      -1.7626      1.00000
     22      -1.5336      1.00000
     23      -1.4555      1.00000
     24      -1.3381      1.00000
     25      -0.9865      1.00000
     26       0.1091      1.00000
     27       0.4708      1.00000
     28       4.6598      0.00000
     29       6.8913      0.00000
     30       7.5443      0.00000
     31       7.6377      0.00000
     32       8.2746      0.00000
     33       8.4715      0.00000
     34       8.7915      0.00000
     35       9.8254      0.00000
     36      11.5119      0.00000
     37      12.9374      0.00000
     38      13.4332      0.00000
     39      13.9765      0.00000
     40      15.8163      0.00000
     41      16.4680      0.00000
     42      16.6046      0.00000
     43      17.9596      0.00000
     44      18.9038      0.00000
     45      20.6438      0.00000
     46      21.2348      0.00000
     47      21.4837      0.00000
     48      22.9256      0.00000

 k-point     7 :       0.0000    0.2308    0.0000
  band No.  band energies     occupation 
      1     -46.6568      1.00000
      2     -46.6019      1.00000
      3     -46.5977      1.00000
      4     -42.0170      1.00000
      5     -41.9600      1.00000
      6     -41.9526      1.00000
      7     -21.0743      1.00000
      8     -20.6814      1.00000
      9     -20.5362      1.00000
     10     -20.5308      1.00000
     11      -5.0459      1.00000
     12      -4.6075      1.00000
     13      -4.4396      1.00000
     14      -3.7883      1.00000
     15      -3.3399      1.00000
     16      -3.0056      1.00000
     17      -2.9725      1.00000
     18      -2.9049      1.00000
     19      -2.2435      1.00000
     20      -2.1477      1.00000
     21      -1.7829      1.00000
     22      -1.5234      1.00000
     23      -1.4856      1.00000
     24      -1.3291      1.00000
     25      -0.9720      1.00000
     26       0.1496      1.00000
     27       0.4750      1.00000
     28       4.8328      0.00000
     29       6.8973      0.00000
     30       7.5422      0.00000
     31       7.6333      0.00000
     32       8.2119      0.00000
     33       8.4697      0.00000
     34       8.6132      0.00000
     35       9.9353      0.00000
     36      11.5176      0.00000
     37      13.0819      0.00000
     38      13.3533      0.00000
     39      13.8153      0.00000
     40      15.9617      0.00000
     41      16.6554      0.00000
     42      16.6935      0.00000
     43      17.9595      0.00000
     44      18.9618      0.00000
     45      20.2661      0.00000
     46      20.8351      0.00000
     47      21.3148      0.00000
     48      22.8675      0.00000

 k-point     8 :       0.0000    0.2692    0.0000
  band No.  band energies     occupation 
      1     -46.6568      1.00000
      2     -46.6019      1.00000
      3     -46.5977      1.00000
      4     -42.0170      1.00000
      5     -41.9600      1.00000
      6     -41.9527      1.00000
      7     -21.0530      1.00000
      8     -20.7048      1.00000
      9     -20.5336      1.00000
     10     -20.5329      1.00000
     11      -4.9977      1.00000
     12      -4.5799      1.00000
     13      -4.4416      1.00000
     14      -3.7396      1.00000
     15      -3.4311      1.00000
     16      -2.9892      1.00000
     17      -2.9602      1.00000
     18      -2.8786      1.00000
     19      -2.2833      1.00000
     20      -2.2647      1.00000
     21      -1.8001      1.00000
     22      -1.5255      1.00000
     23      -1.5084      1.00000
     24      -1.3207      1.00000
     25      -0.9589      1.00000
     26       0.1896      1.00000
     27       0.4794      1.00000
     28       5.0271      0.00000
     29       6.9015      0.00000
     30       7.5399      0.00000
     31       7.6288      0.00000
     32       8.0925      0.00000
     33       8.4679      0.00000
     34       8.4797      0.00000
     35      10.0628      0.00000
     36      11.5048      0.00000
     37      13.0652      0.00000
     38      13.3835      0.00000
     39      13.7545      0.00000
     40      16.1158      0.00000
     41      16.7092      0.00000
     42      16.8487      0.00000
     43      17.9589      0.00000
     44      19.0307      0.00000
     45      19.8946      0.00000
     46      20.5491      0.00000
     47      21.1242      0.00000
     48      22.8026      0.00000

 k-point     9 :       0.0000    0.3077    0.0000
  band No.  band energies     occupation 
      1     -46.6568      1.00000
      2     -46.6019      1.00000
      3     -46.5977      1.00000
      4     -42.0170      1.00000
      5     -41.9600      1.00000
      6     -41.9526      1.00000
      7     -21.0293      1.00000
      8     -20.7304      1.00000
      9     -20.5361      1.00000
     10     -20.5300      1.00000
     11      -4.9533      1.00000
     12      -4.5398      1.00000
     13      -4.4435      1.00000
     14      -3.6849      1.00000
     15      -3.5296      1.00000
     16      -2.9713      1.00000
     17      -2.9482      1.00000
     18      -2.8558      1.00000
     19      -2.3792      1.00000
     20      -2.3232      1.00000
     21      -1.8125      1.00000
     22      -1.5604      1.00000
     23      -1.5022      1.00000
     24      -1.3131      1.00000
     25      -0.9476      1.00000
     26       0.2271      1.00000
     27       0.4837      1.00000
     28       5.2392      0.00000
     29       6.9014      0.00000
     30       7.5368      0.00000
     31       7.6244      0.00000
     32       7.9090      0.00000
     33       8.4068      0.00000
     34       8.4662      0.00000
     35      10.2043      0.00000
     36      11.4733      0.00000
     37      12.9698      0.00000
     38      13.3207      0.00000
     39      13.9172      0.00000
     40      16.2696      0.00000
     41      16.7630      0.00000
     42      16.9077      0.00000
     43      17.9577      0.00000
     44      19.1104      0.00000
     45      19.5262      0.00000
     46      20.4183      0.00000
     47      20.9228      0.00000
     48      22.7296      0.00000

 k-point    10 :       0.0000    0.3462    0.0000
  band No.  band energies     occupation 
      1     -46.6568      1.00000
      2     -46.6019      1.00000
      3     -46.5977      1.00000
      4     -42.0170      1.00000
      5     -41.9601      1.00000
      6     -41.9527      1.00000
      7     -21.0035      1.00000
      8     -20.7578      1.00000
      9     -20.5383      1.00000
     10     -20.5277      1.00000
     11      -4.9167      1.00000
     12      -4.4846      1.00000
     13      -4.4453      1.00000
     14      -3.6503      1.00000
     15      -3.6087      1.00000
     16      -2.9537      1.00000
     17      -2.9363      1.00000
     18      -2.8419      1.00000
     19      -2.4836      1.00000
     20      -2.3614      1.00000
     21      -1.8192      1.00000
     22      -1.5991      1.00000
     23      -1.4949      1.00000
     24      -1.3068      1.00000
     25      -0.9382      1.00000
     26       0.2601      1.00000
     27       0.4875      1.00000
     28       5.4654      0.00000
     29       6.8923      0.00000
     30       7.5307      0.00000
     31       7.6204      0.00000
     32       7.6975      0.00000
     33       8.3696      0.00000
     34       8.4646      0.00000
     35      10.3564      0.00000
     36      11.4222      0.00000
     37      12.8720      0.00000
     38      13.2026      0.00000
     39      14.1937      0.00000
     40      16.3906      0.00000
     41      16.8135      0.00000
     42      16.8862      0.00000
     43      17.9561      0.00000
     44      19.1687      0.00000
     45      19.1999      0.00000
     46      20.4528      0.00000
     47      20.7211      0.00000
     48      22.6419      0.00000

 k-point    11 :       0.0000    0.3846    0.0000
[...]
     25      -0.9461      1.00000
     26      -0.2650      1.00000
     27       0.2439      1.00000
     28       7.2534      0.00000
     29       7.3301      0.00000
     30       7.6107      0.00000
     31       7.9422      0.00000
     32       8.2914      0.00000
     33       9.6758      0.00000
     34      10.5861      0.00000
     35      10.6501      0.00000
     36      10.7123      0.00000
     37      11.8042      0.00000
     38      11.8353      0.00000
     39      11.8923      0.00000
     40      12.2844      0.00000
     41      16.9735      0.00000
     42      17.8616      0.00000
     43      18.1328      0.00000
     44      19.4795      0.00000
     45      19.5480      0.00000
     46      20.3272      0.00000
     47      20.9076      0.00000
     48      21.1935      0.00000

 k-point   151 :       0.5000    0.5000    0.4762
  band No.  band energies     occupation 
      1     -46.6534      1.00000
      2     -46.6193      1.00000
      3     -46.6006      1.00000
      4     -42.0114      1.00000
      5     -41.9833      1.00000
      6     -41.9582      1.00000
      7     -20.7102      1.00000
      8     -20.6865      1.00000
      9     -20.6364      1.00000
     10     -20.5368      1.00000
     11      -4.7532      1.00000
     12      -4.5237      1.00000
     13      -4.3164      1.00000
     14      -4.2276      1.00000
     15      -3.9237      1.00000
     16      -3.6479      1.00000
     17      -2.8553      1.00000
     18      -2.6977      1.00000
     19      -2.4857      1.00000
     20      -1.9551      1.00000
     21      -1.8674      1.00000
     22      -1.8093      1.00000
     23      -1.5886      1.00000
     24      -1.1277      1.00000
     25      -0.9374      1.00000
     26      -0.2785      1.00000
     27       0.2529      1.00000
     28       7.2477      0.00000
     29       7.3254      0.00000
     30       7.6206      0.00000
     31       7.9451      0.00000
     32       8.3138      0.00000
     33       9.7054      0.00000
     34      10.6568      0.00000
     35      10.7745      0.00000
     36      10.7910      0.00000
     37      11.6647      0.00000
     38      11.7319      0.00000
     39      11.8595      0.00000
     40      12.1529      0.00000
     41      17.0469      0.00000
     42      17.8500      0.00000
     43      18.2286      0.00000
     44      19.3939      0.00000
     45      19.5369      0.00000
     46      20.3178      0.00000
     47      20.9518      0.00000
     48      21.1255      0.00000

 k-point   152 :       0.5000    0.5000    0.5000
  band No.  band energies     occupation 
      1     -46.6534      1.00000
      2     -46.6195      1.00000
      3     -46.6006      1.00000
      4     -42.0114      1.00000
      5     -41.9835      1.00000
      6     -41.9582      1.00000
      7     -20.7092      1.00000
      8     -20.6858      1.00000
      9     -20.6367      1.00000
     10     -20.5367      1.00000
     11      -4.7527      1.00000
     12      -4.5216      1.00000
     13      -4.3200      1.00000
     14      -4.2353      1.00000
     15      -3.8889      1.00000
     16      -3.6876      1.00000
     17      -2.8520      1.00000
     18      -2.6987      1.00000
     19      -2.4820      1.00000
     20      -1.9546      1.00000
     21      -1.8670      1.00000
     22      -1.8017      1.00000
     23      -1.5937      1.00000
     24      -1.1312      1.00000
     25      -0.9345      1.00000
     26      -0.2831      1.00000
     27       0.2559      1.00000
     28       7.2458      0.00000
     29       7.3239      0.00000
     30       7.6239      0.00000
     31       7.9461      0.00000
     32       8.3213      0.00000
     33       9.7160      0.00000
     34      10.6816      0.00000
     35      10.8212      0.00000
     36      10.8258      0.00000
     37      11.6084      0.00000
     38      11.6932      0.00000
     39      11.8556      0.00000
     40      12.1001      0.00000
     41      17.0729      0.00000
     42      17.8461      0.00000
     43      18.2625      0.00000
     44      19.3634      0.00000
     45      19.5332      0.00000
     46      20.3111      0.00000
     47      20.9675      0.00000
     48      21.1050      0.00000


--------------------------------------------------------------------------------------------------------


 soft charge-density along one line, spin component           1
         0         1         2         3         4         5         6         7         8         9
 total charge-density along one line
 
 soft charge-density along one line, spin component           2
         0         1         2         3         4         5         6         7         8         9
 total charge-density along one line
 
 pseudopotential strength for first ion, spin component:           1
-42.333  -0.000  -0.027   8.102   0.000   0.011  -0.000   0.000
 -0.000 -42.305  -0.000   0.000   8.091   0.000  -0.000   0.000
 -0.027  -0.000 -42.333   0.011   0.000   8.102  -0.000  -0.000
  8.102   0.000   0.011   5.289  -0.000  -0.004  -0.000  -0.000
  0.000   8.091   0.000  -0.000   5.294   0.000  -0.000   0.000
  0.011   0.000   8.102  -0.004   0.000   5.289  -0.000  -0.000
 -0.000  -0.000  -0.000  -0.000  -0.000  -0.000  -0.902  -0.000
  0.000   0.000  -0.000  -0.000   0.000  -0.000  -0.000  -0.852
  0.000   0.000  -0.000   0.000  -0.000  -0.000  -0.094   0.000
 -0.000   0.000   0.000  -0.000   0.000  -0.000  -0.000  -0.106
 -0.000  -0.000   0.000   0.000   0.000   0.000  -0.000   0.000
 -0.000  -0.000  -0.000  -0.000  -0.000  -0.000  -1.314  -0.000
  0.000   0.000  -0.000  -0.000   0.000  -0.000  -0.000  -1.263
  0.000   0.000  -0.000   0.000  -0.000  -0.000  -0.098   0.000
 -0.000   0.000   0.000  -0.000   0.000  -0.000  -0.000  -0.109
 -0.000  -0.000   0.000   0.000   0.000   0.000  -0.000   0.000
  0.000  -0.000   0.000   0.000   0.000   0.000   0.006   0.000
  0.000  -0.000   0.000   0.000   0.000   0.000   0.011   0.000
 pseudopotential strength for first ion, spin component:           2
-45.434  -0.000  -0.021   9.602   0.000   0.007  -0.000   0.000
 -0.000 -45.414  -0.000   0.000   9.595   0.000   0.000   0.000
 -0.021  -0.000 -45.434   0.007   0.000   9.602  -0.000   0.000
  9.602   0.000   0.007   4.790  -0.000  -0.002   0.000  -0.000
  0.000   9.595   0.000  -0.000   4.792  -0.000   0.000   0.000
  0.007   0.000   9.602  -0.002  -0.000   4.790  -0.000   0.000
 -0.000   0.000  -0.000   0.000   0.000  -0.000  -8.627  -0.000
  0.000   0.000   0.000  -0.000   0.000   0.000  -0.000  -8.586
  0.000   0.000  -0.000   0.000  -0.000  -0.000  -0.080   0.000
  0.000   0.000   0.000   0.000   0.000  -0.000  -0.000  -0.095
 -0.000   0.000   0.000  -0.000  -0.000   0.000  -0.000   0.000
 -0.000   0.000  -0.000   0.000   0.000  -0.000  -9.138  -0.000
  0.000   0.000   0.000  -0.000   0.000   0.000  -0.000  -9.097
  0.000   0.000  -0.000   0.000  -0.000  -0.000  -0.083   0.000
  0.000   0.000   0.000   0.000   0.000  -0.000  -0.000  -0.097
 -0.000   0.000   0.000  -0.000  -0.000   0.000  -0.000   0.000
  0.000  -0.000   0.000   0.000   0.000   0.000   0.003   0.000
  0.000  -0.000   0.000   0.000   0.000   0.000   0.006   0.000
 total augmentation occupancy for first ion, spin component:           1
  2.000   0.000   0.000   0.000   0.000   0.000   0.000   0.000   0.000   0.000   0.000   0.000   0.000   0.000   0.000   0.000
  0.000   2.000   0.000   0.000   0.000   0.000   0.000   0.000   0.000   0.000   0.000   0.000   0.000   0.000   0.000   0.000
  0.000   0.000   2.000   0.000   0.000   0.000   0.000   0.000   0.000   0.000   0.000   0.000   0.000   0.000   0.000   0.000
  0.000   0.000   0.000   0.000   0.000   0.000   0.000   0.000   0.000   0.000   0.000   0.000   0.000   0.000   0.000   0.000
  0.000   0.000   0.000   0.000   0.000   0.000   0.000   0.000   0.000   0.000   0.000   0.000   0.000   0.000   0.000   0.000
  0.000   0.000   0.000   0.000   0.000   0.000   0.000   0.000   0.000   0.000   0.000   0.000   0.000   0.000   0.000   0.000
  0.000   0.000   0.000   0.000   0.000   0.000   1.200   0.000   0.000   0.000   0.000   0.000   0.000   0.000   0.000   0.000
  0.000   0.000   0.000   0.000   0.000   0.000   0.000   1.200   0.000   0.000   0.000   0.000   0.000   0.000   0.000   0.000
  0.000   0.000   0.000   0.000   0.000   0.000   0.000   0.000   1.200   0.000   0.000   0.000   0.000   0.000   0.000   0.000
  0.000   0.000   0.000   0.000   0.000   0.000   0.000   0.000   0.000   1.200   0.000   0.000   0.000   0.000   0.000   0.000
  0.000   0.000   0.000   0.000   0.000   0.000   0.000   0.000   0.000   0.000   1.200   0.000   0.000   0.000   0.000   0.000
  0.000   0.000   0.000   0.000   0.000   0.000   0.000   0.000   0.000   0.000   0.000   0.000   0.000   0.000   0.000   0.000
  0.000   0.000   0.000   0.000   0.000   0.000   0.000   0.000   0.000   0.000   0.000   0.000   0.000   0.000   0.000   0.000
  0.000   0.000   0.000   0.000   0.000   0.000   0.000   0.000   0.000   0.000   0.000   0.000   0.000   0.000   0.000   0.000
  0.000   0.000   0.000   0.000   0.000   0.000   0.000   0.000   0.000   0.000   0.000   0.000   0.000   0.000   0.000   0.000
  0.000   0.000   0.000   0.000   0.000   0.000   0.000   0.000   0.000   0.000   0.000   0.000   0.000   0.000   0.000   0.000
  0.000   0.000   0.000   0.000   0.000   0.000   0.000   0.000   0.000   0.000   0.000   0.000   0.000   0.000   0.000   0.000
  0.000   0.000   0.000   0.000   0.000   0.000   0.000   0.000   0.000   0.000   0.000   0.000   0.000   0.000   0.000   0.000
 total augmentation occupancy for first ion, spin component:           2
 -0.923   0.000   0.000   0.000   0.000   0.000   0.000   0.000   0.000   0.000   0.000   0.000   0.000   0.000   0.000   0.000
  0.000  -0.923   0.000   0.000   0.000   0.000   0.000   0.000   0.000   0.000   0.000   0.000   0.000   0.000   0.000   0.000
  0.000   0.000  -0.923   0.000   0.000   0.000   0.000   0.000   0.000   0.000   0.000   0.000   0.000   0.000   0.000   0.000
  0.000   0.000   0.000   0.000   0.000   0.000   0.000   0.000   0.000   0.000   0.000   0.000   0.000   0.000   0.000   0.000
  0.000   0.000   0.000   0.000   0.000   0.000   0.000   0.000   0.000   0.000   0.000   0.000   0.000   0.000   0.000   0.000
  0.000   0.000   0.000   0.000   0.000   0.000   0.000   0.000   0.000   0.000   0.000   0.000   0.000   0.000   0.000   0.000
  0.000   0.000   0.000   0.000   0.000   0.000  -0.554   0.000   0.000   0.000   0.000   0.000   0.000   0.000   0.000   0.000
  0.000   0.000   0.000   0.000   0.000   0.000   0.000  -0.554   0.000   0.000   0.000   0.000   0.000   0.000   0.000   0.000
  0.000   0.000   0.000   0.000   0.000   0.000   0.000   0.000  -0.554   0.000   0.000   0.000   0.000   0.000   0.000   0.000
  0.000   0.000   0.000   0.000   0.000   0.000   0.000   0.000   0.000  -0.554   0.000   0.000   0.000   0.000   0.000   0.000
  0.000   0.000   0.000   0.000   0.000   0.000   0.000   0.000   0.000   0.000  -0.554   0.000   0.000   0.000   0.000   0.000
  0.000   0.000   0.000   0.000   0.000   0.000   0.000   0.000   0.000   0.000   0.000   0.000   0.000   0.000   0.000   0.000
  0.000   0.000   0.000   0.000   0.000   0.000   0.000   0.000   0.000   0.000   0.000   0.000   0.000   0.000   0.000   0.000
  0.000   0.000   0.000   0.000   0.000   0.000   0.000   0.000   0.000   0.000   0.000   0.000   0.000   0.000   0.000   0.000
  0.000   0.000   0.000   0.000   0.000   0.000   0.000   0.000   0.000   0.000   0.000   0.000   0.000   0.000   0.000   0.000
  0.000   0.000   0.000   0.000   0.000   0.000   0.000   0.000   0.000   0.000   0.000   0.000   0.000   0.000   0.000   0.000
  0.000   0.000   0.000   0.000   0.000   0.000   0.000   0.000   0.000   0.000   0.000   0.000   0.000   0.000   0.000   0.000
  0.000   0.000   0.000   0.000   0.000   0.000   0.000   0.000   0.000   0.000   0.000   0.000   0.000   0.000   0.000   0.000


------------------------ aborting loop because EDIFF is reached ----------------------------------------


 


 total charge     
 
# of ion       s       p       d       tot
------------------------------------------
    1        0.166   6.151   4.953  11.271
    2        0.167   6.150   4.954  11.272
    3        1.719   4.360   0.000   6.078
    4        1.719   4.360   0.000   6.078
    5        1.719   4.359   0.000   6.077
    6        1.719   4.359   0.000   6.077
--------------------------------------------------
tot          7.208  29.739   9.907  46.854
 


 magnetization (x)
 
# of ion       s       p       d       tot
------------------------------------------
    1       -0.015  -0.014  -4.661  -4.690
    2        0.015   0.013   4.661   4.689
    3        0.001   0.016   0.000   0.017
    4        0.001   0.016   0.000   0.017
    5       -0.001  -0.015   0.000  -0.016
    6       -0.001  -0.015   0.000  -0.016
--------------------------------------------------
tot         -0.000   0.001  -0.001   0.000
 
    CHARGE:  cpu time    0.8255: real time    0.8256
    FORLOC:  cpu time    0.0031: real time    0.0031
    FORNL :  cpu time    8.5953: real time    8.5957
    STRESS:  cpu time   12.6367: real time   12.6375
    FORCOR:  cpu time    0.0215: real time    0.0215
    FORHAR:  cpu time    0.0114: real time    0.0114
    OFIELD:  cpu time    0.0007: real time    0.0007

  FORCE on cell =-STRESS in cart. coord.  units (eV):
  Direction    XX          YY          ZZ          XY          YZ          ZX
  --------------------------------------------------------------------------------------
  Alpha Z   192.05208   192.05208   192.05208
  Ewald   -1579.42609 -1579.42609 -1008.96626    -0.00000    -0.00000    -0.00000
  Hartree   591.08313   590.80971   976.53225    -0.14656     0.00000     0.00000
  E(xc)    -309.00249  -309.00310  -309.04681    -0.00002    -0.00000    -0.00000
  Local     154.84875   155.94094  -794.10774     0.26333    -0.00000    -0.00000
  n-local  -239.91527  -239.61824  -238.64750     0.00973     0.00000     0.00000
  augment   267.58950   267.43387   267.00437    -0.00930    -0.00000    -0.00000
  Kinetic   920.76778   919.91088   912.89100    -0.12573    -0.00000    -0.00000
  Fock        0.00000     0.00000     0.00000     0.00000     0.00000     0.00000
  -------------------------------------------------------------------------------------
  Total      -2.00260    -1.89993    -2.28861    -0.00855    -0.00000    -0.00000
  in kB     -40.44431   -38.37091   -46.22048    -0.17275    -0.00001    -0.00005
  external pressure =      -41.68 kB  Pullay stress =        0.00 kB


 VOLUME and BASIS-vectors are now :
 -----------------------------------------------------------------------------
  energy-cutoff  :      700.00
  volume of cell :       79.33
      direct lattice vectors                 reciprocal lattice vectors
     4.891796665  0.000000000  0.000000000     0.204423869  0.000000000  0.000000000
     0.000000000  4.891796665  0.000000000     0.000000000  0.204423869  0.000000000
     0.000000000  0.000000000  3.315204934     0.000000000  0.000000000  0.301640478

  length of vectors
     4.891796665  4.891796665  3.315204934     0.204423869  0.204423869  0.301640478


 FORCES acting on ions
    electron-ion (+dipol)            ewald-force                    non-local-force                 convergence-correction
 -----------------------------------------------------------------------------------------------
   0.374E-05 0.286E-05 -.105E-05   0.000E+00 -.568E-13 -.757E-14   -.184E-05 -.230E-05 -.112E-06   -.333E-05 -.223E-05 0.800E-06
   -.224E-05 0.200E-05 -.133E-05   0.000E+00 0.000E+00 -.937E-14   0.505E-05 -.973E-06 -.246E-05   0.138E-05 -.139E-05 0.106E-05
   -.343E+02 0.343E+02 0.290E-06   0.357E+02 -.357E+02 0.376E-14   -.136E+01 0.138E+01 -.247E-06   0.179E-01 -.291E-01 -.130E-06
   0.343E+02 -.343E+02 0.554E-07   -.357E+02 0.357E+02 0.355E-14   0.136E+01 -.138E+01 0.935E-07   -.179E-01 0.291E-01 -.427E-08
   0.343E+02 0.343E+02 -.103E-06   -.357E+02 -.357E+02 0.688E-14   0.137E+01 0.139E+01 0.571E-07   0.329E-01 0.216E-01 0.435E-07
   -.343E+02 -.343E+02 0.357E-06   0.357E+02 0.357E+02 0.656E-14   -.137E+01 -.139E+01 0.177E-06   -.329E-01 -.216E-01 -.201E-06
 -----------------------------------------------------------------------------------------------
   0.127E-05 0.529E-05 -.179E-05   0.711E-14 0.000E+00 0.381E-14   0.267E-05 -.291E-05 -.249E-05   -.167E-05 -.384E-05 0.157E-05
 
 
 POSITION                                       TOTAL-FORCE (eV/Angst)
 -----------------------------------------------------------------------------------
      2.44590      2.44590      1.65760        -0.000002     -0.000001      0.000000
      0.00000      0.00000      0.00000         0.000004     -0.000000     -0.000002
      0.95434      3.93746      1.65760        -0.007988      0.037247      0.000000
      3.93746      0.95434      1.65760         0.007987     -0.037246      0.000001
      1.49156      1.49156      0.00000         0.013281      0.042540      0.000000
      3.40024      3.40024      0.00000        -0.013281     -0.042540      0.000001
 -----------------------------------------------------------------------------------
    total drift:                                0.000002     -0.000001     -0.000003


--------------------------------------------------------------------------------------------------------



  FREE ENERGIE OF THE ION-ELECTRON SYSTEM (eV)
  ---------------------------------------------------
  free  energy   TOTEN  =       -39.37432799 eV

  energy  without entropy=      -39.37432799  energy(sigma->0) =      -39.37432799
 


--------------------------------------------------------------------------------------------------------


    POTLOK:  cpu time    0.7275: real time    0.7276


--------------------------------------------------------------------------------------------------------


     LOOP+:  cpu time  284.9466: real time  285.1783
    4ORBIT:  cpu time    0.0000: real time    0.0000
 


 total charge     
 
# of ion       s       p       d       tot
------------------------------------------
    1        0.166   6.151   4.953  11.271
    2        0.167   6.150   4.954  11.272
    3        1.719   4.360   0.000   6.078
    4        1.719   4.360   0.000   6.078
    5        1.719   4.359   0.000   6.077
    6        1.719   4.359   0.000   6.077
--------------------------------------------------
tot          7.208  29.739   9.907  46.854
 


 magnetization (x)
 
# of ion       s       p       d       tot
------------------------------------------
    1       -0.015  -0.014  -4.661  -4.690
    2        0.015   0.013   4.661   4.689
    3        0.001   0.016   0.000   0.017
    4        0.001   0.016   0.000   0.017
    5       -0.001  -0.015   0.000  -0.016
    6       -0.001  -0.015   0.000  -0.016
--------------------------------------------------
tot         -0.000   0.001  -0.001   0.000
 

 total amount of memory used by VASP MPI-rank0   391980. kBytes
=======================================================================

   base      :      30000. kBytes
   nonl-proj :     147760. kBytes
   fftplans  :       7420. kBytes
   grid      :       6062. kBytes
   one-center:        186. kBytes
   wavefun   :     200552. kBytes
 
  
  
 General timing and accounting informations for this job:
 ========================================================
  
                  Total CPU time used (sec):      293.304
                            User time (sec):      292.077
                          System time (sec):        1.228
                         Elapsed time (sec):      293.570
  
                   Maximum memory used (kb):      394412.
                   Average memory used (kb):           0.
  
                          Minor page faults:        95088
                          Major page faults:            6
                 Voluntary context switches:          151
