 vasp.5.4.4.18Apr17-6-g9f103f2a35 (build Apr 27 2017 11:13:10) complex          
  
 executed on           IFC91_ompi date 2021.06.08  16:32:05
 running on   12 total cores
 distrk:  each k-point on   12 cores,    1 groups
 distr:  one band on NCORES_PER_BAND=   1 cores,   12 groups


--------------------------------------------------------------------------------------------------------


 INCAR:
 POTCAR:    PAW_PBE Mn_pv 02Aug2007               
 POTCAR:    PAW_PBE F 08Apr2002                   

 ----------------------------------------------------------------------------- 
|                                                                             |
|           W    W    AA    RRRRR   N    N  II  N    N   GGGG   !!!           |
|           W    W   A  A   R    R  NN   N  II  NN   N  G    G  !!!           |
|           W    W  A    A  R    R  N N  N  II  N N  N  G       !!!           |
|           W WW W  AAAAAA  RRRRR   N  N N  II  N  N N  G  GGG   !            |
|           WW  WW  A    A  R   R   N   NN  II  N   NN  G    G                |
|           W    W  A    A  R    R  N    N  II  N    N   GGGG   !!!           |
|                                                                             |
|      For optimal performance we recommend to set                            |
|        NCORE= 4 - approx SQRT( number of cores)                             |
|      NCORE specifies how many cores store one orbital (NPAR=cpu/NCORE).     |
|      This setting can  greatly improve the performance of VASP for DFT.     |
|      The default,   NCORE=1            might be grossly inefficient         |
|      on modern multi-core architectures or massively parallel machines.     |
|      Do your own testing !!!!                                               |
|      Unfortunately you need to use the default for GW and RPA calculations. |
|      (for HF NCORE is supported but not extensively tested yet)             |
|                                                                             |
 ----------------------------------------------------------------------------- 

 POTCAR:    PAW_PBE Mn_pv 02Aug2007               
   VRHFIN =Mn: 3p4s3d                                                           
   LEXCH  = PE                                                                  
   EATOM  =  2025.2664 eV,  148.8529 Ry                                         
                                                                                
   TITEL  = PAW_PBE Mn_pv 02Aug2007                                             
   LULTRA =        F    use ultrasoft PP ?                                      
   IUNSCR =        1    unscreen: 0-lin 1-nonlin 2-no                           
   RPACOR =    2.080    partial core radius                                     
   POMASS =   54.938; ZVAL   =   13.000    mass and valenz                      
   RCORE  =    2.300    outmost cutoff radius                                   
   RWIGS  =    2.500; RWIGS  =    1.323    wigner-seitz radius (au A)           
   ENMAX  =  269.864; ENMIN  =  202.398 eV                                      
   ICORE  =        3    local potential                                         
   LCOR   =        T    correct aug charges                                     
   LPAW   =        T    paw PP                                                  
   EAUG   =  569.085                                                            
   DEXC   =    0.000                                                            
   RMAX   =    2.343    core radius for proj-oper                               
   RAUG   =    1.300    factor for augmentation sphere                          
   RDEP   =    2.338    radius for radial grids                                 
   RDEPT  =    1.798    core radius for aug-charge                              
                                                                                
   Atomic configuration                                                         
    8 entries                                                                   
     n  l   j            E        occ.                                          
     1  0  0.50     -6424.8287   2.0000                                         
     2  0  0.50      -739.1154   2.0000                                         
     2  1  1.50      -625.3949   6.0000                                         
     3  0  0.50       -81.6100   2.0000                                         
     3  1  1.50       -50.4667   6.0000                                         
     3  2  2.50        -3.3745   6.0000                                         
     4  0  0.50        -4.1331   1.0000                                         
     4  3  2.50        -1.3606   0.0000                                         
   Description                                                                  
     l       E           TYP  RCUT    TYP  RCUT                                 
     1    -50.4666628     23  2.000                                             
     1     -1.3605826     23  2.000                                             
     2     -3.3744729     23  2.300                                             
     2     -4.7350555     23  2.300                                             
     0     -4.1331431     23  2.300                                             
     0      7.6656591     23  2.300                                             
     3      9.5240782     23  2.300                                             
  local pseudopotential read in
  partial core-charges read in
  partial kinetic energy density read in
  atomic valenz-charges read in
  non local Contribution for L=           1  read in
    real space projection operators read in
  non local Contribution for L=           1  read in
    real space projection operators read in
  non local Contribution for L=           2  read in
    real space projection operators read in
  non local Contribution for L=           2  read in
    real space projection operators read in
  non local Contribution for L=           0  read in
    real space projection operators read in
  non local Contribution for L=           0  read in
    real space projection operators read in
    PAW grid and wavefunctions read in
 
   number of l-projection  operators is LMAX  =           6
   number of lm-projection operators is LMMAX =          18
 
 POTCAR:    PAW_PBE F 08Apr2002                   
   VRHFIN =F: s2p5                                                              
   LEXCH  = PE                                                                  
   EATOM  =   659.6475 eV,   48.4827 Ry                                         
                                                                                
   TITEL  = PAW_PBE F 08Apr2002                                                 
   LULTRA =        F    use ultrasoft PP ?                                      
   IUNSCR =        1    unscreen: 0-lin 1-nonlin 2-no                           
   RPACOR =    1.200    partial core radius                                     
   POMASS =   18.998; ZVAL   =    7.000    mass and valenz                      
   RCORE  =    1.520    outmost cutoff radius                                   
   RWIGS  =    1.500; RWIGS  =    0.794    wigner-seitz radius (au A)           
   ENMAX  =  400.000; ENMIN  =  300.000 eV                                      
   ICORE  =        2    local potential                                         
   LCOR   =        T    correct aug charges                                     
   LPAW   =        T    paw PP                                                  
   EAUG   =  613.614                                                            
   RMAX   =    1.555    core radius for proj-oper                               
   RAUG   =    1.300    factor for augmentation sphere                          
   RDEP   =    1.539    radius for radial grids                                 
   RDEPT  =    1.299    core radius for aug-charge                              
                                                                                
   Atomic configuration                                                         
    4 entries                                                                   
     n  l   j            E        occ.                                          
     1  0  0.50      -663.3661   2.0000                                         
     2  0  0.50       -29.8995   2.0000                                         
     2  1  0.50       -11.1114   5.0000                                         
     3  2  1.50       -10.8847   0.0000                                         
   Description                                                                  
     l       E           TYP  RCUT    TYP  RCUT                                 
     0    -29.8995018     23  1.200                                             
     0     -9.5240782     23  1.200                                             
     1    -11.1113914     23  1.520                                             
     1      1.3605826     23  1.520                                             
     2    -10.8846608      7  1.500                                             
  local pseudopotential read in
  partial core-charges read in
  partial kinetic energy density read in
  atomic valenz-charges read in
  non local Contribution for L=           0  read in
    real space projection operators read in
  non local Contribution for L=           0  read in
    real space projection operators read in
  non local Contribution for L=           1  read in
    real space projection operators read in
  non local Contribution for L=           1  read in
    real space projection operators read in
    PAW grid and wavefunctions read in
 
   number of l-projection  operators is LMAX  =           4
   number of lm-projection operators is LMMAX =           8
 

 ----------------------------------------------------------------------------- 
|                                                                             |
|  ADVICE TO THIS USER RUNNING 'VASP/VAMP'   (HEAR YOUR MASTER'S VOICE ...):  |
|                                                                             |
|      You enforced a specific xc-type in the INCAR file,                     |
|      a different type was found on the POTCAR file                          |
|          I HOPE YOU KNOW, WHAT YOU ARE  DOING                               |
|                                                                             |
 ----------------------------------------------------------------------------- 

  PAW_PBE Mn_pv 02Aug2007               :
 energy of atom  1       EATOM=-2025.2664
 kinetic energy error for atom=    0.0047 (will be added to EATOM!!)
  PAW_PBE F 08Apr2002                   :
 energy of atom  2       EATOM= -659.6475
 kinetic energy error for atom=    0.0256 (will be added to EATOM!!)
 
 
 POSCAR: Mn  F                                   
  positions in cartesian coordinates
  No initial velocities read in
 exchange correlation table for  LEXCH =       14
   RHO(1)=    0.500       N(1)  =     2000
   RHO(2)=  100.500       N(2)  =     4000
 


--------------------------------------------------------------------------------------------------------


 ion  position               nearest neighbor table
   1  0.500  0.500  0.500-   3 2.09   4 2.09   5 2.13   6 2.13   5 2.13   6 2.13
   2  0.000  0.000  0.000-   5 2.09   6 2.09   3 2.13   4 2.13   3 2.13   4 2.13
   3  0.196  0.804  0.500-   1 2.09   2 2.13   2 2.13
   4  0.804  0.196  0.500-   1 2.09   2 2.13   2 2.13
   5  0.304  0.304  0.000-   2 2.09   1 2.13   1 2.13
   6  0.696  0.696  0.000-   2 2.09   1 2.13   1 2.13
 

IMPORTANT INFORMATION: All symmetrisations will be switched off!
NOSYMM: (Re-)initialisation of all symmetry stuff for point group C_1.

 
 
 KPOINTS: KPOINTS created by Atomic Simulation Env

Automatic generation of k-mesh.
Space group operators:
 irot       det(A)        alpha          n_x          n_y          n_z        tau_x        tau_y        tau_z
    1     1.000000     0.000000     1.000000     0.000000     0.000000     0.000000     0.000000     0.000000
 
 Subroutine IBZKPT returns following result:
 ===========================================
 
 Found     48 irreducible k-points:
 
 Following reciprocal coordinates:
            Coordinates               Weight
  0.125000  0.125000  0.083333      2.000000
  0.375000  0.125000  0.083333      2.000000
 -0.375000  0.125000  0.083333      2.000000
 -0.125000  0.125000  0.083333      2.000000
  0.125000  0.375000  0.083333      2.000000
  0.375000  0.375000  0.083333      2.000000
 -0.375000  0.375000  0.083333      2.000000
 -0.125000  0.375000  0.083333      2.000000
  0.125000 -0.375000  0.083333      2.000000
  0.375000 -0.375000  0.083333      2.000000
 -0.375000 -0.375000  0.083333      2.000000
 -0.125000 -0.375000  0.083333      2.000000
  0.125000 -0.125000  0.083333      2.000000
  0.375000 -0.125000  0.083333      2.000000
 -0.375000 -0.125000  0.083333      2.000000
 -0.125000 -0.125000  0.083333      2.000000
  0.125000  0.125000  0.250000      2.000000
  0.375000  0.125000  0.250000      2.000000
 -0.375000  0.125000  0.250000      2.000000
 -0.125000  0.125000  0.250000      2.000000
  0.125000  0.375000  0.250000      2.000000
  0.375000  0.375000  0.250000      2.000000
 -0.375000  0.375000  0.250000      2.000000
 -0.125000  0.375000  0.250000      2.000000
  0.125000 -0.375000  0.250000      2.000000
  0.375000 -0.375000  0.250000      2.000000
 -0.375000 -0.375000  0.250000      2.000000
 -0.125000 -0.375000  0.250000      2.000000
  0.125000 -0.125000  0.250000      2.000000
  0.375000 -0.125000  0.250000      2.000000
 -0.375000 -0.125000  0.250000      2.000000
 -0.125000 -0.125000  0.250000      2.000000
  0.125000  0.125000  0.416667      2.000000
  0.375000  0.125000  0.416667      2.000000
 -0.375000  0.125000  0.416667      2.000000
 -0.125000  0.125000  0.416667      2.000000
  0.125000  0.375000  0.416667      2.000000
  0.375000  0.375000  0.416667      2.000000
 -0.375000  0.375000  0.416667      2.000000
 -0.125000  0.375000  0.416667      2.000000
  0.125000 -0.375000  0.416667      2.000000
  0.375000 -0.375000  0.416667      2.000000
 -0.375000 -0.375000  0.416667      2.000000
 -0.125000 -0.375000  0.416667      2.000000
  0.125000 -0.125000  0.416667      2.000000
  0.375000 -0.125000  0.416667      2.000000
 -0.375000 -0.125000  0.416667      2.000000
 -0.125000 -0.125000  0.416667      2.000000
 
 Following cartesian coordinates:
            Coordinates               Weight
  0.025667  0.025667  0.025328      2.000000
  0.077002  0.025667  0.025328      2.000000
 -0.077002  0.025667  0.025328      2.000000
 -0.025667  0.025667  0.025328      2.000000
  0.025667  0.077002  0.025328      2.000000
  0.077002  0.077002  0.025328      2.000000
 -0.077002  0.077002  0.025328      2.000000
 -0.025667  0.077002  0.025328      2.000000
  0.025667 -0.077002  0.025328      2.000000
  0.077002 -0.077002  0.025328      2.000000
 -0.077002 -0.077002  0.025328      2.000000
 -0.025667 -0.077002  0.025328      2.000000
  0.025667 -0.025667  0.025328      2.000000
  0.077002 -0.025667  0.025328      2.000000
 -0.077002 -0.025667  0.025328      2.000000
 -0.025667 -0.025667  0.025328      2.000000
  0.025667  0.025667  0.075985      2.000000
  0.077002  0.025667  0.075985      2.000000
 -0.077002  0.025667  0.075985      2.000000
 -0.025667  0.025667  0.075985      2.000000
  0.025667  0.077002  0.075985      2.000000
  0.077002  0.077002  0.075985      2.000000
 -0.077002  0.077002  0.075985      2.000000
 -0.025667  0.077002  0.075985      2.000000
  0.025667 -0.077002  0.075985      2.000000
  0.077002 -0.077002  0.075985      2.000000
 -0.077002 -0.077002  0.075985      2.000000
 -0.025667 -0.077002  0.075985      2.000000
  0.025667 -0.025667  0.075985      2.000000
  0.077002 -0.025667  0.075985      2.000000
 -0.077002 -0.025667  0.075985      2.000000
 -0.025667 -0.025667  0.075985      2.000000
  0.025667  0.025667  0.126642      2.000000
  0.077002  0.025667  0.126642      2.000000
 -0.077002  0.025667  0.126642      2.000000
 -0.025667  0.025667  0.126642      2.000000
  0.025667  0.077002  0.126642      2.000000
  0.077002  0.077002  0.126642      2.000000
 -0.077002  0.077002  0.126642      2.000000
 -0.025667  0.077002  0.126642      2.000000
  0.025667 -0.077002  0.126642      2.000000
  0.077002 -0.077002  0.126642      2.000000
 -0.077002 -0.077002  0.126642      2.000000
 -0.025667 -0.077002  0.126642      2.000000
  0.025667 -0.025667  0.126642      2.000000
  0.077002 -0.025667  0.126642      2.000000
 -0.077002 -0.025667  0.126642      2.000000
 -0.025667 -0.025667  0.126642      2.000000
 
 TETIRR: Found    288 inequivalent tetrahedra from      576


--------------------------------------------------------------------------------------------------------




 Dimension of arrays:
   k-points           NKPTS =     48   k-points in BZ     NKDIM =     48   number of bands    NBANDS=     36
   number of dos      NEDOS =    301   number of ions     NIONS =      6
   non local maximal  LDIM  =      6   non local SUM 2l+1 LMDIM =     18
   total plane-waves  NPLWV =  18000
   max r-space proj   IRMAX =      1   max aug-charges    IRDMAX=  56187
   dimension x,y,z NGX =    30 NGY =   30 NGZ =   20
   dimension x,y,z NGXF=    60 NGYF=   60 NGZF=   40
   support grid    NGXF=   120 NGYF=  120 NGZF=   80
   ions per type =               2   4
   NGX,Y,Z   is equivalent  to a cutoff of  10.24, 10.24, 10.11 a.u.
   NGXF,Y,Z  is equivalent  to a cutoff of  20.48, 20.48, 20.21 a.u.

 SYSTEM =  unknown system                          
 POSCAR =  Mn  F                                   

 Startparameter for this run:
   NWRITE =      2    write-flag & timer
   PREC   = normal    normal or accurate (medium, high low for compatibility)
   ISTART =      1    job   : 0-new  1-cont  2-samecut
   ICHARG =      0    charge: 1-file 2-atom 10-const
   ISPIN  =      2    spin polarized calculation?
   LNONCOLLINEAR =      F non collinear calculations
   LSORBIT =      F    spin-orbit coupling
   INIWAV =      1    electr: 0-lowe 1-rand  2-diag
   LASPH  =      T    aspherical Exc in radial PAW
   METAGGA=      F    non-selfconsistent MetaGGA calc.

 Electronic Relaxation 1
   ENCUT  =  600.0 eV  44.10 Ry    6.64 a.u.   9.73  9.73  6.57*2*pi/ulx,y,z
   ENINI  =  600.0     initial cutoff
   ENAUG  =  613.6 eV  augmentation charge cutoff
   NELM   =     60;   NELMIN=  2; NELMDL=  0     # of ELM steps 
   EDIFF  = 0.1E-07   stopping-criterion for ELM
   LREAL  =      F    real-space projection
   NLSPLINE    = F    spline interpolate recip. space projectors
   LCOMPAT=      F    compatible to vasp.4.4
   GGA_COMPAT  = T    GGA compatible to vasp.4.4-vasp.4.6
   LMAXPAW     = -100 max onsite density
   LMAXMIX     =    4 max onsite mixed and CHGCAR
   VOSKOWN=      0    Vosko Wilk Nusair interpolation
   ROPT   =    0.00000   0.00000
 Ionic relaxation
   EDIFFG = 0.1E-06   stopping-criterion for IOM
   NSW    =      0    number of steps for IOM
   NBLOCK =      1;   KBLOCK =      1    inner block; outer block 
   IBRION =     -1    ionic relax: 0-MD 1-quasi-New 2-CG
   NFREE  =      0    steps in history (QN), initial steepest desc. (CG)
   ISIF   =      2    stress and relaxation
   IWAVPR =     10    prediction:  0-non 1-charg 2-wave 3-comb
   ISYM   =      0    0-nonsym 1-usesym 2-fastsym
   LCORR  =      T    Harris-Foulkes like correction to forces

   POTIM  = 0.5000    time-step for ionic-motion
   TEIN   =    0.0    initial temperature
   TEBEG  =    0.0;   TEEND  =   0.0 temperature during run
   SMASS  =  -3.00    Nose mass-parameter (am)
   estimated Nose-frequenzy (Omega)   =  0.10E-29 period in steps =****** mass=  -0.542E-27a.u.
   SCALEE = 1.0000    scale energy and forces
   NPACO  =    256;   APACO  = 16.0  distance and # of slots for P.C.
   PSTRESS=    0.0 pullay stress

  Mass of Ions in am
   POMASS =  54.94 19.00
  Ionic Valenz
   ZVAL   =  13.00  7.00
  Atomic Wigner-Seitz radii
   RWIGS  =  -1.00 -1.00
  virtual crystal weights 
   VCA    =   1.00  1.00
   NELECT =      54.0000    total number of electrons
   NUPDOWN=      -1.0000    fix difference up-down

 DOS related values:
   EMIN   =  10.00;   EMAX   =-10.00  energy-range for DOS
   EFERMI =   0.00
   ISMEAR =    -5;   SIGMA  =   0.20  broadening in eV -4-tet -1-fermi 0-gaus

 Electronic relaxation 2 (details)
   IALGO  =     38    algorithm
   LDIAG  =      T    sub-space diagonalisation (order eigenvalues)
   LSUBROT=      F    optimize rotation matrix (better conditioning)
   TURBO    =      0    0=normal 1=particle mesh
   IRESTART =      0    0=no restart 2=restart with 2 vectors
   NREBOOT  =      0    no. of reboots
   NMIN     =      0    reboot dimension
   EREF     =   0.00    reference energy to select bands
   IMIX   =      4    mixing-type and parameters
     AMIX     =   0.40;   BMIX     =  1.00
     AMIX_MAG =   1.60;   BMIX_MAG =  1.00
     AMIN     =   0.10
     WC   =   100.;   INIMIX=   1;  MIXPRE=   1;  MAXMIX= -45

 Intra band minimization:
   WEIMIN = 0.0000     energy-eigenvalue tresh-hold
   EBREAK =  0.69E-10  absolut break condition
   DEPER  =   0.30     relativ break condition  

   TIME   =   0.40     timestep for ELM

  volume/ion in A,a.u.               =      13.01        87.76
  Fermi-wavevector in a.u.,A,eV,Ry     =   1.448042  2.736403 28.529059  2.096827
  Thomas-Fermi vector in A             =   2.565928
 
 Write flags
   LWAVE        =      T    write WAVECAR
   LDOWNSAMPLE  =      F    k-point downsampling of WAVECAR
   LCHARG       =      T    write CHGCAR
   LVTOT        =      F    write LOCPOT, total local potential
   LVHAR        =      F    write LOCPOT, Hartree potential only
   LELF         =      F    write electronic localiz. function (ELF)
   LORBIT       =     11    0 simple, 1 ext, 2 COOP (PROOUT), +10 PAW based schemes


 Dipole corrections
   LMONO  =      F    monopole corrections only (constant potential shift)
   LDIPOL =      F    correct potential (dipole corrections)
   IDIPOL =      0    1-x, 2-y, 3-z, 4-all directions 
   EPSILON=  1.0000000 bulk dielectric constant

 LDA+U is selected, type is set to LDAUTYPE =  2
   angular momentum for each species LDAUL =     2   -1
   U (eV)           for each species LDAUU =   2.0  0.0
   J (eV)           for each species LDAUJ =   0.0  0.0
 Exchange correlation treatment:
   GGA     =    PS    GGA type
   LEXCH   =    14    internal setting for exchange type
   VOSKOWN=      0    Vosko Wilk Nusair interpolation
   LHFCALC =     F    Hartree Fock is set to
   LHFONE  =     F    Hartree Fock one center treatment
   AEXX    =    0.0000 exact exchange contribution

 Linear response parameters
   LEPSILON=     F    determine dielectric tensor
   LRPA    =     F    only Hartree local field effects (RPA)
   LNABLA  =     F    use nabla operator in PAW spheres
   LVEL    =     F    velocity operator in full k-point grid
   LINTERFAST=   F  fast interpolation
   KINTER  =     0    interpolate to denser k-point grid
   CSHIFT  =0.1000    complex shift for real part using Kramers Kronig
   OMEGAMAX=  -1.0    maximum frequency
   DEG_THRESHOLD= 0.2000000E-02 threshold for treating states as degnerate
   RTIME   =   -0.100 relaxation time in fs
  (WPLASMAI=    0.000 imaginary part of plasma frequency in eV, 0.658/RTIME)
   DFIELD  = 0.0000000 0.0000000 0.0000000 field for delta impulse in time
 
 Orbital magnetization related:
   ORBITALMAG=     F  switch on orbital magnetization
   LCHIMAG   =     F  perturbation theory with respect to B field
   DQ        =  0.001000  dq finite difference perturbation B field
   LLRAUG    =     F  two centre corrections for induced B field



--------------------------------------------------------------------------------------------------------


 Static calculation
 charge density and potential will be updated during run
 spin polarized calculation
 Variant of blocked Davidson
 Davidson routine will perform the subspace rotation
 perform sub-space diagonalisation
    after iterative eigenvector-optimisation
 modified Broyden-mixing scheme, WC =      100.0
 initial mixing is a Kerker type mixing with AMIX =  0.4000 and BMIX =      1.0000
 Hartree-type preconditioning will be used
 using additional bands            9
 reciprocal scheme for non local part
 use partial core corrections
 calculate Harris-corrections to forces 
   (improved forces if not selfconsistent)
 use gradient corrections 
 use of overlap-Matrix (Vanderbilt PP)
 Fermi weights with tetrahedron method with Bloechl corrections


--------------------------------------------------------------------------------------------------------


  energy-cutoff  :      600.00
  volume of cell :       78.03
      direct lattice vectors                 reciprocal lattice vectors
     4.870028878  0.000000000  0.000000000     0.205337591  0.000000000  0.000000000
     0.000000000  4.870028878  0.000000000     0.000000000  0.205337591  0.000000000
     0.000000000  0.000000000  3.290117217     0.000000000  0.000000000  0.303940539

  length of vectors
     4.870028878  4.870028878  3.290117217     0.205337591  0.205337591  0.303940539


 
 old parameters found on file WAVECAR:
  energy-cutoff  :      600.00
  volume of cell :       78.03
      direct lattice vectors                 reciprocal lattice vectors
     4.870028878  0.000000000  0.000000000     0.205337591  0.000000000  0.000000000
     0.000000000  4.870028878  0.000000000     0.000000000  0.205337591  0.000000000
     0.000000000  0.000000000  3.290117217     0.000000000  0.000000000  0.303940539

  length of vectors

 
 k-points in units of 2pi/SCALE and weight: KPOINTS created by Atomic Simulation Env
   0.02566720  0.02566720  0.02532838       0.021
   0.07700160  0.02566720  0.02532838       0.021
  -0.07700160  0.02566720  0.02532838       0.021
  -0.02566720  0.02566720  0.02532838       0.021
   0.02566720  0.07700160  0.02532838       0.021
   0.07700160  0.07700160  0.02532838       0.021
  -0.07700160  0.07700160  0.02532838       0.021
  -0.02566720  0.07700160  0.02532838       0.021
   0.02566720 -0.07700160  0.02532838       0.021
   0.07700160 -0.07700160  0.02532838       0.021
  -0.07700160 -0.07700160  0.02532838       0.021
  -0.02566720 -0.07700160  0.02532838       0.021
   0.02566720 -0.02566720  0.02532838       0.021
   0.07700160 -0.02566720  0.02532838       0.021
  -0.07700160 -0.02566720  0.02532838       0.021
  -0.02566720 -0.02566720  0.02532838       0.021
   0.02566720  0.02566720  0.07598513       0.021
   0.07700160  0.02566720  0.07598513       0.021
  -0.07700160  0.02566720  0.07598513       0.021
  -0.02566720  0.02566720  0.07598513       0.021
   0.02566720  0.07700160  0.07598513       0.021
   0.07700160  0.07700160  0.07598513       0.021
  -0.07700160  0.07700160  0.07598513       0.021
  -0.02566720  0.07700160  0.07598513       0.021
   0.02566720 -0.07700160  0.07598513       0.021
   0.07700160 -0.07700160  0.07598513       0.021
  -0.07700160 -0.07700160  0.07598513       0.021
  -0.02566720 -0.07700160  0.07598513       0.021
   0.02566720 -0.02566720  0.07598513       0.021
   0.07700160 -0.02566720  0.07598513       0.021
  -0.07700160 -0.02566720  0.07598513       0.021
  -0.02566720 -0.02566720  0.07598513       0.021
   0.02566720  0.02566720  0.12664189       0.021
   0.07700160  0.02566720  0.12664189       0.021
  -0.07700160  0.02566720  0.12664189       0.021
  -0.02566720  0.02566720  0.12664189       0.021
   0.02566720  0.07700160  0.12664189       0.021
   0.07700160  0.07700160  0.12664189       0.021
  -0.07700160  0.07700160  0.12664189       0.021
  -0.02566720  0.07700160  0.12664189       0.021
   0.02566720 -0.07700160  0.12664189       0.021
   0.07700160 -0.07700160  0.12664189       0.021
  -0.07700160 -0.07700160  0.12664189       0.021
  -0.02566720 -0.07700160  0.12664189       0.021
   0.02566720 -0.02566720  0.12664189       0.021
   0.07700160 -0.02566720  0.12664189       0.021
  -0.07700160 -0.02566720  0.12664189       0.021
  -0.02566720 -0.02566720  0.12664189       0.021
 
 k-points in reciprocal lattice and weights: KPOINTS created by Atomic Simulation Env
   0.12500000  0.12500000  0.08333333       0.021
   0.37500000  0.12500000  0.08333333       0.021
  -0.37500000  0.12500000  0.08333333       0.021
  -0.12500000  0.12500000  0.08333333       0.021
   0.12500000  0.37500000  0.08333333       0.021
   0.37500000  0.37500000  0.08333333       0.021
  -0.37500000  0.37500000  0.08333333       0.021
  -0.12500000  0.37500000  0.08333333       0.021
   0.12500000 -0.37500000  0.08333333       0.021
   0.37500000 -0.37500000  0.08333333       0.021
  -0.37500000 -0.37500000  0.08333333       0.021
  -0.12500000 -0.37500000  0.08333333       0.021
   0.12500000 -0.12500000  0.08333333       0.021
   0.37500000 -0.12500000  0.08333333       0.021
  -0.37500000 -0.12500000  0.08333333       0.021
  -0.12500000 -0.12500000  0.08333333       0.021
   0.12500000  0.12500000  0.25000000       0.021
   0.37500000  0.12500000  0.25000000       0.021
  -0.37500000  0.12500000  0.25000000       0.021
  -0.12500000  0.12500000  0.25000000       0.021
   0.12500000  0.37500000  0.25000000       0.021
   0.37500000  0.37500000  0.25000000       0.021
  -0.37500000  0.37500000  0.25000000       0.021
  -0.12500000  0.37500000  0.25000000       0.021
   0.12500000 -0.37500000  0.25000000       0.021
   0.37500000 -0.37500000  0.25000000       0.021
  -0.37500000 -0.37500000  0.25000000       0.021
  -0.12500000 -0.37500000  0.25000000       0.021
   0.12500000 -0.12500000  0.25000000       0.021
   0.37500000 -0.12500000  0.25000000       0.021
  -0.37500000 -0.12500000  0.25000000       0.021
  -0.12500000 -0.12500000  0.25000000       0.021
   0.12500000  0.12500000  0.41666667       0.021
   0.37500000  0.12500000  0.41666667       0.021
  -0.37500000  0.12500000  0.41666667       0.021
  -0.12500000  0.12500000  0.41666667       0.021
   0.12500000  0.37500000  0.41666667       0.021
   0.37500000  0.37500000  0.41666667       0.021
  -0.37500000  0.37500000  0.41666667       0.021
  -0.12500000  0.37500000  0.41666667       0.021
   0.12500000 -0.37500000  0.41666667       0.021
   0.37500000 -0.37500000  0.41666667       0.021
  -0.37500000 -0.37500000  0.41666667       0.021
  -0.12500000 -0.37500000  0.41666667       0.021
   0.12500000 -0.12500000  0.41666667       0.021
   0.37500000 -0.12500000  0.41666667       0.021
  -0.37500000 -0.12500000  0.41666667       0.021
  -0.12500000 -0.12500000  0.41666667       0.021
 
 position of ions in fractional coordinates (direct lattice) 
   0.50000000  0.50000000  0.50000000
   0.00000000  0.00000000  0.00000000
   0.19594878  0.80405122  0.50000000
   0.80405122  0.19594878  0.50000000
   0.30405122  0.30405122  0.00000000
   0.69594878  0.69594878  0.00000000
 
 position of ions in cartesian coordinates  (Angst):
   2.43501444  2.43501444  1.64505861
   0.00000000  0.00000000  0.00000000
   0.95427624  3.91575264  1.64505861
   3.91575264  0.95427624  1.64505861
   1.48073820  1.48073820  0.00000000
   3.38929068  3.38929068  0.00000000
 


--------------------------------------------------------------------------------------------------------


 k-point  1 :   0.1250 0.1250 0.0833  plane waves:    2608
 k-point  2 :   0.3750 0.1250 0.0833  plane waves:    2618
 k-point  3 :  -0.3750 0.1250 0.0833  plane waves:    2618
 k-point  4 :  -0.1250 0.1250 0.0833  plane waves:    2608
 k-point  5 :   0.1250 0.3750 0.0833  plane waves:    2618
 k-point  6 :   0.3750 0.3750 0.0833  plane waves:    2602
 k-point  7 :  -0.3750 0.3750 0.0833  plane waves:    2602
 k-point  8 :  -0.1250 0.3750 0.0833  plane waves:    2618
 k-point  9 :   0.1250-0.3750 0.0833  plane waves:    2618
 k-point 10 :   0.3750-0.3750 0.0833  plane waves:    2602
 k-point 11 :  -0.3750-0.3750 0.0833  plane waves:    2602
 k-point 12 :  -0.1250-0.3750 0.0833  plane waves:    2618
 k-point 13 :   0.1250-0.1250 0.0833  plane waves:    2608
 k-point 14 :   0.3750-0.1250 0.0833  plane waves:    2618
 k-point 15 :  -0.3750-0.1250 0.0833  plane waves:    2618
 k-point 16 :  -0.1250-0.1250 0.0833  plane waves:    2608
 k-point 17 :   0.1250 0.1250 0.2500  plane waves:    2603
 k-point 18 :   0.3750 0.1250 0.2500  plane waves:    2598
 k-point 19 :  -0.3750 0.1250 0.2500  plane waves:    2598
 k-point 20 :  -0.1250 0.1250 0.2500  plane waves:    2603
 k-point 21 :   0.1250 0.3750 0.2500  plane waves:    2598
 k-point 22 :   0.3750 0.3750 0.2500  plane waves:    2613
 k-point 23 :  -0.3750 0.3750 0.2500  plane waves:    2613
 k-point 24 :  -0.1250 0.3750 0.2500  plane waves:    2598
 k-point 25 :   0.1250-0.3750 0.2500  plane waves:    2598
 k-point 26 :   0.3750-0.3750 0.2500  plane waves:    2613
 k-point 27 :  -0.3750-0.3750 0.2500  plane waves:    2613
 k-point 28 :  -0.1250-0.3750 0.2500  plane waves:    2598
 k-point 29 :   0.1250-0.1250 0.2500  plane waves:    2603
 k-point 30 :   0.3750-0.1250 0.2500  plane waves:    2598
 k-point 31 :  -0.3750-0.1250 0.2500  plane waves:    2598
 k-point 32 :  -0.1250-0.1250 0.2500  plane waves:    2603
 k-point 33 :   0.1250 0.1250 0.4167  plane waves:    2602
 k-point 34 :   0.3750 0.1250 0.4167  plane waves:    2600
 k-point 35 :  -0.3750 0.1250 0.4167  plane waves:    2600
 k-point 36 :  -0.1250 0.1250 0.4167  plane waves:    2602
 k-point 37 :   0.1250 0.3750 0.4167  plane waves:    2600
 k-point 38 :   0.3750 0.3750 0.4167  plane waves:    2592
 k-point 39 :  -0.3750 0.3750 0.4167  plane waves:    2592
 k-point 40 :  -0.1250 0.3750 0.4167  plane waves:    2600
 k-point 41 :   0.1250-0.3750 0.4167  plane waves:    2600
 k-point 42 :   0.3750-0.3750 0.4167  plane waves:    2592
 k-point 43 :  -0.3750-0.3750 0.4167  plane waves:    2592
 k-point 44 :  -0.1250-0.3750 0.4167  plane waves:    2600
 k-point 45 :   0.1250-0.1250 0.4167  plane waves:    2602
 k-point 46 :   0.3750-0.1250 0.4167  plane waves:    2600
 k-point 47 :  -0.3750-0.1250 0.4167  plane waves:    2600
 k-point 48 :  -0.1250-0.1250 0.4167  plane waves:    2602

 maximum and minimum number of plane-waves per node :      2618     2592

 maximum number of plane-waves:      2618
 maximum index in each direction: 
   IXMAX=   10   IYMAX=   10   IZMAX=    6
   IXMIN=  -10   IYMIN=  -10   IZMIN=   -6


 serial   3D FFT for wavefunctions
 parallel 3D FFT for charge:
    minimum data exchange during FFTs selected (reduces bandwidth)


 total amount of memory used by VASP MPI-rank0    83550. kBytes
=======================================================================

   base      :      30000. kBytes
   nonl-proj :      36581. kBytes
   fftplans  :       1875. kBytes
   grid      :       2467. kBytes
   one-center:        186. kBytes
   wavefun   :      12441. kBytes
 
     INWAV:  cpu time    0.4562: real time    0.4562
 Broyden mixing: mesh for mixing (old mesh)
   NGX = 19   NGY = 19   NGZ = 13
  (NGX  = 60   NGY  = 60   NGZ  = 40)
  gives a total of   4693 points

 charge density for first step will be calculated from the start-wavefunctions


--------------------------------------------------------------------------------------------------------


 Maximum index for augmentation-charges         4295 (set IRDMAX)


--------------------------------------------------------------------------------------------------------


 initial charge from wavefunction
 First call to EWALD:  gamma=   0.415
 Maximum number of real-space cells 2x 2x 3
 Maximum number of reciprocal cells 3x 3x 2

    FEWALD:  cpu time    0.0013: real time    0.0013


--------------------------------------- Iteration      1(   1)  ---------------------------------------


    POTLOK:  cpu time    0.0178: real time    0.0178
    SETDIJ:  cpu time    4.2053: real time    4.2053
atom =   1  type =  1  l = 2
 
 onsite density matrix
 
spin component  1
 
  0.1318  0.0111 -0.0031  0.0113  0.0000
  0.0111  0.0931  0.0088  0.0393 -0.0139
 -0.0031  0.0088  0.0704  0.0088  0.0013
  0.0113  0.0393  0.0088  0.0916  0.0143
  0.0000 -0.0139  0.0013  0.0143  0.0942
 
spin component  2
 
  0.9172 -0.0046  0.0265 -0.0046 -0.0001
 -0.0046  0.9088 -0.0034  0.0118  0.0052
  0.0265 -0.0034  0.9189 -0.0033 -0.0004
 -0.0046  0.0118 -0.0033  0.9093 -0.0053
 -0.0001  0.0052 -0.0004 -0.0053  0.8822
 
 occupancies and eigenvectors
 
  o =  0.0450  v =  0.0021  0.6500 -0.0169 -0.6598  0.3765  0.0000  0.0000  0.0000  0.0000  0.0000      0.0000  0.0000  0.0000  0.0000  0.0000  0.0000  0.0000  0.0000  0.0000  0.0000
  o =  0.0673  v = -0.0987  0.1314 -0.9715  0.1687  0.0259  0.0000  0.0000  0.0000  0.0000  0.0000      0.0000  0.0000  0.0000  0.0000  0.0000  0.0000  0.0000  0.0000  0.0000  0.0000
  o =  0.1023  v =  0.0096 -0.2778  0.0302  0.2539  0.9259  0.0000  0.0000  0.0000  0.0000  0.0000      0.0000  0.0000  0.0000  0.0000  0.0000  0.0000  0.0000  0.0000  0.0000  0.0000
  o =  0.1183  v = -0.7221  0.4676  0.2170  0.4610  0.0143  0.0000  0.0000  0.0000  0.0000  0.0000      0.0000  0.0000  0.0000  0.0000  0.0000  0.0000  0.0000  0.0000  0.0000  0.0000
  o =  0.1482  v = -0.6846 -0.5141 -0.0885 -0.5091 -0.0047  0.0000  0.0000  0.0000  0.0000  0.0000      0.0000  0.0000  0.0000  0.0000  0.0000  0.0000  0.0000  0.0000  0.0000  0.0000
  o =  0.8791  v =  0.0000  0.0000  0.0000  0.0000  0.0000 -0.0057 -0.2674  0.0134  0.2689  0.9252      0.0000  0.0000  0.0000  0.0000  0.0000  0.0000  0.0000  0.0000  0.0000  0.0000
  o =  0.8915  v =  0.0000  0.0000  0.0000  0.0000  0.0000  0.7218  0.0190 -0.6901  0.0492  0.0055      0.0000  0.0000  0.0000  0.0000  0.0000  0.0000  0.0000  0.0000  0.0000  0.0000
  o =  0.9003  v =  0.0000  0.0000  0.0000  0.0000  0.0000 -0.0173 -0.6671  0.0062  0.6409 -0.3793      0.0000  0.0000  0.0000  0.0000  0.0000  0.0000  0.0000  0.0000  0.0000  0.0000
  o =  0.9185  v =  0.0000  0.0000  0.0000  0.0000  0.0000  0.1687  0.6636  0.2436  0.6868 -0.0103      0.0000  0.0000  0.0000  0.0000  0.0000  0.0000  0.0000  0.0000  0.0000  0.0000
  o =  0.9470  v =  0.0000  0.0000  0.0000  0.0000  0.0000 -0.6710  0.2067 -0.6813  0.2068  0.0054      0.0000  0.0000  0.0000  0.0000  0.0000  0.0000  0.0000  0.0000  0.0000  0.0000
atom =   2  type =  1  l = 2
 
 onsite density matrix
 
spin component  1
 
  0.9193 -0.0040 -0.0095 -0.0042  0.0001
 -0.0040  0.9087 -0.0026 -0.0288  0.0050
 -0.0095 -0.0026  0.9202 -0.0024 -0.0005
 -0.0042 -0.0288 -0.0024  0.9092 -0.0052
  0.0001  0.0050 -0.0005 -0.0052  0.8819
 
spin component  2
 
  0.1360  0.0131 -0.0524  0.0133  0.0001
  0.0131  0.0920  0.0093  0.0082 -0.0140
 -0.0524  0.0093  0.0707  0.0090  0.0013
  0.0133  0.0082  0.0090  0.0905  0.0143
  0.0001 -0.0140  0.0013  0.0143  0.0948
 
 occupancies and eigenvectors
 
  o =  0.0351  v =  0.0000  0.0000  0.0000  0.0000  0.0000 -0.4823  0.2185 -0.8210  0.2127  0.0187      0.0000  0.0000  0.0000  0.0000  0.0000  0.0000  0.0000  0.0000  0.0000  0.0000
  o =  0.0680  v =  0.0000  0.0000  0.0000  0.0000  0.0000  0.0102  0.5459  0.0010 -0.5864  0.5983      0.0000  0.0000  0.0000  0.0000  0.0000  0.0000  0.0000  0.0000  0.0000  0.0000
  o =  0.1044  v =  0.0000  0.0000  0.0000  0.0000  0.0000  0.0124  0.6825  0.3419  0.6458  0.0096      0.0000  0.0000  0.0000  0.0000  0.0000  0.0000  0.0000  0.0000  0.0000  0.0000
  o =  0.1097  v =  0.0000  0.0000  0.0000  0.0000  0.0000  0.0111 -0.4201  0.0104  0.4264  0.8010      0.0000  0.0000  0.0000  0.0000  0.0000  0.0000  0.0000  0.0000  0.0000  0.0000
  o =  0.1667  v =  0.0000  0.0000  0.0000  0.0000  0.0000 -0.8758 -0.1096  0.4572 -0.1095  0.0070      0.0000  0.0000  0.0000  0.0000  0.0000  0.0000  0.0000  0.0000  0.0000  0.0000
  o =  0.8788  v = -0.1669 -0.6883 -0.1218 -0.6927 -0.0610  0.0000  0.0000  0.0000  0.0000  0.0000      0.0000  0.0000  0.0000  0.0000  0.0000  0.0000  0.0000  0.0000  0.0000  0.0000
  o =  0.8810  v = -0.0099 -0.1319  0.0033  0.0457  0.9901  0.0000  0.0000  0.0000  0.0000  0.0000      0.0000  0.0000  0.0000  0.0000  0.0000  0.0000  0.0000  0.0000  0.0000  0.0000
  o =  0.9116  v = -0.6965  0.1450 -0.6878  0.1440  0.0080  0.0000  0.0000  0.0000  0.0000  0.0000      0.0000  0.0000  0.0000  0.0000  0.0000  0.0000  0.0000  0.0000  0.0000  0.0000
  o =  0.9294  v =  0.6976 -0.0382 -0.7155 -0.0047  0.0045  0.0000  0.0000  0.0000  0.0000  0.0000      0.0000  0.0000  0.0000  0.0000  0.0000  0.0000  0.0000  0.0000  0.0000  0.0000
  o =  0.9387  v =  0.0165  0.6973 -0.0158 -0.7053  0.1257  0.0000  0.0000  0.0000  0.0000  0.0000      0.0000  0.0000  0.0000  0.0000  0.0000  0.0000  0.0000  0.0000  0.0000  0.0000
     EDDAV:  cpu time    2.0327: real time    2.0501
 BZINTS: Fermi energy:  4.281632; 54.000000 electrons
         Band energy:-755.947151;  BLOECHL correction:  0.000000
       DOS:  cpu time    0.0053: real time    0.0053
    CHARGE:  cpu time    0.0955: real time    0.0955
    MIXING:  cpu time    0.0007: real time    0.0007
    --------------------------------------------
      LOOP:  cpu time    6.3573: real time    6.3747

 eigenvalue-minimisations  :  8796
 total energy-change (2. order) :-0.2134321E+02  (-0.1041298E+03)
 number of electron      54.0000009 magnetization       0.0000000
 augmentation part       20.5711595 magnetization      -0.0051239

 Broyden mixing:
  rms(total) = 0.19956E+01    rms(broyden)= 0.19955E+01
  rms(prec ) = 0.21615E+01
  weight for this iteration     100.00

 Free energy of the ion-electron system (eV)
  ---------------------------------------------------
  alpha Z        PSCENC =       197.83455644
  Ewald energy   TEWEN  =     -4190.82401748
  -Hartree energ DENC   =     -2117.20559591
  -exchange      EXHF   =         0.00000000
  -V(xc)+E(xc)   XCENC  =       292.13122649
  PAW double counting   =      7328.22853604    -7453.20931051
  entropy T*S    EENTRO =         0.00000000
  eigenvalues    EBANDS =      -755.94715112
  atomic energy  EATOM  =      6677.64854832
  Solvation  Ediel_sol  =         0.00000000
  ---------------------------------------------------
  free energy    TOTEN  =       -21.34320773 eV

  energy without entropy =      -21.34320773  energy(sigma->0) =      -21.34320773


--------------------------------------------------------------------------------------------------------




--------------------------------------- Iteration      1(   2)  ---------------------------------------


    POTLOK:  cpu time    0.0157: real time    0.0157
    SETDIJ:  cpu time    4.2355: real time    4.2355
atom =   1  type =  1  l = 2
 
 onsite density matrix
 
spin component  1
 
  0.0344 -0.0014  0.0359 -0.0016 -0.0001
 -0.0014  0.0239 -0.0008  0.0254  0.0015
  0.0359 -0.0008  0.0243 -0.0009 -0.0002
 -0.0016  0.0254 -0.0009  0.0239 -0.0022
 -0.0001  0.0015 -0.0002 -0.0022 -0.0197
 
spin component  2
 
  1.0027  0.0053 -0.0031  0.0056  0.0001
  0.0053  0.9804  0.0047  0.0224 -0.0060
 -0.0031  0.0047  0.9684  0.0049  0.0006
  0.0056  0.0224  0.0049  0.9800  0.0068
  0.0001 -0.0060  0.0006  0.0068  0.9921
 
 occupancies and eigenvectors
 
  o = -0.0200  v =  0.0050  0.0935 -0.0098 -0.1025 -0.9903  0.0000  0.0000  0.0000  0.0000  0.0000      0.0000  0.0000  0.0000  0.0000  0.0000  0.0000  0.0000  0.0000  0.0000  0.0000
  o = -0.0069  v =  0.6564  0.0044 -0.7543  0.0088  0.0103  0.0000  0.0000  0.0000  0.0000  0.0000      0.0000  0.0000  0.0000  0.0000  0.0000  0.0000  0.0000  0.0000  0.0000  0.0000
  o = -0.0011  v =  0.0000  0.7009 -0.0022 -0.6996  0.1387  0.0000  0.0000  0.0000  0.0000  0.0000      0.0000  0.0000  0.0000  0.0000  0.0000  0.0000  0.0000  0.0000  0.0000  0.0000
  o =  0.0490  v =  0.1003  0.7002  0.0995  0.6998 -0.0068  0.0000  0.0000  0.0000  0.0000  0.0000      0.0000  0.0000  0.0000  0.0000  0.0000  0.0000  0.0000  0.0000  0.0000  0.0000
  o =  0.0659  v = -0.7477  0.0984 -0.6489  0.1009  0.0014  0.0000  0.0000  0.0000  0.0000  0.0000      0.0000  0.0000  0.0000  0.0000  0.0000  0.0000  0.0000  0.0000  0.0000  0.0000
  o =  0.9555  v =  0.0000  0.0000  0.0000  0.0000  0.0000 -0.0060 -0.6804 -0.0024  0.6924 -0.2402      0.0000  0.0000  0.0000  0.0000  0.0000  0.0000  0.0000  0.0000  0.0000  0.0000
  o =  0.9665  v =  0.0000  0.0000  0.0000  0.0000  0.0000  0.1280 -0.1475  0.9695 -0.1471 -0.0194      0.0000  0.0000  0.0000  0.0000  0.0000  0.0000  0.0000  0.0000  0.0000  0.0000
  o =  0.9943  v =  0.0000  0.0000  0.0000  0.0000  0.0000  0.1069 -0.2695 -0.0258  0.0671  0.9543      0.0000  0.0000  0.0000  0.0000  0.0000  0.0000  0.0000  0.0000  0.0000  0.0000
  o =  0.9968  v =  0.0000  0.0000  0.0000  0.0000  0.0000  0.7082 -0.4302 -0.2349 -0.4776 -0.1736      0.0000  0.0000  0.0000  0.0000  0.0000  0.0000  0.0000  0.0000  0.0000  0.0000
  o =  1.0105  v =  0.0000  0.0000  0.0000  0.0000  0.0000  0.6860  0.5076  0.0656  0.5161  0.0320      0.0000  0.0000  0.0000  0.0000  0.0000  0.0000  0.0000  0.0000  0.0000  0.0000
atom =   2  type =  1  l = 2
 
 onsite density matrix
 
spin component  1
 
  0.9999  0.0064 -0.0253  0.0066 -0.0001
  0.0064  0.9829  0.0074  0.0027 -0.0085
 -0.0253  0.0074  0.9692  0.0073  0.0008
  0.0066  0.0027  0.0073  0.9817  0.0089
 -0.0001 -0.0085  0.0008  0.0089  0.9875
 
spin component  2
 
  0.0398 -0.0023 -0.0302 -0.0022  0.0002
 -0.0023  0.0204 -0.0013 -0.0313  0.0031
 -0.0302 -0.0013  0.0248 -0.0014 -0.0004
 -0.0022 -0.0313 -0.0014  0.0211 -0.0036
  0.0002  0.0031 -0.0004 -0.0036 -0.0167
 
 occupancies and eigenvectors
 
  o = -0.0170  v =  0.0000  0.0000  0.0000  0.0000  0.0000  0.0101 -0.0043  0.0200  0.0913  0.9956      0.0000  0.0000  0.0000  0.0000  0.0000  0.0000  0.0000  0.0000  0.0000  0.0000
  o = -0.0115  v =  0.0000  0.0000  0.0000  0.0000  0.0000  0.1748  0.6878  0.1964  0.6735 -0.0645      0.0000  0.0000  0.0000  0.0000  0.0000  0.0000  0.0000  0.0000  0.0000  0.0000
  o =  0.0021  v =  0.0000  0.0000  0.0000  0.0000  0.0000  0.5902 -0.1873  0.7631 -0.1849 -0.0052      0.0000  0.0000  0.0000  0.0000  0.0000  0.0000  0.0000  0.0000  0.0000  0.0000
  o =  0.0523  v =  0.0000  0.0000  0.0000  0.0000  0.0000  0.0038  0.7011 -0.0024 -0.7098  0.0682      0.0000  0.0000  0.0000  0.0000  0.0000  0.0000  0.0000  0.0000  0.0000  0.0000
  o =  0.0635  v =  0.0000  0.0000  0.0000  0.0000  0.0000 -0.7881  0.0156  0.6153  0.0087 -0.0050      0.0000  0.0000  0.0000  0.0000  0.0000  0.0000  0.0000  0.0000  0.0000  0.0000
  o =  0.9497  v = -0.4717  0.2521 -0.8051  0.2560  0.0127  0.0000  0.0000  0.0000  0.0000  0.0000      0.0000  0.0000  0.0000  0.0000  0.0000  0.0000  0.0000  0.0000  0.0000  0.0000
  o =  0.9706  v =  0.0048  0.5423 -0.0144 -0.5998  0.5881  0.0000  0.0000  0.0000  0.0000  0.0000      0.0000  0.0000  0.0000  0.0000  0.0000  0.0000  0.0000  0.0000  0.0000  0.0000
  o =  0.9899  v = -0.0805 -0.6879 -0.3660 -0.6216 -0.0080  0.0000  0.0000  0.0000  0.0000  0.0000      0.0000  0.0000  0.0000  0.0000  0.0000  0.0000  0.0000  0.0000  0.0000  0.0000
  o =  0.9965  v = -0.0219  0.4035 -0.0095 -0.4277 -0.8085  0.0000  0.0000  0.0000  0.0000  0.0000      0.0000  0.0000  0.0000  0.0000  0.0000  0.0000  0.0000  0.0000  0.0000  0.0000
  o =  1.0145  v = -0.8778 -0.0795  0.4664 -0.0731  0.0173  0.0000  0.0000  0.0000  0.0000  0.0000      0.0000  0.0000  0.0000  0.0000  0.0000  0.0000  0.0000  0.0000  0.0000  0.0000
     EDDAV:  cpu time    1.7579: real time    1.7580
 BZINTS: Fermi energy:  2.604330; 54.000000 electrons
         Band energy:-742.869043;  BLOECHL correction:  0.000000
       DOS:  cpu time    0.0037: real time    0.0037
    CHARGE:  cpu time    0.0965: real time    0.0965
    MIXING:  cpu time    0.0008: real time    0.0008
    --------------------------------------------
      LOOP:  cpu time    6.1102: real time    6.1103

 eigenvalue-minimisations  :  7404
 total energy-change (2. order) :-0.1840814E+02  (-0.1938971E+02)
 number of electron      54.0000009 magnetization       0.0000000
 augmentation part       19.8515534 magnetization       0.0007905

 Broyden mixing:
  rms(total) = 0.20674E+01    rms(broyden)= 0.20674E+01
  rms(prec ) = 0.20984E+01
  weight for this iteration     100.00

 eigenvalues of (default mixing * dielectric matrix)
  average eigenvalue GAMMA=   0.2798
  0.2798

 Free energy of the ion-electron system (eV)
  ---------------------------------------------------
  alpha Z        PSCENC =       197.83455644
  Ewald energy   TEWEN  =     -4190.82401748
  -Hartree energ DENC   =     -2148.55342517
  -exchange      EXHF   =         0.00000000
  -V(xc)+E(xc)   XCENC  =       294.00283664
  PAW double counting   =      7195.19647175    -7322.18727862
  entropy T*S    EENTRO =         0.00000000
  eigenvalues    EBANDS =      -742.86904332
  atomic energy  EATOM  =      6677.64854832
  Solvation  Ediel_sol  =         0.00000000
  ---------------------------------------------------
  free energy    TOTEN  =       -39.75135143 eV

  energy without entropy =      -39.75135143  energy(sigma->0) =      -39.75135143


--------------------------------------------------------------------------------------------------------




--------------------------------------- Iteration      1(   3)  ---------------------------------------


    POTLOK:  cpu time    0.0157: real time    0.0157
    SETDIJ:  cpu time    4.2430: real time    4.2430
atom =   1  type =  1  l = 2
 
 onsite density matrix
 
spin component  1
 
  0.0557  0.0010  0.0230  0.0010 -0.0000
  0.0010  0.0403  0.0012  0.0250 -0.0014
  0.0230  0.0012  0.0364  0.0012  0.0001
  0.0010  0.0250  0.0012  0.0402  0.0014
 -0.0000 -0.0014  0.0001  0.0014  0.0162
 
spin component  2
 
  0.9758  0.0020  0.0132  0.0022  0.0000
  0.0020  0.9625  0.0019  0.0214 -0.0020
  0.0132  0.0019  0.9544  0.0019  0.0002
  0.0022  0.0214  0.0019  0.9623  0.0022
  0.0000 -0.0020  0.0002  0.0022  0.9522
 
 occupancies and eigenvectors
 
  o =  0.0137  v =  0.0053  0.5543 -0.0086 -0.5555  0.6197  0.0000  0.0000  0.0000  0.0000  0.0000      0.0000  0.0000  0.0000  0.0000  0.0000  0.0000  0.0000  0.0000  0.0000  0.0000
  o =  0.0177  v =  0.0106 -0.4375 -0.0181  0.4390  0.7845  0.0000  0.0000  0.0000  0.0000  0.0000      0.0000  0.0000  0.0000  0.0000  0.0000  0.0000  0.0000  0.0000  0.0000  0.0000
  o =  0.0211  v =  0.5534  0.0133 -0.8325  0.0062 -0.0227  0.0000  0.0000  0.0000  0.0000  0.0000      0.0000  0.0000  0.0000  0.0000  0.0000  0.0000  0.0000  0.0000  0.0000  0.0000
  o =  0.0646  v = -0.2686  0.6723 -0.1628  0.6704 -0.0003  0.0000  0.0000  0.0000  0.0000  0.0000      0.0000  0.0000  0.0000  0.0000  0.0000  0.0000  0.0000  0.0000  0.0000  0.0000
  o =  0.0717  v = -0.7883 -0.2219 -0.5292 -0.2219 -0.0011  0.0000  0.0000  0.0000  0.0000  0.0000      0.0000  0.0000  0.0000  0.0000  0.0000  0.0000  0.0000  0.0000  0.0000  0.0000
  o =  0.9403  v =  0.0000  0.0000  0.0000  0.0000  0.0000 -0.0046 -0.6845  0.0052  0.6886 -0.2392      0.0000  0.0000  0.0000  0.0000  0.0000  0.0000  0.0000  0.0000  0.0000  0.0000
  o =  0.9481  v =  0.0000  0.0000  0.0000  0.0000  0.0000  0.4268  0.0128 -0.9032  0.0323  0.0283      0.0000  0.0000  0.0000  0.0000  0.0000  0.0000  0.0000  0.0000  0.0000  0.0000
  o =  0.9530  v =  0.0000  0.0000  0.0000  0.0000  0.0000 -0.0162 -0.1718  0.0262  0.1661  0.9705      0.0000  0.0000  0.0000  0.0000  0.0000  0.0000  0.0000  0.0000  0.0000  0.0000
  o =  0.9790  v =  0.0000  0.0000  0.0000  0.0000  0.0000 -0.7130  0.4454 -0.3149  0.4405  0.0000      0.0000  0.0000  0.0000  0.0000  0.0000  0.0000  0.0000  0.0000  0.0000  0.0000
  o =  0.9868  v =  0.0000  0.0000  0.0000  0.0000  0.0000 -0.5560 -0.5507 -0.2904 -0.5507 -0.0047      0.0000  0.0000  0.0000  0.0000  0.0000  0.0000  0.0000  0.0000  0.0000  0.0000
atom =   2  type =  1  l = 2
 
 onsite density matrix
 
spin component  1
 
  0.9761  0.0020 -0.0239  0.0021  0.0000
  0.0020  0.9624  0.0030 -0.0120 -0.0030
 -0.0239  0.0030  0.9554  0.0030  0.0002
  0.0021 -0.0120  0.0030  0.9620  0.0031
  0.0000 -0.0030  0.0002  0.0031  0.9509
 
spin component  2
 
  0.0574  0.0011 -0.0300  0.0012  0.0001
  0.0011  0.0394  0.0018 -0.0193 -0.0013
 -0.0300  0.0018  0.0366  0.0017  0.0001
  0.0012 -0.0193  0.0017  0.0394  0.0012
  0.0001 -0.0013  0.0001  0.0012  0.0161
 
 occupancies and eigenvectors
 
  o =  0.0138  v =  0.0000  0.0000  0.0000  0.0000  0.0000 -0.5225  0.3040 -0.7353  0.3009  0.0580      0.0000  0.0000  0.0000  0.0000  0.0000  0.0000  0.0000  0.0000  0.0000  0.0000
  o =  0.0161  v =  0.0000  0.0000  0.0000  0.0000  0.0000  0.0305  0.0121  0.0434 -0.0455  0.9975      0.0000  0.0000  0.0000  0.0000  0.0000  0.0000  0.0000  0.0000  0.0000  0.0000
  o =  0.0215  v =  0.0000  0.0000  0.0000  0.0000  0.0000  0.2490  0.6380  0.3486  0.6399 -0.0014      0.0000  0.0000  0.0000  0.0000  0.0000  0.0000  0.0000  0.0000  0.0000  0.0000
  o =  0.0588  v =  0.0000  0.0000  0.0000  0.0000  0.0000  0.0037  0.7074 -0.0023 -0.7057 -0.0408      0.0000  0.0000  0.0000  0.0000  0.0000  0.0000  0.0000  0.0000  0.0000  0.0000
  o =  0.0787  v =  0.0000  0.0000  0.0000  0.0000  0.0000 -0.8149  0.0037  0.5796 -0.0024 -0.0004      0.0000  0.0000  0.0000  0.0000  0.0000  0.0000  0.0000  0.0000  0.0000  0.0000
  o =  0.9376  v = -0.5094  0.2661 -0.7734  0.2670  0.0137  0.0000  0.0000  0.0000  0.0000  0.0000      0.0000  0.0000  0.0000  0.0000  0.0000  0.0000  0.0000  0.0000  0.0000  0.0000
  o =  0.9502  v = -0.0045  0.0763 -0.0126 -0.1715  0.9821  0.0000  0.0000  0.0000  0.0000  0.0000      0.0000  0.0000  0.0000  0.0000  0.0000  0.0000  0.0000  0.0000  0.0000  0.0000
  o =  0.9523  v =  0.2042  0.6578  0.3169  0.6485  0.0672  0.0000  0.0000  0.0000  0.0000  0.0000      0.0000  0.0000  0.0000  0.0000  0.0000  0.0000  0.0000  0.0000  0.0000  0.0000
  o =  0.9749  v =  0.0026  0.7004 -0.0026 -0.6919 -0.1752  0.0000  0.0000  0.0000  0.0000  0.0000      0.0000  0.0000  0.0000  0.0000  0.0000  0.0000  0.0000  0.0000  0.0000  0.0000
  o =  0.9919  v = -0.8359  0.0002  0.5488 -0.0055  0.0022  0.0000  0.0000  0.0000  0.0000  0.0000      0.0000  0.0000  0.0000  0.0000  0.0000  0.0000  0.0000  0.0000  0.0000  0.0000
     EDDAV:  cpu time    1.9417: real time    1.9417
 BZINTS: Fermi energy:  2.323862; 54.000000 electrons
         Band energy:-746.328150;  BLOECHL correction:  0.000000
       DOS:  cpu time    0.0031: real time    0.0031
    CHARGE:  cpu time    0.0963: real time    0.0963
    MIXING:  cpu time    0.0008: real time    0.0008
    --------------------------------------------
      LOOP:  cpu time    6.3007: real time    6.3007

 eigenvalue-minimisations  :  8340
 total energy-change (2. order) :-0.2198269E+00  (-0.2831561E+00)
 number of electron      54.0000009 magnetization      -0.0000000
 augmentation part       19.8774997 magnetization       0.0013082

 Broyden mixing:
  rms(total) = 0.15320E+01    rms(broyden)= 0.15320E+01
  rms(prec ) = 0.15504E+01
  weight for this iteration     100.00

 eigenvalues of (default mixing * dielectric matrix)
  average eigenvalue GAMMA=   1.1492
  1.7457  0.5526

 Free energy of the ion-electron system (eV)
  ---------------------------------------------------
  alpha Z        PSCENC =       197.83455644
  Ewald energy   TEWEN  =     -4190.82401748
  -Hartree energ DENC   =     -2147.36733995
  -exchange      EXHF   =         0.00000000
  -V(xc)+E(xc)   XCENC  =       293.82386878
  PAW double counting   =      6985.28226437    -7110.04090860
  entropy T*S    EENTRO =         0.00000000
  eigenvalues    EBANDS =      -746.32815016
  atomic energy  EATOM  =      6677.64854832
  Solvation  Ediel_sol  =         0.00000000
  ---------------------------------------------------
  free energy    TOTEN  =       -39.97117828 eV

  energy without entropy =      -39.97117828  energy(sigma->0) =      -39.97117828


--------------------------------------------------------------------------------------------------------




--------------------------------------- Iteration      1(   4)  ---------------------------------------


    POTLOK:  cpu time    0.0159: real time    0.0159
    SETDIJ:  cpu time    3.7717: real time    3.7717
atom =   1  type =  1  l = 2
 
 onsite density matrix
 
spin component  1
 
  0.0514 -0.0000  0.0326  0.0000  0.0000
 -0.0000  0.0415 -0.0001  0.0259  0.0007
  0.0326 -0.0001  0.0356 -0.0002 -0.0001
  0.0000  0.0259 -0.0002  0.0415 -0.0009
  0.0000  0.0007 -0.0001 -0.0009  0.0101
 
spin component  2
 
  0.9680  0.0009  0.0117  0.0010 -0.0000
  0.0009  0.9588  0.0011  0.0168 -0.0019
  0.0117  0.0011  0.9524  0.0012  0.0002
  0.0010  0.0168  0.0012  0.9587  0.0021
 -0.0000 -0.0019  0.0002  0.0021  0.9497
 
 occupancies and eigenvectors
 
  o =  0.0098  v =  0.2943  0.1201 -0.3753 -0.1244 -0.8617  0.0000  0.0000  0.0000  0.0000  0.0000      0.0000  0.0000  0.0000  0.0000  0.0000  0.0000  0.0000  0.0000  0.0000  0.0000
  o =  0.0100  v =  0.5438 -0.0650 -0.6905  0.0631  0.4683  0.0000  0.0000  0.0000  0.0000  0.0000      0.0000  0.0000  0.0000  0.0000  0.0000  0.0000  0.0000  0.0000  0.0000  0.0000
  o =  0.0158  v = -0.0017  0.6936  0.0024 -0.6934  0.1952  0.0000  0.0000  0.0000  0.0000  0.0000      0.0000  0.0000  0.0000  0.0000  0.0000  0.0000  0.0000  0.0000  0.0000  0.0000
  o =  0.0674  v =  0.0116  0.7072  0.0058  0.7069 -0.0020  0.0000  0.0000  0.0000  0.0000  0.0000      0.0000  0.0000  0.0000  0.0000  0.0000  0.0000  0.0000  0.0000  0.0000  0.0000
  o =  0.0770  v = -0.7858  0.0089 -0.6183  0.0090  0.0008  0.0000  0.0000  0.0000  0.0000  0.0000      0.0000  0.0000  0.0000  0.0000  0.0000  0.0000  0.0000  0.0000  0.0000  0.0000
  o =  0.9410  v =  0.0000  0.0000  0.0000  0.0000  0.0000  0.0028  0.6713 -0.0047 -0.6745  0.3072      0.0000  0.0000  0.0000  0.0000  0.0000  0.0000  0.0000  0.0000  0.0000  0.0000
  o =  0.9461  v =  0.0000  0.0000  0.0000  0.0000  0.0000  0.4702  0.0074 -0.8813  0.0312  0.0347      0.0000  0.0000  0.0000  0.0000  0.0000  0.0000  0.0000  0.0000  0.0000  0.0000
  o =  0.9506  v =  0.0000  0.0000  0.0000  0.0000  0.0000  0.0209  0.2219 -0.0319 -0.2120 -0.9510      0.0000  0.0000  0.0000  0.0000  0.0000  0.0000  0.0000  0.0000  0.0000  0.0000
  o =  0.9729  v =  0.0000  0.0000  0.0000  0.0000  0.0000 -0.7255  0.4117 -0.3690  0.4098  0.0011      0.0000  0.0000  0.0000  0.0000  0.0000  0.0000  0.0000  0.0000  0.0000  0.0000
  o =  0.9770  v =  0.0000  0.0000  0.0000  0.0000  0.0000 -0.5021 -0.5749 -0.2934 -0.5755 -0.0070      0.0000  0.0000  0.0000  0.0000  0.0000  0.0000  0.0000  0.0000  0.0000  0.0000
atom =   2  type =  1  l = 2
 
 onsite density matrix
 
spin component  1
 
  0.9676  0.0018 -0.0190  0.0018  0.0000
  0.0018  0.9595  0.0016 -0.0108 -0.0016
 -0.0190  0.0016  0.9515  0.0015  0.0002
  0.0018 -0.0108  0.0015  0.9592  0.0016
  0.0000 -0.0016  0.0002  0.0016  0.9492
 
spin component  2
 
  0.0525 -0.0007 -0.0310 -0.0007  0.0000
 -0.0007  0.0404 -0.0000 -0.0269  0.0002
 -0.0310 -0.0000  0.0366  0.0000 -0.0001
 -0.0007 -0.0269  0.0000  0.0405 -0.0003
  0.0000  0.0002 -0.0001 -0.0003  0.0103
 
 occupancies and eigenvectors
 
  o =  0.0103  v =  0.0000  0.0000  0.0000  0.0000  0.0000  0.0159  0.0102  0.0217  0.0194  0.9994      0.0000  0.0000  0.0000  0.0000  0.0000  0.0000  0.0000  0.0000  0.0000  0.0000
  o =  0.0122  v =  0.0000  0.0000  0.0000  0.0000  0.0000  0.5617  0.2941  0.7153  0.2921 -0.0331      0.0000  0.0000  0.0000  0.0000  0.0000  0.0000  0.0000  0.0000  0.0000  0.0000
  o =  0.0138  v =  0.0000  0.0000  0.0000  0.0000  0.0000  0.2452 -0.6442  0.3350 -0.6424  0.0079      0.0000  0.0000  0.0000  0.0000  0.0000  0.0000  0.0000  0.0000  0.0000  0.0000
  o =  0.0674  v =  0.0000  0.0000  0.0000  0.0000  0.0000  0.0010  0.7059 -0.0015 -0.7082  0.0065      0.0000  0.0000  0.0000  0.0000  0.0000  0.0000  0.0000  0.0000  0.0000  0.0000
  o =  0.0766  v =  0.0000  0.0000  0.0000  0.0000  0.0000 -0.7900  0.0102  0.6129  0.0078 -0.0010      0.0000  0.0000  0.0000  0.0000  0.0000  0.0000  0.0000  0.0000  0.0000  0.0000
  o =  0.9379  v = -0.5346  0.2045 -0.7942  0.2037  0.0127  0.0000  0.0000  0.0000  0.0000  0.0000      0.0000  0.0000  0.0000  0.0000  0.0000  0.0000  0.0000  0.0000  0.0000  0.0000
  o =  0.9489  v = -0.0156 -0.0502 -0.0381 -0.2003  0.9776  0.0000  0.0000  0.0000  0.0000  0.0000      0.0000  0.0000  0.0000  0.0000  0.0000  0.0000  0.0000  0.0000  0.0000  0.0000
  o =  0.9495  v =  0.1352  0.6737  0.2538  0.6562  0.1811  0.0000  0.0000  0.0000  0.0000  0.0000      0.0000  0.0000  0.0000  0.0000  0.0000  0.0000  0.0000  0.0000  0.0000  0.0000
  o =  0.9704  v =  0.0025  0.7081 -0.0001 -0.6980 -0.1066  0.0000  0.0000  0.0000  0.0000  0.0000      0.0000  0.0000  0.0000  0.0000  0.0000  0.0000  0.0000  0.0000  0.0000  0.0000
  o =  0.9802  v = -0.8341 -0.0188  0.5509 -0.0226  0.0025  0.0000  0.0000  0.0000  0.0000  0.0000      0.0000  0.0000  0.0000  0.0000  0.0000  0.0000  0.0000  0.0000  0.0000  0.0000
     EDDAV:  cpu time    1.8638: real time    1.8638
 BZINTS: Fermi energy:  1.972175; 54.000000 electrons
         Band energy:-752.906055;  BLOECHL correction:  0.000000
       DOS:  cpu time    0.0031: real time    0.0031
    CHARGE:  cpu time    0.0962: real time    0.0962
    MIXING:  cpu time    0.0009: real time    0.0009
    --------------------------------------------
      LOOP:  cpu time    5.7517: real time    5.7517

 eigenvalue-minimisations  :  7968
 total energy-change (2. order) : 0.4292692E-01  (-0.8945323E-01)
 number of electron      54.0000008 magnetization      -0.0000000
 augmentation part       19.9407589 magnetization       0.0003229

 Broyden mixing:
  rms(total) = 0.34688E+00    rms(broyden)= 0.34686E+00
  rms(prec ) = 0.39754E+00
  weight for this iteration     100.00

 eigenvalues of (default mixing * dielectric matrix)
  average eigenvalue GAMMA=   1.2200
  2.0729  0.7936  0.7936

 Free energy of the ion-electron system (eV)
  ---------------------------------------------------
  alpha Z        PSCENC =       197.83455644
  Ewald energy   TEWEN  =     -4190.82401748
  -Hartree energ DENC   =     -2146.83183303
  -exchange      EXHF   =         0.00000000
  -V(xc)+E(xc)   XCENC  =       293.89237232
  PAW double counting   =      6435.96037198    -6554.70219467
  entropy T*S    EENTRO =         0.00000000
  eigenvalues    EBANDS =      -752.90605523
  atomic energy  EATOM  =      6677.64854832
  Solvation  Ediel_sol  =         0.00000000
  ---------------------------------------------------
  free energy    TOTEN  =       -39.92825136 eV

  energy without entropy =      -39.92825136  energy(sigma->0) =      -39.92825136


--------------------------------------------------------------------------------------------------------




--------------------------------------- Iteration      1(   5)  ---------------------------------------


    POTLOK:  cpu time    0.0157: real time    0.0157
    SETDIJ:  cpu time    4.2052: real time    4.2053
atom =   1  type =  1  l = 2
 
 onsite density matrix
 
spin component  1
 
  0.0655  0.0011  0.0249  0.0011  0.0000
  0.0011  0.0518  0.0010  0.0260 -0.0018
  0.0249  0.0010  0.0439  0.0011  0.0002
  0.0011  0.0260  0.0011  0.0518  0.0021
  0.0000 -0.0018  0.0002  0.0021  0.0312
 
spin component  2
 
  0.9530 -0.0010  0.0238 -0.0010 -0.0000
 -0.0010  0.9513 -0.0009  0.0161  0.0016
  0.0238 -0.0009  0.9462 -0.0010 -0.0002
 -0.0010  0.0161 -0.0010  0.9513 -0.0019
 -0.0000  0.0016 -0.0002 -0.0019  0.9278
 
 occupancies and eigenvectors
 
  o =  0.0247  v =  0.0079  0.6528 -0.0119 -0.6553  0.3798  0.0000  0.0000  0.0000  0.0000  0.0000      0.0000  0.0000  0.0000  0.0000  0.0000  0.0000  0.0000  0.0000  0.0000  0.0000
  o =  0.0275  v =  0.5481 -0.0121 -0.8356  0.0241  0.0248  0.0000  0.0000  0.0000  0.0000  0.0000      0.0000  0.0000  0.0000  0.0000  0.0000  0.0000  0.0000  0.0000  0.0000  0.0000
  o =  0.0323  v =  0.0198  0.2712 -0.0261 -0.2652 -0.9247  0.0000  0.0000  0.0000  0.0000  0.0000      0.0000  0.0000  0.0000  0.0000  0.0000  0.0000  0.0000  0.0000  0.0000  0.0000
  o =  0.0769  v = -0.3357  0.6496 -0.2109  0.6487  0.0032  0.0000  0.0000  0.0000  0.0000  0.0000      0.0000  0.0000  0.0000  0.0000  0.0000  0.0000  0.0000  0.0000  0.0000  0.0000
  o =  0.0827  v = -0.7658 -0.2797 -0.5064 -0.2809 -0.0036  0.0000  0.0000  0.0000  0.0000  0.0000      0.0000  0.0000  0.0000  0.0000  0.0000  0.0000  0.0000  0.0000  0.0000  0.0000
  o =  0.9256  v =  0.0000  0.0000  0.0000  0.0000  0.0000  0.6528  0.0149 -0.7523 -0.0181 -0.0860      0.0000  0.0000  0.0000  0.0000  0.0000  0.0000  0.0000  0.0000  0.0000  0.0000
  o =  0.9271  v =  0.0000  0.0000  0.0000  0.0000  0.0000 -0.0608  0.2012  0.0653 -0.2076 -0.9531      0.0000  0.0000  0.0000  0.0000  0.0000  0.0000  0.0000  0.0000  0.0000  0.0000
  o =  0.9360  v =  0.0000  0.0000  0.0000  0.0000  0.0000  0.0016  0.6784 -0.0020 -0.6750  0.2900      0.0000  0.0000  0.0000  0.0000  0.0000  0.0000  0.0000  0.0000  0.0000  0.0000
  o =  0.9668  v =  0.0000  0.0000  0.0000  0.0000  0.0000  0.2046  0.6805  0.1752  0.6814 -0.0058      0.0000  0.0000  0.0000  0.0000  0.0000  0.0000  0.0000  0.0000  0.0000  0.0000
  o =  0.9741  v =  0.0000  0.0000  0.0000  0.0000  0.0000 -0.7269  0.1896 -0.6318  0.1913  0.0014      0.0000  0.0000  0.0000  0.0000  0.0000  0.0000  0.0000  0.0000  0.0000  0.0000
atom =   2  type =  1  l = 2
 
 onsite density matrix
 
spin component  1
 
  0.9547 -0.0017 -0.0177 -0.0017  0.0000
 -0.0017  0.9497 -0.0013 -0.0211  0.0017
 -0.0177 -0.0013  0.9468 -0.0013 -0.0002
 -0.0017 -0.0211 -0.0013  0.9501 -0.0018
  0.0000  0.0017 -0.0002 -0.0018  0.9288
 
spin component  2
 
  0.0638  0.0018 -0.0316  0.0018 -0.0000
  0.0018  0.0532  0.0015 -0.0203 -0.0019
 -0.0316  0.0015  0.0431  0.0015  0.0002
  0.0018 -0.0203  0.0015  0.0529  0.0020
 -0.0000 -0.0019  0.0002  0.0020  0.0301
 
 occupancies and eigenvectors
 
  o =  0.0194  v =  0.0000  0.0000  0.0000  0.0000  0.0000 -0.5726  0.1682 -0.7846  0.1677  0.0131      0.0000  0.0000  0.0000  0.0000  0.0000  0.0000  0.0000  0.0000  0.0000  0.0000
  o =  0.0299  v =  0.0000  0.0000  0.0000  0.0000  0.0000  0.0040  0.0125 -0.0000 -0.0768  0.9970      0.0000  0.0000  0.0000  0.0000  0.0000  0.0000  0.0000  0.0000  0.0000  0.0000
  o =  0.0335  v =  0.0000  0.0000  0.0000  0.0000  0.0000 -0.1278 -0.6849 -0.2011 -0.6872 -0.0439      0.0000  0.0000  0.0000  0.0000  0.0000  0.0000  0.0000  0.0000  0.0000  0.0000
  o =  0.0736  v =  0.0000  0.0000  0.0000  0.0000  0.0000 -0.0005 -0.7088 -0.0003  0.7026  0.0630      0.0000  0.0000  0.0000  0.0000  0.0000  0.0000  0.0000  0.0000  0.0000  0.0000
  o =  0.0867  v =  0.0000  0.0000  0.0000  0.0000  0.0000 -0.8098 -0.0103  0.5865 -0.0109  0.0026      0.0000  0.0000  0.0000  0.0000  0.0000  0.0000  0.0000  0.0000  0.0000  0.0000
  o =  0.9272  v = -0.3092 -0.6167 -0.3622 -0.6192 -0.0977  0.0000  0.0000  0.0000  0.0000  0.0000      0.0000  0.0000  0.0000  0.0000  0.0000  0.0000  0.0000  0.0000  0.0000  0.0000
  o =  0.9287  v = -0.0248 -0.1075 -0.0222 -0.0243  0.9933  0.0000  0.0000  0.0000  0.0000  0.0000      0.0000  0.0000  0.0000  0.0000  0.0000  0.0000  0.0000  0.0000  0.0000  0.0000
  o =  0.9342  v =  0.5422 -0.3376  0.6917 -0.3366 -0.0157  0.0000  0.0000  0.0000  0.0000  0.0000      0.0000  0.0000  0.0000  0.0000  0.0000  0.0000  0.0000  0.0000  0.0000  0.0000
  o =  0.9689  v = -0.7809  0.0190  0.6243  0.0063 -0.0034  0.0000  0.0000  0.0000  0.0000  0.0000      0.0000  0.0000  0.0000  0.0000  0.0000  0.0000  0.0000  0.0000  0.0000  0.0000
  o =  0.9712  v =  0.0065  0.7027 -0.0058 -0.7090  0.0588  0.0000  0.0000  0.0000  0.0000  0.0000      0.0000  0.0000  0.0000  0.0000  0.0000  0.0000  0.0000  0.0000  0.0000  0.0000
     EDDAV:  cpu time    2.0072: real time    2.0072
 BZINTS: Fermi energy:  1.973756; 54.000000 electrons
         Band energy:-754.133269;  BLOECHL correction:  0.000000
       DOS:  cpu time    0.0031: real time    0.0031
    CHARGE:  cpu time    0.0964: real time    0.0964
    MIXING:  cpu time    0.0009: real time    0.0009
    --------------------------------------------
      LOOP:  cpu time    6.3285: real time    6.3286

 eigenvalue-minimisations  :  8628
 total energy-change (2. order) : 0.2680416E-01  (-0.1023293E-01)
 number of electron      54.0000008 magnetization      -0.0000000
 augmentation part       19.9422321 magnetization      -0.0003272

 Broyden mixing:
  rms(total) = 0.12229E+00    rms(broyden)= 0.12229E+00
  rms(prec ) = 0.14008E+00
  weight for this iteration     100.00

 eigenvalues of (default mixing * dielectric matrix)
  average eigenvalue GAMMA=   1.1376
  2.3620  0.7869  0.7869  0.6148

 Free energy of the ion-electron system (eV)
  ---------------------------------------------------
  alpha Z        PSCENC =       197.83455644
  Ewald energy   TEWEN  =     -4190.82401748
  -Hartree energ DENC   =     -2146.92264561
  -exchange      EXHF   =         0.00000000
  -V(xc)+E(xc)   XCENC  =       293.83543405
  PAW double counting   =      6272.66413148    -6390.00418580
  entropy T*S    EENTRO =         0.00000000
  eigenvalues    EBANDS =      -754.13326860
  atomic energy  EATOM  =      6677.64854832
  Solvation  Ediel_sol  =         0.00000000
  ---------------------------------------------------
  free energy    TOTEN  =       -39.90144720 eV

  energy without entropy =      -39.90144720  energy(sigma->0) =      -39.90144720


--------------------------------------------------------------------------------------------------------




--------------------------------------- Iteration      1(   6)  ---------------------------------------


    POTLOK:  cpu time    0.0159: real time    0.0159
    SETDIJ:  cpu time    4.2037: real time    4.2037
atom =   1  type =  1  l = 2
 
 onsite density matrix
 
spin component  1
 
  0.0528 -0.0001  0.0306 -0.0001  0.0000
 -0.0001  0.0438 -0.0001  0.0247  0.0003
  0.0306 -0.0001  0.0374 -0.0001 -0.0000
 -0.0001  0.0247 -0.0001  0.0438 -0.0003
  0.0000  0.0003 -0.0000 -0.0003  0.0150
 
spin component  2
 
  0.9660  0.0001  0.0185  0.0001 -0.0000
  0.0001  0.9600  0.0001  0.0174 -0.0003
  0.0185  0.0001  0.9533  0.0002  0.0000
  0.0001  0.0174  0.0002  0.9600  0.0003
 -0.0000 -0.0003  0.0000  0.0003  0.9443
 
 occupancies and eigenvectors
 
  o =  0.0136  v =  0.6145  0.0013 -0.7887 -0.0020 -0.0181  0.0000  0.0000  0.0000  0.0000  0.0000      0.0000  0.0000  0.0000  0.0000  0.0000  0.0000  0.0000  0.0000  0.0000  0.0000
  o =  0.0150  v = -0.0114  0.0687  0.0142 -0.0693 -0.9951  0.0000  0.0000  0.0000  0.0000  0.0000      0.0000  0.0000  0.0000  0.0000  0.0000  0.0000  0.0000  0.0000  0.0000  0.0000
  o =  0.0191  v = -0.0003  0.7038  0.0005 -0.7036  0.0976  0.0000  0.0000  0.0000  0.0000  0.0000      0.0000  0.0000  0.0000  0.0000  0.0000  0.0000  0.0000  0.0000  0.0000  0.0000
  o =  0.0684  v =  0.0188  0.7069  0.0140  0.7070 -0.0005  0.0000  0.0000  0.0000  0.0000  0.0000      0.0000  0.0000  0.0000  0.0000  0.0000  0.0000  0.0000  0.0000  0.0000  0.0000
  o =  0.0767  v = -0.7886  0.0165 -0.6145  0.0165  0.0002  0.0000  0.0000  0.0000  0.0000  0.0000      0.0000  0.0000  0.0000  0.0000  0.0000  0.0000  0.0000  0.0000  0.0000  0.0000
  o =  0.9401  v =  0.0000  0.0000  0.0000  0.0000  0.0000 -0.5812  0.0003  0.8138 -0.0028 -0.0065      0.0000  0.0000  0.0000  0.0000  0.0000  0.0000  0.0000  0.0000  0.0000  0.0000
  o =  0.9425  v =  0.0000  0.0000  0.0000  0.0000  0.0000  0.0003  0.6856 -0.0005 -0.6860  0.2438      0.0000  0.0000  0.0000  0.0000  0.0000  0.0000  0.0000  0.0000  0.0000  0.0000
  o =  0.9445  v =  0.0000  0.0000  0.0000  0.0000  0.0000  0.0043  0.1730 -0.0053 -0.1718 -0.9698      0.0000  0.0000  0.0000  0.0000  0.0000  0.0000  0.0000  0.0000  0.0000  0.0000
  o =  0.9774  v =  0.0000  0.0000  0.0000  0.0000  0.0000  0.1256 -0.6988  0.0876 -0.6987 -0.0008      0.0000  0.0000  0.0000  0.0000  0.0000  0.0000  0.0000  0.0000  0.0000  0.0000
  o =  0.9793  v =  0.0000  0.0000  0.0000  0.0000  0.0000 -0.8040 -0.1083 -0.5745 -0.1083 -0.0005      0.0000  0.0000  0.0000  0.0000  0.0000  0.0000  0.0000  0.0000  0.0000  0.0000
atom =   2  type =  1  l = 2
 
 onsite density matrix
 
spin component  1
 
  0.9657  0.0003 -0.0195  0.0003  0.0000
  0.0003  0.9603  0.0002 -0.0166 -0.0002
 -0.0195  0.0002  0.9530  0.0002  0.0000
  0.0003 -0.0166  0.0002  0.9603  0.0002
  0.0000 -0.0002  0.0000  0.0002  0.9442
 
spin component  2
 
  0.0531 -0.0003 -0.0297 -0.0003 -0.0000
 -0.0003  0.0434 -0.0001 -0.0252  0.0002
 -0.0297 -0.0001  0.0376 -0.0001 -0.0000
 -0.0003 -0.0252 -0.0001  0.0435 -0.0002
 -0.0000  0.0002 -0.0000 -0.0002  0.0151
 
 occupancies and eigenvectors
 
  o =  0.0146  v =  0.0000  0.0000  0.0000  0.0000  0.0000 -0.6081 -0.0684 -0.7868 -0.0684 -0.0415      0.0000  0.0000  0.0000  0.0000  0.0000  0.0000  0.0000  0.0000  0.0000  0.0000
  o =  0.0151  v =  0.0000  0.0000  0.0000  0.0000  0.0000  0.0256  0.0044  0.0327 -0.0016 -0.9991      0.0000  0.0000  0.0000  0.0000  0.0000  0.0000  0.0000  0.0000  0.0000  0.0000
  o =  0.0182  v =  0.0000  0.0000  0.0000  0.0000  0.0000 -0.0566  0.7041 -0.0785  0.7035 -0.0020      0.0000  0.0000  0.0000  0.0000  0.0000  0.0000  0.0000  0.0000  0.0000  0.0000
  o =  0.0687  v =  0.0000  0.0000  0.0000  0.0000  0.0000  0.0000  0.7068 -0.0001 -0.7074  0.0042      0.0000  0.0000  0.0000  0.0000  0.0000  0.0000  0.0000  0.0000  0.0000  0.0000
  o =  0.0761  v =  0.0000  0.0000  0.0000  0.0000  0.0000  0.7914 -0.0024 -0.6113 -0.0022  0.0002      0.0000  0.0000  0.0000  0.0000  0.0000  0.0000  0.0000  0.0000  0.0000  0.0000
  o =  0.9388  v =  0.5851 -0.0696  0.8050 -0.0694 -0.0046  0.0000  0.0000  0.0000  0.0000  0.0000      0.0000  0.0000  0.0000  0.0000  0.0000  0.0000  0.0000  0.0000  0.0000  0.0000
  o =  0.9437  v =  0.0541  0.7027  0.0820  0.7042 -0.0261  0.0000  0.0000  0.0000  0.0000  0.0000      0.0000  0.0000  0.0000  0.0000  0.0000  0.0000  0.0000  0.0000  0.0000  0.0000
  o =  0.9442  v =  0.0044  0.0250  0.0056  0.0111  0.9996  0.0000  0.0000  0.0000  0.0000  0.0000      0.0000  0.0000  0.0000  0.0000  0.0000  0.0000  0.0000  0.0000  0.0000  0.0000
  o =  0.9769  v =  0.0011  0.7076 -0.0005 -0.7065 -0.0098  0.0000  0.0000  0.0000  0.0000  0.0000      0.0000  0.0000  0.0000  0.0000  0.0000  0.0000  0.0000  0.0000  0.0000  0.0000
  o =  0.9799  v = -0.8092 -0.0023  0.5876 -0.0039  0.0004  0.0000  0.0000  0.0000  0.0000  0.0000      0.0000  0.0000  0.0000  0.0000  0.0000  0.0000  0.0000  0.0000  0.0000  0.0000
     EDDAV:  cpu time    1.8645: real time    1.8645
 BZINTS: Fermi energy:  1.992036; 54.000000 electrons
         Band energy:-753.499542;  BLOECHL correction:  0.000000
       DOS:  cpu time    0.0031: real time    0.0031
    CHARGE:  cpu time    0.0971: real time    0.0971
    MIXING:  cpu time    0.0009: real time    0.0009
    --------------------------------------------
      LOOP:  cpu time    6.1853: real time    6.1853

 eigenvalue-minimisations  :  7944
 total energy-change (2. order) :-0.7721131E-03  (-0.1879541E-02)
 number of electron      54.0000008 magnetization      -0.0000000
 augmentation part       19.9388085 magnetization      -0.0002099

 Broyden mixing:
  rms(total) = 0.47550E-01    rms(broyden)= 0.47548E-01
  rms(prec ) = 0.53313E-01
  weight for this iteration     100.00

 eigenvalues of (default mixing * dielectric matrix)
  average eigenvalue GAMMA=   1.1186
  2.3999  0.8902  0.8902  0.7766  0.6359

 Free energy of the ion-electron system (eV)
  ---------------------------------------------------
  alpha Z        PSCENC =       197.83455644
  Ewald energy   TEWEN  =     -4190.82401748
  -Hartree energ DENC   =     -2147.82779987
  -exchange      EXHF   =         0.00000000
  -V(xc)+E(xc)   XCENC  =       293.87063864
  PAW double counting   =      6259.47427973    -6376.57888353
  entropy T*S    EENTRO =         0.00000000
  eigenvalues    EBANDS =      -753.49954157
  atomic energy  EATOM  =      6677.64854832
  Solvation  Ediel_sol  =         0.00000000
  ---------------------------------------------------
  free energy    TOTEN  =       -39.90221931 eV

  energy without entropy =      -39.90221931  energy(sigma->0) =      -39.90221931


--------------------------------------------------------------------------------------------------------




--------------------------------------- Iteration      1(   7)  ---------------------------------------


    POTLOK:  cpu time    0.0164: real time    0.0164
    SETDIJ:  cpu time    4.2046: real time    4.2046
atom =   1  type =  1  l = 2
 
 onsite density matrix
 
spin component  1
 
  0.0547  0.0000  0.0296  0.0000 -0.0000
  0.0000  0.0450  0.0000  0.0247 -0.0000
  0.0296  0.0000  0.0386  0.0000  0.0000
  0.0000  0.0247  0.0000  0.0450  0.0001
 -0.0000 -0.0000  0.0000  0.0001  0.0174
 
spin component  2
 
  0.9643 -0.0000  0.0195 -0.0000 -0.0000
 -0.0000  0.9590 -0.0000  0.0174  0.0000
  0.0195 -0.0000  0.9523 -0.0000 -0.0000
 -0.0000  0.0174 -0.0000  0.9590 -0.0000
 -0.0000  0.0000 -0.0000 -0.0000  0.9421
 
 occupancies and eigenvectors
 
  o =  0.0160  v = -0.6073  0.0001  0.7944 -0.0002 -0.0029  0.0000  0.0000  0.0000  0.0000  0.0000      0.0000  0.0000  0.0000  0.0000  0.0000  0.0000  0.0000  0.0000  0.0000  0.0000
  o =  0.0174  v =  0.0018 -0.0179 -0.0023  0.0180 -0.9997  0.0000  0.0000  0.0000  0.0000  0.0000      0.0000  0.0000  0.0000  0.0000  0.0000  0.0000  0.0000  0.0000  0.0000  0.0000
  o =  0.0203  v =  0.0002  0.7069 -0.0002 -0.7069 -0.0254  0.0000  0.0000  0.0000  0.0000  0.0000      0.0000  0.0000  0.0000  0.0000  0.0000  0.0000  0.0000  0.0000  0.0000  0.0000
  o =  0.0697  v =  0.0090 -0.7071  0.0068 -0.7070 -0.0001  0.0000  0.0000  0.0000  0.0000  0.0000      0.0000  0.0000  0.0000  0.0000  0.0000  0.0000  0.0000  0.0000  0.0000  0.0000
  o =  0.0774  v = -0.7944 -0.0079 -0.6073 -0.0080 -0.0000  0.0000  0.0000  0.0000  0.0000  0.0000      0.0000  0.0000  0.0000  0.0000  0.0000  0.0000  0.0000  0.0000  0.0000  0.0000
  o =  0.9379  v =  0.0000  0.0000  0.0000  0.0000  0.0000  0.5938  0.0001 -0.8046  0.0003 -0.0007      0.0000  0.0000  0.0000  0.0000  0.0000  0.0000  0.0000  0.0000  0.0000  0.0000
  o =  0.9416  v =  0.0000  0.0000  0.0000  0.0000  0.0000 -0.0001 -0.7045  0.0001  0.7045  0.0863      0.0000  0.0000  0.0000  0.0000  0.0000  0.0000  0.0000  0.0000  0.0000  0.0000
  o =  0.9421  v =  0.0000  0.0000  0.0000  0.0000  0.0000  0.0005  0.0611 -0.0006 -0.0609  0.9963      0.0000  0.0000  0.0000  0.0000  0.0000  0.0000  0.0000  0.0000  0.0000  0.0000
  o =  0.9765  v =  0.0000  0.0000  0.0000  0.0000  0.0000 -0.0095 -0.7070 -0.0073 -0.7071  0.0001      0.0000  0.0000  0.0000  0.0000  0.0000  0.0000  0.0000  0.0000  0.0000  0.0000
  o =  0.9787  v =  0.0000  0.0000  0.0000  0.0000  0.0000 -0.8046  0.0085 -0.5937  0.0085  0.0001      0.0000  0.0000  0.0000  0.0000  0.0000  0.0000  0.0000  0.0000  0.0000  0.0000
atom =   2  type =  1  l = 2
 
 onsite density matrix
 
spin component  1
 
  0.9644 -0.0000 -0.0194 -0.0000  0.0000
 -0.0000  0.9590 -0.0000 -0.0175  0.0000
 -0.0194 -0.0000  0.9522 -0.0000 -0.0000
 -0.0000 -0.0175 -0.0000  0.9590 -0.0000
  0.0000  0.0000 -0.0000 -0.0000  0.9421
 
spin component  2
 
  0.0547  0.0000 -0.0298  0.0000  0.0000
  0.0000  0.0450  0.0001 -0.0245 -0.0001
 -0.0298  0.0001  0.0386  0.0001  0.0000
  0.0000 -0.0245  0.0001  0.0450  0.0001
  0.0000 -0.0001  0.0000  0.0001  0.0174
 
 occupancies and eigenvectors
 
  o =  0.0158  v =  0.0000  0.0000  0.0000  0.0000  0.0000  0.6078 -0.0171  0.7937 -0.0171 -0.0031      0.0000  0.0000  0.0000  0.0000  0.0000  0.0000  0.0000  0.0000  0.0000  0.0000
  o =  0.0174  v =  0.0000  0.0000  0.0000  0.0000  0.0000  0.0019  0.0005  0.0024 -0.0023  1.0000      0.0000  0.0000  0.0000  0.0000  0.0000  0.0000  0.0000  0.0000  0.0000  0.0000
  o =  0.0205  v =  0.0000  0.0000  0.0000  0.0000  0.0000  0.0148  0.7068  0.0192  0.7070  0.0012      0.0000  0.0000  0.0000  0.0000  0.0000  0.0000  0.0000  0.0000  0.0000  0.0000
[...]
     18      -2.6394      1.00000
     19      -2.0941      1.00000
     20      -1.8854      1.00000
     21      -1.6833      1.00000
     22      -1.5682      1.00000
     23       0.4335      1.00000
     24       0.4766      1.00000
     25       0.7299      1.00000
     26       1.3597      1.00000
     27       1.8939      1.00000
     28       6.3688      0.00000
     29       6.3723      0.00000
     30       6.5862      0.00000
     31       7.1378      0.00000
     32       7.6124      0.00000
     33       9.1439      0.00000
     34      10.6201      0.00000
     35      11.1286      0.00000
     36      12.3321      0.00000

 k-point    48 :      -0.1250   -0.1250    0.4167
  band No.  band energies     occupation 
      1     -46.6145      1.00000
      2     -46.5743      1.00000
      3     -46.5557      1.00000
      4     -41.6846      1.00000
      5     -41.6539      1.00000
      6     -41.6279      1.00000
      7     -20.8293      1.00000
      8     -20.6966      1.00000
      9     -20.6472      1.00000
     10     -20.5662      1.00000
     11      -4.0870      1.00000
     12      -3.8526      1.00000
     13      -3.5702      1.00000
     14      -3.4306      1.00000
     15      -3.2752      1.00000
     16      -3.0782      1.00000
     17      -2.6611      1.00000
     18      -2.4769      1.00000
     19      -2.3462      1.00000
     20      -1.9134      1.00000
     21      -1.7999      1.00000
     22      -1.7254      1.00000
     23       0.4287      1.00000
     24       0.5305      1.00000
     25       0.8110      1.00000
     26       1.4091      1.00000
     27       1.7328      1.00000
     28       6.3802      0.00000
     29       6.3814      0.00000
     30       6.5215      0.00000
     31       7.1859      0.00000
     32       7.4248      0.00000
     33       8.5562      0.00000
     34      10.7727      0.00000
     35      12.1229      0.00000
     36      12.6084      0.00000


--------------------------------------------------------------------------------------------------------


 soft charge-density along one line, spin component           1
         0         1         2         3         4         5         6         7         8         9
 total charge-density along one line
 
 soft charge-density along one line, spin component           2
         0         1         2         3         4         5         6         7         8         9
 total charge-density along one line
 
 pseudopotential strength for first ion, spin component:           1
-42.444   0.000  -0.030   7.844  -0.000   0.013   0.000   0.000
  0.000 -42.417   0.000  -0.000   7.832  -0.000  -0.000  -0.000
 -0.030   0.000 -42.444   0.013  -0.000   7.844   0.000  -0.000
  7.844  -0.000   0.013   5.260   0.000  -0.002  -0.000  -0.000
 -0.000   7.832  -0.000   0.000   5.262   0.000   0.000   0.000
  0.013  -0.000   7.844  -0.002   0.000   5.260   0.000   0.000
  0.000  -0.000   0.000  -0.000   0.000   0.000  -2.235   0.000
  0.000  -0.000  -0.000  -0.000   0.000   0.000   0.000  -2.205
  0.000   0.000  -0.000  -0.000  -0.000   0.000  -0.029   0.000
 -0.000   0.000   0.000   0.000  -0.000  -0.000   0.000  -0.052
  0.000  -0.000   0.000  -0.000   0.000  -0.000   0.000  -0.000
  0.000  -0.000   0.000  -0.000   0.000   0.000  -2.701   0.000
  0.000  -0.000  -0.000  -0.000   0.000   0.000   0.000  -2.671
  0.000   0.000  -0.000  -0.000  -0.000   0.000  -0.031   0.000
 -0.000   0.000   0.000   0.000  -0.000  -0.000   0.000  -0.053
  0.000  -0.000   0.000  -0.000   0.000  -0.000   0.000  -0.000
  0.000  -0.000  -0.000  -0.000   0.000   0.000   0.007  -0.000
  0.000  -0.000  -0.000   0.000   0.000   0.000   0.014  -0.000
 pseudopotential strength for first ion, spin component:           2
-45.752   0.000  -0.022   9.361  -0.000   0.008   0.000  -0.000
  0.000 -45.733   0.000  -0.000   9.355  -0.000   0.000  -0.000
 -0.022   0.000 -45.752   0.008  -0.000   9.361   0.000   0.000
  9.361  -0.000   0.008   4.751   0.000  -0.001  -0.000   0.000
 -0.000   9.355  -0.000   0.000   4.752   0.000  -0.000   0.000
  0.008  -0.000   9.361  -0.001   0.000   4.751  -0.000  -0.000
  0.000   0.000   0.000  -0.000  -0.000  -0.000  -6.846   0.000
 -0.000  -0.000   0.000   0.000   0.000  -0.000   0.000  -6.829
  0.000   0.000  -0.000   0.000  -0.000   0.000  -0.009   0.000
  0.000   0.000   0.000  -0.000  -0.000  -0.000   0.000  -0.035
  0.000   0.000   0.000  -0.000  -0.000  -0.000   0.000  -0.000
  0.000   0.000   0.000  -0.000  -0.000  -0.000  -7.319   0.000
 -0.000  -0.000   0.000   0.000   0.000  -0.000   0.000  -7.301
  0.000   0.000  -0.000   0.000  -0.000   0.000  -0.011   0.000
  0.000   0.000   0.000  -0.000  -0.000  -0.000   0.000  -0.036
  0.000   0.000   0.000  -0.000  -0.000  -0.000   0.000  -0.000
  0.000  -0.000  -0.000   0.000   0.000   0.000   0.003  -0.000
  0.000  -0.000  -0.000   0.000   0.000   0.000   0.006  -0.000
 total augmentation occupancy for first ion, spin component:           1
  1.998   0.000   0.000  -0.014   0.000   0.000  -0.000  -0.000  -0.000   0.000   0.000   0.000   0.000   0.000  -0.000  -0.000
  0.000   1.998   0.000   0.000  -0.014   0.000  -0.000  -0.000  -0.000   0.000   0.000   0.000   0.000   0.000  -0.000  -0.000
  0.000   0.000   1.998   0.000   0.000  -0.014  -0.000  -0.000  -0.000   0.000   0.000   0.000   0.000   0.000  -0.000  -0.000
 -0.014   0.000   0.000   0.087  -0.000  -0.009  -0.000   0.000  -0.000  -0.000  -0.000   0.000  -0.000   0.000   0.000   0.000
  0.000  -0.014   0.000  -0.000   0.099  -0.000  -0.000  -0.000  -0.000   0.000   0.000   0.000   0.000   0.000  -0.000  -0.000
  0.000   0.000  -0.014  -0.009  -0.000   0.087   0.000   0.000   0.000  -0.000  -0.000  -0.000  -0.000  -0.000   0.000   0.000
 -0.000  -0.000  -0.000  -0.000  -0.000   0.000   7.564   0.000   2.888  -0.000  -0.000  -5.646  -0.000  -2.731   0.000   0.000
 -0.000  -0.000  -0.000   0.000  -0.000   0.000   0.000   6.427  -0.000   2.520   0.000  -0.000  -4.560  -0.000  -2.374  -0.000
 -0.000  -0.000  -0.000  -0.000  -0.000   0.000   2.888  -0.000   5.804   0.000   0.000  -2.732  -0.000  -3.999  -0.000  -0.000
  0.000   0.000   0.000  -0.000   0.000  -0.000  -0.000   2.520   0.000   6.427  -0.000   0.000  -2.374  -0.000  -4.560   0.000
  0.000   0.000   0.000  -0.000   0.000  -0.000  -0.000   0.000   0.000  -0.000   3.803   0.000  -0.000  -0.000   0.000  -2.062
  0.000   0.000   0.000   0.000   0.000  -0.000  -5.646  -0.000  -2.732   0.000   0.000   4.897   0.000   2.619  -0.000  -0.000
  0.000   0.000   0.000  -0.000   0.000  -0.000  -0.000  -4.560  -0.000  -2.374  -0.000   0.000   3.850   0.000   2.266   0.000
  0.000   0.000   0.000   0.000   0.000  -0.000  -2.731  -0.000  -3.999  -0.000  -0.000   2.619   0.000   3.339   0.000   0.000
 -0.000  -0.000  -0.000   0.000  -0.000   0.000   0.000  -2.374  -0.000  -4.560   0.000  -0.000   2.266   0.000   3.850  -0.000
 -0.000  -0.000  -0.000   0.000  -0.000   0.000   0.000  -0.000  -0.000   0.000  -2.062  -0.000   0.000   0.000  -0.000   1.441
 -0.000  -0.000  -0.000   0.000  -0.000   0.000   0.213   0.000  -0.202   0.000  -0.000  -0.249  -0.000   0.218  -0.000   0.000
  0.000   0.000   0.000   0.000  -0.000   0.000   0.006  -0.000   0.014  -0.000   0.000   0.024   0.000  -0.030   0.000  -0.000
 total augmentation occupancy for first ion, spin component:           2
  0.003   0.000  -0.000   0.011   0.000  -0.001   0.000  -0.000   0.000  -0.000   0.000  -0.000   0.000  -0.000   0.000  -0.000
  0.000   0.003   0.000   0.000   0.012   0.000   0.000   0.000   0.000  -0.000   0.000  -0.000  -0.000  -0.000   0.000  -0.000
 -0.000   0.000   0.003  -0.001   0.000   0.011   0.000   0.000   0.000  -0.000   0.000  -0.000  -0.000  -0.000   0.000  -0.000
  0.011   0.000  -0.001  -0.011   0.000  -0.000  -0.000   0.000  -0.000  -0.000  -0.000   0.000  -0.000   0.000   0.000   0.000
  0.000   0.012   0.000   0.000  -0.010   0.000   0.000  -0.000   0.000   0.000   0.000  -0.000   0.000  -0.000  -0.000  -0.000
 -0.001   0.000   0.011  -0.000   0.000  -0.011   0.000   0.000   0.000  -0.000  -0.000  -0.000  -0.000  -0.000   0.000   0.000
  0.000   0.000   0.000  -0.000   0.000   0.000  -5.202   0.000  -1.554   0.000   0.000   2.899  -0.000   1.189  -0.000  -0.000
 -0.000   0.000   0.000   0.000  -0.000   0.000   0.000  -4.605   0.000  -1.380  -0.000  -0.000   2.425  -0.000   1.057   0.000
  0.000   0.000   0.000  -0.000   0.000   0.000  -1.554   0.000  -4.173   0.000  -0.000   1.189  -0.000   2.101  -0.000   0.000
 -0.000  -0.000  -0.000  -0.000   0.000  -0.000   0.000  -1.380   0.000  -4.605   0.000  -0.000   1.057  -0.000   2.425  -0.000
  0.000   0.000   0.000  -0.000   0.000  -0.000   0.000  -0.000  -0.000   0.000  -3.231  -0.000   0.000   0.000  -0.000   1.374
 -0.000  -0.000  -0.000   0.000  -0.000  -0.000   2.899  -0.000   1.189  -0.000  -0.000  -1.693   0.000  -0.828   0.000   0.000
  0.000  -0.000  -0.000  -0.000   0.000  -0.000  -0.000   2.425  -0.000   1.057   0.000   0.000  -1.343   0.000  -0.740  -0.000
 -0.000  -0.000  -0.000   0.000  -0.000  -0.000   1.189  -0.000   2.101  -0.000   0.000  -0.828   0.000  -1.121   0.000  -0.000
  0.000   0.000   0.000   0.000  -0.000   0.000  -0.000   1.057  -0.000   2.425  -0.000   0.000  -0.740   0.000  -1.343   0.000
 -0.000  -0.000  -0.000   0.000  -0.000   0.000  -0.000   0.000   0.000  -0.000   1.374   0.000  -0.000  -0.000   0.000  -0.611
 -0.000   0.000   0.000  -0.000   0.000  -0.000   0.032  -0.000   0.001  -0.000   0.000  -0.035   0.000   0.012   0.000  -0.000
  0.000  -0.000  -0.000  -0.000  -0.000   0.000  -0.056   0.000   0.024   0.000  -0.000   0.033  -0.000  -0.013  -0.000   0.000


------------------------ aborting loop because EDIFF is reached ----------------------------------------


 


 total charge     
 
# of ion       s       p       d       tot
------------------------------------------
    1        0.168   6.152   4.958  11.278
    2        0.168   6.152   4.958  11.278
    3        1.727   4.360   0.000   6.087
    4        1.727   4.360   0.000   6.087
    5        1.727   4.360   0.000   6.087
    6        1.727   4.360   0.000   6.087
--------------------------------------------------
tot          7.243  29.744   9.915  46.902
 


 magnetization (x)
 
# of ion       s       p       d       tot
------------------------------------------
    1       -0.018  -0.018  -4.568  -4.604
    2        0.018   0.018   4.568   4.604
    3        0.002   0.020   0.000   0.022
    4        0.002   0.020   0.000   0.022
    5       -0.002  -0.020   0.000  -0.022
    6       -0.002  -0.020   0.000  -0.022
--------------------------------------------------
tot         -0.000  -0.000   0.000  -0.000
 
    CHARGE:  cpu time    0.1003: real time    0.1003
    FORLOC:  cpu time    0.0008: real time    0.0008
    FORNL :  cpu time    0.5418: real time    0.5419
    STRESS:  cpu time    1.5018: real time    1.5018
    FORCOR:  cpu time    0.0152: real time    0.0152
    FORHAR:  cpu time    0.0021: real time    0.0021
    MIXING:  cpu time    0.0009: real time    0.0009
    OFIELD:  cpu time    0.0000: real time    0.0000

  FORCE on cell =-STRESS in cart. coord.  units (eV):
  Direction    XX          YY          ZZ          XY          YZ          ZX
  --------------------------------------------------------------------------------------
  Alpha Z   197.83456   197.83456   197.83456
  Ewald   -1583.92425 -1583.92425 -1022.97863     0.00000     0.00000     0.00000
  Hartree   589.98105   589.98105   969.47714     0.00007    -0.00002    -0.00002
  E(xc)    -313.94979  -313.94979  -313.73666    -0.00000    -0.00000    -0.00000
  Local     162.15215   162.15216  -771.43714    -0.00007     0.00003     0.00003
  n-local  -242.25069  -242.25069  -241.35804    -0.00003    -0.00001    -0.00001
  augment   265.50485   265.50486   265.01517     0.00006     0.00005     0.00005
  Kinetic   924.66439   924.66440   917.18695     0.00003     0.00001     0.00001
  Fock        0.00000     0.00000     0.00000     0.00000     0.00000     0.00000
  -------------------------------------------------------------------------------------
  Total       0.01227     0.01228     0.00334     0.00007     0.00006     0.00007
  in kB       0.25193     0.25212     0.06862     0.00135     0.00133     0.00135
  external pressure =        0.19 kB  Pullay stress =        0.00 kB


 VOLUME and BASIS-vectors are now :
 -----------------------------------------------------------------------------
  energy-cutoff  :      600.00
  volume of cell :       78.03
      direct lattice vectors                 reciprocal lattice vectors
     4.870028878  0.000000000  0.000000000     0.205337591  0.000000000  0.000000000
     0.000000000  4.870028878  0.000000000     0.000000000  0.205337591  0.000000000
     0.000000000  0.000000000  3.290117217     0.000000000  0.000000000  0.303940539

  length of vectors
     4.870028878  4.870028878  3.290117217     0.205337591  0.205337591  0.303940539


 FORCES acting on ions
    electron-ion (+dipol)            ewald-force                    non-local-force                 convergence-correction
 -----------------------------------------------------------------------------------------------
   0.191E-10 0.407E-09 0.101E-10   0.171E-12 0.284E-13 -.152E-13   -.249E-08 0.615E-09 0.199E-08   0.518E-09 -.457E-09 0.764E-10
   0.910E-09 -.302E-09 0.567E-09   0.853E-13 0.000E+00 -.153E-13   0.332E-08 -.241E-08 0.853E-09   -.139E-08 0.113E-08 -.595E-09
   -.336E+02 0.336E+02 -.510E-06   0.349E+02 -.349E+02 0.246E-14   -.133E+01 0.133E+01 0.112E-06   -.637E-04 0.750E-04 0.552E-06
   0.336E+02 -.336E+02 0.510E-06   -.349E+02 0.349E+02 0.222E-14   0.133E+01 -.133E+01 -.112E-06   0.637E-04 -.750E-04 -.551E-06
   0.336E+02 0.336E+02 -.136E-04   -.349E+02 -.349E+02 0.403E-14   0.133E+01 0.133E+01 -.963E-05   -.527E-04 -.685E-04 0.219E-04
   -.336E+02 -.336E+02 0.136E-04   0.349E+02 0.349E+02 0.373E-14   -.133E+01 -.133E+01 0.963E-05   0.527E-04 0.685E-04 -.219E-04
 -----------------------------------------------------------------------------------------------
   0.581E-09 0.198E-09 0.576E-09   -.711E-14 0.000E+00 -.180E-13   -.524E-09 -.128E-08 0.329E-08   -.164E-09 0.232E-09 -.529E-09
 
 
 POSITION                                       TOTAL-FORCE (eV/Angst)
 -----------------------------------------------------------------------------------
      2.43501      2.43501      1.64506        -0.000000      0.000000      0.000000
      0.00000      0.00000      0.00000         0.000000     -0.000000      0.000000
      0.95428      3.91575      1.64506        -0.003008      0.003007      0.000000
      3.91575      0.95428      1.64506         0.003008     -0.003007     -0.000000
      1.48074      1.48074      0.00000         0.003008      0.003008     -0.000001
      3.38929      3.38929      0.00000        -0.003008     -0.003008      0.000001
 -----------------------------------------------------------------------------------
    total drift:                               -0.000000     -0.000000      0.000000


--------------------------------------------------------------------------------------------------------



  FREE ENERGIE OF THE ION-ELECTRON SYSTEM (eV)
  ---------------------------------------------------
  free  energy   TOTEN  =       -39.90171544 eV

  energy  without entropy=      -39.90171544  energy(sigma->0) =      -39.90171544
 


--------------------------------------------------------------------------------------------------------


    POTLOK:  cpu time    4.2202: real time    4.2202

 Total magnetic moment S=     1.0000000

 Fermi contact (isotropic) hyperfine coupling parameter (MHz) 
 -------------------------------------------------------------
  ion      A_pw      A_1PS     A_1AE     A_1c      A_tot
 -------------------------------------------------------------
   1   -1273.975 -1273.903  -382.238  1206.033  -382.310
   2    1273.975  1273.903   382.238 -1206.034   382.310
   3      41.903    41.759   252.476   -30.156   252.620
   4      41.903    41.759   252.476   -30.156   252.620
   5     -41.903   -41.758  -252.473    30.156  -252.618
   6     -41.903   -41.758  -252.473    30.156  -252.618
 -------------------------------------------------------------


 Dipolar hyperfine coupling parameters (MHz)
 ---------------------------------------------------------------------
  ion      A_xx      A_yy      A_zz      A_xy      A_xz      A_yz
 ---------------------------------------------------------------------
   1       6.678     6.678   -13.356     2.630     0.001     0.002
   2      -6.678    -6.678    13.356     2.631    -0.000    -0.000
   3     -56.793   -56.793   113.586     9.969    -0.000    -0.000
   4     -56.793   -56.793   113.586     9.969    -0.000    -0.000
   5      56.793    56.793  -113.585     9.967     0.000     0.000
   6      56.793    56.793  -113.585     9.967     0.000     0.000
 ---------------------------------------------------------------------


 Total hyperfine coupling parameters after diagonalization (MHz)
 (convention: |A_zz| > |A_xx| > |A_yy|)
 ----------------------------------------------------------------------
  ion      A_xx      A_yy      A_zz     asymmetry (A_yy - A_xx)/ A_zz 
 ----------------------------------------------------------------------
   1    -378.262  -373.002  -395.666      -0.013
   2     378.262   373.001   395.666      -0.013
   3     205.797   185.858   366.206      -0.054
   4     205.797   185.858   366.206      -0.054
   5    -205.793  -185.858  -366.203      -0.054
   6    -205.793  -185.858  -366.203      -0.054
 ---------------------------------------------------------------------



--------------------------------------------------------------------------------------------------------


 writing wavefunctions
     LOOP+:  cpu time   92.5683: real time   92.8183
    4ORBIT:  cpu time    0.0000: real time    0.0000
 


 total charge     
 
# of ion       s       p       d       tot
------------------------------------------
    1        0.168   6.152   4.958  11.278
    2        0.168   6.152   4.958  11.278
    3        1.727   4.360   0.000   6.087
    4        1.727   4.360   0.000   6.087
    5        1.727   4.360   0.000   6.087
    6        1.727   4.360   0.000   6.087
--------------------------------------------------
tot          7.243  29.744   9.915  46.902
 


 magnetization (x)
 
# of ion       s       p       d       tot
------------------------------------------
    1       -0.018  -0.018  -4.568  -4.604
    2        0.018   0.018   4.568   4.604
    3        0.002   0.020   0.000   0.022
    4        0.002   0.020   0.000   0.022
    5       -0.002  -0.020   0.000  -0.022
    6       -0.002  -0.020   0.000  -0.022
--------------------------------------------------
tot         -0.000  -0.000   0.000  -0.000
 
 BZINTS: Fermi energy:  2.014175; 54.000000 electrons
         Band energy:-751.891406;  BLOECHL correction:  0.000000

 total amount of memory used by VASP MPI-rank0    83550. kBytes
=======================================================================

   base      :      30000. kBytes
   nonl-proj :      36581. kBytes
   fftplans  :       1875. kBytes
   grid      :       2467. kBytes
   one-center:        186. kBytes
   wavefun   :      12441. kBytes
 
  
  
 General timing and accounting informations for this job:
 ========================================================
  
                  Total CPU time used (sec):       94.812
                            User time (sec):       61.392
                          System time (sec):       33.420
                         Elapsed time (sec):       95.115
  
                   Maximum memory used (kb):       94156.
                   Average memory used (kb):           0.
  
                          Minor page faults:        20531
                          Major page faults:            5
                 Voluntary context switches:          318
