 vasp.5.4.4.18Apr17-6-g9f103f2a35 (build Apr 27 2017 11:13:10) complex          
  
 executed on           IFC91_ompi date 2020.05.13  12:34:00
 running on   12 total cores
 distrk:  each k-point on   12 cores,    1 groups
 distr:  one band on NCORES_PER_BAND=   1 cores,   12 groups


--------------------------------------------------------------------------------------------------------


 INCAR:
 POTCAR:    PAW_PBE Mn_pv 02Aug2007               
 POTCAR:    PAW_PBE F 08Apr2002                   

 ----------------------------------------------------------------------------- 
|                                                                             |
|           W    W    AA    RRRRR   N    N  II  N    N   GGGG   !!!           |
|           W    W   A  A   R    R  NN   N  II  NN   N  G    G  !!!           |
|           W    W  A    A  R    R  N N  N  II  N N  N  G       !!!           |
|           W WW W  AAAAAA  RRRRR   N  N N  II  N  N N  G  GGG   !            |
|           WW  WW  A    A  R   R   N   NN  II  N   NN  G    G                |
|           W    W  A    A  R    R  N    N  II  N    N   GGGG   !!!           |
|                                                                             |
|      For optimal performance we recommend to set                            |
|        NCORE= 4 - approx SQRT( number of cores)                             |
|      NCORE specifies how many cores store one orbital (NPAR=cpu/NCORE).     |
|      This setting can  greatly improve the performance of VASP for DFT.     |
|      The default,   NCORE=1            might be grossly inefficient         |
|      on modern multi-core architectures or massively parallel machines.     |
|      Do your own testing !!!!                                               |
|      Unfortunately you need to use the default for GW and RPA calculations. |
|      (for HF NCORE is supported but not extensively tested yet)             |
|                                                                             |
 ----------------------------------------------------------------------------- 

 POTCAR:    PAW_PBE Mn_pv 02Aug2007               
   VRHFIN =Mn: 3p4s3d                                                           
   LEXCH  = PE                                                                  
   EATOM  =  2025.2664 eV,  148.8529 Ry                                         
                                                                                
   TITEL  = PAW_PBE Mn_pv 02Aug2007                                             
   LULTRA =        F    use ultrasoft PP ?                                      
   IUNSCR =        1    unscreen: 0-lin 1-nonlin 2-no                           
   RPACOR =    2.080    partial core radius                                     
   POMASS =   54.938; ZVAL   =   13.000    mass and valenz                      
   RCORE  =    2.300    outmost cutoff radius                                   
   RWIGS  =    2.500; RWIGS  =    1.323    wigner-seitz radius (au A)           
   ENMAX  =  269.864; ENMIN  =  202.398 eV                                      
   ICORE  =        3    local potential                                         
   LCOR   =        T    correct aug charges                                     
   LPAW   =        T    paw PP                                                  
   EAUG   =  569.085                                                            
   DEXC   =    0.000                                                            
   RMAX   =    2.343    core radius for proj-oper                               
   RAUG   =    1.300    factor for augmentation sphere                          
   RDEP   =    2.338    radius for radial grids                                 
   RDEPT  =    1.798    core radius for aug-charge                              
                                                                                
   Atomic configuration                                                         
    8 entries                                                                   
     n  l   j            E        occ.                                          
     1  0  0.50     -6424.8287   2.0000                                         
     2  0  0.50      -739.1154   2.0000                                         
     2  1  1.50      -625.3949   6.0000                                         
     3  0  0.50       -81.6100   2.0000                                         
     3  1  1.50       -50.4667   6.0000                                         
     3  2  2.50        -3.3745   6.0000                                         
     4  0  0.50        -4.1331   1.0000                                         
     4  3  2.50        -1.3606   0.0000                                         
   Description                                                                  
     l       E           TYP  RCUT    TYP  RCUT                                 
     1    -50.4666628     23  2.000                                             
     1     -1.3605826     23  2.000                                             
     2     -3.3744729     23  2.300                                             
     2     -4.7350555     23  2.300                                             
     0     -4.1331431     23  2.300                                             
     0      7.6656591     23  2.300                                             
     3      9.5240782     23  2.300                                             
  local pseudopotential read in
  partial core-charges read in
  partial kinetic energy density read in
  atomic valenz-charges read in
  non local Contribution for L=           1  read in
    real space projection operators read in
  non local Contribution for L=           1  read in
    real space projection operators read in
  non local Contribution for L=           2  read in
    real space projection operators read in
  non local Contribution for L=           2  read in
    real space projection operators read in
  non local Contribution for L=           0  read in
    real space projection operators read in
  non local Contribution for L=           0  read in
    real space projection operators read in
    PAW grid and wavefunctions read in
 
   number of l-projection  operators is LMAX  =           6
   number of lm-projection operators is LMMAX =          18
 
 POTCAR:    PAW_PBE F 08Apr2002                   
   VRHFIN =F: s2p5                                                              
   LEXCH  = PE                                                                  
   EATOM  =   659.6475 eV,   48.4827 Ry                                         
                                                                                
   TITEL  = PAW_PBE F 08Apr2002                                                 
   LULTRA =        F    use ultrasoft PP ?                                      
   IUNSCR =        1    unscreen: 0-lin 1-nonlin 2-no                           
   RPACOR =    1.200    partial core radius                                     
   POMASS =   18.998; ZVAL   =    7.000    mass and valenz                      
   RCORE  =    1.520    outmost cutoff radius                                   
   RWIGS  =    1.500; RWIGS  =    0.794    wigner-seitz radius (au A)           
   ENMAX  =  400.000; ENMIN  =  300.000 eV                                      
   ICORE  =        2    local potential                                         
   LCOR   =        T    correct aug charges                                     
   LPAW   =        T    paw PP                                                  
   EAUG   =  613.614                                                            
   RMAX   =    1.555    core radius for proj-oper                               
   RAUG   =    1.300    factor for augmentation sphere                          
   RDEP   =    1.539    radius for radial grids                                 
   RDEPT  =    1.299    core radius for aug-charge                              
                                                                                
   Atomic configuration                                                         
    4 entries                                                                   
     n  l   j            E        occ.                                          
     1  0  0.50      -663.3661   2.0000                                         
     2  0  0.50       -29.8995   2.0000                                         
     2  1  0.50       -11.1114   5.0000                                         
     3  2  1.50       -10.8847   0.0000                                         
   Description                                                                  
     l       E           TYP  RCUT    TYP  RCUT                                 
     0    -29.8995018     23  1.200                                             
     0     -9.5240782     23  1.200                                             
     1    -11.1113914     23  1.520                                             
     1      1.3605826     23  1.520                                             
     2    -10.8846608      7  1.500                                             
  local pseudopotential read in
  partial core-charges read in
  partial kinetic energy density read in
  atomic valenz-charges read in
  non local Contribution for L=           0  read in
    real space projection operators read in
  non local Contribution for L=           0  read in
    real space projection operators read in
  non local Contribution for L=           1  read in
    real space projection operators read in
  non local Contribution for L=           1  read in
    real space projection operators read in
    PAW grid and wavefunctions read in
 
   number of l-projection  operators is LMAX  =           4
   number of lm-projection operators is LMMAX =           8
 
  PAW_PBE Mn_pv 02Aug2007               :
 energy of atom  1       EATOM=-2025.2664
 kinetic energy error for atom=    0.0047 (will be added to EATOM!!)
  PAW_PBE F 08Apr2002                   :
 energy of atom  2       EATOM= -659.6475
 kinetic energy error for atom=    0.0256 (will be added to EATOM!!)
 
 
 POSCAR: Mn  F                                   
  positions in cartesian coordinates
  No initial velocities read in

 METAGGA = SCAN     LMAXTAU =  6    LMIXTAU =  F

 exchange correlation table for  LEXCH =        8
   RHO(1)=    0.500       N(1)  =     2000
   RHO(2)=  100.500       N(2)  =     4000
 


--------------------------------------------------------------------------------------------------------


 ion  position               nearest neighbor table
   1  0.500  0.500  0.500-   3 2.09   4 2.09   5 2.13   6 2.13   5 2.13   6 2.13
   2  0.000  0.000  0.000-   5 2.09   6 2.09   3 2.13   4 2.13   3 2.13   4 2.13
   3  0.196  0.804  0.500-   1 2.09   2 2.13   2 2.13
   4  0.804  0.196  0.500-   1 2.09   2 2.13   2 2.13
   5  0.304  0.304  0.000-   2 2.09   1 2.13   1 2.13
   6  0.696  0.696  0.000-   2 2.09   1 2.13   1 2.13
 
  LATTYP: Found a simple tetragonal cell.
 ALAT       =     4.8524202224
 C/A-ratio  =     0.6777971654
  
  Lattice vectors:
  
 A1 = (   4.8524202224,   0.0000000000,   0.0000000000)
 A2 = (   0.0000000000,   4.8524202224,   0.0000000000)
 A3 = (   0.0000000000,   0.0000000000,   3.2889566720)


Analysis of symmetry for initial positions (statically):
=====================================================================
 Subroutine PRICEL returns:
 Original cell was already a primitive cell.
 

 Routine SETGRP: Setting up the symmetry group for a 
 simple tetragonal supercell.


 Subroutine GETGRP returns: Found 16 space group operations
 (whereof  8 operations were pure point group operations)
 out of a pool of 16 trial point group operations.


The static configuration has the point symmetry D_2h.
 The point group associated with its full space group is D_4h.


Analysis of symmetry for dynamics (positions and initial velocities):
=====================================================================
 Subroutine PRICEL returns:
 Original cell was already a primitive cell.
 

 Routine SETGRP: Setting up the symmetry group for a 
 simple tetragonal supercell.


 Subroutine GETGRP returns: Found 16 space group operations
 (whereof  8 operations were pure point group operations)
 out of a pool of 16 trial point group operations.


The dynamic configuration has the point symmetry D_2h.
 The point group associated with its full space group is D_4h.


Analysis of structural, dynamic, and magnetic symmetry:
=====================================================================
 Subroutine PRICEL returns:
 Original cell was already a primitive cell.
 

 Routine SETGRP: Setting up the symmetry group for a 
 simple tetragonal supercell.


 Subroutine GETGRP returns: Found 16 space group operations
 (whereof  8 operations were pure point group operations)
 out of a pool of 16 trial point group operations.


The magnetic configuration has the point symmetry D_2h.
 The point group associated with its full space group is D_4h.


 Subroutine INISYM returns: Found 16 space group operations
 (whereof  8 operations are pure point group operations),
 and found     1 'primitive' translations

 
 
 KPOINTS: KPOINTS created by Atomic Simulation Env

Automatic generation of k-mesh.
Space group operators:
 irot       det(A)        alpha          n_x          n_y          n_z        tau_x        tau_y        tau_z
    1     1.000000     0.000000     1.000000     0.000000     0.000000     0.000000     0.000000     0.000000
    2    -1.000000     0.000000     1.000000     0.000000     0.000000     0.000000     0.000000     0.000000
    3     1.000000   180.000000     0.000000     0.000000     1.000000     0.000000     0.000000     0.000000
    4    -1.000000   180.000000     0.000000     0.000000     1.000000     0.000000     0.000000     0.000000
    5     1.000000   180.000000     0.707107     0.707107     0.000000     0.000000     0.000000     0.000000
    6    -1.000000   180.000000     0.707107     0.707107     0.000000     0.000000     0.000000     0.000000
    7     1.000000   180.000000     0.707107    -0.707107     0.000000     0.000000     0.000000     0.000000
    8    -1.000000   180.000000     0.707107    -0.707107     0.000000     0.000000     0.000000     0.000000
    9     1.000000    90.000000     0.000000     0.000000    -1.000000     0.500000     0.500000     0.500000
   10    -1.000000    90.000000     0.000000     0.000000    -1.000000     0.500000     0.500000     0.500000
   11     1.000000    90.000000     0.000000     0.000000     1.000000     0.500000     0.500000     0.500000
   12    -1.000000    90.000000     0.000000     0.000000     1.000000     0.500000     0.500000     0.500000
   13     1.000000   180.000000     0.000000     1.000000     0.000000     0.500000     0.500000     0.500000
   14    -1.000000   180.000000     0.000000     1.000000     0.000000     0.500000     0.500000     0.500000
   15     1.000000   180.000000     1.000000     0.000000     0.000000     0.500000     0.500000     0.500000
   16    -1.000000   180.000000     1.000000     0.000000     0.000000     0.500000     0.500000     0.500000
 
 Subroutine IBZKPT returns following result:
 ===========================================
 
 Found      2 irreducible k-points:
 
 Following reciprocal coordinates:
            Coordinates               Weight
  0.250000  0.250000  0.000000      4.000000
  0.250000  0.250000  0.333333      8.000000
 
 Following cartesian coordinates:
            Coordinates               Weight
  0.051521  0.051521  0.000000      4.000000
  0.051521  0.051521  0.101349      8.000000
 


--------------------------------------------------------------------------------------------------------




 Dimension of arrays:
   k-points           NKPTS =      2   k-points in BZ     NKDIM =      2   number of bands    NBANDS=     36
   number of dos      NEDOS =    301   number of ions     NIONS =      6
   non local maximal  LDIM  =      6   non local SUM 2l+1 LMDIM =     18
   total plane-waves  NPLWV =  18000
   max r-space proj   IRMAX =      1   max aug-charges    IRDMAX=  56614
   dimension x,y,z NGX =    30 NGY =   30 NGZ =   20
   dimension x,y,z NGXF=    60 NGYF=   60 NGZF=   40
   support grid    NGXF=   120 NGYF=  120 NGZF=   80
   ions per type =               2   4
   NGX,Y,Z   is equivalent  to a cutoff of  10.28, 10.28, 10.11 a.u.
   NGXF,Y,Z  is equivalent  to a cutoff of  20.56, 20.56, 20.22 a.u.

 SYSTEM =  unknown system                          
 POSCAR =  Mn  F                                   

 Startparameter for this run:
   NWRITE =      2    write-flag & timer
   PREC   = normal    normal or accurate (medium, high low for compatibility)
   ISTART =      0    job   : 0-new  1-cont  2-samecut
   ICHARG =      2    charge: 1-file 2-atom 10-const
   ISPIN  =      2    spin polarized calculation?
   LNONCOLLINEAR =      F non collinear calculations
   LSORBIT =      F    spin-orbit coupling
   INIWAV =      1    electr: 0-lowe 1-rand  2-diag
   LASPH  =      T    aspherical Exc in radial PAW
   METAGGA=      F    non-selfconsistent MetaGGA calc.

 Electronic Relaxation 1
   ENCUT  =  600.0 eV  44.10 Ry    6.64 a.u.   9.69  9.69  6.57*2*pi/ulx,y,z
   ENINI  =  600.0     initial cutoff
   ENAUG  =  613.6 eV  augmentation charge cutoff
   NELM   =     60;   NELMIN=  2; NELMDL= -5     # of ELM steps 
   EDIFF  = 0.1E-06   stopping-criterion for ELM
   LREAL  =      F    real-space projection
   NLSPLINE    = F    spline interpolate recip. space projectors
   LCOMPAT=      F    compatible to vasp.4.4
   GGA_COMPAT  = T    GGA compatible to vasp.4.4-vasp.4.6
   LMAXPAW     = -100 max onsite density
   LMAXMIX     =    4 max onsite mixed and CHGCAR
   VOSKOWN=      0    Vosko Wilk Nusair interpolation
   ROPT   =    0.00000   0.00000
 Ionic relaxation
   EDIFFG = -.5E-02   stopping-criterion for IOM
   NSW    =     50    number of steps for IOM
   NBLOCK =      1;   KBLOCK =     50    inner block; outer block 
   IBRION =      2    ionic relax: 0-MD 1-quasi-New 2-CG
   NFREE  =      1    steps in history (QN), initial steepest desc. (CG)
   ISIF   =      3    stress and relaxation
   IWAVPR =     11    prediction:  0-non 1-charg 2-wave 3-comb
   ISYM   =      2    0-nonsym 1-usesym 2-fastsym
   LCORR  =      T    Harris-Foulkes like correction to forces

   POTIM  = 0.5000    time-step for ionic-motion
   TEIN   =    0.0    initial temperature
   TEBEG  =    0.0;   TEEND  =   0.0 temperature during run
   SMASS  =  -3.00    Nose mass-parameter (am)
   estimated Nose-frequenzy (Omega)   =  0.10E-29 period in steps =****** mass=  -0.538E-27a.u.
   SCALEE = 1.0000    scale energy and forces
   NPACO  =    256;   APACO  = 16.0  distance and # of slots for P.C.
   PSTRESS=    0.0 pullay stress

  Mass of Ions in am
   POMASS =  54.94 19.00
  Ionic Valenz
   ZVAL   =  13.00  7.00
  Atomic Wigner-Seitz radii
   RWIGS  =  -1.00 -1.00
  virtual crystal weights 
   VCA    =   1.00  1.00
   NELECT =      54.0000    total number of electrons
   NUPDOWN=      -1.0000    fix difference up-down

 DOS related values:
   EMIN   =  10.00;   EMAX   =-10.00  energy-range for DOS
   EFERMI =   0.00
   ISMEAR =     0;   SIGMA  =   0.01  broadening in eV -4-tet -1-fermi 0-gaus

 Electronic relaxation 2 (details)
   IALGO  =     38    algorithm
   LDIAG  =      T    sub-space diagonalisation (order eigenvalues)
   LSUBROT=      F    optimize rotation matrix (better conditioning)
   TURBO    =      0    0=normal 1=particle mesh
   IRESTART =      0    0=no restart 2=restart with 2 vectors
   NREBOOT  =      0    no. of reboots
   NMIN     =      0    reboot dimension
   EREF     =   0.00    reference energy to select bands
   IMIX   =      4    mixing-type and parameters
     AMIX     =   0.40;   BMIX     =  1.00
     AMIX_MAG =   1.60;   BMIX_MAG =  1.00
     AMIN     =   0.10
     WC   =   100.;   INIMIX=   1;  MIXPRE=   1;  MAXMIX= -45

 Intra band minimization:
   WEIMIN = 0.0010     energy-eigenvalue tresh-hold
   EBREAK =  0.69E-09  absolut break condition
   DEPER  =   0.30     relativ break condition  

   TIME   =   0.40     timestep for ELM

  volume/ion in A,a.u.               =      12.91        87.10
  Fermi-wavevector in a.u.,A,eV,Ry     =   1.451714  2.743342 28.673923  2.107474
  Thomas-Fermi vector in A             =   2.569179
 
 Write flags
   LWAVE        =      F    write WAVECAR
   LDOWNSAMPLE  =      F    k-point downsampling of WAVECAR
   LCHARG       =      F    write CHGCAR
   LVTOT        =      F    write LOCPOT, total local potential
   LVHAR        =      F    write LOCPOT, Hartree potential only
   LELF         =      F    write electronic localiz. function (ELF)
   LORBIT       =     11    0 simple, 1 ext, 2 COOP (PROOUT), +10 PAW based schemes


 Dipole corrections
   LMONO  =      F    monopole corrections only (constant potential shift)
   LDIPOL =      F    correct potential (dipole corrections)
   IDIPOL =      0    1-x, 2-y, 3-z, 4-all directions 
   EPSILON=  1.0000000 bulk dielectric constant

 LDA+U is selected, type is set to LDAUTYPE =  2
   angular momentum for each species LDAUL =     2   -1
   U (eV)           for each species LDAUU =   0.0  0.0
   J (eV)           for each species LDAUJ =   0.0  0.0
 Exchange correlation treatment:
   GGA     =    --    GGA type
   LEXCH   =     8    internal setting for exchange type
   VOSKOWN=      0    Vosko Wilk Nusair interpolation
   LHFCALC =     F    Hartree Fock is set to
   LHFONE  =     F    Hartree Fock one center treatment
   AEXX    =    0.0000 exact exchange contribution

 Linear response parameters
   LEPSILON=     F    determine dielectric tensor
   LRPA    =     F    only Hartree local field effects (RPA)
   LNABLA  =     F    use nabla operator in PAW spheres
   LVEL    =     F    velocity operator in full k-point grid
   LINTERFAST=   F  fast interpolation
   KINTER  =     0    interpolate to denser k-point grid
   CSHIFT  =0.1000    complex shift for real part using Kramers Kronig
   OMEGAMAX=  -1.0    maximum frequency
   DEG_THRESHOLD= 0.2000000E-02 threshold for treating states as degnerate
   RTIME   =   -0.100 relaxation time in fs
  (WPLASMAI=    0.000 imaginary part of plasma frequency in eV, 0.658/RTIME)
   DFIELD  = 0.0000000 0.0000000 0.0000000 field for delta impulse in time
 
 Orbital magnetization related:
   ORBITALMAG=     F  switch on orbital magnetization
   LCHIMAG   =     F  perturbation theory with respect to B field
   DQ        =  0.001000  dq finite difference perturbation B field
   LLRAUG    =     F  two centre corrections for induced B field



--------------------------------------------------------------------------------------------------------


 conjugate gradient relaxation of ions
 charge density and potential will be updated during run
 spin polarized calculation
 Variant of blocked Davidson
 Davidson routine will perform the subspace rotation
 perform sub-space diagonalisation
    after iterative eigenvector-optimisation
 modified Broyden-mixing scheme, WC =      100.0
 initial mixing is a Kerker type mixing with AMIX =  0.4000 and BMIX =      1.0000
 Hartree-type preconditioning will be used
 using additional bands            9
 reciprocal scheme for non local part
 use partial core corrections
 calculate Harris-corrections to forces 
   (improved forces if not selfconsistent)
 use gradient corrections 
 use of overlap-Matrix (Vanderbilt PP)
 Gauss-broadening in eV      SIGMA  =   0.01


--------------------------------------------------------------------------------------------------------


  energy-cutoff  :      600.00
  volume of cell :       77.44
      direct lattice vectors                 reciprocal lattice vectors
     4.852420222  0.000000000  0.000000000     0.206082729  0.000000000  0.000000000
     0.000000000  4.852420222  0.000000000     0.000000000  0.206082729  0.000000000
     0.000000000  0.000000000  3.288956672     0.000000000  0.000000000  0.304047788

  length of vectors
     4.852420222  4.852420222  3.288956672     0.206082729  0.206082729  0.304047788


 
 k-points in units of 2pi/SCALE and weight: KPOINTS created by Atomic Simulation Env
   0.05152068  0.05152068  0.00000000       0.333
   0.05152068  0.05152068  0.10134926       0.667
 
 k-points in reciprocal lattice and weights: KPOINTS created by Atomic Simulation Env
   0.25000000  0.25000000  0.00000000       0.333
   0.25000000  0.25000000  0.33333333       0.667
 
 position of ions in fractional coordinates (direct lattice) 
   0.50000000  0.50000000  0.50000000
   0.00000000  0.00000000  0.00000000
   0.19616331  0.80383669  0.50000000
   0.80383669  0.19616331  0.50000000
   0.30383669  0.30383669  0.00000000
   0.69616331  0.69616331  0.00000000
 
 position of ions in cartesian coordinates  (Angst):
   2.42621011  2.42621011  1.64447834
   0.00000000  0.00000000  0.00000000
   0.95186682  3.90055340  1.64447834
   3.90055340  0.95186682  1.64447834
   1.47434329  1.47434329  0.00000000
   3.37807693  3.37807693  0.00000000
 


--------------------------------------------------------------------------------------------------------


 k-point  1 :   0.2500 0.2500 0.0000  plane waves:    2580
 k-point  2 :   0.2500 0.2500 0.3333  plane waves:    2574

 maximum and minimum number of plane-waves per node :      2580     2574

 maximum number of plane-waves:      2580
 maximum index in each direction: 
   IXMAX=    9   IYMAX=    9   IZMAX=    6
   IXMIN=   -9   IYMIN=   -9   IZMIN=   -6


 serial   3D FFT for wavefunctions
 parallel 3D FFT for charge:
    minimum data exchange during FFTs selected (reduces bandwidth)


 total amount of memory used by VASP MPI-rank0    38123. kBytes
=======================================================================

   base      :      30000. kBytes
   nonl-proj :       1733. kBytes
   fftplans  :       1875. kBytes
   grid      :       3820. kBytes
   one-center:        186. kBytes
   wavefun   :        509. kBytes
 
     INWAV:  cpu time    0.0000: real time    0.0000
 Broyden mixing: mesh for mixing (old mesh)
   NGX = 19   NGY = 19   NGZ = 13
  (NGX  = 60   NGY  = 60   NGZ  = 40)
  gives a total of   4693 points

 initial charge density was supplied:
 charge density of overlapping atoms calculated
 number of electron      54.0000000 magnetization       0.0000000
 keeping initial charge density in first step


--------------------------------------------------------------------------------------------------------


 Maximum index for augmentation-charges         4323 (set IRDMAX)


--------------------------------------------------------------------------------------------------------


 First call to EWALD:  gamma=   0.416
 Maximum number of real-space cells 2x 2x 3
 Maximum number of reciprocal cells 3x 3x 2

    FEWALD:  cpu time    0.0010: real time    0.0010


--------------------------------------- Iteration      1(   1)  ---------------------------------------


    POTLOK:  cpu time    0.0355: real time    0.0355
    SETDIJ:  cpu time    1.2604: real time    1.2604
atom =   1  type =  1  l = 2
 
 onsite density matrix
 
spin component  1
 
  0.2835  0.0000  0.0000  0.0000  0.0000
  0.0000  0.2835  0.0000  0.0000  0.0000
  0.0000  0.0000  0.2835  0.0000  0.0000
  0.0000  0.0000  0.0000  0.2835  0.0000
  0.0000  0.0000  0.0000  0.0000  0.2835
 
spin component  2
 
  0.7694  0.0000  0.0000  0.0000  0.0000
  0.0000  0.7694  0.0000  0.0000  0.0000
  0.0000  0.0000  0.7694  0.0000  0.0000
  0.0000  0.0000  0.0000  0.7694  0.0000
  0.0000  0.0000  0.0000  0.0000  0.7694
 
 occupancies and eigenvectors
 
  o =  0.2835  v =  1.0000  0.0000  0.0000  0.0000  0.0000  0.0000  0.0000  0.0000  0.0000  0.0000      0.0000  0.0000  0.0000  0.0000  0.0000  0.0000  0.0000  0.0000  0.0000  0.0000
  o =  0.2835  v =  0.0000  1.0000  0.0000  0.0000  0.0000  0.0000  0.0000  0.0000  0.0000  0.0000      0.0000  0.0000  0.0000  0.0000  0.0000  0.0000  0.0000  0.0000  0.0000  0.0000
  o =  0.2835  v =  0.0000  0.0000  1.0000  0.0000  0.0000  0.0000  0.0000  0.0000  0.0000  0.0000      0.0000  0.0000  0.0000  0.0000  0.0000  0.0000  0.0000  0.0000  0.0000  0.0000
  o =  0.2835  v =  0.0000  0.0000  0.0000  1.0000  0.0000  0.0000  0.0000  0.0000  0.0000  0.0000      0.0000  0.0000  0.0000  0.0000  0.0000  0.0000  0.0000  0.0000  0.0000  0.0000
  o =  0.2835  v =  0.0000  0.0000  0.0000  0.0000  1.0000  0.0000  0.0000  0.0000  0.0000  0.0000      0.0000  0.0000  0.0000  0.0000  0.0000  0.0000  0.0000  0.0000  0.0000  0.0000
  o =  0.7694  v =  0.0000  0.0000  0.0000  0.0000  0.0000  1.0000  0.0000  0.0000  0.0000  0.0000      0.0000  0.0000  0.0000  0.0000  0.0000  0.0000  0.0000  0.0000  0.0000  0.0000
  o =  0.7694  v =  0.0000  0.0000  0.0000  0.0000  0.0000  0.0000  1.0000  0.0000  0.0000  0.0000      0.0000  0.0000  0.0000  0.0000  0.0000  0.0000  0.0000  0.0000  0.0000  0.0000
  o =  0.7694  v =  0.0000  0.0000  0.0000  0.0000  0.0000  0.0000  0.0000  1.0000  0.0000  0.0000      0.0000  0.0000  0.0000  0.0000  0.0000  0.0000  0.0000  0.0000  0.0000  0.0000
  o =  0.7694  v =  0.0000  0.0000  0.0000  0.0000  0.0000  0.0000  0.0000  0.0000  1.0000  0.0000      0.0000  0.0000  0.0000  0.0000  0.0000  0.0000  0.0000  0.0000  0.0000  0.0000
  o =  0.7694  v =  0.0000  0.0000  0.0000  0.0000  0.0000  0.0000  0.0000  0.0000  0.0000  1.0000      0.0000  0.0000  0.0000  0.0000  0.0000  0.0000  0.0000  0.0000  0.0000  0.0000
atom =   2  type =  1  l = 2
 
 onsite density matrix
 
spin component  1
 
  0.7694  0.0000  0.0000  0.0000  0.0000
  0.0000  0.7694  0.0000  0.0000  0.0000
  0.0000  0.0000  0.7694  0.0000  0.0000
  0.0000  0.0000  0.0000  0.7694  0.0000
  0.0000  0.0000  0.0000  0.0000  0.7694
 
spin component  2
 
  0.2835  0.0000  0.0000  0.0000  0.0000
  0.0000  0.2835  0.0000  0.0000  0.0000
  0.0000  0.0000  0.2835  0.0000  0.0000
  0.0000  0.0000  0.0000  0.2835  0.0000
  0.0000  0.0000  0.0000  0.0000  0.2835
 
 occupancies and eigenvectors
 
  o =  0.2835  v =  0.0000  0.0000  0.0000  0.0000  0.0000  1.0000  0.0000  0.0000  0.0000  0.0000      0.0000  0.0000  0.0000  0.0000  0.0000  0.0000  0.0000  0.0000  0.0000  0.0000
  o =  0.2835  v =  0.0000  0.0000  0.0000  0.0000  0.0000  0.0000  1.0000  0.0000  0.0000  0.0000      0.0000  0.0000  0.0000  0.0000  0.0000  0.0000  0.0000  0.0000  0.0000  0.0000
  o =  0.2835  v =  0.0000  0.0000  0.0000  0.0000  0.0000  0.0000  0.0000  1.0000  0.0000  0.0000      0.0000  0.0000  0.0000  0.0000  0.0000  0.0000  0.0000  0.0000  0.0000  0.0000
  o =  0.2835  v =  0.0000  0.0000  0.0000  0.0000  0.0000  0.0000  0.0000  0.0000  1.0000  0.0000      0.0000  0.0000  0.0000  0.0000  0.0000  0.0000  0.0000  0.0000  0.0000  0.0000
  o =  0.2835  v =  0.0000  0.0000  0.0000  0.0000  0.0000  0.0000  0.0000  0.0000  0.0000  1.0000      0.0000  0.0000  0.0000  0.0000  0.0000  0.0000  0.0000  0.0000  0.0000  0.0000
  o =  0.7694  v =  1.0000  0.0000  0.0000  0.0000  0.0000  0.0000  0.0000  0.0000  0.0000  0.0000      0.0000  0.0000  0.0000  0.0000  0.0000  0.0000  0.0000  0.0000  0.0000  0.0000
  o =  0.7694  v =  0.0000  1.0000  0.0000  0.0000  0.0000  0.0000  0.0000  0.0000  0.0000  0.0000      0.0000  0.0000  0.0000  0.0000  0.0000  0.0000  0.0000  0.0000  0.0000  0.0000
  o =  0.7694  v =  0.0000  0.0000  1.0000  0.0000  0.0000  0.0000  0.0000  0.0000  0.0000  0.0000      0.0000  0.0000  0.0000  0.0000  0.0000  0.0000  0.0000  0.0000  0.0000  0.0000
  o =  0.7694  v =  0.0000  0.0000  0.0000  1.0000  0.0000  0.0000  0.0000  0.0000  0.0000  0.0000      0.0000  0.0000  0.0000  0.0000  0.0000  0.0000  0.0000  0.0000  0.0000  0.0000
  o =  0.7694  v =  0.0000  0.0000  0.0000  0.0000  1.0000  0.0000  0.0000  0.0000  0.0000  0.0000      0.0000  0.0000  0.0000  0.0000  0.0000  0.0000  0.0000  0.0000  0.0000  0.0000
     EDDAV:  cpu time    0.1532: real time    0.1725
       DOS:  cpu time    0.0003: real time    0.0003
    --------------------------------------------
      LOOP:  cpu time    1.4494: real time    1.4687

 eigenvalue-minimisations  :   288
 total energy-change (2. order) : 0.9792124E+03  (-0.3748990E+04)
 number of electron      54.0000000 magnetization       0.0000000
 augmentation part       54.0000000 magnetization       0.0000000

 Free energy of the ion-electron system (eV)
  ---------------------------------------------------
  alpha Z        PSCENC =       199.34329717
  Ewald energy   TEWEN  =     -4202.95193742
  -Hartree energ DENC   =     -2130.62511944
  -exchange      EXHF   =         0.00000000
  -V(xc)+E(xc)   XCENC  =        -3.96110861
  PAW double counting   =      5566.43601843    -5528.13058630
  entropy T*S    EENTRO =        -0.00192400
  eigenvalues    EBANDS =       390.09300082
  atomic energy  EATOM  =      6689.01075358
  Solvation  Ediel_sol  =         0.00000000
  ---------------------------------------------------
  free energy    TOTEN  =       979.21239422 eV

  energy without entropy =      979.21431822  energy(sigma->0) =      979.21335622


--------------------------------------------------------------------------------------------------------




--------------------------------------- Iteration      1(   2)  ---------------------------------------


     EDDAV:  cpu time    0.1661: real time    0.1661
       DOS:  cpu time    0.0001: real time    0.0001
    --------------------------------------------
      LOOP:  cpu time    0.1662: real time    0.1662

 eigenvalue-minimisations  :   336
 total energy-change (2. order) :-0.5740926E+03  (-0.5498484E+03)
 number of electron      54.0000000 magnetization       0.0000000
 augmentation part       54.0000000 magnetization       0.0000000

 Free energy of the ion-electron system (eV)
  ---------------------------------------------------
  alpha Z        PSCENC =       199.34329717
  Ewald energy   TEWEN  =     -4202.95193742
  -Hartree energ DENC   =     -2130.62511944
  -exchange      EXHF   =         0.00000000
  -V(xc)+E(xc)   XCENC  =        -3.96110861
  PAW double counting   =      5566.43601843    -5528.13058630
  entropy T*S    EENTRO =        -0.00000000
  eigenvalues    EBANDS =      -184.00155813
  atomic energy  EATOM  =      6689.01075358
  Solvation  Ediel_sol  =         0.00000000
  ---------------------------------------------------
  free energy    TOTEN  =       405.11975928 eV

  energy without entropy =      405.11975928  energy(sigma->0) =      405.11975928


--------------------------------------------------------------------------------------------------------




--------------------------------------- Iteration      1(   3)  ---------------------------------------


     EDDAV:  cpu time    0.1544: real time    0.1544
       DOS:  cpu time    0.0001: real time    0.0001
    --------------------------------------------
      LOOP:  cpu time    0.1545: real time    0.1545

 eigenvalue-minimisations  :   300
 total energy-change (2. order) :-0.3538452E+02  (-0.3514093E+02)
 number of electron      54.0000000 magnetization       0.0000000
 augmentation part       54.0000000 magnetization       0.0000000

 Free energy of the ion-electron system (eV)
  ---------------------------------------------------
  alpha Z        PSCENC =       199.34329717
  Ewald energy   TEWEN  =     -4202.95193742
  -Hartree energ DENC   =     -2130.62511944
  -exchange      EXHF   =         0.00000000
  -V(xc)+E(xc)   XCENC  =        -3.96110861
  PAW double counting   =      5566.43601843    -5528.13058630
  entropy T*S    EENTRO =        -0.00000000
  eigenvalues    EBANDS =      -219.38607328
  atomic energy  EATOM  =      6689.01075358
  Solvation  Ediel_sol  =         0.00000000
  ---------------------------------------------------
  free energy    TOTEN  =       369.73524413 eV

  energy without entropy =      369.73524413  energy(sigma->0) =      369.73524413


--------------------------------------------------------------------------------------------------------




--------------------------------------- Iteration      1(   4)  ---------------------------------------


     EDDAV:  cpu time    0.1827: real time    0.1827
       DOS:  cpu time    0.0001: real time    0.0001
    --------------------------------------------
      LOOP:  cpu time    0.1828: real time    0.1828

 eigenvalue-minimisations  :   384
 total energy-change (2. order) :-0.4647078E+00  (-0.4643476E+00)
 number of electron      54.0000000 magnetization       0.0000000
 augmentation part       54.0000000 magnetization       0.0000000

 Free energy of the ion-electron system (eV)
  ---------------------------------------------------
  alpha Z        PSCENC =       199.34329717
  Ewald energy   TEWEN  =     -4202.95193742
  -Hartree energ DENC   =     -2130.62511944
  -exchange      EXHF   =         0.00000000
  -V(xc)+E(xc)   XCENC  =        -3.96110861
  PAW double counting   =      5566.43601843    -5528.13058630
  entropy T*S    EENTRO =        -0.00000000
  eigenvalues    EBANDS =      -219.85078103
  atomic energy  EATOM  =      6689.01075358
  Solvation  Ediel_sol  =         0.00000000
  ---------------------------------------------------
  free energy    TOTEN  =       369.27053638 eV

  energy without entropy =      369.27053638  energy(sigma->0) =      369.27053638


--------------------------------------------------------------------------------------------------------




--------------------------------------- Iteration      1(   5)  ---------------------------------------


     EDDAV:  cpu time    0.1509: real time    0.1509
       DOS:  cpu time    0.0001: real time    0.0001
    CHARGE:  cpu time    0.0712: real time    0.0712
    MIXING:  cpu time    0.0005: real time    0.0005
    --------------------------------------------
      LOOP:  cpu time    0.2228: real time    0.2228

 eigenvalue-minimisations  :   288
 total energy-change (2. order) :-0.8156058E-02  (-0.8156052E-02)
 number of electron      54.0000009 magnetization      -0.0000000
 augmentation part       22.6558035 magnetization      -0.0000000

 Broyden mixing:
  rms(total) = 0.58789E+01    rms(broyden)= 0.58785E+01
  rms(prec ) = 0.61142E+01
  weight for this iteration     100.00

 Free energy of the ion-electron system (eV)
  ---------------------------------------------------
  alpha Z        PSCENC =       199.34329717
  Ewald energy   TEWEN  =     -4202.95193742
  -Hartree energ DENC   =     -2130.62511944
  -exchange      EXHF   =         0.00000000
  -V(xc)+E(xc)   XCENC  =        -3.96110861
  PAW double counting   =      5566.43601843    -5528.13058630
  entropy T*S    EENTRO =        -0.00000000
  eigenvalues    EBANDS =      -219.85893709
  atomic energy  EATOM  =      6689.01075358
  Solvation  Ediel_sol  =         0.00000000
  ---------------------------------------------------
  free energy    TOTEN  =       369.26238032 eV

  energy without entropy =      369.26238032  energy(sigma->0) =      369.26238032


--------------------------------------------------------------------------------------------------------




--------------------------------------- Iteration      1(   6)  ---------------------------------------


    POTLOK:  cpu time    0.0323: real time    0.0323
    SETDIJ:  cpu time    1.2749: real time    1.2749
atom =   1  type =  1  l = 2
 
 onsite density matrix
 
spin component  1
 
  0.0350  0.0000  0.0672  0.0000 -0.0000
  0.0000  0.0073  0.0000  0.0615  0.0000
  0.0672  0.0000 -0.0033  0.0000 -0.0000
  0.0000  0.0615  0.0000  0.0073  0.0000
 -0.0000  0.0000 -0.0000  0.0000 -0.0736
 
spin component  2
 
  1.0569  0.0000 -0.0324  0.0000  0.0000
  0.0000  1.0711  0.0000 -0.0297  0.0000
 -0.0324  0.0000  1.0748  0.0000  0.0000
  0.0000 -0.0297  0.0000  1.0711  0.0000
  0.0000  0.0000  0.0000  0.0000  1.1110
 
 occupancies and eigenvectors
 
  o = -0.0736  v =  0.0000 -0.0000 -0.0000  0.0000 -1.0000  0.0000  0.0000  0.0000  0.0000  0.0000      0.0000  0.0000  0.0000  0.0000  0.0000  0.0000  0.0000  0.0000  0.0000  0.0000
  o = -0.0542  v =  0.0000  0.7071  0.0000 -0.7071 -0.0000  0.0000  0.0000  0.0000  0.0000  0.0000      0.0000  0.0000  0.0000  0.0000  0.0000  0.0000  0.0000  0.0000  0.0000  0.0000
  o = -0.0540  v = -0.6025 -0.0000  0.7981  0.0000 -0.0000  0.0000  0.0000  0.0000  0.0000  0.0000      0.0000  0.0000  0.0000  0.0000  0.0000  0.0000  0.0000  0.0000  0.0000  0.0000
  o =  0.0688  v =  0.0000  0.7071  0.0000  0.7071 -0.0000  0.0000  0.0000  0.0000  0.0000  0.0000      0.0000  0.0000  0.0000  0.0000  0.0000  0.0000  0.0000  0.0000  0.0000  0.0000
  o =  0.0857  v =  0.7981 -0.0000  0.6025  0.0000 -0.0000  0.0000  0.0000  0.0000  0.0000  0.0000      0.0000  0.0000  0.0000  0.0000  0.0000  0.0000  0.0000  0.0000  0.0000  0.0000
  o =  1.0322  v =  0.0000  0.0000  0.0000  0.0000  0.0000  0.7958  0.0000  0.6055  0.0000 -0.0000      0.0000  0.0000  0.0000  0.0000  0.0000  0.0000  0.0000  0.0000  0.0000  0.0000
  o =  1.0414  v =  0.0000  0.0000  0.0000  0.0000  0.0000  0.0000  0.7071  0.0000  0.7071  0.0000      0.0000  0.0000  0.0000  0.0000  0.0000  0.0000  0.0000  0.0000  0.0000  0.0000
  o =  1.0995  v =  0.0000  0.0000  0.0000  0.0000  0.0000  0.6055 -0.0000 -0.7958  0.0000  0.0000      0.0000  0.0000  0.0000  0.0000  0.0000  0.0000  0.0000  0.0000  0.0000  0.0000
  o =  1.1009  v =  0.0000  0.0000  0.0000  0.0000  0.0000  0.0000  0.7071  0.0000 -0.7071  0.0000      0.0000  0.0000  0.0000  0.0000  0.0000  0.0000  0.0000  0.0000  0.0000  0.0000
  o =  1.1110  v =  0.0000  0.0000  0.0000  0.0000  0.0000  0.0000  0.0000 -0.0000  0.0000 -1.0000      0.0000  0.0000  0.0000  0.0000  0.0000  0.0000  0.0000  0.0000  0.0000  0.0000
atom =   2  type =  1  l = 2
 
 onsite density matrix
 
spin component  1
 
  1.0569  0.0000  0.0324  0.0000  0.0000
  0.0000  1.0711  0.0000  0.0297  0.0000
  0.0324  0.0000  1.0748  0.0000  0.0000
  0.0000  0.0297  0.0000  1.0711  0.0000
  0.0000  0.0000  0.0000  0.0000  1.1110
 
spin component  2
 
  0.0350  0.0000 -0.0672  0.0000 -0.0000
  0.0000  0.0073  0.0000 -0.0615  0.0000
 -0.0672  0.0000 -0.0033  0.0000 -0.0000
  0.0000 -0.0615  0.0000  0.0073  0.0000
 -0.0000  0.0000 -0.0000  0.0000 -0.0736
 
 occupancies and eigenvectors
 
  o = -0.0736  v =  0.0000  0.0000  0.0000  0.0000  0.0000  0.0000  0.0000  0.0000  0.0000  1.0000      0.0000  0.0000  0.0000  0.0000  0.0000  0.0000  0.0000  0.0000  0.0000  0.0000
  o = -0.0542  v =  0.0000  0.0000  0.0000  0.0000  0.0000 -0.0000  0.7071 -0.0000  0.7071 -0.0000      0.0000  0.0000  0.0000  0.0000  0.0000  0.0000  0.0000  0.0000  0.0000  0.0000
  o = -0.0540  v =  0.0000  0.0000  0.0000  0.0000  0.0000 -0.6025 -0.0000 -0.7981 -0.0000  0.0000      0.0000  0.0000  0.0000  0.0000  0.0000  0.0000  0.0000  0.0000  0.0000  0.0000
  o =  0.0688  v =  0.0000  0.0000  0.0000  0.0000  0.0000  0.0000  0.7071 -0.0000 -0.7071  0.0000      0.0000  0.0000  0.0000  0.0000  0.0000  0.0000  0.0000  0.0000  0.0000  0.0000
  o =  0.0857  v =  0.0000  0.0000  0.0000  0.0000  0.0000 -0.7981  0.0000  0.6025 -0.0000 -0.0000      0.0000  0.0000  0.0000  0.0000  0.0000  0.0000  0.0000  0.0000  0.0000  0.0000
  o =  1.0322  v = -0.7958  0.0000  0.6055  0.0000  0.0000  0.0000  0.0000  0.0000  0.0000  0.0000      0.0000  0.0000  0.0000  0.0000  0.0000  0.0000  0.0000  0.0000  0.0000  0.0000
  o =  1.0414  v =  0.0000  0.7071  0.0000 -0.7071  0.0000  0.0000  0.0000  0.0000  0.0000  0.0000      0.0000  0.0000  0.0000  0.0000  0.0000  0.0000  0.0000  0.0000  0.0000  0.0000
  o =  1.0995  v = -0.6055  0.0000 -0.7958  0.0000 -0.0000  0.0000  0.0000  0.0000  0.0000  0.0000      0.0000  0.0000  0.0000  0.0000  0.0000  0.0000  0.0000  0.0000  0.0000  0.0000
  o =  1.1009  v =  0.0000 -0.7071  0.0000 -0.7071 -0.0000  0.0000  0.0000  0.0000  0.0000  0.0000      0.0000  0.0000  0.0000  0.0000  0.0000  0.0000  0.0000  0.0000  0.0000  0.0000
  o =  1.1110  v =  0.0000 -0.0000 -0.0000  0.0000  1.0000  0.0000  0.0000  0.0000  0.0000  0.0000      0.0000  0.0000  0.0000  0.0000  0.0000  0.0000  0.0000  0.0000  0.0000  0.0000
     EDDAV:  cpu time    0.1742: real time    0.1742
       DOS:  cpu time    0.0003: real time    0.0003
    CHARGE:  cpu time    0.0708: real time    0.0708
    MIXING:  cpu time    0.0006: real time    0.0006
    --------------------------------------------
      LOOP:  cpu time    1.5530: real time    1.5530

 eigenvalue-minimisations  :   360
 total energy-change (2. order) :-0.4378041E+03  (-0.2831970E+02)
 number of electron      54.0000008 magnetization      -0.0000000
 augmentation part       19.5253002 magnetization      -0.0000000

 Broyden mixing:
  rms(total) = 0.63039E+01    rms(broyden)= 0.63038E+01
  rms(prec ) = 0.68542E+01
  weight for this iteration     100.00

 eigenvalues of (default mixing * dielectric matrix)
  average eigenvalue GAMMA=   0.4161
  0.4161

 Free energy of the ion-electron system (eV)
  ---------------------------------------------------
  alpha Z        PSCENC =       199.34329717
  Ewald energy   TEWEN  =     -4202.95193742
  -Hartree energ DENC   =     -2199.66316819
  -exchange      EXHF   =         0.00000000
  -V(xc)+E(xc)   XCENC  =       144.33780210
  PAW double counting   =      6428.45651613    -6394.94934116
  entropy T*S    EENTRO =        -0.00188063
  eigenvalues    EBANDS =      -732.12378878
  atomic energy  EATOM  =      6689.01075358
  Solvation  Ediel_sol  =         0.00000000
  ---------------------------------------------------
  free energy    TOTEN  =       -68.54174721 eV

  energy without entropy =      -68.53986658  energy(sigma->0) =      -68.54080689


--------------------------------------------------------------------------------------------------------




--------------------------------------- Iteration      1(   7)  ---------------------------------------


    POTLOK:  cpu time    0.0323: real time    0.0323
    SETDIJ:  cpu time    1.2626: real time    1.2626
atom =   1  type =  1  l = 2
 
 onsite density matrix
 
spin component  1
 
  0.1101  0.0000  0.0538  0.0000  0.0000
  0.0000  0.0521  0.0000  0.0243  0.0000
  0.0538  0.0000  0.0697  0.0000 -0.0000
  0.0000  0.0243  0.0000  0.0521  0.0000
  0.0000  0.0000 -0.0000  0.0000  0.0162
 
spin component  2
 
  0.9326  0.0000 -0.0345  0.0000 -0.0000
  0.0000  1.0068  0.0000  0.0090  0.0000
 -0.0345  0.0000  0.9692  0.0000  0.0000
  0.0000  0.0090  0.0000  1.0068  0.0000
 -0.0000  0.0000  0.0000  0.0000  1.0023
 
 occupancies and eigenvectors
 
  o =  0.0162  v =  0.0000  0.0000 -0.0000 -0.0000 -1.0000  0.0000  0.0000  0.0000  0.0000  0.0000      0.0000  0.0000  0.0000  0.0000  0.0000  0.0000  0.0000  0.0000  0.0000  0.0000
  o =  0.0277  v =  0.0000 -0.7071 -0.0000  0.7071 -0.0000  0.0000  0.0000  0.0000  0.0000  0.0000      0.0000  0.0000  0.0000  0.0000  0.0000  0.0000  0.0000  0.0000  0.0000  0.0000
  o =  0.0324  v = -0.5697 -0.0000  0.8218  0.0000 -0.0000  0.0000  0.0000  0.0000  0.0000  0.0000      0.0000  0.0000  0.0000  0.0000  0.0000  0.0000  0.0000  0.0000  0.0000  0.0000
  o =  0.0764  v =  0.0000  0.7071 -0.0000  0.7071  0.0000  0.0000  0.0000  0.0000  0.0000  0.0000      0.0000  0.0000  0.0000  0.0000  0.0000  0.0000  0.0000  0.0000  0.0000  0.0000
  o =  0.1474  v = -0.8218  0.0000 -0.5697  0.0000  0.0000  0.0000  0.0000  0.0000  0.0000  0.0000      0.0000  0.0000  0.0000  0.0000  0.0000  0.0000  0.0000  0.0000  0.0000  0.0000
  o =  0.9118  v =  0.0000  0.0000  0.0000  0.0000  0.0000 -0.8572  0.0000 -0.5151  0.0000 -0.0000      0.0000  0.0000  0.0000  0.0000  0.0000  0.0000  0.0000  0.0000  0.0000  0.0000
  o =  0.9900  v =  0.0000  0.0000  0.0000  0.0000  0.0000 -0.5151  0.0000  0.8572  0.0000  0.0000      0.0000  0.0000  0.0000  0.0000  0.0000  0.0000  0.0000  0.0000  0.0000  0.0000
  o =  0.9979  v =  0.0000  0.0000  0.0000  0.0000  0.0000  0.0000  0.7071  0.0000 -0.7071 -0.0000      0.0000  0.0000  0.0000  0.0000  0.0000  0.0000  0.0000  0.0000  0.0000  0.0000
  o =  1.0023  v =  0.0000  0.0000  0.0000  0.0000  0.0000  0.0000 -0.0000  0.0000  0.0000 -1.0000      0.0000  0.0000  0.0000  0.0000  0.0000  0.0000  0.0000  0.0000  0.0000  0.0000
  o =  1.0158  v =  0.0000  0.0000  0.0000  0.0000  0.0000  0.0000 -0.7071  0.0000 -0.7071  0.0000      0.0000  0.0000  0.0000  0.0000  0.0000  0.0000  0.0000  0.0000  0.0000  0.0000
atom =   2  type =  1  l = 2
 
 onsite density matrix
 
spin component  1
 
  0.9326  0.0000  0.0345  0.0000 -0.0000
  0.0000  1.0068  0.0000 -0.0090  0.0000
  0.0345  0.0000  0.9692  0.0000  0.0000
  0.0000 -0.0090  0.0000  1.0068  0.0000
 -0.0000  0.0000  0.0000  0.0000  1.0023
 
spin component  2
 
  0.1101  0.0000 -0.0538  0.0000 -0.0000
  0.0000  0.0521  0.0000 -0.0243  0.0000
 -0.0538  0.0000  0.0697  0.0000 -0.0000
  0.0000 -0.0243  0.0000  0.0521  0.0000
 -0.0000  0.0000 -0.0000  0.0000  0.0162
 
 occupancies and eigenvectors
 
  o =  0.0162  v =  0.0000  0.0000  0.0000  0.0000  0.0000 -0.0000 -0.0000 -0.0000 -0.0000 -1.0000      0.0000  0.0000  0.0000  0.0000  0.0000  0.0000  0.0000  0.0000  0.0000  0.0000
  o =  0.0277  v =  0.0000  0.0000  0.0000  0.0000  0.0000 -0.0000  0.7071 -0.0000  0.7071 -0.0000      0.0000  0.0000  0.0000  0.0000  0.0000  0.0000  0.0000  0.0000  0.0000  0.0000
  o =  0.0324  v =  0.0000  0.0000  0.0000  0.0000  0.0000 -0.5697 -0.0000 -0.8218 -0.0000  0.0000      0.0000  0.0000  0.0000  0.0000  0.0000  0.0000  0.0000  0.0000  0.0000  0.0000
  o =  0.0764  v =  0.0000  0.0000  0.0000  0.0000  0.0000  0.0000  0.7071  0.0000 -0.7071 -0.0000      0.0000  0.0000  0.0000  0.0000  0.0000  0.0000  0.0000  0.0000  0.0000  0.0000
  o =  0.1474  v =  0.0000  0.0000  0.0000  0.0000  0.0000 -0.8218  0.0000  0.5697 -0.0000 -0.0000      0.0000  0.0000  0.0000  0.0000  0.0000  0.0000  0.0000  0.0000  0.0000  0.0000
  o =  0.9118  v = -0.8572  0.0000  0.5151  0.0000 -0.0000  0.0000  0.0000  0.0000  0.0000  0.0000      0.0000  0.0000  0.0000  0.0000  0.0000  0.0000  0.0000  0.0000  0.0000  0.0000
  o =  0.9900  v = -0.5151  0.0000 -0.8572  0.0000  0.0000  0.0000  0.0000  0.0000  0.0000  0.0000      0.0000  0.0000  0.0000  0.0000  0.0000  0.0000  0.0000  0.0000  0.0000  0.0000
  o =  0.9979  v =  0.0000 -0.7071 -0.0000 -0.7071 -0.0000  0.0000  0.0000  0.0000  0.0000  0.0000      0.0000  0.0000  0.0000  0.0000  0.0000  0.0000  0.0000  0.0000  0.0000  0.0000
  o =  1.0023  v =  0.0000 -0.0000  0.0000 -0.0000  1.0000  0.0000  0.0000  0.0000  0.0000  0.0000      0.0000  0.0000  0.0000  0.0000  0.0000  0.0000  0.0000  0.0000  0.0000  0.0000
  o =  1.0158  v =  0.0000  0.7071 -0.0000 -0.7071 -0.0000  0.0000  0.0000  0.0000  0.0000  0.0000      0.0000  0.0000  0.0000  0.0000  0.0000  0.0000  0.0000  0.0000  0.0000  0.0000
     EDDAV:  cpu time    0.1506: real time    0.1506
       DOS:  cpu time    0.0001: real time    0.0001
    CHARGE:  cpu time    0.0709: real time    0.0709
    MIXING:  cpu time    0.0006: real time    0.0006
    --------------------------------------------
      LOOP:  cpu time    1.5172: real time    1.5172

 eigenvalue-minimisations  :   288
 total energy-change (2. order) :-0.2712263E+01  (-0.5275327E+01)
 number of electron      54.0000008 magnetization      -0.0000000
 augmentation part       19.6993689 magnetization      -0.0000000

 Broyden mixing:
  rms(total) = 0.17224E+01    rms(broyden)= 0.17221E+01
  rms(prec ) = 0.24884E+01
  weight for this iteration     100.00

 eigenvalues of (default mixing * dielectric matrix)
  average eigenvalue GAMMA=   0.6827
  0.6827  0.6827

 Free energy of the ion-electron system (eV)
  ---------------------------------------------------
  alpha Z        PSCENC =       199.34329717
  Ewald energy   TEWEN  =     -4202.95193742
  -Hartree energ DENC   =     -2176.03698814
  -exchange      EXHF   =         0.00000000
  -V(xc)+E(xc)   XCENC  =       167.94457348
  PAW double counting   =      6483.94993116    -6451.29112256
  entropy T*S    EENTRO =        -0.00000000
  eigenvalues    EBANDS =      -781.22251747
  atomic energy  EATOM  =      6689.01075358
  Solvation  Ediel_sol  =         0.00000000
  ---------------------------------------------------
  free energy    TOTEN  =       -71.25401020 eV

  energy without entropy =      -71.25401020  energy(sigma->0) =      -71.25401020


--------------------------------------------------------------------------------------------------------




--------------------------------------- Iteration      1(   8)  ---------------------------------------


    POTLOK:  cpu time    0.0323: real time    0.0323
    SETDIJ:  cpu time    1.2568: real time    1.2568
atom =   1  type =  1  l = 2
 
 onsite density matrix
 
spin component  1
 
  0.0191  0.0000 -0.0041  0.0000  0.0000
  0.0000  0.0527  0.0000  0.0222  0.0000
 -0.0041  0.0000  0.0303  0.0000 -0.0000
  0.0000  0.0222  0.0000  0.0527  0.0000
  0.0000  0.0000 -0.0000  0.0000  0.0262
 
spin component  2
 
  1.0120  0.0000  0.0373  0.0000 -0.0000
  0.0000  0.9793  0.0000  0.0119  0.0000
  0.0373  0.0000  0.9879  0.0000  0.0000
  0.0000  0.0119  0.0000  0.9793  0.0000
 -0.0000  0.0000  0.0000  0.0000  0.9656
 
 occupancies and eigenvectors
 
  o =  0.0178  v =  0.9512 -0.0000  0.3085  0.0000  0.0000  0.0000  0.0000  0.0000  0.0000  0.0000      0.0000  0.0000  0.0000  0.0000  0.0000  0.0000  0.0000  0.0000  0.0000  0.0000
  o =  0.0262  v =  0.0000  0.0000 -0.0000  0.0000 -1.0000  0.0000  0.0000  0.0000  0.0000  0.0000      0.0000  0.0000  0.0000  0.0000  0.0000  0.0000  0.0000  0.0000  0.0000  0.0000
  o =  0.0305  v =  0.0000  0.7071  0.0000 -0.7071  0.0000  0.0000  0.0000  0.0000  0.0000  0.0000      0.0000  0.0000  0.0000  0.0000  0.0000  0.0000  0.0000  0.0000  0.0000  0.0000
  o =  0.0316  v =  0.3085 -0.0000 -0.9512  0.0000  0.0000  0.0000  0.0000  0.0000  0.0000  0.0000      0.0000  0.0000  0.0000  0.0000  0.0000  0.0000  0.0000  0.0000  0.0000  0.0000
  o =  0.0749  v =  0.0000  0.7071  0.0000  0.7071  0.0000  0.0000  0.0000  0.0000  0.0000  0.0000      0.0000  0.0000  0.0000  0.0000  0.0000  0.0000  0.0000  0.0000  0.0000  0.0000
  o =  0.9607  v =  0.0000  0.0000  0.0000  0.0000  0.0000 -0.5889  0.0000  0.8082  0.0000 -0.0000      0.0000  0.0000  0.0000  0.0000  0.0000  0.0000  0.0000  0.0000  0.0000  0.0000
  o =  0.9656  v =  0.0000  0.0000  0.0000  0.0000  0.0000  0.0000  0.0000  0.0000  0.0000  1.0000      0.0000  0.0000  0.0000  0.0000  0.0000  0.0000  0.0000  0.0000  0.0000  0.0000
  o =  0.9674  v =  0.0000  0.0000  0.0000  0.0000  0.0000  0.0000  0.7071  0.0000 -0.7071 -0.0000      0.0000  0.0000  0.0000  0.0000  0.0000  0.0000  0.0000  0.0000  0.0000  0.0000
  o =  0.9911  v =  0.0000  0.0000  0.0000  0.0000  0.0000  0.0000 -0.7071  0.0000 -0.7071  0.0000      0.0000  0.0000  0.0000  0.0000  0.0000  0.0000  0.0000  0.0000  0.0000  0.0000
  o =  1.0392  v =  0.0000  0.0000  0.0000  0.0000  0.0000 -0.8082  0.0000 -0.5889  0.0000  0.0000      0.0000  0.0000  0.0000  0.0000  0.0000  0.0000  0.0000  0.0000  0.0000  0.0000
atom =   2  type =  1  l = 2
 
 onsite density matrix
 
spin component  1
 
  1.0120  0.0000 -0.0373  0.0000 -0.0000
  0.0000  0.9793  0.0000 -0.0119  0.0000
 -0.0373  0.0000  0.9879  0.0000  0.0000
  0.0000 -0.0119  0.0000  0.9793  0.0000
 -0.0000  0.0000  0.0000  0.0000  0.9656
 
spin component  2
 
  0.0191  0.0000  0.0041  0.0000 -0.0000
  0.0000  0.0527  0.0000 -0.0222  0.0000
  0.0041  0.0000  0.0303  0.0000  0.0000
  0.0000 -0.0222  0.0000  0.0527  0.0000
 -0.0000  0.0000  0.0000  0.0000  0.0262
 
 occupancies and eigenvectors
 
  o =  0.0178  v =  0.0000  0.0000  0.0000  0.0000  0.0000  0.9512  0.0000 -0.3085  0.0000  0.0000      0.0000  0.0000  0.0000  0.0000  0.0000  0.0000  0.0000  0.0000  0.0000  0.0000
  o =  0.0262  v =  0.0000  0.0000  0.0000  0.0000  0.0000  0.0000 -0.0000  0.0000  0.0000 -1.0000      0.0000  0.0000  0.0000  0.0000  0.0000  0.0000  0.0000  0.0000  0.0000  0.0000
  o =  0.0305  v =  0.0000  0.0000  0.0000  0.0000  0.0000  0.0000 -0.7071  0.0000 -0.7071  0.0000      0.0000  0.0000  0.0000  0.0000  0.0000  0.0000  0.0000  0.0000  0.0000  0.0000
  o =  0.0316  v =  0.0000  0.0000  0.0000  0.0000  0.0000  0.3085  0.0000  0.9512  0.0000  0.0000      0.0000  0.0000  0.0000  0.0000  0.0000  0.0000  0.0000  0.0000  0.0000  0.0000
  o =  0.0749  v =  0.0000  0.0000  0.0000  0.0000  0.0000  0.0000 -0.7071  0.0000  0.7071  0.0000      0.0000  0.0000  0.0000  0.0000  0.0000  0.0000  0.0000  0.0000  0.0000  0.0000
  o =  0.9607  v = -0.5889  0.0000 -0.8082  0.0000 -0.0000  0.0000  0.0000  0.0000  0.0000  0.0000      0.0000  0.0000  0.0000  0.0000  0.0000  0.0000  0.0000  0.0000  0.0000  0.0000
  o =  0.9656  v =  0.0000 -0.0000  0.0000  0.0000 -1.0000  0.0000  0.0000  0.0000  0.0000  0.0000      0.0000  0.0000  0.0000  0.0000  0.0000  0.0000  0.0000  0.0000  0.0000  0.0000
  o =  0.9674  v =  0.0000 -0.7071  0.0000 -0.7071  0.0000  0.0000  0.0000  0.0000  0.0000  0.0000      0.0000  0.0000  0.0000  0.0000  0.0000  0.0000  0.0000  0.0000  0.0000  0.0000
  o =  0.9911  v =  0.0000 -0.7071  0.0000  0.7071  0.0000  0.0000  0.0000  0.0000  0.0000  0.0000      0.0000  0.0000  0.0000  0.0000  0.0000  0.0000  0.0000  0.0000  0.0000  0.0000
  o =  1.0392  v = -0.8082  0.0000  0.5889  0.0000  0.0000  0.0000  0.0000  0.0000  0.0000  0.0000      0.0000  0.0000  0.0000  0.0000  0.0000  0.0000  0.0000  0.0000  0.0000  0.0000
     EDDAV:  cpu time    0.1694: real time    0.1694
       DOS:  cpu time    0.0001: real time    0.0001
    CHARGE:  cpu time    0.0708: real time    0.0708
    MIXING:  cpu time    0.0006: real time    0.0006
    --------------------------------------------
      LOOP:  cpu time    1.5300: real time    1.5300

 eigenvalue-minimisations  :   348
 total energy-change (2. order) : 0.2657464E+01  (-0.7333780E+00)
 number of electron      54.0000008 magnetization       0.0000000
 augmentation part       19.8737419 magnetization       0.0000000

 Broyden mixing:
  rms(total) = 0.62572E+00    rms(broyden)= 0.62553E+00
  rms(prec ) = 0.93696E+00
  weight for this iteration     100.00

 eigenvalues of (default mixing * dielectric matrix)
  average eigenvalue GAMMA=   0.8084
  1.1207  0.6523  0.6523

 Free energy of the ion-electron system (eV)
  ---------------------------------------------------
  alpha Z        PSCENC =       199.34329717
  Ewald energy   TEWEN  =     -4202.95193742
  -Hartree energ DENC   =     -2170.05601007
  -exchange      EXHF   =         0.00000000
  -V(xc)+E(xc)   XCENC  =       170.40476392
  PAW double counting   =      6413.37517743    -6378.29535450
  entropy T*S    EENTRO =        -0.00000000
  eigenvalues    EBANDS =      -789.42723677
  atomic energy  EATOM  =      6689.01075358
  Solvation  Ediel_sol  =         0.00000000
  ---------------------------------------------------
  free energy    TOTEN  =       -68.59654666 eV

  energy without entropy =      -68.59654666  energy(sigma->0) =      -68.59654666


--------------------------------------------------------------------------------------------------------




--------------------------------------- Iteration      1(   9)  ---------------------------------------


    POTLOK:  cpu time    0.0331: real time    0.0331
    SETDIJ:  cpu time    1.2614: real time    1.2614
atom =   1  type =  1  l = 2
 
 onsite density matrix
 
spin component  1
 
  0.0958  0.0000  0.0554  0.0000 -0.0000
  0.0000  0.0449  0.0000  0.0186  0.0000
  0.0554  0.0000  0.0601  0.0000  0.0000
  0.0000  0.0186  0.0000  0.0449  0.0000
 -0.0000  0.0000  0.0000  0.0000  0.0209
 
spin component  2
 
  0.9214  0.0000 -0.0109  0.0000  0.0000
  0.0000  0.9601  0.0000  0.0175  0.0000
 -0.0109  0.0000  0.9345  0.0000 -0.0000
  0.0000  0.0175  0.0000  0.9601  0.0000
  0.0000  0.0000 -0.0000  0.0000  0.9440
 
 occupancies and eigenvectors
 
  o =  0.0198  v = -0.5887 -0.0000  0.8083  0.0000 -0.0000  0.0000  0.0000  0.0000  0.0000  0.0000      0.0000  0.0000  0.0000  0.0000  0.0000  0.0000  0.0000  0.0000  0.0000  0.0000
  o =  0.0209  v = -0.0000  0.0000  0.0000  0.0000  1.0000  0.0000  0.0000  0.0000  0.0000  0.0000      0.0000  0.0000  0.0000  0.0000  0.0000  0.0000  0.0000  0.0000  0.0000  0.0000
  o =  0.0263  v =  0.0000  0.7071  0.0000 -0.7071 -0.0000  0.0000  0.0000  0.0000  0.0000  0.0000      0.0000  0.0000  0.0000  0.0000  0.0000  0.0000  0.0000  0.0000  0.0000  0.0000
  o =  0.0635  v =  0.0000 -0.7071  0.0000 -0.7071  0.0000  0.0000  0.0000  0.0000  0.0000  0.0000      0.0000  0.0000  0.0000  0.0000  0.0000  0.0000  0.0000  0.0000  0.0000  0.0000
  o =  0.1361  v = -0.8083 -0.0000 -0.5887  0.0000 -0.0000  0.0000  0.0000  0.0000  0.0000  0.0000      0.0000  0.0000  0.0000  0.0000  0.0000  0.0000  0.0000  0.0000  0.0000  0.0000
  o =  0.9152  v =  0.0000  0.0000  0.0000  0.0000  0.0000  0.8700 -0.0000  0.4931  0.0000  0.0000      0.0000  0.0000  0.0000  0.0000  0.0000  0.0000  0.0000  0.0000  0.0000  0.0000
  o =  0.9407  v =  0.0000  0.0000  0.0000  0.0000  0.0000 -0.4931 -0.0000  0.8700  0.0000  0.0000      0.0000  0.0000  0.0000  0.0000  0.0000  0.0000  0.0000  0.0000  0.0000  0.0000
  o =  0.9425  v =  0.0000  0.0000  0.0000  0.0000  0.0000 -0.0000  0.7071  0.0000 -0.7071 -0.0000      0.0000  0.0000  0.0000  0.0000  0.0000  0.0000  0.0000  0.0000  0.0000  0.0000
  o =  0.9440  v =  0.0000  0.0000  0.0000  0.0000  0.0000  0.0000  0.0000 -0.0000 -0.0000  1.0000      0.0000  0.0000  0.0000  0.0000  0.0000  0.0000  0.0000  0.0000  0.0000  0.0000
  o =  0.9776  v =  0.0000  0.0000  0.0000  0.0000  0.0000 -0.0000  0.7071  0.0000  0.7071  0.0000      0.0000  0.0000  0.0000  0.0000  0.0000  0.0000  0.0000  0.0000  0.0000  0.0000
atom =   2  type =  1  l = 2
 
 onsite density matrix
 
spin component  1
 
  0.9214  0.0000  0.0109  0.0000  0.0000
  0.0000  0.9601  0.0000 -0.0175  0.0000
  0.0109  0.0000  0.9345  0.0000  0.0000
  0.0000 -0.0175  0.0000  0.9601  0.0000
  0.0000  0.0000  0.0000  0.0000  0.9440
 
spin component  2
 
  0.0958  0.0000 -0.0554  0.0000 -0.0000
  0.0000  0.0449  0.0000 -0.0186  0.0000
 -0.0554  0.0000  0.0601  0.0000 -0.0000
  0.0000 -0.0186  0.0000  0.0449  0.0000
 -0.0000  0.0000 -0.0000  0.0000  0.0209
 
 occupancies and eigenvectors
 
  o =  0.0198  v =  0.0000  0.0000  0.0000  0.0000  0.0000 -0.5887 -0.0000 -0.8083  0.0000 -0.0000      0.0000  0.0000  0.0000  0.0000  0.0000  0.0000  0.0000  0.0000  0.0000  0.0000
  o =  0.0209  v =  0.0000  0.0000  0.0000  0.0000  0.0000 -0.0000  0.0000 -0.0000  0.0000  1.0000      0.0000  0.0000  0.0000  0.0000  0.0000  0.0000  0.0000  0.0000  0.0000  0.0000
  o =  0.0263  v =  0.0000  0.0000  0.0000  0.0000  0.0000  0.0000 -0.7071  0.0000 -0.7071  0.0000      0.0000  0.0000  0.0000  0.0000  0.0000  0.0000  0.0000  0.0000  0.0000  0.0000
  o =  0.0635  v =  0.0000  0.0000  0.0000  0.0000  0.0000  0.0000  0.7071  0.0000 -0.7071 -0.0000      0.0000  0.0000  0.0000  0.0000  0.0000  0.0000  0.0000  0.0000  0.0000  0.0000
  o =  0.1361  v =  0.0000  0.0000  0.0000  0.0000  0.0000 -0.8083 -0.0000  0.5887  0.0000 -0.0000      0.0000  0.0000  0.0000  0.0000  0.0000  0.0000  0.0000  0.0000  0.0000  0.0000
  o =  0.9152  v =  0.8700 -0.0000 -0.4931 -0.0000  0.0000  0.0000  0.0000  0.0000  0.0000  0.0000      0.0000  0.0000  0.0000  0.0000  0.0000  0.0000  0.0000  0.0000  0.0000  0.0000
  o =  0.9407  v =  0.4931  0.0000  0.8700  0.0000 -0.0000  0.0000  0.0000  0.0000  0.0000  0.0000      0.0000  0.0000  0.0000  0.0000  0.0000  0.0000  0.0000  0.0000  0.0000  0.0000
  o =  0.9425  v =  0.0000  0.7071 -0.0000  0.7071  0.0000  0.0000  0.0000  0.0000  0.0000  0.0000      0.0000  0.0000  0.0000  0.0000  0.0000  0.0000  0.0000  0.0000  0.0000  0.0000
  o =  0.9440  v =  0.0000 -0.0000  0.0000 -0.0000  1.0000  0.0000  0.0000  0.0000  0.0000  0.0000      0.0000  0.0000  0.0000  0.0000  0.0000  0.0000  0.0000  0.0000  0.0000  0.0000
  o =  0.9776  v =  0.0000 -0.7071  0.0000  0.7071 -0.0000  0.0000  0.0000  0.0000  0.0000  0.0000      0.0000  0.0000  0.0000  0.0000  0.0000  0.0000  0.0000  0.0000  0.0000  0.0000
     EDDAV:  cpu time    0.1666: real time    0.1666
       DOS:  cpu time    0.0001: real time    0.0001
    CHARGE:  cpu time    0.0708: real time    0.0708
    MIXING:  cpu time    0.0006: real time    0.0006
    --------------------------------------------
      LOOP:  cpu time    1.5327: real time    1.5327

 eigenvalue-minimisations  :   336
 total energy-change (2. order) : 0.4240279E+00  (-0.4516334E+00)
 number of electron      54.0000007 magnetization       0.0000000
 augmentation part       19.9919687 magnetization       0.0000000

 Broyden mixing:
  rms(total) = 0.80721E+00    rms(broyden)= 0.80717E+00
  rms(prec ) = 0.89739E+00
  weight for this iteration     100.00

 eigenvalues of (default mixing * dielectric matrix)
  average eigenvalue GAMMA=   0.9291
  1.7014  0.7256  0.7256  0.5638

 Free energy of the ion-electron system (eV)
  ---------------------------------------------------
  alpha Z        PSCENC =       199.34329717
  Ewald energy   TEWEN  =     -4202.95193742
  -Hartree energ DENC   =     -2163.22424475
  -exchange      EXHF   =         0.00000000
  -V(xc)+E(xc)   XCENC  =       168.44926817
  PAW double counting   =      6445.36099438    -6409.23486000
  entropy T*S    EENTRO =        -0.00000000
  eigenvalues    EBANDS =      -794.92578992
  atomic energy  EATOM  =      6689.01075358
  Solvation  Ediel_sol  =         0.00000000
  ---------------------------------------------------
  free energy    TOTEN  =       -68.17251881 eV

  energy without entropy =      -68.17251881  energy(sigma->0) =      -68.17251881


--------------------------------------------------------------------------------------------------------




--------------------------------------- Iteration      1(  10)  ---------------------------------------


    POTLOK:  cpu time    0.0323: real time    0.0323
    SETDIJ:  cpu time    1.2594: real time    1.2595
atom =   1  type =  1  l = 2
 
 onsite density matrix
 
spin component  1
 
  0.0227  0.0000 -0.0002  0.0000  0.0000
  0.0000  0.0531  0.0000  0.0220  0.0000
 -0.0002  0.0000  0.0305  0.0000 -0.0000
  0.0000  0.0220  0.0000  0.0531  0.0000
  0.0000  0.0000 -0.0000  0.0000  0.0304
 
spin component  2
 
  0.9910  0.0000  0.0448  0.0000 -0.0000
  0.0000  0.9509  0.0000  0.0159  0.0000
  0.0448  0.0000  0.9612  0.0000  0.0000
  0.0000  0.0159  0.0000  0.9509  0.0000
 -0.0000  0.0000  0.0000  0.0000  0.9320
 
 occupancies and eigenvectors
 
  o =  0.0227  v =  0.9996 -0.0000  0.0292  0.0000  0.0000  0.0000  0.0000  0.0000  0.0000  0.0000      0.0000  0.0000  0.0000  0.0000  0.0000  0.0000  0.0000  0.0000  0.0000  0.0000
  o =  0.0304  v =  0.0000  0.0000 -0.0000 -0.0000 -1.0000  0.0000  0.0000  0.0000  0.0000  0.0000      0.0000  0.0000  0.0000  0.0000  0.0000  0.0000  0.0000  0.0000  0.0000  0.0000
  o =  0.0305  v =  0.0292 -0.0000 -0.9996  0.0000  0.0000  0.0000  0.0000  0.0000  0.0000  0.0000      0.0000  0.0000  0.0000  0.0000  0.0000  0.0000  0.0000  0.0000  0.0000  0.0000
  o =  0.0311  v =  0.0000 -0.7071 -0.0000  0.7071 -0.0000  0.0000  0.0000  0.0000  0.0000  0.0000      0.0000  0.0000  0.0000  0.0000  0.0000  0.0000  0.0000  0.0000  0.0000  0.0000
  o =  0.0751  v =  0.0000  0.7071 -0.0000  0.7071  0.0000  0.0000  0.0000  0.0000  0.0000  0.0000      0.0000  0.0000  0.0000  0.0000  0.0000  0.0000  0.0000  0.0000  0.0000  0.0000
  o =  0.9289  v =  0.0000  0.0000  0.0000  0.0000  0.0000 -0.5851  0.0000  0.8110 -0.0000 -0.0000      0.0000  0.0000  0.0000  0.0000  0.0000  0.0000  0.0000  0.0000  0.0000  0.0000
  o =  0.9320  v =  0.0000  0.0000  0.0000  0.0000  0.0000 -0.0000 -0.0000  0.0000  0.0000  1.0000      0.0000  0.0000  0.0000  0.0000  0.0000  0.0000  0.0000  0.0000  0.0000  0.0000
  o =  0.9350  v =  0.0000  0.0000  0.0000  0.0000  0.0000  0.0000 -0.7071 -0.0000  0.7071 -0.0000      0.0000  0.0000  0.0000  0.0000  0.0000  0.0000  0.0000  0.0000  0.0000  0.0000
  o =  0.9668  v =  0.0000  0.0000  0.0000  0.0000  0.0000  0.0000 -0.7071 -0.0000 -0.7071 -0.0000      0.0000  0.0000  0.0000  0.0000  0.0000  0.0000  0.0000  0.0000  0.0000  0.0000
  o =  1.0233  v =  0.0000  0.0000  0.0000  0.0000  0.0000 -0.8110 -0.0000 -0.5851 -0.0000 -0.0000      0.0000  0.0000  0.0000  0.0000  0.0000  0.0000  0.0000  0.0000  0.0000  0.0000
atom =   2  type =  1  l = 2
 
 onsite density matrix
 
spin component  1
 
  0.9910  0.0000 -0.0448  0.0000 -0.0000
  0.0000  0.9509  0.0000 -0.0159  0.0000
 -0.0448  0.0000  0.9612  0.0000 -0.0000
  0.0000 -0.0159  0.0000  0.9509  0.0000
 -0.0000  0.0000 -0.0000  0.0000  0.9320
 
spin component  2
 
  0.0227  0.0000  0.0002  0.0000  0.0000
  0.0000  0.0531  0.0000 -0.0220  0.0000
  0.0002  0.0000  0.0305  0.0000  0.0000
  0.0000 -0.0220  0.0000  0.0531  0.0000
  0.0000  0.0000  0.0000  0.0000  0.0304
 
 occupancies and eigenvectors
 
  o =  0.0227  v =  0.0000  0.0000  0.0000  0.0000  0.0000  0.9996  0.0000 -0.0292  0.0000  0.0000      0.0000  0.0000  0.0000  0.0000  0.0000  0.0000  0.0000  0.0000  0.0000  0.0000
  o =  0.0304  v =  0.0000  0.0000  0.0000  0.0000  0.0000 -0.0000  0.0000 -0.0000  0.0000  1.0000      0.0000  0.0000  0.0000  0.0000  0.0000  0.0000  0.0000  0.0000  0.0000  0.0000
  o =  0.0305  v =  0.0000  0.0000  0.0000  0.0000  0.0000 -0.0292 -0.0000 -0.9996 -0.0000 -0.0000      0.0000  0.0000  0.0000  0.0000  0.0000  0.0000  0.0000  0.0000  0.0000  0.0000
  o =  0.0311  v =  0.0000  0.0000  0.0000  0.0000  0.0000  0.0000 -0.7071  0.0000 -0.7071  0.0000      0.0000  0.0000  0.0000  0.0000  0.0000  0.0000  0.0000  0.0000  0.0000  0.0000
  o =  0.0751  v =  0.0000  0.0000  0.0000  0.0000  0.0000  0.0000  0.7071 -0.0000 -0.7071 -0.0000      0.0000  0.0000  0.0000  0.0000  0.0000  0.0000  0.0000  0.0000  0.0000  0.0000
  o =  0.9289  v = -0.5851  0.0000 -0.8110  0.0000 -0.0000  0.0000  0.0000  0.0000  0.0000  0.0000      0.0000  0.0000  0.0000  0.0000  0.0000  0.0000  0.0000  0.0000  0.0000  0.0000
  o =  0.9320  v =  0.0000 -0.0000 -0.0000 -0.0000  1.0000  0.0000  0.0000  0.0000  0.0000  0.0000      0.0000  0.0000  0.0000  0.0000  0.0000  0.0000  0.0000  0.0000  0.0000  0.0000
  o =  0.9350  v =  0.0000  0.7071 -0.0000  0.7071  0.0000  0.0000  0.0000  0.0000  0.0000  0.0000      0.0000  0.0000  0.0000  0.0000  0.0000  0.0000  0.0000  0.0000  0.0000  0.0000
  o =  0.9668  v =  0.0000  0.7071 -0.0000 -0.7071  0.0000  0.0000  0.0000  0.0000  0.0000  0.0000      0.0000  0.0000  0.0000  0.0000  0.0000  0.0000  0.0000  0.0000  0.0000  0.0000
  o =  1.0233  v = -0.8110  0.0000  0.5851  0.0000  0.0000  0.0000  0.0000  0.0000  0.0000  0.0000      0.0000  0.0000  0.0000  0.0000  0.0000  0.0000  0.0000  0.0000  0.0000  0.0000
     EDDAV:  cpu time    0.1592: real time    0.1592
       DOS:  cpu time    0.0001: real time    0.0001
    CHARGE:  cpu time    0.0708: real time    0.0708
    MIXING:  cpu time    0.0007: real time    0.0007
    --------------------------------------------
      LOOP:  cpu time    1.5225: real time    1.5225

 eigenvalue-minimisations  :   312
 total energy-change (2. order) : 0.8523131E-01  (-0.4367266E-01)
 number of electron      54.0000007 magnetization      -0.0000000
 augmentation part       19.9892099 magnetization      -0.0000000

 Broyden mixing:
  rms(total) = 0.58352E+00    rms(broyden)= 0.58352E+00
  rms(prec ) = 0.64099E+00
  weight for this iteration     100.00

 eigenvalues of (default mixing * dielectric matrix)
  average eigenvalue GAMMA=   1.0949
  2.4263  0.9456  0.9456  0.5784  0.5784

 Free energy of the ion-electron system (eV)
  ---------------------------------------------------
  alpha Z        PSCENC =       199.34329717
  Ewald energy   TEWEN  =     -4202.95193742
  -Hartree energ DENC   =     -2156.50682225
  -exchange      EXHF   =         0.00000000
  -V(xc)+E(xc)   XCENC  =       165.76229541
  PAW double counting   =      6503.79183901    -6468.68728049
  entropy T*S    EENTRO =        -0.00000000
  eigenvalues    EBANDS =      -797.84943252
  atomic energy  EATOM  =      6689.01075358
  Solvation  Ediel_sol  =         0.00000000
  ---------------------------------------------------
  free energy    TOTEN  =       -68.08728750 eV

  energy without entropy =      -68.08728750  energy(sigma->0) =      -68.08728750


--------------------------------------------------------------------------------------------------------




--------------------------------------- Iteration      1(  11)  ---------------------------------------


    POTLOK:  cpu time    0.0324: real time    0.0324
    SETDIJ:  cpu time    1.2583: real time    1.2583
atom =   1  type =  1  l = 2
 
 onsite density matrix
 
spin component  1
 
  0.0416  0.0000  0.0226  0.0000 -0.0000
  0.0000  0.0446  0.0000  0.0246  0.0000
  0.0226  0.0000  0.0332  0.0000  0.0000
  0.0000  0.0246  0.0000  0.0446  0.0000
 -0.0000  0.0000  0.0000  0.0000  0.0168
 
spin component  2
 
  0.9695  0.0000  0.0240  0.0000  0.0000
  0.0000  0.9589  0.0000  0.0174  0.0000
  0.0240  0.0000  0.9546  0.0000 -0.0000
  0.0000  0.0174  0.0000  0.9589  0.0000
  0.0000  0.0000 -0.0000  0.0000  0.9417
 
 occupancies and eigenvectors
 
  o =  0.0144  v = -0.6390 -0.0000  0.7692  0.0000 -0.0000  0.0000  0.0000  0.0000  0.0000  0.0000      0.0000  0.0000  0.0000  0.0000  0.0000  0.0000  0.0000  0.0000  0.0000  0.0000
  o =  0.0168  v = -0.0000  0.0000  0.0000  0.0000  1.0000  0.0000  0.0000  0.0000  0.0000  0.0000      0.0000  0.0000  0.0000  0.0000  0.0000  0.0000  0.0000  0.0000  0.0000  0.0000
  o =  0.0200  v =  0.0000  0.7071  0.0000 -0.7071 -0.0000  0.0000  0.0000  0.0000  0.0000  0.0000      0.0000  0.0000  0.0000  0.0000  0.0000  0.0000  0.0000  0.0000  0.0000  0.0000
  o =  0.0604  v = -0.7692 -0.0000 -0.6390  0.0000 -0.0000  0.0000  0.0000  0.0000  0.0000  0.0000      0.0000  0.0000  0.0000  0.0000  0.0000  0.0000  0.0000  0.0000  0.0000  0.0000
  o =  0.0692  v =  0.0000 -0.7071  0.0000 -0.7071  0.0000  0.0000  0.0000  0.0000  0.0000  0.0000      0.0000  0.0000  0.0000  0.0000  0.0000  0.0000  0.0000  0.0000  0.0000  0.0000
  o =  0.9369  v =  0.0000  0.0000  0.0000  0.0000  0.0000 -0.5937  0.0000  0.8047  0.0000  0.0000      0.0000  0.0000  0.0000  0.0000  0.0000  0.0000  0.0000  0.0000  0.0000  0.0000
  o =  0.9415  v =  0.0000  0.0000  0.0000  0.0000  0.0000  0.0000 -0.7071  0.0000  0.7071 -0.0000      0.0000  0.0000  0.0000  0.0000  0.0000  0.0000  0.0000  0.0000  0.0000  0.0000
  o =  0.9417  v =  0.0000  0.0000  0.0000  0.0000  0.0000  0.0000  0.0000  0.0000  0.0000 -1.0000      0.0000  0.0000  0.0000  0.0000  0.0000  0.0000  0.0000  0.0000  0.0000  0.0000
  o =  0.9763  v =  0.0000  0.0000  0.0000  0.0000  0.0000  0.0000  0.7071  0.0000  0.7071  0.0000      0.0000  0.0000  0.0000  0.0000  0.0000  0.0000  0.0000  0.0000  0.0000  0.0000
  o =  0.9872  v =  0.0000  0.0000  0.0000  0.0000  0.0000 -0.8047  0.0000 -0.5937  0.0000 -0.0000      0.0000  0.0000  0.0000  0.0000  0.0000  0.0000  0.0000  0.0000  0.0000  0.0000
atom =   2  type =  1  l = 2
 
 onsite density matrix
 
spin component  1
 
  0.9695  0.0000 -0.0240  0.0000  0.0000
  0.0000  0.9589  0.0000 -0.0174  0.0000
 -0.0240  0.0000  0.9546  0.0000 -0.0000
  0.0000 -0.0174  0.0000  0.9589  0.0000
  0.0000  0.0000 -0.0000  0.0000  0.9417
 
spin component  2
 
  0.0416  0.0000 -0.0226  0.0000 -0.0000
  0.0000  0.0446  0.0000 -0.0246  0.0000
 -0.0226  0.0000  0.0332  0.0000  0.0000
  0.0000 -0.0246  0.0000  0.0446  0.0000
 -0.0000  0.0000  0.0000  0.0000  0.0168
 
 occupancies and eigenvectors
 
  o =  0.0144  v =  0.0000  0.0000  0.0000  0.0000  0.0000 -0.6390  0.0000 -0.7692  0.0000  0.0000      0.0000  0.0000  0.0000  0.0000  0.0000  0.0000  0.0000  0.0000  0.0000  0.0000
  o =  0.0168  v =  0.0000  0.0000  0.0000  0.0000  0.0000 -0.0000 -0.0000 -0.0000  0.0000 -1.0000      0.0000  0.0000  0.0000  0.0000  0.0000  0.0000  0.0000  0.0000  0.0000  0.0000
  o =  0.0200  v =  0.0000  0.0000  0.0000  0.0000  0.0000  0.0000  0.7071  0.0000  0.7071 -0.0000      0.0000  0.0000  0.0000  0.0000  0.0000  0.0000  0.0000  0.0000  0.0000  0.0000
  o =  0.0604  v =  0.0000  0.0000  0.0000  0.0000  0.0000 -0.7692  0.0000  0.6390  0.0000  0.0000      0.0000  0.0000  0.0000  0.0000  0.0000  0.0000  0.0000  0.0000  0.0000  0.0000
  o =  0.0692  v =  0.0000  0.0000  0.0000  0.0000  0.0000  0.0000  0.7071  0.0000 -0.7071 -0.0000      0.0000  0.0000  0.0000  0.0000  0.0000  0.0000  0.0000  0.0000  0.0000  0.0000
  o =  0.9369  v = -0.5937  0.0000 -0.8047  0.0000  0.0000  0.0000  0.0000  0.0000  0.0000  0.0000      0.0000  0.0000  0.0000  0.0000  0.0000  0.0000  0.0000  0.0000  0.0000  0.0000
  o =  0.9415  v =  0.0000  0.7071 -0.0000  0.7071 -0.0000  0.0000  0.0000  0.0000  0.0000  0.0000      0.0000  0.0000  0.0000  0.0000  0.0000  0.0000  0.0000  0.0000  0.0000  0.0000
  o =  0.9417  v =  0.0000  0.0000  0.0000  0.0000  1.0000  0.0000  0.0000  0.0000  0.0000  0.0000      0.0000  0.0000  0.0000  0.0000  0.0000  0.0000  0.0000  0.0000  0.0000  0.0000
  o =  0.9763  v =  0.0000  0.7071  0.0000 -0.7071  0.0000  0.0000  0.0000  0.0000  0.0000  0.0000      0.0000  0.0000  0.0000  0.0000  0.0000  0.0000  0.0000  0.0000  0.0000  0.0000
  o =  0.9872  v = -0.8047  0.0000  0.5937  0.0000 -0.0000  0.0000  0.0000  0.0000  0.0000  0.0000      0.0000  0.0000  0.0000  0.0000  0.0000  0.0000  0.0000  0.0000  0.0000  0.0000
     EDDAV:  cpu time    0.1691: real time    0.1691
       DOS:  cpu time    0.0001: real time    0.0001
    CHARGE:  cpu time    0.0706: real time    0.0706
    MIXING:  cpu time    0.0007: real time    0.0007
    --------------------------------------------
      LOOP:  cpu time    1.5311: real time    1.5311

 eigenvalue-minimisations  :   348
 total energy-change (2. order) : 0.2340722E-01  (-0.9328327E-01)
 number of electron      54.0000007 magnetization      -0.0000000
 augmentation part       20.0794913 magnetization      -0.0000000

 Broyden mixing:
  rms(total) = 0.18341E+00    rms(broyden)= 0.18332E+00
  rms(prec ) = 0.27480E+00
  weight for this iteration     100.00

 eigenvalues of (default mixing * dielectric matrix)
  average eigenvalue GAMMA=   1.1568
  3.1199  0.9808  0.9808  0.6375  0.6375  0.5846

 Free energy of the ion-electron system (eV)
  ---------------------------------------------------
  alpha Z        PSCENC =       199.34329717
  Ewald energy   TEWEN  =     -4202.95193742
  -Hartree energ DENC   =     -2145.56971844
  -exchange      EXHF   =         0.00000000
  -V(xc)+E(xc)   XCENC  =       165.77548265
  PAW double counting   =      6599.62810873    -6565.76882828
  entropy T*S    EENTRO =        -0.00000000
  eigenvalues    EBANDS =      -807.53103827
  atomic energy  EATOM  =      6689.01075358
  Solvation  Ediel_sol  =         0.00000000
  ---------------------------------------------------
  free energy    TOTEN  =       -68.06388028 eV

  energy without entropy =      -68.06388028  energy(sigma->0) =      -68.06388028


--------------------------------------------------------------------------------------------------------




--------------------------------------- Iteration      1(  12)  ---------------------------------------


    POTLOK:  cpu time    0.0324: real time    0.0324
    SETDIJ:  cpu time    1.2602: real time    1.2602
atom =   1  type =  1  l = 2
 
 onsite density matrix
 
spin component  1
 
  0.0451  0.0000  0.0231  0.0000  0.0000
  0.0000  0.0450  0.0000  0.0241  0.0000
  0.0231  0.0000  0.0348  0.0000 -0.0000
  0.0000  0.0241  0.0000  0.0450  0.0000
  0.0000  0.0000 -0.0000  0.0000  0.0185
 
spin component  2
 
  0.9672  0.0000  0.0242  0.0000 -0.0000
  0.0000  0.9573  0.0000  0.0173  0.0000
  0.0242  0.0000  0.9530  0.0000  0.0000
  0.0000  0.0173  0.0000  0.9573  0.0000
 -0.0000  0.0000  0.0000  0.0000  0.9395
 
 occupancies and eigenvectors
 
  o =  0.0163  v = -0.6254 -0.0000  0.7803  0.0000  0.0000  0.0000  0.0000  0.0000  0.0000  0.0000      0.0000  0.0000  0.0000  0.0000  0.0000  0.0000  0.0000  0.0000  0.0000  0.0000
[...]
     35      10.3096      0.00000
     36      12.2978      0.00000

 k-point     2 :       0.2500    0.2500    0.3333
  band No.  band energies     occupation 
      1     -49.2506      1.00000
      2     -49.2047      1.00000
      3     -49.1892      1.00000
      4     -42.7426      1.00000
      5     -42.6901      1.00000
      6     -42.6678      1.00000
      7     -22.7133      1.00000
      8     -22.5238      1.00000
      9     -22.4972      1.00000
     10     -22.4525      1.00000
     11      -4.5717      1.00000
     12      -4.2214      1.00000
     13      -4.0001      1.00000
     14      -3.9082      1.00000
     15      -3.6352      1.00000
     16      -3.5230      1.00000
     17      -3.0526      1.00000
     18      -3.0284      1.00000
     19      -2.7836      1.00000
     20      -2.2675      1.00000
     21      -2.2570      1.00000
     22      -1.9934      1.00000
     23       0.7841      1.00000
     24       0.8041      1.00000
     25       0.9778      1.00000
     26       1.7995      1.00000
     27       2.2398      1.00000
     28       6.4258      0.00000
     29       6.4803      0.00000
     30       6.5050      0.00000
     31       7.1140      0.00000
     32       7.6423      0.00000
     33       8.8666      0.00000
     34      11.5069      0.00000
     35      11.5981      0.00000
     36      12.5009      0.00000

 spin component 2

 k-point     1 :       0.2500    0.2500    0.0000
  band No.  band energies     occupation 
      1     -49.2533      1.00000
      2     -49.1902      1.00000
      3     -49.1890      1.00000
      4     -42.7481      1.00000
      5     -42.6694      1.00000
      6     -42.6643      1.00000
      7     -22.8643      1.00000
      8     -22.6310      1.00000
      9     -22.4494      1.00000
     10     -22.4170      1.00000
     11      -4.8919      1.00000
     12      -4.4859      1.00000
     13      -3.7633      1.00000
     14      -3.5925      1.00000
     15      -3.1673      1.00000
     16      -3.1588      1.00000
     17      -3.0257      1.00000
     18      -3.0061      1.00000
     19      -2.5071      1.00000
     20      -2.4973      1.00000
     21      -2.0997      1.00000
     22      -1.8365      1.00000
     23       0.6220      1.00000
     24       0.8296      1.00000
     25       1.0323      1.00000
     26       1.9212      1.00000
     27       2.2620      1.00000
     28       6.0011      0.00000
     29       6.4541      0.00000
     30       6.6130      0.00000
     31       6.6165      0.00000
     32       7.7372      0.00000
     33       7.8190      0.00000
     34       9.6851      0.00000
     35      10.0706      0.00000
     36      12.6433      0.00000

 k-point     2 :       0.2500    0.2500    0.3333
  band No.  band energies     occupation 
      1     -49.2506      1.00000
      2     -49.2047      1.00000
      3     -49.1892      1.00000
      4     -42.7426      1.00000
      5     -42.6901      1.00000
      6     -42.6678      1.00000
      7     -22.6931      1.00000
      8     -22.5735      1.00000
      9     -22.4930      1.00000
     10     -22.4271      1.00000
     11      -4.6407      1.00000
     12      -4.2084      1.00000
     13      -4.0897      1.00000
     14      -3.8925      1.00000
     15      -3.7265      1.00000
     16      -3.4378      1.00000
     17      -3.0216      1.00000
     18      -2.8813      1.00000
     19      -2.7348      1.00000
     20      -2.3097      1.00000
     21      -2.2076      1.00000
     22      -1.9954      1.00000
     23       0.8035      1.00000
     24       0.8356      1.00000
     25       0.9981      1.00000
     26       1.7056      1.00000
     27       2.0613      1.00000
     28       6.4309      0.00000
     29       6.4346      0.00000
     30       6.4906      0.00000
     31       7.3624      0.00000
     32       7.7973      0.00000
     33       8.5293      0.00000
     34      11.4600      0.00000
     35      11.7095      0.00000
     36      12.5623      0.00000


--------------------------------------------------------------------------------------------------------


 soft charge-density along one line, spin component           1
         0         1         2         3         4         5         6         7         8         9
 total charge-density along one line
 
 soft charge-density along one line, spin component           2
         0         1         2         3         4         5         6         7         8         9
 total charge-density along one line
 
 pseudopotential strength for first ion, spin component:           1
-45.230   0.000  -0.038   7.800  -0.000   0.016  -0.000   0.000
  0.000 -45.196   0.000  -0.000   7.785  -0.000   0.000   0.000
 -0.038   0.000 -45.230   0.016  -0.000   7.800   0.000   0.000
  7.800  -0.000   0.016   5.590   0.000   0.005  -0.000  -0.000
 -0.000   7.785  -0.000   0.000   5.584   0.000  -0.000   0.000
  0.016  -0.000   7.800   0.005   0.000   5.590   0.000  -0.000
 -0.000   0.000   0.000  -0.000  -0.000   0.000  -2.987   0.000
  0.000   0.000   0.000  -0.000   0.000  -0.000   0.000  -2.968
 -0.000   0.000   0.000   0.000  -0.000   0.000   0.019   0.000
  0.000   0.000   0.000  -0.000   0.000  -0.000   0.000  -0.018
  0.000   0.000  -0.000  -0.000  -0.000  -0.000  -0.000  -0.000
 -0.000   0.000   0.000  -0.000  -0.000  -0.000  -3.502   0.000
  0.000   0.000   0.000  -0.000   0.000  -0.000   0.000  -3.484
 -0.000   0.000   0.000   0.000  -0.000   0.000   0.018   0.000
  0.000   0.000   0.000  -0.000   0.000  -0.000   0.000  -0.018
  0.000   0.000  -0.000  -0.000  -0.000  -0.000  -0.000  -0.000
  0.000  -0.000   0.000   0.000  -0.000  -0.000   0.011  -0.000
  0.000  -0.000   0.000   0.000  -0.000  -0.000   0.022  -0.000
 pseudopotential strength for first ion, spin component:           2
-50.983   0.000  -0.004   9.799  -0.000   0.016   0.000   0.000
  0.000 -50.983   0.000  -0.000   9.784  -0.000   0.000   0.000
 -0.004   0.000 -50.983   0.016  -0.000   9.799  -0.000   0.000
  9.799  -0.000   0.016   4.706   0.000   0.001  -0.000  -0.000
 -0.000   9.784  -0.000   0.000   4.706   0.000  -0.000  -0.000
  0.016  -0.000   9.799   0.001   0.000   4.706  -0.000  -0.000
  0.000   0.000  -0.000  -0.000  -0.000  -0.000  -7.339   0.000
  0.000   0.000   0.000  -0.000  -0.000  -0.000   0.000  -7.330
  0.000   0.000  -0.000  -0.000  -0.000   0.000  -0.009   0.000
  0.000  -0.000   0.000  -0.000   0.000  -0.000   0.000  -0.027
 -0.000   0.000   0.000  -0.000  -0.000  -0.000   0.000  -0.000
  0.000   0.000  -0.000  -0.000  -0.000  -0.000  -7.809   0.000
  0.000   0.000   0.000  -0.000  -0.000  -0.000   0.000  -7.801
  0.000   0.000  -0.000  -0.000  -0.000   0.000  -0.009   0.000
  0.000  -0.000   0.000  -0.000   0.000  -0.000   0.000  -0.027
 -0.000   0.000   0.000  -0.000  -0.000  -0.000   0.000  -0.000
  0.000  -0.000  -0.000  -0.000  -0.000   0.000   0.011  -0.000
  0.000  -0.000  -0.000  -0.000  -0.000   0.000   0.023  -0.000
 total augmentation occupancy for first ion, spin component:           1
  2.001   0.000   0.000  -0.013   0.000   0.001   0.000   0.000   0.000   0.000   0.000   0.000   0.000   0.000   0.000   0.000
  0.000   2.001   0.000   0.000  -0.013   0.000   0.000   0.000   0.000   0.000   0.000   0.000   0.000   0.000   0.000   0.000
  0.000   0.000   2.001   0.001   0.000  -0.013   0.000   0.000   0.000   0.000   0.000   0.000   0.000   0.000   0.000   0.000
 -0.013   0.000   0.001   0.080   0.000  -0.009   0.000   0.000   0.000   0.000   0.000   0.000   0.000   0.000   0.000   0.000
  0.000  -0.013   0.000   0.000   0.090   0.000   0.000   0.000   0.000   0.000   0.000   0.000   0.000   0.000   0.000   0.000
  0.001   0.000  -0.013  -0.009   0.000   0.080   0.000   0.000   0.000   0.000   0.000   0.000   0.000   0.000   0.000   0.000
  0.000   0.000   0.000   0.000   0.000   0.000   7.750   0.000   2.993   0.000   0.000  -5.779   0.000  -2.815   0.000  -0.000
  0.000   0.000   0.000   0.000   0.000   0.000   0.000   6.566   0.000   2.534   0.000   0.000  -4.636   0.000  -2.380   0.000
  0.000   0.000   0.000   0.000   0.000   0.000   2.993   0.000   5.947   0.000  -0.000  -2.816   0.000  -4.089   0.000   0.000
  0.000   0.000   0.000   0.000   0.000   0.000   0.000   2.534   0.000   6.566   0.000   0.000  -2.380   0.000  -4.636   0.000
  0.000   0.000   0.000   0.000   0.000   0.000  -0.000   0.000   0.000   0.000   3.896   0.000   0.000  -0.000   0.000  -2.114
  0.000   0.000   0.000   0.000   0.000   0.000  -5.779   0.000  -2.816   0.000  -0.000   4.981   0.000   2.683   0.000  -0.000
  0.000   0.000   0.000   0.000   0.000   0.000   0.000  -4.636   0.000  -2.380   0.000   0.000   3.870   0.000   2.262   0.000
  0.000   0.000   0.000   0.000   0.000   0.000  -2.815   0.000  -4.089   0.000  -0.000   2.683   0.000   3.380   0.000   0.000
  0.000   0.000   0.000   0.000   0.000   0.000   0.000  -2.380   0.000  -4.636   0.000   0.000   2.262   0.000   3.870   0.000
  0.000   0.000   0.000   0.000   0.000   0.000  -0.000   0.000   0.000   0.000  -2.114   0.000   0.000   0.000   0.000   1.457
  0.000   0.000   0.000   0.000   0.000   0.000   0.450   0.000  -0.290   0.000  -0.000  -0.427   0.000   0.270   0.000   0.000
  0.000   0.000   0.000   0.000   0.000   0.000  -0.094   0.000   0.067   0.000   0.000   0.099   0.000  -0.066   0.000   0.000
 total augmentation occupancy for first ion, spin component:           2
  0.004   0.000  -0.000   0.017   0.000  -0.001   0.000   0.000   0.000   0.000   0.000   0.000   0.000   0.000   0.000   0.000
  0.000   0.004   0.000   0.000   0.018   0.000   0.000   0.000   0.000   0.000   0.000   0.000   0.000   0.000   0.000   0.000
 -0.000   0.000   0.004  -0.001   0.000   0.017   0.000   0.000   0.000   0.000   0.000   0.000   0.000   0.000   0.000   0.000
  0.017   0.000  -0.001  -0.011   0.000  -0.000   0.000   0.000   0.000   0.000   0.000   0.000   0.000   0.000   0.000   0.000
  0.000   0.018   0.000   0.000  -0.010   0.000   0.000   0.000   0.000   0.000   0.000   0.000   0.000   0.000   0.000   0.000
 -0.001   0.000   0.017  -0.000   0.000  -0.011   0.000   0.000   0.000   0.000   0.000   0.000   0.000   0.000   0.000   0.000
  0.000   0.000   0.000   0.000   0.000   0.000  -5.095   0.000  -1.489   0.000   0.000   2.723   0.000   1.093   0.000   0.000
  0.000   0.000   0.000   0.000   0.000   0.000   0.000  -4.554   0.000  -1.278   0.000   0.000   2.304   0.000   0.940   0.000
  0.000   0.000   0.000   0.000   0.000   0.000  -1.489   0.000  -4.143   0.000   0.000   1.093   0.000   2.008   0.000  -0.000
  0.000   0.000   0.000   0.000   0.000   0.000   0.000  -1.278   0.000  -4.554   0.000   0.000   0.940   0.000   2.304   0.000
  0.000   0.000   0.000   0.000   0.000   0.000  -0.000   0.000   0.000   0.000  -3.258   0.000   0.000  -0.000   0.000   1.357
  0.000   0.000   0.000   0.000   0.000   0.000   2.723   0.000   1.093   0.000   0.000  -1.453   0.000  -0.703   0.000   0.000
  0.000   0.000   0.000   0.000   0.000   0.000   0.000   2.304   0.000   0.940   0.000   0.000  -1.159   0.000  -0.609   0.000
  0.000   0.000   0.000   0.000   0.000   0.000   1.093   0.000   2.008   0.000   0.000  -0.703   0.000  -0.971   0.000   0.000
  0.000   0.000   0.000   0.000   0.000   0.000   0.000   0.940   0.000   2.304   0.000   0.000  -0.609   0.000  -1.159   0.000
  0.000   0.000   0.000   0.000   0.000   0.000  -0.000   0.000   0.000   0.000   1.357  -0.000   0.000   0.000   0.000  -0.557
  0.000   0.000   0.000   0.000   0.000   0.000  -0.102   0.000   0.051   0.000  -0.000   0.024   0.000   0.004   0.000  -0.000
  0.000   0.000   0.000   0.000   0.000   0.000   0.000   0.000  -0.005   0.000   0.000   0.009   0.000  -0.004   0.000  -0.000


------------------------ aborting loop because EDIFF is reached ----------------------------------------


 


 total charge     
 
# of ion       s       p       d       tot
------------------------------------------
    1        0.166   6.151   4.961  11.278
    2        0.175   6.142   4.974  11.291
    3        1.731   4.403   0.000   6.134
    4        1.731   4.403   0.000   6.134
    5        1.730   4.396   0.000   6.126
    6        1.730   4.396   0.000   6.126
--------------------------------------------------
tot          7.263  29.890   9.935  47.088
 


 magnetization (x)
 
# of ion       s       p       d       tot
------------------------------------------
    1       -0.022  -0.018  -4.583  -4.623
    2        0.024   0.015   4.577   4.615
    3        0.002   0.027   0.000   0.029
    4        0.002   0.027   0.000   0.029
    5       -0.004  -0.019   0.000  -0.023
    6       -0.004  -0.019   0.000  -0.023
--------------------------------------------------
tot         -0.001   0.012  -0.006   0.005
 
    CHARGE:  cpu time    0.0242: real time    0.0242
    FORLOC:  cpu time    0.0011: real time    0.0011
    FORNL :  cpu time    0.1075: real time    0.1075
    STRESS:  cpu time    0.7685: real time    0.7685
    FORCOR:  cpu time    0.0297: real time    0.0297
    FORHAR:  cpu time    0.0021: real time    0.0021
    MIXING:  cpu time    0.0016: real time    0.0016
    OFIELD:  cpu time    0.0000: real time    0.0000

  FORCE on cell =-STRESS in cart. coord.  units (eV):
  Direction    XX          YY          ZZ          XY          YZ          ZX
  --------------------------------------------------------------------------------------
  Alpha Z   199.34330   199.34330   199.34330
  Ewald   -1585.47219 -1585.47219 -1032.01103    -0.00000     0.00000     0.00000
  Hartree   594.40884   594.40884   968.70976    -0.00000    -0.00000    -0.00000
  E(xc)    -150.53725  -150.53725  -150.65622    -0.03301    -0.02996    -0.02996
  Local     162.81595   162.81595  -758.22406    -0.00000    -0.00000     0.00000
  n-local  -310.14426  -310.14426  -309.28230     0.03754     0.12867     0.12869
  augment   158.50965   158.50965   158.06504    -0.00000    -0.00000     0.00000
  Kinetic   931.06419   931.06419   924.06117    -0.88396    -0.93470    -0.93470
  Fock        0.00000     0.00000     0.00000     0.00000     0.00000     0.00000
  -------------------------------------------------------------------------------------
  Total      -0.01176    -0.01176     0.00566    -0.00000     0.00000     0.00000
  in kB      -0.24337    -0.24337     0.11705    -0.00000     0.00000     0.00000
  external pressure =       -0.12 kB  Pullay stress =        0.00 kB


 VOLUME and BASIS-vectors are now :
 -----------------------------------------------------------------------------
  energy-cutoff  :      600.00
  volume of cell :       77.44
      direct lattice vectors                 reciprocal lattice vectors
     4.852420222  0.000000000  0.000000000     0.206082729  0.000000000  0.000000000
     0.000000000  4.852420222  0.000000000     0.000000000  0.206082729  0.000000000
     0.000000000  0.000000000  3.288956672     0.000000000  0.000000000  0.304047788

  length of vectors
     4.852420222  4.852420222  3.288956672     0.206082729  0.206082729  0.304047788


 FORCES acting on ions
    electron-ion (+dipol)            ewald-force                    non-local-force                 convergence-correction
 -----------------------------------------------------------------------------------------------
   -.177E-11 0.656E-11 -.698E-13   0.568E-13 0.284E-13 0.349E-14   0.000E+00 0.000E+00 0.000E+00   0.416E-14 0.921E-14 0.120E-12
   -.298E-13 -.202E-13 0.288E-13   0.114E-12 0.171E-12 0.872E-15   0.000E+00 0.000E+00 0.000E+00   0.231E-14 -.217E-13 -.155E-12
   -.323E+02 0.323E+02 0.133E-11   0.334E+02 -.334E+02 -.732E-14   -.118E+01 0.118E+01 -.217E-18   -.920E-06 0.920E-06 0.462E-13
   0.323E+02 -.323E+02 0.116E-10   -.334E+02 0.334E+02 -.756E-14   0.118E+01 -.118E+01 0.217E-18   0.920E-06 -.920E-06 0.535E-13
   0.323E+02 0.323E+02 0.468E-08   -.334E+02 -.334E+02 -.266E-14   0.118E+01 0.118E+01 -.217E-18   0.920E-06 0.920E-06 -.850E-12
   -.323E+02 -.323E+02 -.469E-08   0.334E+02 0.334E+02 -.296E-14   -.118E+01 -.118E+01 0.217E-18   -.920E-06 -.920E-06 0.732E-12
 -----------------------------------------------------------------------------------------------
   0.327E-12 0.637E-11 0.573E-11   0.000E+00 0.000E+00 -.161E-13   0.000E+00 0.000E+00 0.000E+00   -.197E-13 0.465E-14 -.541E-13
 
 
 POSITION                                       TOTAL-FORCE (eV/Angst)
 -----------------------------------------------------------------------------------
      2.42621      2.42621      1.64448         0.000000     -0.000000      0.000000
      0.00000      0.00000      0.00000         0.000000     -0.000000      0.000000
      0.95187      3.90055      1.64448         0.003153     -0.003153     -0.000000
      3.90055      0.95187      1.64448        -0.003153      0.003153      0.000000
      1.47434      1.47434      0.00000        -0.003153     -0.003153     -0.000000
      3.37808      3.37808      0.00000         0.003153      0.003153      0.000000
 -----------------------------------------------------------------------------------
    total drift:                                0.000000      0.000000      0.000000


--------------------------------------------------------------------------------------------------------



  FREE ENERGIE OF THE ION-ELECTRON SYSTEM (eV)
  ---------------------------------------------------
  free  energy   TOTEN  =       -68.02313454 eV

  energy  without entropy=      -68.02313454  energy(sigma->0) =      -68.02313454
 


--------------------------------------------------------------------------------------------------------


    POTLOK:  cpu time    0.8109: real time    0.8109


--------------------------------------------------------------------------------------------------------




--------------------------------------------------------------------------------------------------------


  
 reached required accuracy - stopping structural energy minimisation
     LOOP+:  cpu time   35.3526: real time   35.3723
    4ORBIT:  cpu time    0.0000: real time    0.0000
 


 total charge     
 
# of ion       s       p       d       tot
------------------------------------------
    1        0.166   6.151   4.961  11.278
    2        0.175   6.142   4.974  11.291
    3        1.731   4.403   0.000   6.134
    4        1.731   4.403   0.000   6.134
    5        1.730   4.396   0.000   6.126
    6        1.730   4.396   0.000   6.126
--------------------------------------------------
tot          7.263  29.890   9.935  47.088
 


 magnetization (x)
 
# of ion       s       p       d       tot
------------------------------------------
    1       -0.022  -0.018  -4.583  -4.623
    2        0.024   0.015   4.577   4.615
    3        0.002   0.027   0.000   0.029
    4        0.002   0.027   0.000   0.029
    5       -0.004  -0.019   0.000  -0.023
    6       -0.004  -0.019   0.000  -0.023
--------------------------------------------------
tot         -0.001   0.012  -0.006   0.005
 

 total amount of memory used by VASP MPI-rank0    38123. kBytes
=======================================================================

   base      :      30000. kBytes
   nonl-proj :       1733. kBytes
   fftplans  :       1875. kBytes
   grid      :       3820. kBytes
   one-center:        186. kBytes
   wavefun   :        509. kBytes
 
  
  
 General timing and accounting informations for this job:
 ========================================================
  
                  Total CPU time used (sec):       36.317
                            User time (sec):       21.673
                          System time (sec):       14.644
                         Elapsed time (sec):       36.412
  
                   Maximum memory used (kb):       56972.
                   Average memory used (kb):           0.
  
                          Minor page faults:         9280
                          Major page faults:            8
                 Voluntary context switches:          379
