       N       E                     dE             d eps       ncg     rms          rms(c)
DAV:   1     0.107704178734E+04    0.10770E+04   -0.46472E+04  1296   0.267E+03
DAV:   2     0.423592439733E+03   -0.65345E+03   -0.62603E+03  1524   0.620E+02
DAV:   3     0.381386732660E+03   -0.42206E+02   -0.41433E+02  1524   0.160E+02
DAV:   4     0.380779457070E+03   -0.60728E+00   -0.60682E+00  1500   0.212E+01
DAV:   5     0.380769959555E+03   -0.94975E-02   -0.94971E-02  1548   0.246E+00    0.593E+01
DAV:   6    -0.683755664527E+02   -0.44915E+03   -0.31471E+02  1596   0.216E+02    0.636E+01
DAV:   7    -0.711807431387E+02   -0.28052E+01   -0.49609E+01  1380   0.452E+01    0.169E+01
DAV:   8    -0.686301237541E+02    0.25506E+01   -0.73502E+00  1536   0.227E+01    0.608E+00
DAV:   9    -0.681658475196E+02    0.46428E+00   -0.36463E+00  1380   0.168E+01    0.778E+00
DAV:  10    -0.681259808723E+02    0.39867E-01   -0.32414E-01  1464   0.458E+00    0.536E+00
DAV:  11    -0.680827522367E+02    0.43229E-01   -0.46582E-01  1464   0.607E+00    0.128E+00
DAV:  12    -0.680690339305E+02    0.13718E-01   -0.34800E-02  1368   0.178E+00    0.844E-01
DAV:  13    -0.680644699694E+02    0.45640E-02   -0.27485E-02  1560   0.102E+00    0.803E-01
DAV:  14    -0.680601492673E+02    0.43207E-02   -0.32268E-02  1296   0.203E+00    0.244E-01
DAV:  15    -0.680610917838E+02   -0.94252E-03   -0.31541E-03  1440   0.418E-01    0.292E-01
DAV:  16    -0.680611270415E+02   -0.35258E-04   -0.36261E-03  1428   0.403E-01    0.125E-01
DAV:  17    -0.680609825545E+02    0.14449E-03   -0.51165E-04  1332   0.262E-01    0.787E-02
DAV:  18    -0.680607538211E+02    0.22873E-03   -0.36672E-04  1380   0.116E-01    0.224E-02
DAV:  19    -0.680607299396E+02    0.23882E-04   -0.55986E-05  1344   0.719E-02    0.938E-03
DAV:  20    -0.680607551760E+02   -0.25236E-04   -0.49830E-06  1620   0.138E-02    0.476E-03
DAV:  21    -0.680607600720E+02   -0.48961E-05   -0.25581E-07  1320   0.505E-03    0.443E-03
DAV:  22    -0.680607563491E+02    0.37229E-05   -0.40870E-07  1116   0.426E-03    0.303E-03
DAV:  23    -0.680607568951E+02   -0.54594E-06   -0.15834E-07  1044   0.238E-03    0.145E-03
DAV:  24    -0.680607578467E+02   -0.95160E-06   -0.56684E-08   648   0.161E-03    0.321E-04
DAV:  25    -0.680607582488E+02   -0.40218E-06   -0.17507E-08   648   0.824E-04    0.165E-04
DAV:  26    -0.680607582761E+02   -0.27284E-07   -0.37173E-09   648   0.380E-04
   1 F= -.68060758E+02 E0= -.68060758E+02  d E =-.680608E+02  mag=     0.0000
       N       E                     dE             d eps       ncg     rms          rms(c)
DAV:   1    -0.680624270172E+02   -0.16688E-02   -0.34368E-02  1296   0.169E+00    0.351E-01
DAV:   2    -0.680606084300E+02    0.18186E-02   -0.30955E-03  1296   0.465E-01    0.210E-01
DAV:   3    -0.680607205865E+02   -0.11216E-03   -0.11297E-03  1344   0.237E-01    0.752E-02
DAV:   4    -0.680608438466E+02   -0.12326E-03   -0.56534E-05  1524   0.704E-02    0.625E-02
DAV:   5    -0.680608474581E+02   -0.36116E-05   -0.13319E-04  1584   0.741E-02    0.395E-02
DAV:   6    -0.680608348689E+02    0.12589E-04   -0.29809E-05  1452   0.409E-02    0.121E-02
DAV:   7    -0.680608399966E+02   -0.51277E-05   -0.34925E-05  1512   0.352E-02    0.154E-02
DAV:   8    -0.680608312470E+02    0.87496E-05   -0.57475E-06  1356   0.184E-02    0.454E-03
DAV:   9    -0.680608312956E+02   -0.48582E-07   -0.27429E-06  1572   0.933E-03    0.855E-04
DAV:  10    -0.680608313926E+02   -0.96986E-07   -0.36327E-07  1248   0.318E-03
   2 F= -.68060831E+02 E0= -.68060831E+02  d E =-.731165E-04  mag=    -0.0000
