 vasp.5.4.4.18Apr17-6-g9f103f2a35 (build Apr 27 2017 11:13:10) complex          
  
 executed on           IFC91_ompi date 2020.05.13  12:04:07
 running on   12 total cores
 distrk:  each k-point on   12 cores,    1 groups
 distr:  one band on NCORES_PER_BAND=   1 cores,   12 groups


--------------------------------------------------------------------------------------------------------


 INCAR:
 POTCAR:    PAW_PBE Mn_pv 02Aug2007               
 POTCAR:    PAW_PBE F 08Apr2002                   

 ----------------------------------------------------------------------------- 
|                                                                             |
|           W    W    AA    RRRRR   N    N  II  N    N   GGGG   !!!           |
|           W    W   A  A   R    R  NN   N  II  NN   N  G    G  !!!           |
|           W    W  A    A  R    R  N N  N  II  N N  N  G       !!!           |
|           W WW W  AAAAAA  RRRRR   N  N N  II  N  N N  G  GGG   !            |
|           WW  WW  A    A  R   R   N   NN  II  N   NN  G    G                |
|           W    W  A    A  R    R  N    N  II  N    N   GGGG   !!!           |
|                                                                             |
|      For optimal performance we recommend to set                            |
|        NCORE= 4 - approx SQRT( number of cores)                             |
|      NCORE specifies how many cores store one orbital (NPAR=cpu/NCORE).     |
|      This setting can  greatly improve the performance of VASP for DFT.     |
|      The default,   NCORE=1            might be grossly inefficient         |
|      on modern multi-core architectures or massively parallel machines.     |
|      Do your own testing !!!!                                               |
|      Unfortunately you need to use the default for GW and RPA calculations. |
|      (for HF NCORE is supported but not extensively tested yet)             |
|                                                                             |
 ----------------------------------------------------------------------------- 

 POTCAR:    PAW_PBE Mn_pv 02Aug2007               
   VRHFIN =Mn: 3p4s3d                                                           
   LEXCH  = PE                                                                  
   EATOM  =  2025.2664 eV,  148.8529 Ry                                         
                                                                                
   TITEL  = PAW_PBE Mn_pv 02Aug2007                                             
   LULTRA =        F    use ultrasoft PP ?                                      
   IUNSCR =        1    unscreen: 0-lin 1-nonlin 2-no                           
   RPACOR =    2.080    partial core radius                                     
   POMASS =   54.938; ZVAL   =   13.000    mass and valenz                      
   RCORE  =    2.300    outmost cutoff radius                                   
   RWIGS  =    2.500; RWIGS  =    1.323    wigner-seitz radius (au A)           
   ENMAX  =  269.864; ENMIN  =  202.398 eV                                      
   ICORE  =        3    local potential                                         
   LCOR   =        T    correct aug charges                                     
   LPAW   =        T    paw PP                                                  
   EAUG   =  569.085                                                            
   DEXC   =    0.000                                                            
   RMAX   =    2.343    core radius for proj-oper                               
   RAUG   =    1.300    factor for augmentation sphere                          
   RDEP   =    2.338    radius for radial grids                                 
   RDEPT  =    1.798    core radius for aug-charge                              
                                                                                
   Atomic configuration                                                         
    8 entries                                                                   
     n  l   j            E        occ.                                          
     1  0  0.50     -6424.8287   2.0000                                         
     2  0  0.50      -739.1154   2.0000                                         
     2  1  1.50      -625.3949   6.0000                                         
     3  0  0.50       -81.6100   2.0000                                         
     3  1  1.50       -50.4667   6.0000                                         
     3  2  2.50        -3.3745   6.0000                                         
     4  0  0.50        -4.1331   1.0000                                         
     4  3  2.50        -1.3606   0.0000                                         
   Description                                                                  
     l       E           TYP  RCUT    TYP  RCUT                                 
     1    -50.4666628     23  2.000                                             
     1     -1.3605826     23  2.000                                             
     2     -3.3744729     23  2.300                                             
     2     -4.7350555     23  2.300                                             
     0     -4.1331431     23  2.300                                             
     0      7.6656591     23  2.300                                             
     3      9.5240782     23  2.300                                             
  local pseudopotential read in
  partial core-charges read in
  partial kinetic energy density read in
  atomic valenz-charges read in
  non local Contribution for L=           1  read in
    real space projection operators read in
  non local Contribution for L=           1  read in
    real space projection operators read in
  non local Contribution for L=           2  read in
    real space projection operators read in
  non local Contribution for L=           2  read in
    real space projection operators read in
  non local Contribution for L=           0  read in
    real space projection operators read in
  non local Contribution for L=           0  read in
    real space projection operators read in
    PAW grid and wavefunctions read in
 
   number of l-projection  operators is LMAX  =           6
   number of lm-projection operators is LMMAX =          18
 
 POTCAR:    PAW_PBE F 08Apr2002                   
   VRHFIN =F: s2p5                                                              
   LEXCH  = PE                                                                  
   EATOM  =   659.6475 eV,   48.4827 Ry                                         
                                                                                
   TITEL  = PAW_PBE F 08Apr2002                                                 
   LULTRA =        F    use ultrasoft PP ?                                      
   IUNSCR =        1    unscreen: 0-lin 1-nonlin 2-no                           
   RPACOR =    1.200    partial core radius                                     
   POMASS =   18.998; ZVAL   =    7.000    mass and valenz                      
   RCORE  =    1.520    outmost cutoff radius                                   
   RWIGS  =    1.500; RWIGS  =    0.794    wigner-seitz radius (au A)           
   ENMAX  =  400.000; ENMIN  =  300.000 eV                                      
   ICORE  =        2    local potential                                         
   LCOR   =        T    correct aug charges                                     
   LPAW   =        T    paw PP                                                  
   EAUG   =  613.614                                                            
   RMAX   =    1.555    core radius for proj-oper                               
   RAUG   =    1.300    factor for augmentation sphere                          
   RDEP   =    1.539    radius for radial grids                                 
   RDEPT  =    1.299    core radius for aug-charge                              
                                                                                
   Atomic configuration                                                         
    4 entries                                                                   
     n  l   j            E        occ.                                          
     1  0  0.50      -663.3661   2.0000                                         
     2  0  0.50       -29.8995   2.0000                                         
     2  1  0.50       -11.1114   5.0000                                         
     3  2  1.50       -10.8847   0.0000                                         
   Description                                                                  
     l       E           TYP  RCUT    TYP  RCUT                                 
     0    -29.8995018     23  1.200                                             
     0     -9.5240782     23  1.200                                             
     1    -11.1113914     23  1.520                                             
     1      1.3605826     23  1.520                                             
     2    -10.8846608      7  1.500                                             
  local pseudopotential read in
  partial core-charges read in
  partial kinetic energy density read in
  atomic valenz-charges read in
  non local Contribution for L=           0  read in
    real space projection operators read in
  non local Contribution for L=           0  read in
    real space projection operators read in
  non local Contribution for L=           1  read in
    real space projection operators read in
  non local Contribution for L=           1  read in
    real space projection operators read in
    PAW grid and wavefunctions read in
 
   number of l-projection  operators is LMAX  =           4
   number of lm-projection operators is LMMAX =           8
 
  PAW_PBE Mn_pv 02Aug2007               :
 energy of atom  1       EATOM=-2025.2664
 kinetic energy error for atom=    0.0009 (will be added to EATOM!!)
  PAW_PBE F 08Apr2002                   :
 energy of atom  2       EATOM= -659.6475
 kinetic energy error for atom=    0.0038 (will be added to EATOM!!)
 
 
 POSCAR: Mn  F                                   
  positions in cartesian coordinates
  No initial velocities read in

 METAGGA = SCAN     LMAXTAU =  6    LMIXTAU =  F

 exchange correlation table for  LEXCH =        8
   RHO(1)=    0.500       N(1)  =     2000
   RHO(2)=  100.500       N(2)  =     4000
 


--------------------------------------------------------------------------------------------------------


 ion  position               nearest neighbor table
   1  0.500  0.500  0.500-   3 2.09   4 2.09   5 2.12   6 2.12   5 2.12   6 2.12
   2  0.000  0.000  0.000-   5 2.09   6 2.09   3 2.12   4 2.12   3 2.12   4 2.12
   3  0.196  0.804  0.500-   1 2.09   2 2.12   2 2.12
   4  0.804  0.196  0.500-   1 2.09   2 2.12   2 2.12
   5  0.304  0.304  0.000-   2 2.09   1 2.12   1 2.12
   6  0.696  0.696  0.000-   2 2.09   1 2.12   1 2.12
 
  LATTYP: Found a simple tetragonal cell.
 ALAT       =     4.8525685001
 C/A-ratio  =     0.6775817662
  
  Lattice vectors:
  
 A1 = (   4.8525685001,   0.0000000000,   0.0000000000)
 A2 = (   0.0000000000,   4.8525685001,   0.0000000000)
 A3 = (   0.0000000000,   0.0000000000,   3.2880119349)


Analysis of symmetry for initial positions (statically):
=====================================================================
 Subroutine PRICEL returns:
 Original cell was already a primitive cell.
 

 Routine SETGRP: Setting up the symmetry group for a 
 simple tetragonal supercell.


 Subroutine GETGRP returns: Found 16 space group operations
 (whereof  8 operations were pure point group operations)
 out of a pool of 16 trial point group operations.


The static configuration has the point symmetry D_2h.
 The point group associated with its full space group is D_4h.


Analysis of symmetry for dynamics (positions and initial velocities):
=====================================================================
 Subroutine PRICEL returns:
 Original cell was already a primitive cell.
 

 Routine SETGRP: Setting up the symmetry group for a 
 simple tetragonal supercell.


 Subroutine GETGRP returns: Found 16 space group operations
 (whereof  8 operations were pure point group operations)
 out of a pool of 16 trial point group operations.


The dynamic configuration has the point symmetry D_2h.
 The point group associated with its full space group is D_4h.


Analysis of structural, dynamic, and magnetic symmetry:
=====================================================================
 Subroutine PRICEL returns:
 Original cell was already a primitive cell.
 

 Routine SETGRP: Setting up the symmetry group for a 
 simple tetragonal supercell.


 Subroutine GETGRP returns: Found 16 space group operations
 (whereof  8 operations were pure point group operations)
 out of a pool of 16 trial point group operations.


The magnetic configuration has the point symmetry D_2h.
 The point group associated with its full space group is D_4h.


 Subroutine INISYM returns: Found 16 space group operations
 (whereof  8 operations are pure point group operations),
 and found     1 'primitive' translations

 
 
 KPOINTS: KPOINTS created by Atomic Simulation Env

Automatic generation of k-mesh.
Space group operators:
 irot       det(A)        alpha          n_x          n_y          n_z        tau_x        tau_y        tau_z
    1     1.000000     0.000000     1.000000     0.000000     0.000000     0.000000     0.000000     0.000000
    2    -1.000000     0.000000     1.000000     0.000000     0.000000     0.000000     0.000000     0.000000
    3     1.000000   180.000000     0.000000     0.000000     1.000000     0.000000     0.000000     0.000000
    4    -1.000000   180.000000     0.000000     0.000000     1.000000     0.000000     0.000000     0.000000
    5     1.000000   180.000000     0.707107     0.707107     0.000000     0.000000     0.000000     0.000000
    6    -1.000000   180.000000     0.707107     0.707107     0.000000     0.000000     0.000000     0.000000
    7     1.000000   180.000000     0.707107    -0.707107     0.000000     0.000000     0.000000     0.000000
    8    -1.000000   180.000000     0.707107    -0.707107     0.000000     0.000000     0.000000     0.000000
    9     1.000000    90.000000     0.000000     0.000000    -1.000000     0.500000     0.500000     0.500000
   10    -1.000000    90.000000     0.000000     0.000000    -1.000000     0.500000     0.500000     0.500000
   11     1.000000    90.000000     0.000000     0.000000     1.000000     0.500000     0.500000     0.500000
   12    -1.000000    90.000000     0.000000     0.000000     1.000000     0.500000     0.500000     0.500000
   13     1.000000   180.000000     0.000000     1.000000     0.000000     0.500000     0.500000     0.500000
   14    -1.000000   180.000000     0.000000     1.000000     0.000000     0.500000     0.500000     0.500000
   15     1.000000   180.000000     1.000000     0.000000     0.000000     0.500000     0.500000     0.500000
   16    -1.000000   180.000000     1.000000     0.000000     0.000000     0.500000     0.500000     0.500000
 
 Subroutine IBZKPT returns following result:
 ===========================================
 
 Found      9 irreducible k-points:
 
 Following reciprocal coordinates:
            Coordinates               Weight
  0.125000  0.125000  0.083333      8.000000
  0.375000  0.125000  0.083333     16.000000
  0.375000  0.375000  0.083333      8.000000
  0.125000  0.125000  0.250000      8.000000
  0.375000  0.125000  0.250000     16.000000
  0.375000  0.375000  0.250000      8.000000
  0.125000  0.125000  0.416667      8.000000
  0.375000  0.125000  0.416667     16.000000
  0.375000  0.375000  0.416667      8.000000
 
 Following cartesian coordinates:
            Coordinates               Weight
  0.025760  0.025760  0.025345      8.000000
  0.077279  0.025760  0.025345     16.000000
  0.077279  0.077279  0.025345      8.000000
  0.025760  0.025760  0.076034      8.000000
  0.077279  0.025760  0.076034     16.000000
  0.077279  0.077279  0.076034      8.000000
  0.025760  0.025760  0.126723      8.000000
  0.077279  0.025760  0.126723     16.000000
  0.077279  0.077279  0.126723      8.000000
 


--------------------------------------------------------------------------------------------------------




 Dimension of arrays:
   k-points           NKPTS =      9   k-points in BZ     NKDIM =      9   number of bands    NBANDS=     36
   number of dos      NEDOS =    301   number of ions     NIONS =      6
   non local maximal  LDIM  =      6   non local SUM 2l+1 LMDIM =     18
   total plane-waves  NPLWV =  31104
   max r-space proj   IRMAX =      1   max aug-charges    IRDMAX=  97706
   dimension x,y,z NGX =    36 NGY =   36 NGZ =   24
   dimension x,y,z NGXF=    72 NGYF=   72 NGZF=   48
   support grid    NGXF=   144 NGYF=  144 NGZF=   96
   ions per type =               2   4
   NGX,Y,Z   is equivalent  to a cutoff of  12.33, 12.33, 12.13 a.u.
   NGXF,Y,Z  is equivalent  to a cutoff of  24.67, 24.67, 24.27 a.u.

 SYSTEM =  unknown system                          
 POSCAR =  Mn  F                                   

 Startparameter for this run:
   NWRITE =      2    write-flag & timer
   PREC   = normal    normal or accurate (medium, high low for compatibility)
   ISTART =      0    job   : 0-new  1-cont  2-samecut
   ICHARG =      2    charge: 1-file 2-atom 10-const
   ISPIN  =      2    spin polarized calculation?
   LNONCOLLINEAR =      F non collinear calculations
   LSORBIT =      F    spin-orbit coupling
   INIWAV =      1    electr: 0-lowe 1-rand  2-diag
   LASPH  =      T    aspherical Exc in radial PAW
   METAGGA=      F    non-selfconsistent MetaGGA calc.

 Electronic Relaxation 1
   ENCUT  =  900.0 eV  66.15 Ry    8.13 a.u.  11.87 11.87  8.04*2*pi/ulx,y,z
   ENINI  =  900.0     initial cutoff
   ENAUG  =  613.6 eV  augmentation charge cutoff
   NELM   =     60;   NELMIN=  2; NELMDL= -5     # of ELM steps 
   EDIFF  = 0.1E-06   stopping-criterion for ELM
   LREAL  =      F    real-space projection
   NLSPLINE    = F    spline interpolate recip. space projectors
   LCOMPAT=      F    compatible to vasp.4.4
   GGA_COMPAT  = T    GGA compatible to vasp.4.4-vasp.4.6
   LMAXPAW     = -100 max onsite density
   LMAXMIX     =    4 max onsite mixed and CHGCAR
   VOSKOWN=      0    Vosko Wilk Nusair interpolation
   ROPT   =    0.00000   0.00000
 Ionic relaxation
   EDIFFG = -.5E-02   stopping-criterion for IOM
   NSW    =     50    number of steps for IOM
   NBLOCK =      1;   KBLOCK =     50    inner block; outer block 
   IBRION =      2    ionic relax: 0-MD 1-quasi-New 2-CG
   NFREE  =      1    steps in history (QN), initial steepest desc. (CG)
   ISIF   =      3    stress and relaxation
   IWAVPR =     11    prediction:  0-non 1-charg 2-wave 3-comb
   ISYM   =      2    0-nonsym 1-usesym 2-fastsym
   LCORR  =      T    Harris-Foulkes like correction to forces

   POTIM  = 0.5000    time-step for ionic-motion
   TEIN   =    0.0    initial temperature
   TEBEG  =    0.0;   TEEND  =   0.0 temperature during run
   SMASS  =  -3.00    Nose mass-parameter (am)
   estimated Nose-frequenzy (Omega)   =  0.10E-29 period in steps =****** mass=  -0.538E-27a.u.
   SCALEE = 1.0000    scale energy and forces
   NPACO  =    256;   APACO  = 16.0  distance and # of slots for P.C.
   PSTRESS=    0.0 pullay stress

  Mass of Ions in am
   POMASS =  54.94 19.00
  Ionic Valenz
   ZVAL   =  13.00  7.00
  Atomic Wigner-Seitz radii
   RWIGS  =  -1.00 -1.00
  virtual crystal weights 
   VCA    =   1.00  1.00
   NELECT =      54.0000    total number of electrons
   NUPDOWN=      -1.0000    fix difference up-down

 DOS related values:
   EMIN   =  10.00;   EMAX   =-10.00  energy-range for DOS
   EFERMI =   0.00
   ISMEAR =     0;   SIGMA  =   0.02  broadening in eV -4-tet -1-fermi 0-gaus

 Electronic relaxation 2 (details)
   IALGO  =     38    algorithm
   LDIAG  =      T    sub-space diagonalisation (order eigenvalues)
   LSUBROT=      F    optimize rotation matrix (better conditioning)
   TURBO    =      0    0=normal 1=particle mesh
   IRESTART =      0    0=no restart 2=restart with 2 vectors
   NREBOOT  =      0    no. of reboots
   NMIN     =      0    reboot dimension
   EREF     =   0.00    reference energy to select bands
   IMIX   =      4    mixing-type and parameters
     AMIX     =   0.40;   BMIX     =  1.00
     AMIX_MAG =   1.60;   BMIX_MAG =  1.00
     AMIN     =   0.10
     WC   =   100.;   INIMIX=   1;  MIXPRE=   1;  MAXMIX= -45

 Intra band minimization:
   WEIMIN = 0.0010     energy-eigenvalue tresh-hold
   EBREAK =  0.69E-09  absolut break condition
   DEPER  =   0.30     relativ break condition  

   TIME   =   0.40     timestep for ELM

  volume/ion in A,a.u.               =      12.90        87.08
  Fermi-wavevector in a.u.,A,eV,Ry     =   1.451824  2.743549 28.678246  2.107792
  Thomas-Fermi vector in A             =   2.569276
 
 Write flags
   LWAVE        =      F    write WAVECAR
   LDOWNSAMPLE  =      F    k-point downsampling of WAVECAR
   LCHARG       =      F    write CHGCAR
   LVTOT        =      F    write LOCPOT, total local potential
   LVHAR        =      F    write LOCPOT, Hartree potential only
   LELF         =      F    write electronic localiz. function (ELF)
   LORBIT       =     11    0 simple, 1 ext, 2 COOP (PROOUT), +10 PAW based schemes


 Dipole corrections
   LMONO  =      F    monopole corrections only (constant potential shift)
   LDIPOL =      F    correct potential (dipole corrections)
   IDIPOL =      0    1-x, 2-y, 3-z, 4-all directions 
   EPSILON=  1.0000000 bulk dielectric constant

 LDA+U is selected, type is set to LDAUTYPE =  2
   angular momentum for each species LDAUL =     2   -1
   U (eV)           for each species LDAUU =   0.0  0.0
   J (eV)           for each species LDAUJ =   0.0  0.0
 Exchange correlation treatment:
   GGA     =    --    GGA type
   LEXCH   =     8    internal setting for exchange type
   VOSKOWN=      0    Vosko Wilk Nusair interpolation
   LHFCALC =     F    Hartree Fock is set to
   LHFONE  =     F    Hartree Fock one center treatment
   AEXX    =    0.0000 exact exchange contribution

 Linear response parameters
   LEPSILON=     F    determine dielectric tensor
   LRPA    =     F    only Hartree local field effects (RPA)
   LNABLA  =     F    use nabla operator in PAW spheres
   LVEL    =     F    velocity operator in full k-point grid
   LINTERFAST=   F  fast interpolation
   KINTER  =     0    interpolate to denser k-point grid
   CSHIFT  =0.1000    complex shift for real part using Kramers Kronig
   OMEGAMAX=  -1.0    maximum frequency
   DEG_THRESHOLD= 0.2000000E-02 threshold for treating states as degnerate
   RTIME   =   -0.100 relaxation time in fs
  (WPLASMAI=    0.000 imaginary part of plasma frequency in eV, 0.658/RTIME)
   DFIELD  = 0.0000000 0.0000000 0.0000000 field for delta impulse in time
 
 Orbital magnetization related:
   ORBITALMAG=     F  switch on orbital magnetization
   LCHIMAG   =     F  perturbation theory with respect to B field
   DQ        =  0.001000  dq finite difference perturbation B field
   LLRAUG    =     F  two centre corrections for induced B field



--------------------------------------------------------------------------------------------------------


 conjugate gradient relaxation of ions
 charge density and potential will be updated during run
 spin polarized calculation
 Variant of blocked Davidson
 Davidson routine will perform the subspace rotation
 perform sub-space diagonalisation
    after iterative eigenvector-optimisation
 modified Broyden-mixing scheme, WC =      100.0
 initial mixing is a Kerker type mixing with AMIX =  0.4000 and BMIX =      1.0000
 Hartree-type preconditioning will be used
 using additional bands            9
 reciprocal scheme for non local part
 use partial core corrections
 calculate Harris-corrections to forces 
   (improved forces if not selfconsistent)
 use gradient corrections 
 use of overlap-Matrix (Vanderbilt PP)
 Gauss-broadening in eV      SIGMA  =   0.02


--------------------------------------------------------------------------------------------------------


  energy-cutoff  :      900.00
  volume of cell :       77.42
      direct lattice vectors                 reciprocal lattice vectors
     4.852568500  0.000000000  0.000000000     0.206076431  0.000000000  0.000000000
     0.000000000  4.852568500  0.000000000     0.000000000  0.206076431  0.000000000
     0.000000000  0.000000000  3.288011935     0.000000000  0.000000000  0.304135149

  length of vectors
     4.852568500  4.852568500  3.288011935     0.206076431  0.206076431  0.304135149


 
 k-points in units of 2pi/SCALE and weight: KPOINTS created by Atomic Simulation Env
   0.02575955  0.02575955  0.02534460       0.083
   0.07727866  0.02575955  0.02534460       0.167
   0.07727866  0.07727866  0.02534460       0.083
   0.02575955  0.02575955  0.07603379       0.083
   0.07727866  0.02575955  0.07603379       0.167
   0.07727866  0.07727866  0.07603379       0.083
   0.02575955  0.02575955  0.12672298       0.083
   0.07727866  0.02575955  0.12672298       0.167
   0.07727866  0.07727866  0.12672298       0.083
 
 k-points in reciprocal lattice and weights: KPOINTS created by Atomic Simulation Env
   0.12500000  0.12500000  0.08333333       0.083
   0.37500000  0.12500000  0.08333333       0.167
   0.37500000  0.37500000  0.08333333       0.083
   0.12500000  0.12500000  0.25000000       0.083
   0.37500000  0.12500000  0.25000000       0.167
   0.37500000  0.37500000  0.25000000       0.083
   0.12500000  0.12500000  0.41666667       0.083
   0.37500000  0.12500000  0.41666667       0.167
   0.37500000  0.37500000  0.41666667       0.083
 
 position of ions in fractional coordinates (direct lattice) 
   0.50000000  0.50000000  0.50000000
   0.00000000  0.00000000  0.00000000
   0.19609954  0.80390046  0.50000000
   0.80390046  0.19609954  0.50000000
   0.30390046  0.30390046  0.00000000
   0.69609954  0.69609954  0.00000000
 
 position of ions in cartesian coordinates  (Angst):
   2.42628425  2.42628425  1.64400597
   0.00000000  0.00000000  0.00000000
   0.95158645  3.90098205  1.64400597
   3.90098205  0.95158645  1.64400597
   1.47469780  1.47469780  0.00000000
   3.37787070  3.37787070  0.00000000
 


--------------------------------------------------------------------------------------------------------


 k-point  1 :   0.1250 0.1250 0.0833  plane waves:    4730
 k-point  2 :   0.3750 0.1250 0.0833  plane waves:    4732
 k-point  3 :   0.3750 0.3750 0.0833  plane waves:    4742
 k-point  4 :   0.1250 0.1250 0.2500  plane waves:    4746
 k-point  5 :   0.3750 0.1250 0.2500  plane waves:    4754
 k-point  6 :   0.3750 0.3750 0.2500  plane waves:    4743
 k-point  7 :   0.1250 0.1250 0.4167  plane waves:    4738
 k-point  8 :   0.3750 0.1250 0.4167  plane waves:    4759
 k-point  9 :   0.3750 0.3750 0.4167  plane waves:    4757

 maximum and minimum number of plane-waves per node :      4759     4730

 maximum number of plane-waves:      4759
 maximum index in each direction: 
   IXMAX=   11   IYMAX=   11   IZMAX=    7
   IXMIN=  -12   IYMIN=  -12   IZMIN=   -8


 serial   3D FFT for wavefunctions
 parallel 3D FFT for charge:
    minimum data exchange during FFTs selected (reduces bandwidth)


 total amount of memory used by VASP MPI-rank0    56968. kBytes
=======================================================================

   base      :      30000. kBytes
   nonl-proj :      12805. kBytes
   fftplans  :       3220. kBytes
   grid      :       6579. kBytes
   one-center:        186. kBytes
   wavefun   :       4178. kBytes
 
     INWAV:  cpu time    0.0000: real time    0.0000
 Broyden mixing: mesh for mixing (old mesh)
   NGX = 23   NGY = 23   NGZ = 17
  (NGX  = 72   NGY  = 72   NGZ  = 48)
  gives a total of   8993 points

 initial charge density was supplied:
 charge density of overlapping atoms calculated
 number of electron      54.0000000 magnetization       0.0000000
 keeping initial charge density in first step


--------------------------------------------------------------------------------------------------------


 Maximum index for augmentation-charges         8031 (set IRDMAX)


--------------------------------------------------------------------------------------------------------


 First call to EWALD:  gamma=   0.416
 Maximum number of real-space cells 2x 2x 3
 Maximum number of reciprocal cells 3x 3x 2

    FEWALD:  cpu time    0.0010: real time    0.0010


--------------------------------------- Iteration      1(   1)  ---------------------------------------


    POTLOK:  cpu time    0.0609: real time    0.0609
    SETDIJ:  cpu time    0.7976: real time    0.7976
atom =   1  type =  1  l = 2
 
 onsite density matrix
 
spin component  1
 
  0.2835  0.0000  0.0000  0.0000  0.0000
  0.0000  0.2835  0.0000  0.0000  0.0000
  0.0000  0.0000  0.2835  0.0000  0.0000
  0.0000  0.0000  0.0000  0.2835  0.0000
  0.0000  0.0000  0.0000  0.0000  0.2835
 
spin component  2
 
  0.7694  0.0000  0.0000  0.0000  0.0000
  0.0000  0.7694  0.0000  0.0000  0.0000
  0.0000  0.0000  0.7694  0.0000  0.0000
  0.0000  0.0000  0.0000  0.7694  0.0000
  0.0000  0.0000  0.0000  0.0000  0.7694
 
 occupancies and eigenvectors
 
  o =  0.2835  v =  1.0000  0.0000  0.0000  0.0000  0.0000  0.0000  0.0000  0.0000  0.0000  0.0000      0.0000  0.0000  0.0000  0.0000  0.0000  0.0000  0.0000  0.0000  0.0000  0.0000
  o =  0.2835  v =  0.0000  1.0000  0.0000  0.0000  0.0000  0.0000  0.0000  0.0000  0.0000  0.0000      0.0000  0.0000  0.0000  0.0000  0.0000  0.0000  0.0000  0.0000  0.0000  0.0000
  o =  0.2835  v =  0.0000  0.0000  1.0000  0.0000  0.0000  0.0000  0.0000  0.0000  0.0000  0.0000      0.0000  0.0000  0.0000  0.0000  0.0000  0.0000  0.0000  0.0000  0.0000  0.0000
  o =  0.2835  v =  0.0000  0.0000  0.0000  1.0000  0.0000  0.0000  0.0000  0.0000  0.0000  0.0000      0.0000  0.0000  0.0000  0.0000  0.0000  0.0000  0.0000  0.0000  0.0000  0.0000
  o =  0.2835  v =  0.0000  0.0000  0.0000  0.0000  1.0000  0.0000  0.0000  0.0000  0.0000  0.0000      0.0000  0.0000  0.0000  0.0000  0.0000  0.0000  0.0000  0.0000  0.0000  0.0000
  o =  0.7694  v =  0.0000  0.0000  0.0000  0.0000  0.0000  1.0000  0.0000  0.0000  0.0000  0.0000      0.0000  0.0000  0.0000  0.0000  0.0000  0.0000  0.0000  0.0000  0.0000  0.0000
  o =  0.7694  v =  0.0000  0.0000  0.0000  0.0000  0.0000  0.0000  1.0000  0.0000  0.0000  0.0000      0.0000  0.0000  0.0000  0.0000  0.0000  0.0000  0.0000  0.0000  0.0000  0.0000
  o =  0.7694  v =  0.0000  0.0000  0.0000  0.0000  0.0000  0.0000  0.0000  1.0000  0.0000  0.0000      0.0000  0.0000  0.0000  0.0000  0.0000  0.0000  0.0000  0.0000  0.0000  0.0000
  o =  0.7694  v =  0.0000  0.0000  0.0000  0.0000  0.0000  0.0000  0.0000  0.0000  1.0000  0.0000      0.0000  0.0000  0.0000  0.0000  0.0000  0.0000  0.0000  0.0000  0.0000  0.0000
  o =  0.7694  v =  0.0000  0.0000  0.0000  0.0000  0.0000  0.0000  0.0000  0.0000  0.0000  1.0000      0.0000  0.0000  0.0000  0.0000  0.0000  0.0000  0.0000  0.0000  0.0000  0.0000
atom =   2  type =  1  l = 2
 
 onsite density matrix
 
spin component  1
 
  0.7694  0.0000  0.0000  0.0000  0.0000
  0.0000  0.7694  0.0000  0.0000  0.0000
  0.0000  0.0000  0.7694  0.0000  0.0000
  0.0000  0.0000  0.0000  0.7694  0.0000
  0.0000  0.0000  0.0000  0.0000  0.7694
 
spin component  2
 
  0.2835  0.0000  0.0000  0.0000  0.0000
  0.0000  0.2835  0.0000  0.0000  0.0000
  0.0000  0.0000  0.2835  0.0000  0.0000
  0.0000  0.0000  0.0000  0.2835  0.0000
  0.0000  0.0000  0.0000  0.0000  0.2835
 
 occupancies and eigenvectors
 
  o =  0.2835  v =  0.0000  0.0000  0.0000  0.0000  0.0000  1.0000  0.0000  0.0000  0.0000  0.0000      0.0000  0.0000  0.0000  0.0000  0.0000  0.0000  0.0000  0.0000  0.0000  0.0000
  o =  0.2835  v =  0.0000  0.0000  0.0000  0.0000  0.0000  0.0000  1.0000  0.0000  0.0000  0.0000      0.0000  0.0000  0.0000  0.0000  0.0000  0.0000  0.0000  0.0000  0.0000  0.0000
  o =  0.2835  v =  0.0000  0.0000  0.0000  0.0000  0.0000  0.0000  0.0000  1.0000  0.0000  0.0000      0.0000  0.0000  0.0000  0.0000  0.0000  0.0000  0.0000  0.0000  0.0000  0.0000
  o =  0.2835  v =  0.0000  0.0000  0.0000  0.0000  0.0000  0.0000  0.0000  0.0000  1.0000  0.0000      0.0000  0.0000  0.0000  0.0000  0.0000  0.0000  0.0000  0.0000  0.0000  0.0000
  o =  0.2835  v =  0.0000  0.0000  0.0000  0.0000  0.0000  0.0000  0.0000  0.0000  0.0000  1.0000      0.0000  0.0000  0.0000  0.0000  0.0000  0.0000  0.0000  0.0000  0.0000  0.0000
  o =  0.7694  v =  1.0000  0.0000  0.0000  0.0000  0.0000  0.0000  0.0000  0.0000  0.0000  0.0000      0.0000  0.0000  0.0000  0.0000  0.0000  0.0000  0.0000  0.0000  0.0000  0.0000
  o =  0.7694  v =  0.0000  1.0000  0.0000  0.0000  0.0000  0.0000  0.0000  0.0000  0.0000  0.0000      0.0000  0.0000  0.0000  0.0000  0.0000  0.0000  0.0000  0.0000  0.0000  0.0000
  o =  0.7694  v =  0.0000  0.0000  1.0000  0.0000  0.0000  0.0000  0.0000  0.0000  0.0000  0.0000      0.0000  0.0000  0.0000  0.0000  0.0000  0.0000  0.0000  0.0000  0.0000  0.0000
  o =  0.7694  v =  0.0000  0.0000  0.0000  1.0000  0.0000  0.0000  0.0000  0.0000  0.0000  0.0000      0.0000  0.0000  0.0000  0.0000  0.0000  0.0000  0.0000  0.0000  0.0000  0.0000
  o =  0.7694  v =  0.0000  0.0000  0.0000  0.0000  1.0000  0.0000  0.0000  0.0000  0.0000  0.0000      0.0000  0.0000  0.0000  0.0000  0.0000  0.0000  0.0000  0.0000  0.0000  0.0000
     EDDAV:  cpu time    1.3197: real time    1.3387
       DOS:  cpu time    0.0004: real time    0.0004
    --------------------------------------------
      LOOP:  cpu time    2.1785: real time    2.1976

 eigenvalue-minimisations  :  1296
 total energy-change (2. order) : 0.1077042E+04  (-0.4647187E+04)
 number of electron      54.0000000 magnetization      -0.0000000
 augmentation part       54.0000000 magnetization      -0.0000000

 Free energy of the ion-electron system (eV)
  ---------------------------------------------------
  alpha Z        PSCENC =       199.38838823
  Ewald energy   TEWEN  =     -4203.06823030
  -Hartree energ DENC   =     -2130.62061719
  -exchange      EXHF   =         0.00000000
  -V(xc)+E(xc)   XCENC  =        -3.96116514
  PAW double counting   =      5566.43601843    -5528.13058630
  entropy T*S    EENTRO =        -0.00000605
  eigenvalues    EBANDS =       487.89212899
  atomic energy  EATOM  =      6689.10585665
  Solvation  Ediel_sol  =         0.00000000
  ---------------------------------------------------
  free energy    TOTEN  =      1077.04178734 eV

  energy without entropy =     1077.04179339  energy(sigma->0) =     1077.04179036


--------------------------------------------------------------------------------------------------------




--------------------------------------- Iteration      1(   2)  ---------------------------------------


     EDDAV:  cpu time    1.4611: real time    1.4611
       DOS:  cpu time    0.0004: real time    0.0004
    --------------------------------------------
      LOOP:  cpu time    1.4614: real time    1.4615

 eigenvalue-minimisations  :  1524
 total energy-change (2. order) :-0.6534493E+03  (-0.6260275E+03)
 number of electron      54.0000000 magnetization      -0.0000000
 augmentation part       54.0000000 magnetization      -0.0000000

 Free energy of the ion-electron system (eV)
  ---------------------------------------------------
  alpha Z        PSCENC =       199.38838823
  Ewald energy   TEWEN  =     -4203.06823030
  -Hartree energ DENC   =     -2130.62061719
  -exchange      EXHF   =         0.00000000
  -V(xc)+E(xc)   XCENC  =        -3.96116514
  PAW double counting   =      5566.43601843    -5528.13058630
  entropy T*S    EENTRO =        -0.00283514
  eigenvalues    EBANDS =      -165.55438952
  atomic energy  EATOM  =      6689.10585665
  Solvation  Ediel_sol  =         0.00000000
  ---------------------------------------------------
  free energy    TOTEN  =       423.59243973 eV

  energy without entropy =      423.59527488  energy(sigma->0) =      423.59385731


--------------------------------------------------------------------------------------------------------




--------------------------------------- Iteration      1(   3)  ---------------------------------------


     EDDAV:  cpu time    1.4618: real time    1.4618
       DOS:  cpu time    0.0002: real time    0.0002
    --------------------------------------------
      LOOP:  cpu time    1.4620: real time    1.4620

 eigenvalue-minimisations  :  1524
 total energy-change (2. order) :-0.4220571E+02  (-0.4143290E+02)
 number of electron      54.0000000 magnetization      -0.0000000
 augmentation part       54.0000000 magnetization      -0.0000000

 Free energy of the ion-electron system (eV)
  ---------------------------------------------------
  alpha Z        PSCENC =       199.38838823
  Ewald energy   TEWEN  =     -4203.06823030
  -Hartree energ DENC   =     -2130.62061719
  -exchange      EXHF   =         0.00000000
  -V(xc)+E(xc)   XCENC  =        -3.96116514
  PAW double counting   =      5566.43601843    -5528.13058630
  entropy T*S    EENTRO =        -0.00000000
  eigenvalues    EBANDS =      -207.76293173
  atomic energy  EATOM  =      6689.10585665
  Solvation  Ediel_sol  =         0.00000000
  ---------------------------------------------------
  free energy    TOTEN  =       381.38673266 eV

  energy without entropy =      381.38673266  energy(sigma->0) =      381.38673266


--------------------------------------------------------------------------------------------------------




--------------------------------------- Iteration      1(   4)  ---------------------------------------


     EDDAV:  cpu time    1.4481: real time    1.4481
       DOS:  cpu time    0.0002: real time    0.0002
    --------------------------------------------
      LOOP:  cpu time    1.4484: real time    1.4484

 eigenvalue-minimisations  :  1500
 total energy-change (2. order) :-0.6072756E+00  (-0.6068163E+00)
 number of electron      54.0000000 magnetization      -0.0000000
 augmentation part       54.0000000 magnetization      -0.0000000

 Free energy of the ion-electron system (eV)
  ---------------------------------------------------
  alpha Z        PSCENC =       199.38838823
  Ewald energy   TEWEN  =     -4203.06823030
  -Hartree energ DENC   =     -2130.62061719
  -exchange      EXHF   =         0.00000000
  -V(xc)+E(xc)   XCENC  =        -3.96116514
  PAW double counting   =      5566.43601843    -5528.13058630
  entropy T*S    EENTRO =        -0.00000000
  eigenvalues    EBANDS =      -208.37020732
  atomic energy  EATOM  =      6689.10585665
  Solvation  Ediel_sol  =         0.00000000
  ---------------------------------------------------
  free energy    TOTEN  =       380.77945707 eV

  energy without entropy =      380.77945707  energy(sigma->0) =      380.77945707


--------------------------------------------------------------------------------------------------------




--------------------------------------- Iteration      1(   5)  ---------------------------------------


     EDDAV:  cpu time    1.4788: real time    1.4788
       DOS:  cpu time    0.0002: real time    0.0002
    CHARGE:  cpu time    0.2717: real time    0.2717
    MIXING:  cpu time    0.0009: real time    0.0009
    --------------------------------------------
      LOOP:  cpu time    1.7515: real time    1.7516

 eigenvalue-minimisations  :  1548
 total energy-change (2. order) :-0.9497515E-02  (-0.9497074E-02)
 number of electron      54.0000001 magnetization       0.0000000
 augmentation part       22.8754928 magnetization       0.0000000

 Broyden mixing:
  rms(total) = 0.59326E+01    rms(broyden)= 0.59326E+01
  rms(prec ) = 0.62207E+01
  weight for this iteration     100.00

 Free energy of the ion-electron system (eV)
  ---------------------------------------------------
  alpha Z        PSCENC =       199.38838823
  Ewald energy   TEWEN  =     -4203.06823030
  -Hartree energ DENC   =     -2130.62061719
  -exchange      EXHF   =         0.00000000
  -V(xc)+E(xc)   XCENC  =        -3.96116514
  PAW double counting   =      5566.43601843    -5528.13058630
  entropy T*S    EENTRO =        -0.00000000
  eigenvalues    EBANDS =      -208.37970484
  atomic energy  EATOM  =      6689.10585665
  Solvation  Ediel_sol  =         0.00000000
  ---------------------------------------------------
  free energy    TOTEN  =       380.76995955 eV

  energy without entropy =      380.76995955  energy(sigma->0) =      380.76995955


--------------------------------------------------------------------------------------------------------




--------------------------------------- Iteration      1(   6)  ---------------------------------------


    POTLOK:  cpu time    0.0574: real time    0.0574
    SETDIJ:  cpu time    1.4794: real time    1.4794
atom =   1  type =  1  l = 2
 
 onsite density matrix
 
spin component  1
 
  0.0453  0.0000  0.0722  0.0000 -0.0000
  0.0000  0.0149  0.0000  0.0668  0.0000
  0.0722  0.0000  0.0027  0.0000  0.0000
  0.0000  0.0668  0.0000  0.0149  0.0000
 -0.0000  0.0000  0.0000  0.0000 -0.0746
 
spin component  2
 
  1.0511  0.0000 -0.0361  0.0000  0.0000
  0.0000  1.0671  0.0000 -0.0335  0.0000
 -0.0361  0.0000  1.0722  0.0000 -0.0000
  0.0000 -0.0335  0.0000  1.0671  0.0000
  0.0000  0.0000 -0.0000  0.0000  1.1133
 
 occupancies and eigenvectors
 
  o = -0.0746  v =  0.0000  0.0000 -0.0000  0.0000  1.0000  0.0000  0.0000  0.0000  0.0000  0.0000      0.0000  0.0000  0.0000  0.0000  0.0000  0.0000  0.0000  0.0000  0.0000  0.0000
  o = -0.0519  v =  0.0000  0.7071  0.0000 -0.7071 -0.0000  0.0000  0.0000  0.0000  0.0000  0.0000      0.0000  0.0000  0.0000  0.0000  0.0000  0.0000  0.0000  0.0000  0.0000  0.0000
  o = -0.0513  v = -0.5987  0.0000  0.8010  0.0000  0.0000  0.0000  0.0000  0.0000  0.0000  0.0000      0.0000  0.0000  0.0000  0.0000  0.0000  0.0000  0.0000  0.0000  0.0000  0.0000
  o =  0.0818  v =  0.0000 -0.7071  0.0000 -0.7071  0.0000  0.0000  0.0000  0.0000  0.0000  0.0000      0.0000  0.0000  0.0000  0.0000  0.0000  0.0000  0.0000  0.0000  0.0000  0.0000
  o =  0.0992  v =  0.8010  0.0000  0.5987  0.0000  0.0000  0.0000  0.0000  0.0000  0.0000  0.0000      0.0000  0.0000  0.0000  0.0000  0.0000  0.0000  0.0000  0.0000  0.0000  0.0000
  o =  1.0241  v =  0.0000  0.0000  0.0000  0.0000  0.0000  0.8006 -0.0000  0.5992  0.0000  0.0000      0.0000  0.0000  0.0000  0.0000  0.0000  0.0000  0.0000  0.0000  0.0000  0.0000
  o =  1.0336  v =  0.0000  0.0000  0.0000  0.0000  0.0000  0.0000 -0.7071  0.0000 -0.7071 -0.0000      0.0000  0.0000  0.0000  0.0000  0.0000  0.0000  0.0000  0.0000  0.0000  0.0000
  o =  1.0992  v =  0.0000  0.0000  0.0000  0.0000  0.0000  0.5992  0.0000 -0.8006  0.0000 -0.0000      0.0000  0.0000  0.0000  0.0000  0.0000  0.0000  0.0000  0.0000  0.0000  0.0000
  o =  1.1006  v =  0.0000  0.0000  0.0000  0.0000  0.0000  0.0000  0.7071  0.0000 -0.7071  0.0000      0.0000  0.0000  0.0000  0.0000  0.0000  0.0000  0.0000  0.0000  0.0000  0.0000
  o =  1.1133  v =  0.0000  0.0000  0.0000  0.0000  0.0000  0.0000 -0.0000 -0.0000  0.0000  1.0000      0.0000  0.0000  0.0000  0.0000  0.0000  0.0000  0.0000  0.0000  0.0000  0.0000
atom =   2  type =  1  l = 2
 
 onsite density matrix
 
spin component  1
 
  1.0511  0.0000  0.0361  0.0000  0.0000
  0.0000  1.0671  0.0000  0.0335  0.0000
  0.0361  0.0000  1.0722  0.0000  0.0000
  0.0000  0.0335  0.0000  1.0671  0.0000
  0.0000  0.0000  0.0000  0.0000  1.1133
 
spin component  2
 
  0.0453  0.0000 -0.0722  0.0000 -0.0000
  0.0000  0.0149  0.0000 -0.0668  0.0000
 -0.0722  0.0000  0.0027  0.0000 -0.0000
  0.0000 -0.0668  0.0000  0.0149  0.0000
 -0.0000  0.0000 -0.0000  0.0000 -0.0746
 
 occupancies and eigenvectors
 
  o = -0.0746  v =  0.0000  0.0000  0.0000  0.0000  0.0000  0.0000  0.0000  0.0000  0.0000  1.0000      0.0000  0.0000  0.0000  0.0000  0.0000  0.0000  0.0000  0.0000  0.0000  0.0000
  o = -0.0519  v =  0.0000  0.0000  0.0000  0.0000  0.0000  0.0000 -0.7071  0.0000 -0.7071  0.0000      0.0000  0.0000  0.0000  0.0000  0.0000  0.0000  0.0000  0.0000  0.0000  0.0000
  o = -0.0513  v =  0.0000  0.0000  0.0000  0.0000  0.0000 -0.5987  0.0000 -0.8010  0.0000  0.0000      0.0000  0.0000  0.0000  0.0000  0.0000  0.0000  0.0000  0.0000  0.0000  0.0000
  o =  0.0818  v =  0.0000  0.0000  0.0000  0.0000  0.0000  0.0000  0.7071  0.0000 -0.7071 -0.0000      0.0000  0.0000  0.0000  0.0000  0.0000  0.0000  0.0000  0.0000  0.0000  0.0000
  o =  0.0992  v =  0.0000  0.0000  0.0000  0.0000  0.0000  0.8010  0.0000 -0.5987  0.0000  0.0000      0.0000  0.0000  0.0000  0.0000  0.0000  0.0000  0.0000  0.0000  0.0000  0.0000
  o =  1.0241  v =  0.8006 -0.0000 -0.5992  0.0000  0.0000  0.0000  0.0000  0.0000  0.0000  0.0000      0.0000  0.0000  0.0000  0.0000  0.0000  0.0000  0.0000  0.0000  0.0000  0.0000
  o =  1.0336  v =  0.0000  0.7071  0.0000 -0.7071  0.0000  0.0000  0.0000  0.0000  0.0000  0.0000      0.0000  0.0000  0.0000  0.0000  0.0000  0.0000  0.0000  0.0000  0.0000  0.0000
  o =  1.0992  v =  0.5992  0.0000  0.8006  0.0000 -0.0000  0.0000  0.0000  0.0000  0.0000  0.0000      0.0000  0.0000  0.0000  0.0000  0.0000  0.0000  0.0000  0.0000  0.0000  0.0000
  o =  1.1006  v =  0.0000 -0.7071  0.0000 -0.7071 -0.0000  0.0000  0.0000  0.0000  0.0000  0.0000      0.0000  0.0000  0.0000  0.0000  0.0000  0.0000  0.0000  0.0000  0.0000  0.0000
  o =  1.1133  v =  0.0000 -0.0000  0.0000  0.0000  1.0000  0.0000  0.0000  0.0000  0.0000  0.0000      0.0000  0.0000  0.0000  0.0000  0.0000  0.0000  0.0000  0.0000  0.0000  0.0000
     EDDAV:  cpu time    1.5122: real time    1.5122
       DOS:  cpu time    0.0004: real time    0.0004
    CHARGE:  cpu time    0.2716: real time    0.2716
    MIXING:  cpu time    0.0009: real time    0.0009
    --------------------------------------------
      LOOP:  cpu time    3.3219: real time    3.3220

 eigenvalue-minimisations  :  1596
 total energy-change (2. order) :-0.4491455E+03  (-0.3147143E+02)
 number of electron      54.0000001 magnetization      -0.0000000
 augmentation part       19.5970301 magnetization      -0.0000000

 Broyden mixing:
  rms(total) = 0.63566E+01    rms(broyden)= 0.63566E+01
  rms(prec ) = 0.68193E+01
  weight for this iteration     100.00

 eigenvalues of (default mixing * dielectric matrix)
  average eigenvalue GAMMA=   0.4163
  0.4163

 Free energy of the ion-electron system (eV)
  ---------------------------------------------------
  alpha Z        PSCENC =       199.38838823
  Ewald energy   TEWEN  =     -4203.06823030
  -Hartree energ DENC   =     -2216.93142289
  -exchange      EXHF   =         0.00000000
  -V(xc)+E(xc)   XCENC  =       145.31517743
  PAW double counting   =      6452.73782160    -6419.00227938
  entropy T*S    EENTRO =        -0.00116250
  eigenvalues    EBANDS =      -715.91971530
  atomic energy  EATOM  =      6689.10585665
  Solvation  Ediel_sol  =         0.00000000
  ---------------------------------------------------
  free energy    TOTEN  =       -68.37556645 eV

  energy without entropy =      -68.37440395  energy(sigma->0) =      -68.37498520


--------------------------------------------------------------------------------------------------------




--------------------------------------- Iteration      1(   7)  ---------------------------------------


    POTLOK:  cpu time    0.0582: real time    0.0582
    SETDIJ:  cpu time    1.4574: real time    1.4574
atom =   1  type =  1  l = 2
 
 onsite density matrix
 
spin component  1
 
  0.0891  0.0000  0.0390  0.0000 -0.0000
  0.0000  0.0591  0.0000  0.0258  0.0000
  0.0390  0.0000  0.0644  0.0000  0.0000
  0.0000  0.0258  0.0000  0.0591  0.0000
 -0.0000  0.0000  0.0000  0.0000  0.0200
 
spin component  2
 
  0.9737  0.0000 -0.0078  0.0000 -0.0000
  0.0000  1.0008  0.0000  0.0089  0.0000
 -0.0078  0.0000  0.9831  0.0000 -0.0000
  0.0000  0.0089  0.0000  1.0008  0.0000
 -0.0000  0.0000 -0.0000  0.0000  0.9978
 
 occupancies and eigenvectors
 
  o =  0.0200  v =  0.0000  0.0000 -0.0000 -0.0000  1.0000  0.0000  0.0000  0.0000  0.0000  0.0000      0.0000  0.0000  0.0000  0.0000  0.0000  0.0000  0.0000  0.0000  0.0000  0.0000
  o =  0.0333  v = -0.0000  0.7071  0.0000 -0.7071 -0.0000  0.0000  0.0000  0.0000  0.0000  0.0000      0.0000  0.0000  0.0000  0.0000  0.0000  0.0000  0.0000  0.0000  0.0000  0.0000
  o =  0.0359  v = -0.5909 -0.0000  0.8067  0.0000  0.0000  0.0000  0.0000  0.0000  0.0000  0.0000      0.0000  0.0000  0.0000  0.0000  0.0000  0.0000  0.0000  0.0000  0.0000  0.0000
  o =  0.0849  v = -0.0000 -0.7071  0.0000 -0.7071  0.0000  0.0000  0.0000  0.0000  0.0000  0.0000      0.0000  0.0000  0.0000  0.0000  0.0000  0.0000  0.0000  0.0000  0.0000  0.0000
  o =  0.1176  v = -0.8067  0.0000 -0.5909  0.0000 -0.0000  0.0000  0.0000  0.0000  0.0000  0.0000      0.0000  0.0000  0.0000  0.0000  0.0000  0.0000  0.0000  0.0000  0.0000  0.0000
  o =  0.9693  v =  0.0000  0.0000  0.0000  0.0000  0.0000 -0.8717  0.0000 -0.4901  0.0000 -0.0000      0.0000  0.0000  0.0000  0.0000  0.0000  0.0000  0.0000  0.0000  0.0000  0.0000
  o =  0.9875  v =  0.0000  0.0000  0.0000  0.0000  0.0000 -0.4901  0.0000  0.8717  0.0000  0.0000      0.0000  0.0000  0.0000  0.0000  0.0000  0.0000  0.0000  0.0000  0.0000  0.0000
  o =  0.9919  v =  0.0000  0.0000  0.0000  0.0000  0.0000  0.0000  0.7071  0.0000 -0.7071 -0.0000      0.0000  0.0000  0.0000  0.0000  0.0000  0.0000  0.0000  0.0000  0.0000  0.0000
  o =  0.9978  v =  0.0000  0.0000  0.0000  0.0000  0.0000  0.0000  0.0000 -0.0000  0.0000  1.0000      0.0000  0.0000  0.0000  0.0000  0.0000  0.0000  0.0000  0.0000  0.0000  0.0000
  o =  1.0096  v =  0.0000  0.0000  0.0000  0.0000  0.0000  0.0000  0.7071  0.0000  0.7071 -0.0000      0.0000  0.0000  0.0000  0.0000  0.0000  0.0000  0.0000  0.0000  0.0000  0.0000
atom =   2  type =  1  l = 2
 
 onsite density matrix
 
spin component  1
 
  0.9737  0.0000  0.0078  0.0000 -0.0000
  0.0000  1.0008  0.0000 -0.0089  0.0000
  0.0078  0.0000  0.9831  0.0000  0.0000
  0.0000 -0.0089  0.0000  1.0008  0.0000
 -0.0000  0.0000  0.0000  0.0000  0.9978
 
spin component  2
 
  0.0891  0.0000 -0.0390  0.0000 -0.0000
  0.0000  0.0591  0.0000 -0.0258  0.0000
 -0.0390  0.0000  0.0644  0.0000 -0.0000
  0.0000 -0.0258  0.0000  0.0591  0.0000
 -0.0000  0.0000 -0.0000  0.0000  0.0200
 
 occupancies and eigenvectors
 
  o =  0.0200  v =  0.0000  0.0000  0.0000  0.0000  0.0000  0.0000 -0.0000  0.0000 -0.0000  1.0000      0.0000  0.0000  0.0000  0.0000  0.0000  0.0000  0.0000  0.0000  0.0000  0.0000
  o =  0.0333  v =  0.0000  0.0000  0.0000  0.0000  0.0000 -0.0000 -0.7071 -0.0000 -0.7071 -0.0000      0.0000  0.0000  0.0000  0.0000  0.0000  0.0000  0.0000  0.0000  0.0000  0.0000
  o =  0.0359  v =  0.0000  0.0000  0.0000  0.0000  0.0000 -0.5909  0.0000 -0.8067  0.0000  0.0000      0.0000  0.0000  0.0000  0.0000  0.0000  0.0000  0.0000  0.0000  0.0000  0.0000
  o =  0.0849  v =  0.0000  0.0000  0.0000  0.0000  0.0000 -0.0000  0.7071 -0.0000 -0.7071  0.0000      0.0000  0.0000  0.0000  0.0000  0.0000  0.0000  0.0000  0.0000  0.0000  0.0000
  o =  0.1176  v =  0.0000  0.0000  0.0000  0.0000  0.0000 -0.8067 -0.0000  0.5909  0.0000 -0.0000      0.0000  0.0000  0.0000  0.0000  0.0000  0.0000  0.0000  0.0000  0.0000  0.0000
  o =  0.9693  v =  0.8717  0.0000 -0.4901  0.0000  0.0000  0.0000  0.0000  0.0000  0.0000  0.0000      0.0000  0.0000  0.0000  0.0000  0.0000  0.0000  0.0000  0.0000  0.0000  0.0000
  o =  0.9875  v = -0.4901  0.0000 -0.8717  0.0000  0.0000  0.0000  0.0000  0.0000  0.0000  0.0000      0.0000  0.0000  0.0000  0.0000  0.0000  0.0000  0.0000  0.0000  0.0000  0.0000
  o =  0.9919  v =  0.0000  0.7071  0.0000  0.7071 -0.0000  0.0000  0.0000  0.0000  0.0000  0.0000      0.0000  0.0000  0.0000  0.0000  0.0000  0.0000  0.0000  0.0000  0.0000  0.0000
  o =  0.9978  v =  0.0000  0.0000  0.0000  0.0000  1.0000  0.0000  0.0000  0.0000  0.0000  0.0000      0.0000  0.0000  0.0000  0.0000  0.0000  0.0000  0.0000  0.0000  0.0000  0.0000
  o =  1.0096  v =  0.0000  0.7071  0.0000 -0.7071 -0.0000  0.0000  0.0000  0.0000  0.0000  0.0000      0.0000  0.0000  0.0000  0.0000  0.0000  0.0000  0.0000  0.0000  0.0000  0.0000
     EDDAV:  cpu time    1.3688: real time    1.3688
       DOS:  cpu time    0.0002: real time    0.0002
    CHARGE:  cpu time    0.2699: real time    0.2699
    MIXING:  cpu time    0.0010: real time    0.0010
    --------------------------------------------
      LOOP:  cpu time    3.1554: real time    3.1555

 eigenvalue-minimisations  :  1380
 total energy-change (2. order) :-0.2805177E+01  (-0.4960863E+01)
 number of electron      54.0000001 magnetization      -0.0000000
 augmentation part       19.5839398 magnetization      -0.0000000

 Broyden mixing:
  rms(total) = 0.16922E+01    rms(broyden)= 0.16922E+01
  rms(prec ) = 0.24146E+01
  weight for this iteration     100.00

 eigenvalues of (default mixing * dielectric matrix)
  average eigenvalue GAMMA=   0.7003
  0.7003  0.7003

 Free energy of the ion-electron system (eV)
  ---------------------------------------------------
  alpha Z        PSCENC =       199.38838823
  Ewald energy   TEWEN  =     -4203.06823030
  -Hartree energ DENC   =     -2192.24293650
  -exchange      EXHF   =         0.00000000
  -V(xc)+E(xc)   XCENC  =       167.67013945
  PAW double counting   =      6502.36734108    -6468.98279233
  entropy T*S    EENTRO =        -0.00000000
  eigenvalues    EBANDS =      -765.41850943
  atomic energy  EATOM  =      6689.10585665
  Solvation  Ediel_sol  =         0.00000000
  ---------------------------------------------------
  free energy    TOTEN  =       -71.18074314 eV

  energy without entropy =      -71.18074314  energy(sigma->0) =      -71.18074314


--------------------------------------------------------------------------------------------------------




--------------------------------------- Iteration      1(   8)  ---------------------------------------


    POTLOK:  cpu time    0.0574: real time    0.0574
    SETDIJ:  cpu time    1.4585: real time    1.4586
atom =   1  type =  1  l = 2
 
 onsite density matrix
 
spin component  1
 
  0.0488  0.0000  0.0133  0.0000  0.0000
  0.0000  0.0532  0.0000  0.0231  0.0000
  0.0133  0.0000  0.0421  0.0000  0.0000
  0.0000  0.0231  0.0000  0.0532  0.0000
  0.0000  0.0000  0.0000  0.0000  0.0254
 
spin component  2
 
  0.9904  0.0000  0.0253  0.0000 -0.0000
  0.0000  0.9789  0.0000  0.0121  0.0000
  0.0253  0.0000  0.9794  0.0000 -0.0000
  0.0000  0.0121  0.0000  0.9789  0.0000
 -0.0000  0.0000 -0.0000  0.0000  0.9654
 
 occupancies and eigenvectors
 
  o =  0.0254  v =  0.0000 -0.0000 -0.0000  0.0000  1.0000  0.0000  0.0000  0.0000  0.0000  0.0000      0.0000  0.0000  0.0000  0.0000  0.0000  0.0000  0.0000  0.0000  0.0000  0.0000
  o =  0.0301  v =  0.0000  0.7071  0.0000 -0.7071  0.0000  0.0000  0.0000  0.0000  0.0000  0.0000      0.0000  0.0000  0.0000  0.0000  0.0000  0.0000  0.0000  0.0000  0.0000  0.0000
  o =  0.0317  v = -0.6147 -0.0000  0.7887  0.0000  0.0000  0.0000  0.0000  0.0000  0.0000  0.0000      0.0000  0.0000  0.0000  0.0000  0.0000  0.0000  0.0000  0.0000  0.0000  0.0000
  o =  0.0592  v = -0.7887  0.0000 -0.6147  0.0000 -0.0000  0.0000  0.0000  0.0000  0.0000  0.0000      0.0000  0.0000  0.0000  0.0000  0.0000  0.0000  0.0000  0.0000  0.0000  0.0000
  o =  0.0764  v =  0.0000 -0.7071  0.0000 -0.7071 -0.0000  0.0000  0.0000  0.0000  0.0000  0.0000      0.0000  0.0000  0.0000  0.0000  0.0000  0.0000  0.0000  0.0000  0.0000  0.0000
  o =  0.9590  v =  0.0000  0.0000  0.0000  0.0000  0.0000 -0.6270  0.0000  0.7791  0.0000 -0.0000      0.0000  0.0000  0.0000  0.0000  0.0000  0.0000  0.0000  0.0000  0.0000  0.0000
  o =  0.9654  v =  0.0000  0.0000  0.0000  0.0000  0.0000  0.0000 -0.0000 -0.0000  0.0000 -1.0000      0.0000  0.0000  0.0000  0.0000  0.0000  0.0000  0.0000  0.0000  0.0000  0.0000
  o =  0.9668  v =  0.0000  0.0000  0.0000  0.0000  0.0000  0.0000  0.7071  0.0000 -0.7071 -0.0000      0.0000  0.0000  0.0000  0.0000  0.0000  0.0000  0.0000  0.0000  0.0000  0.0000
  o =  0.9910  v =  0.0000  0.0000  0.0000  0.0000  0.0000  0.0000  0.7071  0.0000  0.7071 -0.0000      0.0000  0.0000  0.0000  0.0000  0.0000  0.0000  0.0000  0.0000  0.0000  0.0000
  o =  1.0108  v =  0.0000  0.0000  0.0000  0.0000  0.0000 -0.7791  0.0000 -0.6270  0.0000  0.0000      0.0000  0.0000  0.0000  0.0000  0.0000  0.0000  0.0000  0.0000  0.0000  0.0000
atom =   2  type =  1  l = 2
 
 onsite density matrix
 
spin component  1
 
  0.9904  0.0000 -0.0253  0.0000 -0.0000
  0.0000  0.9789  0.0000 -0.0121  0.0000
 -0.0253  0.0000  0.9794  0.0000  0.0000
  0.0000 -0.0121  0.0000  0.9789  0.0000
 -0.0000  0.0000  0.0000  0.0000  0.9654
 
spin component  2
 
  0.0488  0.0000 -0.0133  0.0000 -0.0000
  0.0000  0.0532  0.0000 -0.0231  0.0000
 -0.0133  0.0000  0.0421  0.0000 -0.0000
  0.0000 -0.0231  0.0000  0.0532  0.0000
 -0.0000  0.0000 -0.0000  0.0000  0.0254
 
 occupancies and eigenvectors
 
  o =  0.0254  v =  0.0000  0.0000  0.0000  0.0000  0.0000  0.0000  0.0000  0.0000  0.0000  1.0000      0.0000  0.0000  0.0000  0.0000  0.0000  0.0000  0.0000  0.0000  0.0000  0.0000
  o =  0.0301  v =  0.0000  0.0000  0.0000  0.0000  0.0000  0.0000 -0.7071  0.0000 -0.7071  0.0000      0.0000  0.0000  0.0000  0.0000  0.0000  0.0000  0.0000  0.0000  0.0000  0.0000
  o =  0.0317  v =  0.0000  0.0000  0.0000  0.0000  0.0000 -0.6147  0.0000 -0.7887  0.0000  0.0000      0.0000  0.0000  0.0000  0.0000  0.0000  0.0000  0.0000  0.0000  0.0000  0.0000
  o =  0.0592  v =  0.0000  0.0000  0.0000  0.0000  0.0000 -0.7887 -0.0000  0.6147  0.0000 -0.0000      0.0000  0.0000  0.0000  0.0000  0.0000  0.0000  0.0000  0.0000  0.0000  0.0000
  o =  0.0764  v =  0.0000  0.0000  0.0000  0.0000  0.0000  0.0000  0.7071  0.0000 -0.7071 -0.0000      0.0000  0.0000  0.0000  0.0000  0.0000  0.0000  0.0000  0.0000  0.0000  0.0000
  o =  0.9590  v = -0.6270  0.0000 -0.7791  0.0000  0.0000  0.0000  0.0000  0.0000  0.0000  0.0000      0.0000  0.0000  0.0000  0.0000  0.0000  0.0000  0.0000  0.0000  0.0000  0.0000
  o =  0.9654  v = -0.0000 -0.0000 -0.0000  0.0000 -1.0000  0.0000  0.0000  0.0000  0.0000  0.0000      0.0000  0.0000  0.0000  0.0000  0.0000  0.0000  0.0000  0.0000  0.0000  0.0000
  o =  0.9668  v =  0.0000 -0.7071  0.0000 -0.7071  0.0000  0.0000  0.0000  0.0000  0.0000  0.0000      0.0000  0.0000  0.0000  0.0000  0.0000  0.0000  0.0000  0.0000  0.0000  0.0000
  o =  0.9910  v =  0.0000 -0.7071  0.0000  0.7071  0.0000  0.0000  0.0000  0.0000  0.0000  0.0000      0.0000  0.0000  0.0000  0.0000  0.0000  0.0000  0.0000  0.0000  0.0000  0.0000
  o =  1.0108  v = -0.7791  0.0000  0.6270  0.0000  0.0000  0.0000  0.0000  0.0000  0.0000  0.0000      0.0000  0.0000  0.0000  0.0000  0.0000  0.0000  0.0000  0.0000  0.0000  0.0000
     EDDAV:  cpu time    1.4664: real time    1.4664
       DOS:  cpu time    0.0002: real time    0.0002
    CHARGE:  cpu time    0.2738: real time    0.2738
    MIXING:  cpu time    0.0010: real time    0.0010
    --------------------------------------------
      LOOP:  cpu time    3.2574: real time    3.2574

 eigenvalue-minimisations  :  1536
 total energy-change (2. order) : 0.2550619E+01  (-0.7350169E+00)
 number of electron      54.0000001 magnetization       0.0000000
 augmentation part       19.8227676 magnetization       0.0000000

 Broyden mixing:
  rms(total) = 0.60791E+00    rms(broyden)= 0.60790E+00
  rms(prec ) = 0.89376E+00
  weight for this iteration     100.00

 eigenvalues of (default mixing * dielectric matrix)
  average eigenvalue GAMMA=   0.7428
  0.9281  0.6501  0.6501

 Free energy of the ion-electron system (eV)
  ---------------------------------------------------
  alpha Z        PSCENC =       199.38838823
  Ewald energy   TEWEN  =     -4203.06823030
  -Hartree energ DENC   =     -2173.92457122
  -exchange      EXHF   =         0.00000000
  -V(xc)+E(xc)   XCENC  =       170.24753314
  PAW double counting   =      6425.13461072    -6389.92073608
  entropy T*S    EENTRO =        -0.00000000
  eigenvalues    EBANDS =      -785.59297491
  atomic energy  EATOM  =      6689.10585665
  Solvation  Ediel_sol  =         0.00000000
  ---------------------------------------------------
  free energy    TOTEN  =       -68.63012375 eV

  energy without entropy =      -68.63012375  energy(sigma->0) =      -68.63012375


--------------------------------------------------------------------------------------------------------




--------------------------------------- Iteration      1(   9)  ---------------------------------------


    POTLOK:  cpu time    0.0576: real time    0.0576
    SETDIJ:  cpu time    1.4589: real time    1.4589
atom =   1  type =  1  l = 2
 
 onsite density matrix
 
spin component  1
 
  0.0690  0.0000  0.0381  0.0000 -0.0000
  0.0000  0.0476  0.0000  0.0190  0.0000
  0.0381  0.0000  0.0515  0.0000 -0.0000
  0.0000  0.0190  0.0000  0.0476  0.0000
 -0.0000  0.0000 -0.0000  0.0000  0.0235
 
spin component  2
 
  0.9498  0.0000  0.0064  0.0000  0.0000
  0.0000  0.9596  0.0000  0.0180  0.0000
  0.0064  0.0000  0.9450  0.0000  0.0000
  0.0000  0.0180  0.0000  0.9596  0.0000
  0.0000  0.0000  0.0000  0.0000  0.9424
 
 occupancies and eigenvectors
 
  o =  0.0212  v = -0.6234  0.0000  0.7819  0.0000  0.0000  0.0000  0.0000  0.0000  0.0000  0.0000      0.0000  0.0000  0.0000  0.0000  0.0000  0.0000  0.0000  0.0000  0.0000  0.0000
  o =  0.0235  v = -0.0000 -0.0000  0.0000  0.0000 -1.0000  0.0000  0.0000  0.0000  0.0000  0.0000      0.0000  0.0000  0.0000  0.0000  0.0000  0.0000  0.0000  0.0000  0.0000  0.0000
  o =  0.0286  v =  0.0000 -0.7071  0.0000  0.7071  0.0000  0.0000  0.0000  0.0000  0.0000  0.0000      0.0000  0.0000  0.0000  0.0000  0.0000  0.0000  0.0000  0.0000  0.0000  0.0000
  o =  0.0666  v =  0.0000 -0.7071  0.0000 -0.7071  0.0000  0.0000  0.0000  0.0000  0.0000  0.0000      0.0000  0.0000  0.0000  0.0000  0.0000  0.0000  0.0000  0.0000  0.0000  0.0000
  o =  0.0993  v = -0.7819  0.0000 -0.6234  0.0000  0.0000  0.0000  0.0000  0.0000  0.0000  0.0000      0.0000  0.0000  0.0000  0.0000  0.0000  0.0000  0.0000  0.0000  0.0000  0.0000
  o =  0.9406  v =  0.0000  0.0000  0.0000  0.0000  0.0000 -0.5676 -0.0000  0.8233  0.0000 -0.0000      0.0000  0.0000  0.0000  0.0000  0.0000  0.0000  0.0000  0.0000  0.0000  0.0000
  o =  0.9417  v =  0.0000  0.0000  0.0000  0.0000  0.0000  0.0000  0.7071  0.0000 -0.7071 -0.0000      0.0000  0.0000  0.0000  0.0000  0.0000  0.0000  0.0000  0.0000  0.0000  0.0000
  o =  0.9424  v =  0.0000  0.0000  0.0000  0.0000  0.0000 -0.0000  0.0000  0.0000 -0.0000  1.0000      0.0000  0.0000  0.0000  0.0000  0.0000  0.0000  0.0000  0.0000  0.0000  0.0000
  o =  0.9542  v =  0.0000  0.0000  0.0000  0.0000  0.0000  0.8233  0.0000  0.5676 -0.0000  0.0000      0.0000  0.0000  0.0000  0.0000  0.0000  0.0000  0.0000  0.0000  0.0000  0.0000
  o =  0.9776  v =  0.0000  0.0000  0.0000  0.0000  0.0000  0.0000  0.7071 -0.0000  0.7071  0.0000      0.0000  0.0000  0.0000  0.0000  0.0000  0.0000  0.0000  0.0000  0.0000  0.0000
atom =   2  type =  1  l = 2
 
 onsite density matrix
 
spin component  1
 
  0.9498  0.0000 -0.0064  0.0000  0.0000
  0.0000  0.9596  0.0000 -0.0180  0.0000
 -0.0064  0.0000  0.9450  0.0000 -0.0000
  0.0000 -0.0180  0.0000  0.9596  0.0000
  0.0000  0.0000 -0.0000  0.0000  0.9424
 
spin component  2
 
  0.0690  0.0000 -0.0381  0.0000  0.0000
  0.0000  0.0476  0.0000 -0.0190  0.0000
 -0.0381  0.0000  0.0515  0.0000  0.0000
  0.0000 -0.0190  0.0000  0.0476  0.0000
  0.0000  0.0000  0.0000  0.0000  0.0235
 
 occupancies and eigenvectors
 
  o =  0.0212  v =  0.0000  0.0000  0.0000  0.0000  0.0000 -0.6234 -0.0000 -0.7819  0.0000  0.0000      0.0000  0.0000  0.0000  0.0000  0.0000  0.0000  0.0000  0.0000  0.0000  0.0000
  o =  0.0235  v =  0.0000  0.0000  0.0000  0.0000  0.0000 -0.0000  0.0000 -0.0000  0.0000 -1.0000      0.0000  0.0000  0.0000  0.0000  0.0000  0.0000  0.0000  0.0000  0.0000  0.0000
  o =  0.0286  v =  0.0000  0.0000  0.0000  0.0000  0.0000  0.0000  0.7071  0.0000  0.7071  0.0000      0.0000  0.0000  0.0000  0.0000  0.0000  0.0000  0.0000  0.0000  0.0000  0.0000
  o =  0.0666  v =  0.0000  0.0000  0.0000  0.0000  0.0000  0.0000  0.7071  0.0000 -0.7071  0.0000      0.0000  0.0000  0.0000  0.0000  0.0000  0.0000  0.0000  0.0000  0.0000  0.0000
  o =  0.0993  v =  0.0000  0.0000  0.0000  0.0000  0.0000 -0.7819 -0.0000  0.6234  0.0000  0.0000      0.0000  0.0000  0.0000  0.0000  0.0000  0.0000  0.0000  0.0000  0.0000  0.0000
  o =  0.9406  v = -0.5676  0.0000 -0.8233  0.0000 -0.0000  0.0000  0.0000  0.0000  0.0000  0.0000      0.0000  0.0000  0.0000  0.0000  0.0000  0.0000  0.0000  0.0000  0.0000  0.0000
  o =  0.9417  v =  0.0000 -0.7071 -0.0000 -0.7071 -0.0000  0.0000  0.0000  0.0000  0.0000  0.0000      0.0000  0.0000  0.0000  0.0000  0.0000  0.0000  0.0000  0.0000  0.0000  0.0000
  o =  0.9424  v = -0.0000 -0.0000 -0.0000 -0.0000  1.0000  0.0000  0.0000  0.0000  0.0000  0.0000      0.0000  0.0000  0.0000  0.0000  0.0000  0.0000  0.0000  0.0000  0.0000  0.0000
  o =  0.9542  v =  0.8233 -0.0000 -0.5676 -0.0000  0.0000  0.0000  0.0000  0.0000  0.0000  0.0000      0.0000  0.0000  0.0000  0.0000  0.0000  0.0000  0.0000  0.0000  0.0000  0.0000
  o =  0.9776  v =  0.0000 -0.7071  0.0000  0.7071  0.0000  0.0000  0.0000  0.0000  0.0000  0.0000      0.0000  0.0000  0.0000  0.0000  0.0000  0.0000  0.0000  0.0000  0.0000  0.0000
     EDDAV:  cpu time    1.3692: real time    1.3692
       DOS:  cpu time    0.0002: real time    0.0002
    CHARGE:  cpu time    0.2706: real time    0.2706
    MIXING:  cpu time    0.0011: real time    0.0011
    --------------------------------------------
      LOOP:  cpu time    3.1575: real time    3.1575

 eigenvalue-minimisations  :  1380
 total energy-change (2. order) : 0.4642762E+00  (-0.3646327E+00)
 number of electron      54.0000001 magnetization      -0.0000000
 augmentation part       20.0102284 magnetization      -0.0000000

 Broyden mixing:
  rms(total) = 0.77764E+00    rms(broyden)= 0.77764E+00
  rms(prec ) = 0.82374E+00
  weight for this iteration     100.00

 eigenvalues of (default mixing * dielectric matrix)
  average eigenvalue GAMMA=   0.9785
  1.8252  0.7556  0.7556  0.5775

 Free energy of the ion-electron system (eV)
  ---------------------------------------------------
  alpha Z        PSCENC =       199.38838823
  Ewald energy   TEWEN  =     -4203.06823030
  -Hartree energ DENC   =     -2158.96522326
  -exchange      EXHF   =         0.00000000
  -V(xc)+E(xc)   XCENC  =       168.31869681
  PAW double counting   =      6445.35090244    -6409.19707805
  entropy T*S    EENTRO =        -0.00000000
  eigenvalues    EBANDS =      -799.09916004
  atomic energy  EATOM  =      6689.10585665
  Solvation  Ediel_sol  =         0.00000000
  ---------------------------------------------------
  free energy    TOTEN  =       -68.16584752 eV

  energy without entropy =      -68.16584752  energy(sigma->0) =      -68.16584752


--------------------------------------------------------------------------------------------------------




--------------------------------------- Iteration      1(  10)  ---------------------------------------


    POTLOK:  cpu time    0.0574: real time    0.0574
    SETDIJ:  cpu time    1.4612: real time    1.4612
atom =   1  type =  1  l = 2
 
 onsite density matrix
 
spin component  1
 
  0.0431  0.0000  0.0122  0.0000  0.0000
  0.0000  0.0501  0.0000  0.0218  0.0000
  0.0122  0.0000  0.0359  0.0000  0.0000
  0.0000  0.0218  0.0000  0.0501  0.0000
  0.0000  0.0000  0.0000  0.0000  0.0279
 
spin component  2
 
  0.9705  0.0000  0.0341  0.0000 -0.0000
  0.0000  0.9519  0.0000  0.0168  0.0000
  0.0341  0.0000  0.9543  0.0000 -0.0000
  0.0000  0.0168  0.0000  0.9519  0.0000
 -0.0000  0.0000 -0.0000  0.0000  0.9319
 
 occupancies and eigenvectors
 
  o =  0.0268  v = -0.5986  0.0000  0.8010  0.0000 -0.0000  0.0000  0.0000  0.0000  0.0000  0.0000      0.0000  0.0000  0.0000  0.0000  0.0000  0.0000  0.0000  0.0000  0.0000  0.0000
  o =  0.0279  v = -0.0000 -0.0000  0.0000  0.0000  1.0000  0.0000  0.0000  0.0000  0.0000  0.0000      0.0000  0.0000  0.0000  0.0000  0.0000  0.0000  0.0000  0.0000  0.0000  0.0000
  o =  0.0282  v =  0.0000  0.7071  0.0000 -0.7071 -0.0000  0.0000  0.0000  0.0000  0.0000  0.0000      0.0000  0.0000  0.0000  0.0000  0.0000  0.0000  0.0000  0.0000  0.0000  0.0000
  o =  0.0522  v = -0.8010  0.0000 -0.5986  0.0000 -0.0000  0.0000  0.0000  0.0000  0.0000  0.0000      0.0000  0.0000  0.0000  0.0000  0.0000  0.0000  0.0000  0.0000  0.0000  0.0000
  o =  0.0719  v =  0.0000  0.7071  0.0000  0.7071 -0.0000  0.0000  0.0000  0.0000  0.0000  0.0000      0.0000  0.0000  0.0000  0.0000  0.0000  0.0000  0.0000  0.0000  0.0000  0.0000
  o =  0.9274  v =  0.0000  0.0000  0.0000  0.0000  0.0000 -0.6198  0.0000  0.7848  0.0000  0.0000      0.0000  0.0000  0.0000  0.0000  0.0000  0.0000  0.0000  0.0000  0.0000  0.0000
  o =  0.9319  v =  0.0000  0.0000  0.0000  0.0000  0.0000 -0.0000 -0.0000  0.0000  0.0000 -1.0000      0.0000  0.0000  0.0000  0.0000  0.0000  0.0000  0.0000  0.0000  0.0000  0.0000
  o =  0.9351  v =  0.0000  0.0000  0.0000  0.0000  0.0000  0.0000  0.7071  0.0000 -0.7071 -0.0000      0.0000  0.0000  0.0000  0.0000  0.0000  0.0000  0.0000  0.0000  0.0000  0.0000
  o =  0.9687  v =  0.0000  0.0000  0.0000  0.0000  0.0000  0.0000  0.7071  0.0000  0.7071 -0.0000      0.0000  0.0000  0.0000  0.0000  0.0000  0.0000  0.0000  0.0000  0.0000  0.0000
  o =  0.9974  v =  0.0000  0.0000  0.0000  0.0000  0.0000 -0.7848  0.0000 -0.6198  0.0000  0.0000      0.0000  0.0000  0.0000  0.0000  0.0000  0.0000  0.0000  0.0000  0.0000  0.0000
atom =   2  type =  1  l = 2
 
 onsite density matrix
 
spin component  1
 
  0.9705  0.0000 -0.0341  0.0000 -0.0000
  0.0000  0.9519  0.0000 -0.0168  0.0000
 -0.0341  0.0000  0.9543  0.0000  0.0000
  0.0000 -0.0168  0.0000  0.9519  0.0000
 -0.0000  0.0000  0.0000  0.0000  0.9319
 
spin component  2
 
  0.0431  0.0000 -0.0122  0.0000 -0.0000
  0.0000  0.0501  0.0000 -0.0218  0.0000
 -0.0122  0.0000  0.0359  0.0000 -0.0000
  0.0000 -0.0218  0.0000  0.0501  0.0000
 -0.0000  0.0000 -0.0000  0.0000  0.0279
 
 occupancies and eigenvectors
 
  o =  0.0268  v =  0.0000  0.0000  0.0000  0.0000  0.0000 -0.5986 -0.0000 -0.8010  0.0000 -0.0000      0.0000  0.0000  0.0000  0.0000  0.0000  0.0000  0.0000  0.0000  0.0000  0.0000
  o =  0.0279  v =  0.0000  0.0000  0.0000  0.0000  0.0000 -0.0000  0.0000 -0.0000  0.0000  1.0000      0.0000  0.0000  0.0000  0.0000  0.0000  0.0000  0.0000  0.0000  0.0000  0.0000
  o =  0.0282  v =  0.0000  0.0000  0.0000  0.0000  0.0000  0.0000 -0.7071  0.0000 -0.7071  0.0000      0.0000  0.0000  0.0000  0.0000  0.0000  0.0000  0.0000  0.0000  0.0000  0.0000
  o =  0.0522  v =  0.0000  0.0000  0.0000  0.0000  0.0000 -0.8010 -0.0000  0.5986  0.0000 -0.0000      0.0000  0.0000  0.0000  0.0000  0.0000  0.0000  0.0000  0.0000  0.0000  0.0000
  o =  0.0719  v =  0.0000  0.0000  0.0000  0.0000  0.0000  0.0000  0.7071  0.0000 -0.7071 -0.0000      0.0000  0.0000  0.0000  0.0000  0.0000  0.0000  0.0000  0.0000  0.0000  0.0000
  o =  0.9274  v = -0.6198  0.0000 -0.7848  0.0000  0.0000  0.0000  0.0000  0.0000  0.0000  0.0000      0.0000  0.0000  0.0000  0.0000  0.0000  0.0000  0.0000  0.0000  0.0000  0.0000
  o =  0.9319  v = -0.0000 -0.0000 -0.0000  0.0000 -1.0000  0.0000  0.0000  0.0000  0.0000  0.0000      0.0000  0.0000  0.0000  0.0000  0.0000  0.0000  0.0000  0.0000  0.0000  0.0000
  o =  0.9351  v =  0.0000 -0.7071  0.0000 -0.7071  0.0000  0.0000  0.0000  0.0000  0.0000  0.0000      0.0000  0.0000  0.0000  0.0000  0.0000  0.0000  0.0000  0.0000  0.0000  0.0000
  o =  0.9687  v =  0.0000 -0.7071  0.0000  0.7071  0.0000  0.0000  0.0000  0.0000  0.0000  0.0000      0.0000  0.0000  0.0000  0.0000  0.0000  0.0000  0.0000  0.0000  0.0000  0.0000
  o =  0.9974  v = -0.7848  0.0000  0.6198  0.0000  0.0000  0.0000  0.0000  0.0000  0.0000  0.0000      0.0000  0.0000  0.0000  0.0000  0.0000  0.0000  0.0000  0.0000  0.0000  0.0000
     EDDAV:  cpu time    1.4224: real time    1.4224
       DOS:  cpu time    0.0002: real time    0.0002
    CHARGE:  cpu time    0.2698: real time    0.2698
    MIXING:  cpu time    0.0012: real time    0.0012
    --------------------------------------------
      LOOP:  cpu time    3.2122: real time    3.2122

 eigenvalue-minimisations  :  1464
 total energy-change (2. order) : 0.3986665E-01  (-0.3241390E-01)
 number of electron      54.0000001 magnetization      -0.0000000
 augmentation part       20.0231694 magnetization      -0.0000000

 Broyden mixing:
  rms(total) = 0.53648E+00    rms(broyden)= 0.53648E+00
  rms(prec ) = 0.58663E+00
  weight for this iteration     100.00

 eigenvalues of (default mixing * dielectric matrix)
  average eigenvalue GAMMA=   1.2237
  2.9483  0.9753  0.9753  0.6098  0.6098

 Free energy of the ion-electron system (eV)
  ---------------------------------------------------
  alpha Z        PSCENC =       199.38838823
  Ewald energy   TEWEN  =     -4203.06823030
  -Hartree energ DENC   =     -2153.54046559
  -exchange      EXHF   =         0.00000000
  -V(xc)+E(xc)   XCENC  =       166.10561156
  PAW double counting   =      6519.17475661    -6484.26674823
  entropy T*S    EENTRO =        -0.00000000
  eigenvalues    EBANDS =      -801.02514981
  atomic energy  EATOM  =      6689.10585665
  Solvation  Ediel_sol  =         0.00000000
  ---------------------------------------------------
  free energy    TOTEN  =       -68.12598087 eV

  energy without entropy =      -68.12598087  energy(sigma->0) =      -68.12598087


--------------------------------------------------------------------------------------------------------




--------------------------------------- Iteration      1(  11)  ---------------------------------------


    POTLOK:  cpu time    0.0575: real time    0.0575
    SETDIJ:  cpu time    1.4594: real time    1.4594
atom =   1  type =  1  l = 2
 
 onsite density matrix
 
spin component  1
 
  0.0517  0.0000  0.0304  0.0000 -0.0000
  0.0000  0.0434  0.0000  0.0253  0.0000
  0.0304  0.0000  0.0368  0.0000  0.0000
  0.0000  0.0253  0.0000  0.0434  0.0000
 -0.0000  0.0000  0.0000  0.0000  0.0145
 
spin component  2
 
  0.9622  0.0000  0.0182  0.0000 -0.0000
  0.0000  0.9583  0.0000  0.0164  0.0000
  0.0182  0.0000  0.9513  0.0000 -0.0000
  0.0000  0.0164  0.0000  0.9583  0.0000
 -0.0000  0.0000 -0.0000  0.0000  0.9429
 
 occupancies and eigenvectors
 
  o =  0.0129  v = -0.6178 -0.0000  0.7863  0.0000 -0.0000  0.0000  0.0000  0.0000  0.0000  0.0000      0.0000  0.0000  0.0000  0.0000  0.0000  0.0000  0.0000  0.0000  0.0000  0.0000
  o =  0.0145  v = -0.0000  0.0000  0.0000  0.0000  1.0000  0.0000  0.0000  0.0000  0.0000  0.0000      0.0000  0.0000  0.0000  0.0000  0.0000  0.0000  0.0000  0.0000  0.0000  0.0000
  o =  0.0182  v =  0.0000  0.7071  0.0000 -0.7071 -0.0000  0.0000  0.0000  0.0000  0.0000  0.0000      0.0000  0.0000  0.0000  0.0000  0.0000  0.0000  0.0000  0.0000  0.0000  0.0000
  o =  0.0687  v =  0.0000 -0.7071  0.0000 -0.7071  0.0000  0.0000  0.0000  0.0000  0.0000  0.0000      0.0000  0.0000  0.0000  0.0000  0.0000  0.0000  0.0000  0.0000  0.0000  0.0000
  o =  0.0756  v = -0.7863 -0.0000 -0.6178  0.0000 -0.0000  0.0000  0.0000  0.0000  0.0000  0.0000      0.0000  0.0000  0.0000  0.0000  0.0000  0.0000  0.0000  0.0000  0.0000  0.0000
  o =  0.9377  v =  0.0000  0.0000  0.0000  0.0000  0.0000 -0.5969  0.0000  0.8023 -0.0000  0.0000      0.0000  0.0000  0.0000  0.0000  0.0000  0.0000  0.0000  0.0000  0.0000  0.0000
  o =  0.9420  v =  0.0000  0.0000  0.0000  0.0000  0.0000 -0.0000 -0.7071  0.0000  0.7071  0.0000      0.0000  0.0000  0.0000  0.0000  0.0000  0.0000  0.0000  0.0000  0.0000  0.0000
  o =  0.9429  v =  0.0000  0.0000  0.0000  0.0000  0.0000  0.0000  0.0000 -0.0000 -0.0000  1.0000      0.0000  0.0000  0.0000  0.0000  0.0000  0.0000  0.0000  0.0000  0.0000  0.0000
  o =  0.9747  v =  0.0000  0.0000  0.0000  0.0000  0.0000 -0.0000 -0.7071 -0.0000 -0.7071  0.0000      0.0000  0.0000  0.0000  0.0000  0.0000  0.0000  0.0000  0.0000  0.0000  0.0000
  o =  0.9757  v =  0.0000  0.0000  0.0000  0.0000  0.0000 -0.8023  0.0000 -0.5969  0.0000  0.0000      0.0000  0.0000  0.0000  0.0000  0.0000  0.0000  0.0000  0.0000  0.0000  0.0000
atom =   2  type =  1  l = 2
 
 onsite density matrix
 
spin component  1
 
  0.9622  0.0000 -0.0182  0.0000 -0.0000
  0.0000  0.9583  0.0000 -0.0164  0.0000
 -0.0182  0.0000  0.9513  0.0000  0.0000
  0.0000 -0.0164  0.0000  0.9583  0.0000
 -0.0000  0.0000  0.0000  0.0000  0.9429
 
spin component  2
 
  0.0517  0.0000 -0.0304  0.0000 -0.0000
  0.0000  0.0434  0.0000 -0.0253  0.0000
 -0.0304  0.0000  0.0368  0.0000 -0.0000
  0.0000 -0.0253  0.0000  0.0434  0.0000
 -0.0000  0.0000 -0.0000  0.0000  0.0145
 
 occupancies and eigenvectors
 
  o =  0.0129  v =  0.0000  0.0000  0.0000  0.0000  0.0000 -0.6178 -0.0000 -0.7863  0.0000 -0.0000      0.0000  0.0000  0.0000  0.0000  0.0000  0.0000  0.0000  0.0000  0.0000  0.0000
  o =  0.0145  v =  0.0000  0.0000  0.0000  0.0000  0.0000 -0.0000  0.0000 -0.0000  0.0000  1.0000      0.0000  0.0000  0.0000  0.0000  0.0000  0.0000  0.0000  0.0000  0.0000  0.0000
  o =  0.0182  v =  0.0000  0.0000  0.0000  0.0000  0.0000  0.0000 -0.7071  0.0000 -0.7071  0.0000      0.0000  0.0000  0.0000  0.0000  0.0000  0.0000  0.0000  0.0000  0.0000  0.0000
  o =  0.0687  v =  0.0000  0.0000  0.0000  0.0000  0.0000  0.0000  0.7071  0.0000 -0.7071 -0.0000      0.0000  0.0000  0.0000  0.0000  0.0000  0.0000  0.0000  0.0000  0.0000  0.0000
  o =  0.0756  v =  0.0000  0.0000  0.0000  0.0000  0.0000 -0.7863 -0.0000  0.6178  0.0000 -0.0000      0.0000  0.0000  0.0000  0.0000  0.0000  0.0000  0.0000  0.0000  0.0000  0.0000
  o =  0.9377  v =  0.5969 -0.0000  0.8023  0.0000 -0.0000  0.0000  0.0000  0.0000  0.0000  0.0000      0.0000  0.0000  0.0000  0.0000  0.0000  0.0000  0.0000  0.0000  0.0000  0.0000
  o =  0.9420  v = -0.0000 -0.7071 -0.0000 -0.7071 -0.0000  0.0000  0.0000  0.0000  0.0000  0.0000      0.0000  0.0000  0.0000  0.0000  0.0000  0.0000  0.0000  0.0000  0.0000  0.0000
  o =  0.9429  v = -0.0000  0.0000 -0.0000  0.0000 -1.0000  0.0000  0.0000  0.0000  0.0000  0.0000      0.0000  0.0000  0.0000  0.0000  0.0000  0.0000  0.0000  0.0000  0.0000  0.0000
  o =  0.9747  v =  0.0000 -0.7071 -0.0000  0.7071  0.0000  0.0000  0.0000  0.0000  0.0000  0.0000      0.0000  0.0000  0.0000  0.0000  0.0000  0.0000  0.0000  0.0000  0.0000  0.0000
  o =  0.9757  v =  0.8023  0.0000 -0.5969  0.0000 -0.0000  0.0000  0.0000  0.0000  0.0000  0.0000      0.0000  0.0000  0.0000  0.0000  0.0000  0.0000  0.0000  0.0000  0.0000  0.0000
     EDDAV:  cpu time    1.4194: real time    1.4194
       DOS:  cpu time    0.0002: real time    0.0002
    CHARGE:  cpu time    0.2737: real time    0.2737
    MIXING:  cpu time    0.0013: real time    0.0013
    --------------------------------------------
      LOOP:  cpu time    3.2115: real time    3.2115

 eigenvalue-minimisations  :  1464
 total energy-change (2. order) : 0.4322864E-01  (-0.4658153E-01)
 number of electron      54.0000001 magnetization      -0.0000000
 augmentation part       20.0527156 magnetization      -0.0000000

 Broyden mixing:
  rms(total) = 0.12820E+00    rms(broyden)= 0.12820E+00
  rms(prec ) = 0.18071E+00
  weight for this iteration     100.00

 eigenvalues of (default mixing * dielectric matrix)
  average eigenvalue GAMMA=   1.1245
  3.0113  0.9923  0.9923  0.5960  0.5776  0.5776

 Free energy of the ion-electron system (eV)
  ---------------------------------------------------
[...]
     13      -4.0379      1.00000
     14      -3.8565      1.00000
     15      -3.6959      1.00000
     16      -3.5033      1.00000
     17      -3.1230      1.00000
     18      -2.9452      1.00000
     19      -2.8102      1.00000
     20      -2.4059      1.00000
     21      -2.3172      1.00000
     22      -2.2582      1.00000
     23       0.7659      1.00000
     24       0.8094      1.00000
     25       1.0526      1.00000
     26       1.6765      1.00000
     27       2.0243      1.00000
     28       6.3741      0.00000
     29       6.4026      0.00000
     30       6.5065      0.00000
     31       7.3543      0.00000
     32       7.6452      0.00000
     33       8.9529      0.00000
     34      11.2453      0.00000
     35      12.7088      0.00000
     36      13.0738      0.00000

 k-point     8 :       0.3750    0.1250    0.4167
  band No.  band energies     occupation 
      1     -49.2667      1.00000
      2     -49.2262      1.00000
      3     -49.2062      1.00000
      4     -42.7566      1.00000
      5     -42.7125      1.00000
      6     -42.6828      1.00000
      7     -22.6303      1.00000
      8     -22.5739      1.00000
      9     -22.5243      1.00000
     10     -22.4556      1.00000
     11      -4.5134      1.00000
     12      -4.2575      1.00000
     13      -4.1749      1.00000
     14      -3.9972      1.00000
     15      -3.6291      1.00000
     16      -3.3928      1.00000
     17      -3.2200      1.00000
     18      -3.1151      1.00000
     19      -2.5467      1.00000
     20      -2.3876      1.00000
     21      -2.2089      1.00000
     22      -2.1067      1.00000
     23       0.7533      1.00000
     24       0.7820      1.00000
     25       0.9920      1.00000
     26       1.6335      1.00000
     27       2.1527      1.00000
     28       6.3623      0.00000
     29       6.3957      0.00000
     30       6.5624      0.00000
     31       7.3090      0.00000
     32       7.8259      0.00000
     33       9.5775      0.00000
     34      11.1060      0.00000
     35      11.6223      0.00000
     36      12.9327      0.00000

 k-point     9 :       0.3750    0.3750    0.4167
  band No.  band energies     occupation 
      1     -49.2667      1.00000
      2     -49.2262      1.00000
      3     -49.2062      1.00000
      4     -42.7566      1.00000
      5     -42.7125      1.00000
      6     -42.6828      1.00000
      7     -22.6233      1.00000
      8     -22.5826      1.00000
      9     -22.5248      1.00000
     10     -22.4501      1.00000
     11      -4.7483      1.00000
     12      -4.5388      1.00000
     13      -4.1693      1.00000
     14      -4.1078      1.00000
     15      -3.6031      1.00000
     16      -3.3271      1.00000
     17      -3.1560      1.00000
     18      -2.9255      1.00000
     19      -2.3369      1.00000
     20      -2.2429      1.00000
     21      -2.1317      1.00000
     22      -2.0551      1.00000
     23       0.7511      1.00000
     24       0.7745      1.00000
     25       0.9777      1.00000
     26       1.6677      1.00000
     27       2.1283      1.00000
     28       6.3690      0.00000
     29       6.3932      0.00000
     30       6.5801      0.00000
     31       7.2853      0.00000
     32       7.7300      0.00000
     33      10.0701      0.00000
     34      11.6635      0.00000
     35      11.6875      0.00000
     36      11.9245      0.00000


--------------------------------------------------------------------------------------------------------


 soft charge-density along one line, spin component           1
         0         1         2         3         4         5         6         7         8         9
 total charge-density along one line
 
 soft charge-density along one line, spin component           2
         0         1         2         3         4         5         6         7         8         9
 total charge-density along one line
 
 pseudopotential strength for first ion, spin component:           1
-45.240  -0.000  -0.038   7.804   0.000   0.016  -0.000   0.000
 -0.000 -45.207   0.000   0.000   7.790  -0.000  -0.000   0.000
 -0.038   0.000 -45.240   0.016  -0.000   7.804   0.000  -0.000
  7.804   0.000   0.016   5.589  -0.000   0.005  -0.000  -0.000
  0.000   7.790  -0.000  -0.000   5.583   0.000   0.000   0.000
  0.016  -0.000   7.804   0.005   0.000   5.589   0.000   0.000
 -0.000  -0.000   0.000  -0.000   0.000   0.000  -2.996   0.000
  0.000   0.000  -0.000  -0.000   0.000   0.000   0.000  -2.978
 -0.000   0.000   0.000   0.000  -0.000   0.000   0.020  -0.000
 -0.000   0.000   0.000   0.000   0.000  -0.000  -0.000  -0.018
  0.000  -0.000  -0.000  -0.000   0.000  -0.000  -0.000   0.000
 -0.000  -0.000   0.000  -0.000   0.000  -0.000  -3.511   0.000
  0.000   0.000  -0.000  -0.000   0.000   0.000   0.000  -3.493
 -0.000   0.000   0.000   0.000  -0.000   0.000   0.018  -0.000
 -0.000   0.000   0.000   0.000   0.000  -0.000  -0.000  -0.018
  0.000  -0.000  -0.000  -0.000   0.000  -0.000  -0.000   0.000
  0.000  -0.000   0.000   0.000  -0.000  -0.000   0.011   0.000
  0.000  -0.000   0.000   0.000  -0.000  -0.000   0.022   0.000
 pseudopotential strength for first ion, spin component:           2
-50.994  -0.000  -0.005   9.804   0.000   0.016   0.000   0.000
 -0.000 -50.995   0.000   0.000   9.789  -0.000  -0.000   0.000
 -0.005   0.000 -50.994   0.016  -0.000   9.804  -0.000  -0.000
  9.804   0.000   0.016   4.705  -0.000   0.001  -0.000  -0.000
  0.000   9.789  -0.000  -0.000   4.704   0.000   0.000  -0.000
  0.016  -0.000   9.804   0.001   0.000   4.705  -0.000   0.000
  0.000  -0.000  -0.000  -0.000   0.000  -0.000  -7.349   0.000
  0.000   0.000  -0.000  -0.000  -0.000   0.000   0.000  -7.339
  0.000   0.000  -0.000  -0.000  -0.000   0.000  -0.008  -0.000
 -0.000  -0.000   0.000   0.000   0.000  -0.000  -0.000  -0.027
 -0.000  -0.000   0.000  -0.000   0.000  -0.000   0.000   0.000
  0.000  -0.000  -0.000  -0.000   0.000  -0.000  -7.819   0.000
  0.000   0.000  -0.000  -0.000  -0.000   0.000   0.000  -7.810
  0.000   0.000  -0.000  -0.000  -0.000   0.000  -0.008  -0.000
 -0.000  -0.000   0.000   0.000   0.000  -0.000  -0.000  -0.027
 -0.000  -0.000   0.000  -0.000   0.000  -0.000   0.000   0.000
  0.000  -0.000  -0.000  -0.000  -0.000   0.000   0.011   0.000
  0.000  -0.000  -0.000  -0.000  -0.000   0.000   0.023   0.000
 total augmentation occupancy for first ion, spin component:           1
  2.001   0.000   0.000  -0.013   0.000   0.001   0.000   0.000   0.000   0.000   0.000   0.000   0.000   0.000   0.000   0.000
  0.000   2.001   0.000   0.000  -0.013   0.000   0.000   0.000   0.000   0.000   0.000   0.000   0.000   0.000   0.000   0.000
  0.000   0.000   2.001   0.001   0.000  -0.013   0.000   0.000   0.000   0.000   0.000   0.000   0.000   0.000   0.000   0.000
 -0.013   0.000   0.001   0.080   0.000  -0.009   0.000   0.000   0.000   0.000   0.000   0.000   0.000   0.000   0.000   0.000
  0.000  -0.013   0.000   0.000   0.090   0.000   0.000   0.000   0.000   0.000   0.000   0.000   0.000   0.000   0.000   0.000
  0.001   0.000  -0.013  -0.009   0.000   0.080   0.000   0.000   0.000   0.000   0.000   0.000   0.000   0.000   0.000   0.000
  0.000   0.000   0.000   0.000   0.000   0.000   7.736   0.000   2.982   0.000   0.000  -5.763   0.000  -2.805   0.000  -0.000
  0.000   0.000   0.000   0.000   0.000   0.000   0.000   6.551   0.000   2.524   0.000   0.000  -4.623   0.000  -2.371   0.000
  0.000   0.000   0.000   0.000   0.000   0.000   2.982   0.000   5.943   0.000   0.000  -2.806   0.000  -4.083   0.000  -0.000
  0.000   0.000   0.000   0.000   0.000   0.000   0.000   2.524   0.000   6.551   0.000   0.000  -2.371   0.000  -4.623   0.000
  0.000   0.000   0.000   0.000   0.000   0.000   0.000   0.000   0.000   0.000   3.891  -0.000   0.000  -0.000   0.000  -2.109
  0.000   0.000   0.000   0.000   0.000   0.000  -5.763   0.000  -2.806   0.000  -0.000   4.964   0.000   2.671   0.000  -0.000
  0.000   0.000   0.000   0.000   0.000   0.000   0.000  -4.623   0.000  -2.371   0.000   0.000   3.858   0.000   2.255   0.000
  0.000   0.000   0.000   0.000   0.000   0.000  -2.805   0.000  -4.083   0.000  -0.000   2.671   0.000   3.372   0.000   0.000
  0.000   0.000   0.000   0.000   0.000   0.000   0.000  -2.371   0.000  -4.623   0.000   0.000   2.255   0.000   3.858   0.000
  0.000   0.000   0.000   0.000   0.000   0.000  -0.000   0.000  -0.000   0.000  -2.109  -0.000   0.000   0.000   0.000   1.452
  0.000   0.000   0.000   0.000   0.000   0.000   0.437   0.000  -0.297   0.000  -0.000  -0.415   0.000   0.276   0.000  -0.000
  0.000   0.000   0.000   0.000   0.000   0.000  -0.091   0.000   0.068   0.000  -0.000   0.096   0.000  -0.068   0.000  -0.000
 total augmentation occupancy for first ion, spin component:           2
  0.004   0.000  -0.000   0.017   0.000  -0.001   0.000   0.000   0.000   0.000   0.000   0.000   0.000   0.000   0.000   0.000
  0.000   0.004   0.000   0.000   0.018   0.000   0.000   0.000   0.000   0.000   0.000   0.000   0.000   0.000   0.000   0.000
 -0.000   0.000   0.004  -0.001   0.000   0.017   0.000   0.000   0.000   0.000   0.000   0.000   0.000   0.000   0.000   0.000
  0.017   0.000  -0.001  -0.011   0.000  -0.000   0.000   0.000   0.000   0.000   0.000   0.000   0.000   0.000   0.000   0.000
  0.000   0.018   0.000   0.000  -0.010   0.000   0.000   0.000   0.000   0.000   0.000   0.000   0.000   0.000   0.000   0.000
 -0.001   0.000   0.017  -0.000   0.000  -0.011   0.000   0.000   0.000   0.000   0.000   0.000   0.000   0.000   0.000   0.000
  0.000   0.000   0.000   0.000   0.000   0.000  -5.092   0.000  -1.486   0.000   0.000   2.719   0.000   1.091   0.000   0.000
  0.000   0.000   0.000   0.000   0.000   0.000   0.000  -4.543   0.000  -1.268   0.000   0.000   2.295   0.000   0.932   0.000
  0.000   0.000   0.000   0.000   0.000   0.000  -1.486   0.000  -4.144   0.000  -0.000   1.091   0.000   2.008   0.000   0.000
  0.000   0.000   0.000   0.000   0.000   0.000   0.000  -1.268   0.000  -4.543   0.000   0.000   0.932   0.000   2.295   0.000
  0.000   0.000   0.000   0.000   0.000   0.000   0.000   0.000  -0.000   0.000  -3.256   0.000   0.000   0.000   0.000   1.356
  0.000   0.000   0.000   0.000   0.000   0.000   2.719   0.000   1.091   0.000   0.000  -1.449   0.000  -0.701   0.000   0.000
  0.000   0.000   0.000   0.000   0.000   0.000   0.000   2.295   0.000   0.932   0.000   0.000  -1.152   0.000  -0.602   0.000
  0.000   0.000   0.000   0.000   0.000   0.000   1.091   0.000   2.008   0.000   0.000  -0.701   0.000  -0.971   0.000  -0.000
  0.000   0.000   0.000   0.000   0.000   0.000   0.000   0.932   0.000   2.295   0.000   0.000  -0.602   0.000  -1.152   0.000
  0.000   0.000   0.000   0.000   0.000   0.000   0.000   0.000   0.000   0.000   1.356  -0.000   0.000  -0.000   0.000  -0.556
  0.000   0.000   0.000   0.000   0.000   0.000  -0.097   0.000   0.056   0.000  -0.000   0.022   0.000   0.001   0.000  -0.000
  0.000   0.000   0.000   0.000   0.000   0.000  -0.000   0.000  -0.006   0.000  -0.000   0.009   0.000  -0.003   0.000  -0.000


------------------------ aborting loop because EDIFF is reached ----------------------------------------


 


 total charge     
 
# of ion       s       p       d       tot
------------------------------------------
    1        0.167   6.148   4.964  11.280
    2        0.172   6.144   4.970  11.286
    3        1.734   4.403   0.000   6.137
    4        1.734   4.403   0.000   6.137
    5        1.734   4.399   0.000   6.133
    6        1.734   4.399   0.000   6.133
--------------------------------------------------
tot          7.274  29.896   9.934  47.105
 


 magnetization (x)
 
# of ion       s       p       d       tot
------------------------------------------
    1       -0.022  -0.018  -4.582  -4.622
    2        0.023   0.016   4.579   4.618
    3        0.003   0.025   0.000   0.027
    4        0.003   0.025   0.000   0.027
    5       -0.003  -0.021   0.000  -0.024
    6       -0.003  -0.021   0.000  -0.024
--------------------------------------------------
tot         -0.001   0.006  -0.003   0.003
 
    CHARGE:  cpu time    0.0695: real time    0.0695
    FORLOC:  cpu time    0.0013: real time    0.0013
    FORNL :  cpu time    0.3568: real time    0.3568
    STRESS:  cpu time    4.1300: real time    4.1300
    FORCOR:  cpu time    0.0511: real time    0.0510
    FORHAR:  cpu time    0.0037: real time    0.0037
    MIXING:  cpu time    0.0013: real time    0.0013
    OFIELD:  cpu time    0.0000: real time    0.0000

  FORCE on cell =-STRESS in cart. coord.  units (eV):
  Direction    XX          YY          ZZ          XY          YZ          ZX
  --------------------------------------------------------------------------------------
  Alpha Z   199.08944   199.08944   199.08944
  Ewald   -1585.30830 -1585.30830 -1030.32910    -0.00000    -0.00000    -0.00000
  Hartree   594.53791   594.53791   969.79397    -0.00000    -0.00000    -0.00000
  E(xc)    -150.58855  -150.56503  -150.70127    -0.01642    -0.02608    -0.02785
  Local     162.64910   162.64910  -760.71822    -0.00000    -0.00000     0.00000
  n-local  -310.24922  -310.52712  -309.48029     0.01891     0.11112     0.11148
  augment   158.56836   158.56836   158.07835     0.00000     0.00000    -0.00000
  Kinetic   931.14692   931.72044   924.24969    -0.43781    -0.80966    -0.84566
  Fock        0.00000     0.00000     0.00000     0.00000     0.00000     0.00000
  -------------------------------------------------------------------------------------
  Total       0.00523     0.00523    -0.01743    -0.00000     0.00000     0.00000
  in kB       0.10799     0.10799    -0.36014    -0.00000     0.00000     0.00000
  external pressure =       -0.05 kB  Pullay stress =        0.00 kB


 VOLUME and BASIS-vectors are now :
 -----------------------------------------------------------------------------
  energy-cutoff  :      900.00
  volume of cell :       77.54
      direct lattice vectors                 reciprocal lattice vectors
     4.855123242 -0.000000000  0.000000000     0.205967995  0.000000000  0.000000000
     0.000000000  4.855123242  0.000000000     0.000000000  0.205967995  0.000000000
     0.000000000  0.000000000  3.289484586     0.000000000  0.000000000  0.303998993

  length of vectors
     4.855123242  4.855123242  3.289484586     0.205967995  0.205967995  0.303998993


 FORCES acting on ions
    electron-ion (+dipol)            ewald-force                    non-local-force                 convergence-correction
 -----------------------------------------------------------------------------------------------
   0.208E-11 0.512E-11 0.446E-11   0.114E-12 0.284E-13 -.236E-13   0.000E+00 0.000E+00 0.000E+00   -.114E-12 -.893E-13 -.104E-12
   -.477E-13 -.307E-13 -.273E-14   -.853E-13 -.568E-13 -.259E-13   0.000E+00 0.000E+00 0.000E+00   -.628E-13 -.273E-13 0.937E-15
   -.325E+02 0.325E+02 0.563E-11   0.337E+02 -.337E+02 0.109E-13   -.120E+01 0.120E+01 0.434E-18   0.294E-05 -.294E-05 -.100E-12
   0.325E+02 -.325E+02 0.109E-11   -.337E+02 0.337E+02 0.112E-13   0.120E+01 -.120E+01 -.434E-18   -.294E-05 0.294E-05 0.234E-14
   0.325E+02 0.325E+02 -.247E-07   -.337E+02 -.337E+02 0.670E-14   0.120E+01 0.120E+01 0.434E-18   -.294E-05 -.294E-05 0.638E-11
   -.325E+02 -.325E+02 0.247E-07   0.337E+02 0.337E+02 0.715E-14   -.120E+01 -.120E+01 -.434E-18   0.294E-05 0.294E-05 -.638E-11
 -----------------------------------------------------------------------------------------------
   0.532E-11 -.328E-11 0.146E-10   0.000E+00 0.000E+00 -.136E-13   0.000E+00 -.222E-15 0.000E+00   -.337E-12 -.321E-12 -.196E-12
 
 
 POSITION                                       TOTAL-FORCE (eV/Angst)
 -----------------------------------------------------------------------------------
      2.42756      2.42756      1.64474         0.000000     -0.000000      0.000000
      0.00000      0.00000     -0.00000         0.000000     -0.000000      0.000000
      0.95211      3.90302      1.64474        -0.000901      0.000901      0.000000
      3.90302      0.95211      1.64474         0.000901     -0.000901      0.000000
      1.47546      1.47546     -0.00000         0.000901      0.000901      0.000000
      3.37967      3.37967      0.00000        -0.000901     -0.000901     -0.000000
 -----------------------------------------------------------------------------------
    total drift:                                0.000000     -0.000000      0.000000


--------------------------------------------------------------------------------------------------------



  FREE ENERGIE OF THE ION-ELECTRON SYSTEM (eV)
  ---------------------------------------------------
  free  energy   TOTEN  =       -68.06083139 eV

  energy  without entropy=      -68.06083139  energy(sigma->0) =      -68.06083139
 
 d Force =-0.3838840E-07[-0.134E-06, 0.576E-07]  d Energy = 0.7311649E-04-0.732E-04
 d Force = 0.5026717E-02[ 0.503E-02, 0.503E-02]  d Ewald  =-0.2125679E+01 0.213E+01


--------------------------------------------------------------------------------------------------------


    POTLOK:  cpu time    1.5484: real time    1.5485


--------------------------------------------------------------------------------------------------------


 Steepest descent step on ions:
 trial-energy change:   -0.000073  1 .order   -0.000046   -0.000094    0.000002
  (g-gl).g = 0.940E-04      g.g   = 0.940E-04  gl.gl    = 0.000E+00
 g(Force)  = 0.576E-07   g(Stress)= 0.939E-04 ortho     = 0.000E+00
 gamma     =   0.00000
 trial     =   1.00000
 opt step  =   0.99059  (harmonic =   0.97471) maximal distance =0.00001846
 next E    =   -68.060831   (d E  =  -0.00007)


--------------------------------------------------------------------------------------------------------


  
 reached required accuracy - stopping structural energy minimisation
     LOOP+:  cpu time   38.7148: real time   39.0338
    4ORBIT:  cpu time    0.0000: real time    0.0000
 


 total charge     
 
# of ion       s       p       d       tot
------------------------------------------
    1        0.167   6.148   4.964  11.280
    2        0.172   6.144   4.970  11.286
    3        1.734   4.403   0.000   6.137
    4        1.734   4.403   0.000   6.137
    5        1.734   4.399   0.000   6.133
    6        1.734   4.399   0.000   6.133
--------------------------------------------------
tot          7.274  29.896   9.934  47.105
 


 magnetization (x)
 
# of ion       s       p       d       tot
------------------------------------------
    1       -0.022  -0.018  -4.582  -4.622
    2        0.023   0.016   4.579   4.618
    3        0.003   0.025   0.000   0.027
    4        0.003   0.025   0.000   0.027
    5       -0.003  -0.021   0.000  -0.024
    6       -0.003  -0.021   0.000  -0.024
--------------------------------------------------
tot         -0.001   0.006  -0.003   0.003
 

 total amount of memory used by VASP MPI-rank0    56968. kBytes
=======================================================================

   base      :      30000. kBytes
   nonl-proj :      12805. kBytes
   fftplans  :       3220. kBytes
   grid      :       6579. kBytes
   one-center:        186. kBytes
   wavefun   :       4178. kBytes
 
  
  
 General timing and accounting informations for this job:
 ========================================================
  
                  Total CPU time used (sec):      120.268
                            User time (sec):       89.366
                          System time (sec):       30.902
                         Elapsed time (sec):      120.683
  
                   Maximum memory used (kb):       88164.
                   Average memory used (kb):           0.
  
                          Minor page faults:        20911
                          Major page faults:            8
                 Voluntary context switches:          231
