 vasp.5.4.4.18Apr17-6-g9f103f2a35 (build Apr 27 2017 11:13:10) complex          
  
 executed on           IFC91_ompi date 2021.06.08  16:34:50
 running on   12 total cores
 distrk:  each k-point on   12 cores,    1 groups
 distr:  one band on NCORES_PER_BAND=   1 cores,   12 groups


--------------------------------------------------------------------------------------------------------


 INCAR:
 POTCAR:    PAW_PBE Mn_pv 02Aug2007               
 POTCAR:    PAW_PBE F 08Apr2002                   

 ----------------------------------------------------------------------------- 
|                                                                             |
|           W    W    AA    RRRRR   N    N  II  N    N   GGGG   !!!           |
|           W    W   A  A   R    R  NN   N  II  NN   N  G    G  !!!           |
|           W    W  A    A  R    R  N N  N  II  N N  N  G       !!!           |
|           W WW W  AAAAAA  RRRRR   N  N N  II  N  N N  G  GGG   !            |
|           WW  WW  A    A  R   R   N   NN  II  N   NN  G    G                |
|           W    W  A    A  R    R  N    N  II  N    N   GGGG   !!!           |
|                                                                             |
|      For optimal performance we recommend to set                            |
|        NCORE= 4 - approx SQRT( number of cores)                             |
|      NCORE specifies how many cores store one orbital (NPAR=cpu/NCORE).     |
|      This setting can  greatly improve the performance of VASP for DFT.     |
|      The default,   NCORE=1            might be grossly inefficient         |
|      on modern multi-core architectures or massively parallel machines.     |
|      Do your own testing !!!!                                               |
|      Unfortunately you need to use the default for GW and RPA calculations. |
|      (for HF NCORE is supported but not extensively tested yet)             |
|                                                                             |
 ----------------------------------------------------------------------------- 

 POTCAR:    PAW_PBE Mn_pv 02Aug2007               
   VRHFIN =Mn: 3p4s3d                                                           
   LEXCH  = PE                                                                  
   EATOM  =  2025.2664 eV,  148.8529 Ry                                         
                                                                                
   TITEL  = PAW_PBE Mn_pv 02Aug2007                                             
   LULTRA =        F    use ultrasoft PP ?                                      
   IUNSCR =        1    unscreen: 0-lin 1-nonlin 2-no                           
   RPACOR =    2.080    partial core radius                                     
   POMASS =   54.938; ZVAL   =   13.000    mass and valenz                      
   RCORE  =    2.300    outmost cutoff radius                                   
   RWIGS  =    2.500; RWIGS  =    1.323    wigner-seitz radius (au A)           
   ENMAX  =  269.864; ENMIN  =  202.398 eV                                      
   ICORE  =        3    local potential                                         
   LCOR   =        T    correct aug charges                                     
   LPAW   =        T    paw PP                                                  
   EAUG   =  569.085                                                            
   DEXC   =    0.000                                                            
   RMAX   =    2.343    core radius for proj-oper                               
   RAUG   =    1.300    factor for augmentation sphere                          
   RDEP   =    2.338    radius for radial grids                                 
   RDEPT  =    1.798    core radius for aug-charge                              
                                                                                
   Atomic configuration                                                         
    8 entries                                                                   
     n  l   j            E        occ.                                          
     1  0  0.50     -6424.8287   2.0000                                         
     2  0  0.50      -739.1154   2.0000                                         
     2  1  1.50      -625.3949   6.0000                                         
     3  0  0.50       -81.6100   2.0000                                         
     3  1  1.50       -50.4667   6.0000                                         
     3  2  2.50        -3.3745   6.0000                                         
     4  0  0.50        -4.1331   1.0000                                         
     4  3  2.50        -1.3606   0.0000                                         
   Description                                                                  
     l       E           TYP  RCUT    TYP  RCUT                                 
     1    -50.4666628     23  2.000                                             
     1     -1.3605826     23  2.000                                             
     2     -3.3744729     23  2.300                                             
     2     -4.7350555     23  2.300                                             
     0     -4.1331431     23  2.300                                             
     0      7.6656591     23  2.300                                             
     3      9.5240782     23  2.300                                             
  local pseudopotential read in
  partial core-charges read in
  partial kinetic energy density read in
  atomic valenz-charges read in
  non local Contribution for L=           1  read in
    real space projection operators read in
  non local Contribution for L=           1  read in
    real space projection operators read in
  non local Contribution for L=           2  read in
    real space projection operators read in
  non local Contribution for L=           2  read in
    real space projection operators read in
  non local Contribution for L=           0  read in
    real space projection operators read in
  non local Contribution for L=           0  read in
    real space projection operators read in
    PAW grid and wavefunctions read in
 
   number of l-projection  operators is LMAX  =           6
   number of lm-projection operators is LMMAX =          18
 
 POTCAR:    PAW_PBE F 08Apr2002                   
   VRHFIN =F: s2p5                                                              
   LEXCH  = PE                                                                  
   EATOM  =   659.6475 eV,   48.4827 Ry                                         
                                                                                
   TITEL  = PAW_PBE F 08Apr2002                                                 
   LULTRA =        F    use ultrasoft PP ?                                      
   IUNSCR =        1    unscreen: 0-lin 1-nonlin 2-no                           
   RPACOR =    1.200    partial core radius                                     
   POMASS =   18.998; ZVAL   =    7.000    mass and valenz                      
   RCORE  =    1.520    outmost cutoff radius                                   
   RWIGS  =    1.500; RWIGS  =    0.794    wigner-seitz radius (au A)           
   ENMAX  =  400.000; ENMIN  =  300.000 eV                                      
   ICORE  =        2    local potential                                         
   LCOR   =        T    correct aug charges                                     
   LPAW   =        T    paw PP                                                  
   EAUG   =  613.614                                                            
   RMAX   =    1.555    core radius for proj-oper                               
   RAUG   =    1.300    factor for augmentation sphere                          
   RDEP   =    1.539    radius for radial grids                                 
   RDEPT  =    1.299    core radius for aug-charge                              
                                                                                
   Atomic configuration                                                         
    4 entries                                                                   
     n  l   j            E        occ.                                          
     1  0  0.50      -663.3661   2.0000                                         
     2  0  0.50       -29.8995   2.0000                                         
     2  1  0.50       -11.1114   5.0000                                         
     3  2  1.50       -10.8847   0.0000                                         
   Description                                                                  
     l       E           TYP  RCUT    TYP  RCUT                                 
     0    -29.8995018     23  1.200                                             
     0     -9.5240782     23  1.200                                             
     1    -11.1113914     23  1.520                                             
     1      1.3605826     23  1.520                                             
     2    -10.8846608      7  1.500                                             
  local pseudopotential read in
  partial core-charges read in
  partial kinetic energy density read in
  atomic valenz-charges read in
  non local Contribution for L=           0  read in
    real space projection operators read in
  non local Contribution for L=           0  read in
    real space projection operators read in
  non local Contribution for L=           1  read in
    real space projection operators read in
  non local Contribution for L=           1  read in
    real space projection operators read in
    PAW grid and wavefunctions read in
 
   number of l-projection  operators is LMAX  =           4
   number of lm-projection operators is LMMAX =           8
 

 ----------------------------------------------------------------------------- 
|                                                                             |
|  ADVICE TO THIS USER RUNNING 'VASP/VAMP'   (HEAR YOUR MASTER'S VOICE ...):  |
|                                                                             |
|      You enforced a specific xc-type in the INCAR file,                     |
|      a different type was found on the POTCAR file                          |
|          I HOPE YOU KNOW, WHAT YOU ARE  DOING                               |
|                                                                             |
 ----------------------------------------------------------------------------- 

  PAW_PBE Mn_pv 02Aug2007               :
 energy of atom  1       EATOM=-2025.2664
 kinetic energy error for atom=    0.0047 (will be added to EATOM!!)
  PAW_PBE F 08Apr2002                   :
 energy of atom  2       EATOM= -659.6475
 kinetic energy error for atom=    0.0256 (will be added to EATOM!!)
 
 
 POSCAR: Mn  F                                   
  positions in cartesian coordinates
  No initial velocities read in
 exchange correlation table for  LEXCH =       14
   RHO(1)=    0.500       N(1)  =     2000
   RHO(2)=  100.500       N(2)  =     4000
 


--------------------------------------------------------------------------------------------------------


 ion  position               nearest neighbor table
   1  0.500  0.500  0.500-   3 2.11   4 2.11   5 2.14   6 2.14   5 2.14   6 2.14
   2  0.000  0.000  0.000-   5 2.11   6 2.11   3 2.14   4 2.14   3 2.14   4 2.14
   3  0.195  0.805  0.500-   1 2.11   2 2.14   2 2.14
   4  0.805  0.195  0.500-   1 2.11   2 2.14   2 2.14
   5  0.305  0.305  0.000-   2 2.11   1 2.14   1 2.14
   6  0.695  0.695  0.000-   2 2.11   1 2.14   1 2.14
 

IMPORTANT INFORMATION: All symmetrisations will be switched off!
NOSYMM: (Re-)initialisation of all symmetry stuff for point group C_1.

 
 
 KPOINTS: KPOINTS created by Atomic Simulation Env

Automatic generation of k-mesh.
Space group operators:
 irot       det(A)        alpha          n_x          n_y          n_z        tau_x        tau_y        tau_z
    1     1.000000     0.000000     1.000000     0.000000     0.000000     0.000000     0.000000     0.000000
 
 Subroutine IBZKPT returns following result:
 ===========================================
 
 Found     48 irreducible k-points:
 
 Following reciprocal coordinates:
            Coordinates               Weight
  0.125000  0.125000  0.083333      2.000000
  0.375000  0.125000  0.083333      2.000000
 -0.375000  0.125000  0.083333      2.000000
 -0.125000  0.125000  0.083333      2.000000
  0.125000  0.375000  0.083333      2.000000
  0.375000  0.375000  0.083333      2.000000
 -0.375000  0.375000  0.083333      2.000000
 -0.125000  0.375000  0.083333      2.000000
  0.125000 -0.375000  0.083333      2.000000
  0.375000 -0.375000  0.083333      2.000000
 -0.375000 -0.375000  0.083333      2.000000
 -0.125000 -0.375000  0.083333      2.000000
  0.125000 -0.125000  0.083333      2.000000
  0.375000 -0.125000  0.083333      2.000000
 -0.375000 -0.125000  0.083333      2.000000
 -0.125000 -0.125000  0.083333      2.000000
  0.125000  0.125000  0.250000      2.000000
  0.375000  0.125000  0.250000      2.000000
 -0.375000  0.125000  0.250000      2.000000
 -0.125000  0.125000  0.250000      2.000000
  0.125000  0.375000  0.250000      2.000000
  0.375000  0.375000  0.250000      2.000000
 -0.375000  0.375000  0.250000      2.000000
 -0.125000  0.375000  0.250000      2.000000
  0.125000 -0.375000  0.250000      2.000000
  0.375000 -0.375000  0.250000      2.000000
 -0.375000 -0.375000  0.250000      2.000000
 -0.125000 -0.375000  0.250000      2.000000
  0.125000 -0.125000  0.250000      2.000000
  0.375000 -0.125000  0.250000      2.000000
 -0.375000 -0.125000  0.250000      2.000000
 -0.125000 -0.125000  0.250000      2.000000
  0.125000  0.125000  0.416667      2.000000
  0.375000  0.125000  0.416667      2.000000
 -0.375000  0.125000  0.416667      2.000000
 -0.125000  0.125000  0.416667      2.000000
  0.125000  0.375000  0.416667      2.000000
  0.375000  0.375000  0.416667      2.000000
 -0.375000  0.375000  0.416667      2.000000
 -0.125000  0.375000  0.416667      2.000000
  0.125000 -0.375000  0.416667      2.000000
  0.375000 -0.375000  0.416667      2.000000
 -0.375000 -0.375000  0.416667      2.000000
 -0.125000 -0.375000  0.416667      2.000000
  0.125000 -0.125000  0.416667      2.000000
  0.375000 -0.125000  0.416667      2.000000
 -0.375000 -0.125000  0.416667      2.000000
 -0.125000 -0.125000  0.416667      2.000000
 
 Following cartesian coordinates:
            Coordinates               Weight
  0.025549  0.025549  0.025185      2.000000
  0.076646  0.025549  0.025185      2.000000
 -0.076646  0.025549  0.025185      2.000000
 -0.025549  0.025549  0.025185      2.000000
  0.025549  0.076646  0.025185      2.000000
  0.076646  0.076646  0.025185      2.000000
 -0.076646  0.076646  0.025185      2.000000
 -0.025549  0.076646  0.025185      2.000000
  0.025549 -0.076646  0.025185      2.000000
  0.076646 -0.076646  0.025185      2.000000
 -0.076646 -0.076646  0.025185      2.000000
 -0.025549 -0.076646  0.025185      2.000000
  0.025549 -0.025549  0.025185      2.000000
  0.076646 -0.025549  0.025185      2.000000
 -0.076646 -0.025549  0.025185      2.000000
 -0.025549 -0.025549  0.025185      2.000000
  0.025549  0.025549  0.075556      2.000000
  0.076646  0.025549  0.075556      2.000000
 -0.076646  0.025549  0.075556      2.000000
 -0.025549  0.025549  0.075556      2.000000
  0.025549  0.076646  0.075556      2.000000
  0.076646  0.076646  0.075556      2.000000
 -0.076646  0.076646  0.075556      2.000000
 -0.025549  0.076646  0.075556      2.000000
  0.025549 -0.076646  0.075556      2.000000
  0.076646 -0.076646  0.075556      2.000000
 -0.076646 -0.076646  0.075556      2.000000
 -0.025549 -0.076646  0.075556      2.000000
  0.025549 -0.025549  0.075556      2.000000
  0.076646 -0.025549  0.075556      2.000000
 -0.076646 -0.025549  0.075556      2.000000
 -0.025549 -0.025549  0.075556      2.000000
  0.025549  0.025549  0.125927      2.000000
  0.076646  0.025549  0.125927      2.000000
 -0.076646  0.025549  0.125927      2.000000
 -0.025549  0.025549  0.125927      2.000000
  0.025549  0.076646  0.125927      2.000000
  0.076646  0.076646  0.125927      2.000000
 -0.076646  0.076646  0.125927      2.000000
 -0.025549  0.076646  0.125927      2.000000
  0.025549 -0.076646  0.125927      2.000000
  0.076646 -0.076646  0.125927      2.000000
 -0.076646 -0.076646  0.125927      2.000000
 -0.025549 -0.076646  0.125927      2.000000
  0.025549 -0.025549  0.125927      2.000000
  0.076646 -0.025549  0.125927      2.000000
 -0.076646 -0.025549  0.125927      2.000000
 -0.025549 -0.025549  0.125927      2.000000
 
 TETIRR: Found    288 inequivalent tetrahedra from      576


--------------------------------------------------------------------------------------------------------




 Dimension of arrays:
   k-points           NKPTS =     48   k-points in BZ     NKDIM =     48   number of bands    NBANDS=     36
   number of dos      NEDOS =    301   number of ions     NIONS =      6
   non local maximal  LDIM  =      6   non local SUM 2l+1 LMDIM =     18
   total plane-waves  NPLWV =  18000
   max r-space proj   IRMAX =      1   max aug-charges    IRDMAX=  55358
   dimension x,y,z NGX =    30 NGY =   30 NGZ =   20
   dimension x,y,z NGXF=    60 NGYF=   60 NGZF=   40
   support grid    NGXF=   120 NGYF=  120 NGZF=   80
   ions per type =               2   4
   NGX,Y,Z   is equivalent  to a cutoff of  10.19, 10.19, 10.05 a.u.
   NGXF,Y,Z  is equivalent  to a cutoff of  20.39, 20.39, 20.10 a.u.

 SYSTEM =  unknown system                          
 POSCAR =  Mn  F                                   

 Startparameter for this run:
   NWRITE =      2    write-flag & timer
   PREC   = normal    normal or accurate (medium, high low for compatibility)
   ISTART =      1    job   : 0-new  1-cont  2-samecut
   ICHARG =      0    charge: 1-file 2-atom 10-const
   ISPIN  =      2    spin polarized calculation?
   LNONCOLLINEAR =      F non collinear calculations
   LSORBIT =      F    spin-orbit coupling
   INIWAV =      1    electr: 0-lowe 1-rand  2-diag
   LASPH  =      T    aspherical Exc in radial PAW
   METAGGA=      F    non-selfconsistent MetaGGA calc.

 Electronic Relaxation 1
   ENCUT  =  600.0 eV  44.10 Ry    6.64 a.u.   9.77  9.77  6.61*2*pi/ulx,y,z
   ENINI  =  600.0     initial cutoff
   ENAUG  =  613.6 eV  augmentation charge cutoff
   NELM   =     60;   NELMIN=  2; NELMDL=  0     # of ELM steps 
   EDIFF  = 0.1E-07   stopping-criterion for ELM
   LREAL  =      F    real-space projection
   NLSPLINE    = F    spline interpolate recip. space projectors
   LCOMPAT=      F    compatible to vasp.4.4
   GGA_COMPAT  = T    GGA compatible to vasp.4.4-vasp.4.6
   LMAXPAW     = -100 max onsite density
   LMAXMIX     =    4 max onsite mixed and CHGCAR
   VOSKOWN=      0    Vosko Wilk Nusair interpolation
   ROPT   =    0.00000   0.00000
 Ionic relaxation
   EDIFFG = 0.1E-06   stopping-criterion for IOM
   NSW    =      0    number of steps for IOM
   NBLOCK =      1;   KBLOCK =      1    inner block; outer block 
   IBRION =     -1    ionic relax: 0-MD 1-quasi-New 2-CG
   NFREE  =      0    steps in history (QN), initial steepest desc. (CG)
   ISIF   =      2    stress and relaxation
   IWAVPR =     10    prediction:  0-non 1-charg 2-wave 3-comb
   ISYM   =      0    0-nonsym 1-usesym 2-fastsym
   LCORR  =      T    Harris-Foulkes like correction to forces

   POTIM  = 0.5000    time-step for ionic-motion
   TEIN   =    0.0    initial temperature
   TEBEG  =    0.0;   TEEND  =   0.0 temperature during run
   SMASS  =  -3.00    Nose mass-parameter (am)
   estimated Nose-frequenzy (Omega)   =  0.10E-29 period in steps =****** mass=  -0.547E-27a.u.
   SCALEE = 1.0000    scale energy and forces
   NPACO  =    256;   APACO  = 16.0  distance and # of slots for P.C.
   PSTRESS=    0.0 pullay stress

  Mass of Ions in am
   POMASS =  54.94 19.00
  Ionic Valenz
   ZVAL   =  13.00  7.00
  Atomic Wigner-Seitz radii
   RWIGS  =  -1.00 -1.00
  virtual crystal weights 
   VCA    =   1.00  1.00
   NELECT =      54.0000    total number of electrons
   NUPDOWN=      -1.0000    fix difference up-down

 DOS related values:
   EMIN   =  10.00;   EMAX   =-10.00  energy-range for DOS
   EFERMI =   0.00
   ISMEAR =    -5;   SIGMA  =   0.20  broadening in eV -4-tet -1-fermi 0-gaus

 Electronic relaxation 2 (details)
   IALGO  =     38    algorithm
   LDIAG  =      T    sub-space diagonalisation (order eigenvalues)
   LSUBROT=      F    optimize rotation matrix (better conditioning)
   TURBO    =      0    0=normal 1=particle mesh
   IRESTART =      0    0=no restart 2=restart with 2 vectors
   NREBOOT  =      0    no. of reboots
   NMIN     =      0    reboot dimension
   EREF     =   0.00    reference energy to select bands
   IMIX   =      4    mixing-type and parameters
     AMIX     =   0.40;   BMIX     =  1.00
     AMIX_MAG =   1.60;   BMIX_MAG =  1.00
     AMIN     =   0.10
     WC   =   100.;   INIMIX=   1;  MIXPRE=   1;  MAXMIX= -45

 Intra band minimization:
   WEIMIN = 0.0000     energy-eigenvalue tresh-hold
   EBREAK =  0.69E-10  absolut break condition
   DEPER  =   0.30     relativ break condition  

   TIME   =   0.40     timestep for ELM

  volume/ion in A,a.u.               =      13.20        89.08
  Fermi-wavevector in a.u.,A,eV,Ry     =   1.440861  2.722833 28.246794  2.076081
  Thomas-Fermi vector in A             =   2.559558
 
 Write flags
   LWAVE        =      T    write WAVECAR
   LDOWNSAMPLE  =      F    k-point downsampling of WAVECAR
   LCHARG       =      T    write CHGCAR
   LVTOT        =      F    write LOCPOT, total local potential
   LVHAR        =      F    write LOCPOT, Hartree potential only
   LELF         =      F    write electronic localiz. function (ELF)
   LORBIT       =     11    0 simple, 1 ext, 2 COOP (PROOUT), +10 PAW based schemes


 Dipole corrections
   LMONO  =      F    monopole corrections only (constant potential shift)
   LDIPOL =      F    correct potential (dipole corrections)
   IDIPOL =      0    1-x, 2-y, 3-z, 4-all directions 
   EPSILON=  1.0000000 bulk dielectric constant

 LDA+U is selected, type is set to LDAUTYPE =  2
   angular momentum for each species LDAUL =     2   -1
   U (eV)           for each species LDAUU =   6.0  0.0
   J (eV)           for each species LDAUJ =   0.0  0.0
 Exchange correlation treatment:
   GGA     =    PS    GGA type
   LEXCH   =    14    internal setting for exchange type
   VOSKOWN=      0    Vosko Wilk Nusair interpolation
   LHFCALC =     F    Hartree Fock is set to
   LHFONE  =     F    Hartree Fock one center treatment
   AEXX    =    0.0000 exact exchange contribution

 Linear response parameters
   LEPSILON=     F    determine dielectric tensor
   LRPA    =     F    only Hartree local field effects (RPA)
   LNABLA  =     F    use nabla operator in PAW spheres
   LVEL    =     F    velocity operator in full k-point grid
   LINTERFAST=   F  fast interpolation
   KINTER  =     0    interpolate to denser k-point grid
   CSHIFT  =0.1000    complex shift for real part using Kramers Kronig
   OMEGAMAX=  -1.0    maximum frequency
   DEG_THRESHOLD= 0.2000000E-02 threshold for treating states as degnerate
   RTIME   =   -0.100 relaxation time in fs
  (WPLASMAI=    0.000 imaginary part of plasma frequency in eV, 0.658/RTIME)
   DFIELD  = 0.0000000 0.0000000 0.0000000 field for delta impulse in time
 
 Orbital magnetization related:
   ORBITALMAG=     F  switch on orbital magnetization
   LCHIMAG   =     F  perturbation theory with respect to B field
   DQ        =  0.001000  dq finite difference perturbation B field
   LLRAUG    =     F  two centre corrections for induced B field



--------------------------------------------------------------------------------------------------------


 Static calculation
 charge density and potential will be updated during run
 spin polarized calculation
 Variant of blocked Davidson
 Davidson routine will perform the subspace rotation
 perform sub-space diagonalisation
    after iterative eigenvector-optimisation
 modified Broyden-mixing scheme, WC =      100.0
 initial mixing is a Kerker type mixing with AMIX =  0.4000 and BMIX =      1.0000
 Hartree-type preconditioning will be used
 using additional bands            9
 reciprocal scheme for non local part
 use partial core corrections
 calculate Harris-corrections to forces 
   (improved forces if not selfconsistent)
 use gradient corrections 
 use of overlap-Matrix (Vanderbilt PP)
 Fermi weights with tetrahedron method with Bloechl corrections


--------------------------------------------------------------------------------------------------------


  energy-cutoff  :      600.00
  volume of cell :       79.20
      direct lattice vectors                 reciprocal lattice vectors
     4.892609286  0.000000000  0.000000000     0.204389916  0.000000000  0.000000000
     0.000000000  4.892609286  0.000000000     0.000000000  0.204389916  0.000000000
     0.000000000  0.000000000  3.308802205     0.000000000  0.000000000  0.302224170

  length of vectors
     4.892609286  4.892609286  3.308802205     0.204389916  0.204389916  0.302224170


 
 old parameters found on file WAVECAR:
  energy-cutoff  :      600.00
  volume of cell :       79.20
      direct lattice vectors                 reciprocal lattice vectors
     4.892609286  0.000000000  0.000000000     0.204389916  0.000000000  0.000000000
     0.000000000  4.892609286  0.000000000     0.000000000  0.204389916  0.000000000
     0.000000000  0.000000000  3.308802205     0.000000000  0.000000000  0.302224170

  length of vectors

 
 k-points in units of 2pi/SCALE and weight: KPOINTS created by Atomic Simulation Env
   0.02554874  0.02554874  0.02518535       0.021
   0.07664622  0.02554874  0.02518535       0.021
  -0.07664622  0.02554874  0.02518535       0.021
  -0.02554874  0.02554874  0.02518535       0.021
   0.02554874  0.07664622  0.02518535       0.021
   0.07664622  0.07664622  0.02518535       0.021
  -0.07664622  0.07664622  0.02518535       0.021
  -0.02554874  0.07664622  0.02518535       0.021
   0.02554874 -0.07664622  0.02518535       0.021
   0.07664622 -0.07664622  0.02518535       0.021
  -0.07664622 -0.07664622  0.02518535       0.021
  -0.02554874 -0.07664622  0.02518535       0.021
   0.02554874 -0.02554874  0.02518535       0.021
   0.07664622 -0.02554874  0.02518535       0.021
  -0.07664622 -0.02554874  0.02518535       0.021
  -0.02554874 -0.02554874  0.02518535       0.021
   0.02554874  0.02554874  0.07555604       0.021
   0.07664622  0.02554874  0.07555604       0.021
  -0.07664622  0.02554874  0.07555604       0.021
  -0.02554874  0.02554874  0.07555604       0.021
   0.02554874  0.07664622  0.07555604       0.021
   0.07664622  0.07664622  0.07555604       0.021
  -0.07664622  0.07664622  0.07555604       0.021
  -0.02554874  0.07664622  0.07555604       0.021
   0.02554874 -0.07664622  0.07555604       0.021
   0.07664622 -0.07664622  0.07555604       0.021
  -0.07664622 -0.07664622  0.07555604       0.021
  -0.02554874 -0.07664622  0.07555604       0.021
   0.02554874 -0.02554874  0.07555604       0.021
   0.07664622 -0.02554874  0.07555604       0.021
  -0.07664622 -0.02554874  0.07555604       0.021
  -0.02554874 -0.02554874  0.07555604       0.021
   0.02554874  0.02554874  0.12592674       0.021
   0.07664622  0.02554874  0.12592674       0.021
  -0.07664622  0.02554874  0.12592674       0.021
  -0.02554874  0.02554874  0.12592674       0.021
   0.02554874  0.07664622  0.12592674       0.021
   0.07664622  0.07664622  0.12592674       0.021
  -0.07664622  0.07664622  0.12592674       0.021
  -0.02554874  0.07664622  0.12592674       0.021
   0.02554874 -0.07664622  0.12592674       0.021
   0.07664622 -0.07664622  0.12592674       0.021
  -0.07664622 -0.07664622  0.12592674       0.021
  -0.02554874 -0.07664622  0.12592674       0.021
   0.02554874 -0.02554874  0.12592674       0.021
   0.07664622 -0.02554874  0.12592674       0.021
  -0.07664622 -0.02554874  0.12592674       0.021
  -0.02554874 -0.02554874  0.12592674       0.021
 
 k-points in reciprocal lattice and weights: KPOINTS created by Atomic Simulation Env
   0.12500000  0.12500000  0.08333333       0.021
   0.37500000  0.12500000  0.08333333       0.021
  -0.37500000  0.12500000  0.08333333       0.021
  -0.12500000  0.12500000  0.08333333       0.021
   0.12500000  0.37500000  0.08333333       0.021
   0.37500000  0.37500000  0.08333333       0.021
  -0.37500000  0.37500000  0.08333333       0.021
  -0.12500000  0.37500000  0.08333333       0.021
   0.12500000 -0.37500000  0.08333333       0.021
   0.37500000 -0.37500000  0.08333333       0.021
  -0.37500000 -0.37500000  0.08333333       0.021
  -0.12500000 -0.37500000  0.08333333       0.021
   0.12500000 -0.12500000  0.08333333       0.021
   0.37500000 -0.12500000  0.08333333       0.021
  -0.37500000 -0.12500000  0.08333333       0.021
  -0.12500000 -0.12500000  0.08333333       0.021
   0.12500000  0.12500000  0.25000000       0.021
   0.37500000  0.12500000  0.25000000       0.021
  -0.37500000  0.12500000  0.25000000       0.021
  -0.12500000  0.12500000  0.25000000       0.021
   0.12500000  0.37500000  0.25000000       0.021
   0.37500000  0.37500000  0.25000000       0.021
  -0.37500000  0.37500000  0.25000000       0.021
  -0.12500000  0.37500000  0.25000000       0.021
   0.12500000 -0.37500000  0.25000000       0.021
   0.37500000 -0.37500000  0.25000000       0.021
  -0.37500000 -0.37500000  0.25000000       0.021
  -0.12500000 -0.37500000  0.25000000       0.021
   0.12500000 -0.12500000  0.25000000       0.021
   0.37500000 -0.12500000  0.25000000       0.021
  -0.37500000 -0.12500000  0.25000000       0.021
  -0.12500000 -0.12500000  0.25000000       0.021
   0.12500000  0.12500000  0.41666667       0.021
   0.37500000  0.12500000  0.41666667       0.021
  -0.37500000  0.12500000  0.41666667       0.021
  -0.12500000  0.12500000  0.41666667       0.021
   0.12500000  0.37500000  0.41666667       0.021
   0.37500000  0.37500000  0.41666667       0.021
  -0.37500000  0.37500000  0.41666667       0.021
  -0.12500000  0.37500000  0.41666667       0.021
   0.12500000 -0.37500000  0.41666667       0.021
   0.37500000 -0.37500000  0.41666667       0.021
  -0.37500000 -0.37500000  0.41666667       0.021
  -0.12500000 -0.37500000  0.41666667       0.021
   0.12500000 -0.12500000  0.41666667       0.021
   0.37500000 -0.12500000  0.41666667       0.021
  -0.37500000 -0.12500000  0.41666667       0.021
  -0.12500000 -0.12500000  0.41666667       0.021
 
 position of ions in fractional coordinates (direct lattice) 
   0.50000000  0.50000000  0.50000000
   0.00000000  0.00000000  0.00000000
   0.19520495  0.80479505  0.50000000
   0.80479505  0.19520495  0.50000000
   0.30479505  0.30479505  0.00000000
   0.69520495  0.69520495  0.00000000
 
 position of ions in cartesian coordinates  (Angst):
   2.44630464  2.44630464  1.65440110
   0.00000000  0.00000000  0.00000000
   0.95506155  3.93754774  1.65440110
   3.93754774  0.95506155  1.65440110
   1.49124309  1.49124309  0.00000000
   3.40136619  3.40136619  0.00000000
 


--------------------------------------------------------------------------------------------------------


 k-point  1 :   0.1250 0.1250 0.0833  plane waves:    2646
 k-point  2 :   0.3750 0.1250 0.0833  plane waves:    2649
 k-point  3 :  -0.3750 0.1250 0.0833  plane waves:    2649
 k-point  4 :  -0.1250 0.1250 0.0833  plane waves:    2646
 k-point  5 :   0.1250 0.3750 0.0833  plane waves:    2649
 k-point  6 :   0.3750 0.3750 0.0833  plane waves:    2648
 k-point  7 :  -0.3750 0.3750 0.0833  plane waves:    2648
 k-point  8 :  -0.1250 0.3750 0.0833  plane waves:    2649
 k-point  9 :   0.1250-0.3750 0.0833  plane waves:    2649
 k-point 10 :   0.3750-0.3750 0.0833  plane waves:    2648
 k-point 11 :  -0.3750-0.3750 0.0833  plane waves:    2648
 k-point 12 :  -0.1250-0.3750 0.0833  plane waves:    2649
 k-point 13 :   0.1250-0.1250 0.0833  plane waves:    2646
 k-point 14 :   0.3750-0.1250 0.0833  plane waves:    2649
 k-point 15 :  -0.3750-0.1250 0.0833  plane waves:    2649
 k-point 16 :  -0.1250-0.1250 0.0833  plane waves:    2646
 k-point 17 :   0.1250 0.1250 0.2500  plane waves:    2641
 k-point 18 :   0.3750 0.1250 0.2500  plane waves:    2650
 k-point 19 :  -0.3750 0.1250 0.2500  plane waves:    2650
 k-point 20 :  -0.1250 0.1250 0.2500  plane waves:    2641
 k-point 21 :   0.1250 0.3750 0.2500  plane waves:    2650
 k-point 22 :   0.3750 0.3750 0.2500  plane waves:    2648
 k-point 23 :  -0.3750 0.3750 0.2500  plane waves:    2648
 k-point 24 :  -0.1250 0.3750 0.2500  plane waves:    2650
 k-point 25 :   0.1250-0.3750 0.2500  plane waves:    2650
 k-point 26 :   0.3750-0.3750 0.2500  plane waves:    2648
 k-point 27 :  -0.3750-0.3750 0.2500  plane waves:    2648
 k-point 28 :  -0.1250-0.3750 0.2500  plane waves:    2650
 k-point 29 :   0.1250-0.1250 0.2500  plane waves:    2641
 k-point 30 :   0.3750-0.1250 0.2500  plane waves:    2650
 k-point 31 :  -0.3750-0.1250 0.2500  plane waves:    2650
 k-point 32 :  -0.1250-0.1250 0.2500  plane waves:    2641
 k-point 33 :   0.1250 0.1250 0.4167  plane waves:    2641
 k-point 34 :   0.3750 0.1250 0.4167  plane waves:    2637
 k-point 35 :  -0.3750 0.1250 0.4167  plane waves:    2637
 k-point 36 :  -0.1250 0.1250 0.4167  plane waves:    2641
 k-point 37 :   0.1250 0.3750 0.4167  plane waves:    2637
 k-point 38 :   0.3750 0.3750 0.4167  plane waves:    2630
 k-point 39 :  -0.3750 0.3750 0.4167  plane waves:    2630
 k-point 40 :  -0.1250 0.3750 0.4167  plane waves:    2637
 k-point 41 :   0.1250-0.3750 0.4167  plane waves:    2637
 k-point 42 :   0.3750-0.3750 0.4167  plane waves:    2630
 k-point 43 :  -0.3750-0.3750 0.4167  plane waves:    2630
 k-point 44 :  -0.1250-0.3750 0.4167  plane waves:    2637
 k-point 45 :   0.1250-0.1250 0.4167  plane waves:    2641
 k-point 46 :   0.3750-0.1250 0.4167  plane waves:    2637
 k-point 47 :  -0.3750-0.1250 0.4167  plane waves:    2637
 k-point 48 :  -0.1250-0.1250 0.4167  plane waves:    2641

 maximum and minimum number of plane-waves per node :      2650     2630

 maximum number of plane-waves:      2650
 maximum index in each direction: 
   IXMAX=   10   IYMAX=   10   IZMAX=    6
   IXMIN=  -10   IYMIN=  -10   IZMIN=   -7


 serial   3D FFT for wavefunctions
 parallel 3D FFT for charge:
    minimum data exchange during FFTs selected (reduces bandwidth)


 total amount of memory used by VASP MPI-rank0    83995. kBytes
=======================================================================

   base      :      30000. kBytes
   nonl-proj :      36915. kBytes
   fftplans  :       1875. kBytes
   grid      :       2467. kBytes
   one-center:        186. kBytes
   wavefun   :      12552. kBytes
 
     INWAV:  cpu time    0.4611: real time    0.4611
 Broyden mixing: mesh for mixing (old mesh)
   NGX = 19   NGY = 19   NGZ = 13
  (NGX  = 60   NGY  = 60   NGZ  = 40)
  gives a total of   4693 points

 charge density for first step will be calculated from the start-wavefunctions


--------------------------------------------------------------------------------------------------------


 Maximum index for augmentation-charges         4239 (set IRDMAX)


--------------------------------------------------------------------------------------------------------


 initial charge from wavefunction
 First call to EWALD:  gamma=   0.413
 Maximum number of real-space cells 2x 2x 3
 Maximum number of reciprocal cells 3x 3x 2

    FEWALD:  cpu time    0.0013: real time    0.0013


--------------------------------------- Iteration      1(   1)  ---------------------------------------


    POTLOK:  cpu time    0.0177: real time    0.0177
    SETDIJ:  cpu time    4.1980: real time    4.1980
atom =   1  type =  1  l = 2
 
 onsite density matrix
 
spin component  1
 
  0.1188  0.0121 -0.0089  0.0124  0.0000
  0.0121  0.0830  0.0087  0.0359 -0.0139
 -0.0089  0.0087  0.0646  0.0087  0.0013
  0.0124  0.0359  0.0087  0.0814  0.0143
  0.0000 -0.0139  0.0013  0.0143  0.0903
 
spin component  2
 
  0.9251 -0.0046  0.0261 -0.0047 -0.0001
 -0.0046  0.9189 -0.0033  0.0096  0.0053
  0.0261 -0.0033  0.9261 -0.0032 -0.0005
 -0.0047  0.0096 -0.0032  0.9195 -0.0054
 -0.0001  0.0053 -0.0005 -0.0054  0.8915
 
 occupancies and eigenvectors
 
  o =  0.0386  v =  0.0026  0.6531 -0.0133 -0.6661  0.3600  0.0000  0.0000  0.0000  0.0000  0.0000      0.0000  0.0000  0.0000  0.0000  0.0000  0.0000  0.0000  0.0000  0.0000  0.0000
  o =  0.0591  v = -0.2161  0.1694 -0.9407  0.1974  0.0248  0.0000  0.0000  0.0000  0.0000  0.0000      0.0000  0.0000  0.0000  0.0000  0.0000  0.0000  0.0000  0.0000  0.0000  0.0000
  o =  0.0980  v = -0.0301  0.2784 -0.0158 -0.2304 -0.9318  0.0000  0.0000  0.0000  0.0000  0.0000      0.0000  0.0000  0.0000  0.0000  0.0000  0.0000  0.0000  0.0000  0.0000  0.0000
  o =  0.1065  v =  0.6767 -0.4607 -0.3367 -0.4636 -0.0392  0.0000  0.0000  0.0000  0.0000  0.0000      0.0000  0.0000  0.0000  0.0000  0.0000  0.0000  0.0000  0.0000  0.0000  0.0000
  o =  0.1358  v = -0.7032 -0.5049 -0.0343 -0.4994 -0.0041  0.0000  0.0000  0.0000  0.0000  0.0000      0.0000  0.0000  0.0000  0.0000  0.0000  0.0000  0.0000  0.0000  0.0000  0.0000
  o =  0.8888  v =  0.0000  0.0000  0.0000  0.0000  0.0000 -0.0082 -0.2415  0.0165  0.2424  0.9395      0.0000  0.0000  0.0000  0.0000  0.0000  0.0000  0.0000  0.0000  0.0000  0.0000
  o =  0.8994  v =  0.0000  0.0000  0.0000  0.0000  0.0000 -0.7183 -0.0241  0.6935 -0.0490 -0.0121      0.0000  0.0000  0.0000  0.0000  0.0000  0.0000  0.0000  0.0000  0.0000  0.0000
  o =  0.9124  v =  0.0000  0.0000  0.0000  0.0000  0.0000 -0.0138 -0.6813  0.0017  0.6469 -0.3422      0.0000  0.0000  0.0000  0.0000  0.0000  0.0000  0.0000  0.0000  0.0000  0.0000
  o =  0.9265  v =  0.0000  0.0000  0.0000  0.0000  0.0000 -0.1710 -0.6580 -0.2485 -0.6898  0.0117      0.0000  0.0000  0.0000  0.0000  0.0000  0.0000  0.0000  0.0000  0.0000  0.0000
  o =  0.9541  v =  0.0000  0.0000  0.0000  0.0000  0.0000 -0.6742  0.2095 -0.6761  0.2110  0.0054      0.0000  0.0000  0.0000  0.0000  0.0000  0.0000  0.0000  0.0000  0.0000  0.0000
atom =   2  type =  1  l = 2
 
 onsite density matrix
 
spin component  1
 
  0.9274 -0.0043 -0.0086 -0.0044  0.0001
 -0.0043  0.9184 -0.0026 -0.0269  0.0048
 -0.0086 -0.0026  0.9273 -0.0026 -0.0005
 -0.0044 -0.0269 -0.0026  0.9190 -0.0049
  0.0001  0.0048 -0.0005 -0.0049  0.8916
 
spin component  2
 
  0.1218  0.0134 -0.0464  0.0137  0.0001
  0.0134  0.0827  0.0095  0.0116 -0.0142
 -0.0464  0.0095  0.0644  0.0094  0.0013
  0.0137  0.0116  0.0094  0.0811  0.0145
  0.0001 -0.0142  0.0013  0.0145  0.0906
 
 occupancies and eigenvectors
 
  o =  0.0313  v =  0.0000  0.0000  0.0000  0.0000  0.0000 -0.4850  0.2305 -0.8121  0.2276  0.0177      0.0000  0.0000  0.0000  0.0000  0.0000  0.0000  0.0000  0.0000  0.0000  0.0000
  o =  0.0578  v =  0.0000  0.0000  0.0000  0.0000  0.0000  0.0084  0.5829 -0.0019 -0.6199  0.5252      0.0000  0.0000  0.0000  0.0000  0.0000  0.0000  0.0000  0.0000  0.0000  0.0000
  o =  0.0987  v =  0.0000  0.0000  0.0000  0.0000  0.0000 -0.0115  0.6829  0.3758  0.6261 -0.0175      0.0000  0.0000  0.0000  0.0000  0.0000  0.0000  0.0000  0.0000  0.0000  0.0000
  o =  0.1032  v =  0.0000  0.0000  0.0000  0.0000  0.0000 -0.0137  0.3493 -0.0212 -0.3923 -0.8506      0.0000  0.0000  0.0000  0.0000  0.0000  0.0000  0.0000  0.0000  0.0000  0.0000
  o =  0.1497  v =  0.0000  0.0000  0.0000  0.0000  0.0000 -0.8743 -0.1367  0.4459 -0.1343  0.0088      0.0000  0.0000  0.0000  0.0000  0.0000  0.0000  0.0000  0.0000  0.0000  0.0000
  o =  0.8900  v = -0.1875 -0.6551 -0.1391 -0.6857 -0.2150  0.0000  0.0000  0.0000  0.0000  0.0000      0.0000  0.0000  0.0000  0.0000  0.0000  0.0000  0.0000  0.0000  0.0000  0.0000
  o =  0.8907  v = -0.0412 -0.2359 -0.0189 -0.0633  0.9687  0.0000  0.0000  0.0000  0.0000  0.0000      0.0000  0.0000  0.0000  0.0000  0.0000  0.0000  0.0000  0.0000  0.0000  0.0000
  o =  0.9205  v = -0.6654  0.1664 -0.7090  0.1640  0.0092  0.0000  0.0000  0.0000  0.0000  0.0000      0.0000  0.0000  0.0000  0.0000  0.0000  0.0000  0.0000  0.0000  0.0000  0.0000
  o =  0.9360  v =  0.7213 -0.0426 -0.6910 -0.0181  0.0056  0.0000  0.0000  0.0000  0.0000  0.0000      0.0000  0.0000  0.0000  0.0000  0.0000  0.0000  0.0000  0.0000  0.0000  0.0000
  o =  0.9465  v =  0.0128  0.6969 -0.0102 -0.7061  0.1240  0.0000  0.0000  0.0000  0.0000  0.0000      0.0000  0.0000  0.0000  0.0000  0.0000  0.0000  0.0000  0.0000  0.0000  0.0000
     EDDAV:  cpu time    2.3314: real time    2.3594
 BZINTS: Fermi energy:  3.478279; 54.000000 electrons
         Band energy:-773.781166;  BLOECHL correction:  0.000000
       DOS:  cpu time    0.0087: real time    0.0087
    CHARGE:  cpu time    0.0960: real time    0.0960
    MIXING:  cpu time    0.0005: real time    0.0005
    --------------------------------------------
      LOOP:  cpu time    6.6523: real time    6.6803

 eigenvalue-minimisations  :  8736
 total energy-change (2. order) :-0.1951488E+02  (-0.1041004E+03)
 number of electron      54.0000009 magnetization       0.0000000
 augmentation part       20.6056830 magnetization       0.0008023

 Broyden mixing:
  rms(total) = 0.18522E+01    rms(broyden)= 0.18522E+01
  rms(prec ) = 0.20248E+01
  weight for this iteration     100.00

 Free energy of the ion-electron system (eV)
  ---------------------------------------------------
  alpha Z        PSCENC =       194.90578087
  Ewald energy   TEWEN  =     -4169.40277502
  -Hartree energ DENC   =     -2133.27084609
  -exchange      EXHF   =         0.00000000
  -V(xc)+E(xc)   XCENC  =       292.30535370
  PAW double counting   =      7318.19043304    -7426.11020597
  entropy T*S    EENTRO =         0.00000000
  eigenvalues    EBANDS =      -773.78116616
  atomic energy  EATOM  =      6677.64854832
  Solvation  Ediel_sol  =         0.00000000
  ---------------------------------------------------
  free energy    TOTEN  =       -19.51487731 eV

  energy without entropy =      -19.51487731  energy(sigma->0) =      -19.51487731


--------------------------------------------------------------------------------------------------------




--------------------------------------- Iteration      1(   2)  ---------------------------------------


    POTLOK:  cpu time    0.0165: real time    0.0165
    SETDIJ:  cpu time    2.1553: real time    2.1553
atom =   1  type =  1  l = 2
 
 onsite density matrix
 
spin component  1
 
  0.0166 -0.0021  0.0271 -0.0022 -0.0001
 -0.0021  0.0114 -0.0009  0.0190  0.0011
  0.0271 -0.0009  0.0096 -0.0011 -0.0002
 -0.0022  0.0190 -0.0011  0.0115 -0.0016
 -0.0001  0.0011 -0.0002 -0.0016 -0.0240
 
spin component  2
 
  1.0158  0.0073 -0.0017  0.0076  0.0000
  0.0073  0.9899  0.0047  0.0222 -0.0054
 -0.0017  0.0047  0.9818  0.0050  0.0006
  0.0076  0.0222  0.0050  0.9892  0.0061
  0.0000 -0.0054  0.0006  0.0061  1.0003
 
 occupancies and eigenvectors
 
  o = -0.0242  v =  0.0041  0.0743 -0.0096 -0.0832 -0.9937  0.0000  0.0000  0.0000  0.0000  0.0000      0.0000  0.0000  0.0000  0.0000  0.0000  0.0000  0.0000  0.0000  0.0000  0.0000
  o = -0.0143  v =  0.6610  0.0196 -0.7500  0.0108  0.0105  0.0000  0.0000  0.0000  0.0000  0.0000      0.0000  0.0000  0.0000  0.0000  0.0000  0.0000  0.0000  0.0000  0.0000  0.0000
  o = -0.0073  v = -0.0071  0.7043  0.0036 -0.7011  0.1113  0.0000  0.0000  0.0000  0.0000  0.0000      0.0000  0.0000  0.0000  0.0000  0.0000  0.0000  0.0000  0.0000  0.0000  0.0000
  o =  0.0296  v =  0.1992  0.6774  0.2029  0.6784 -0.0073  0.0000  0.0000  0.0000  0.0000  0.0000      0.0000  0.0000  0.0000  0.0000  0.0000  0.0000  0.0000  0.0000  0.0000  0.0000
  o =  0.0414  v = -0.7234  0.1979 -0.6295  0.2030  0.0008  0.0000  0.0000  0.0000  0.0000  0.0000      0.0000  0.0000  0.0000  0.0000  0.0000  0.0000  0.0000  0.0000  0.0000  0.0000
  o =  0.9655  v =  0.0000  0.0000  0.0000  0.0000  0.0000 -0.0070 -0.6789 -0.0104  0.6980 -0.2275      0.0000  0.0000  0.0000  0.0000  0.0000  0.0000  0.0000  0.0000  0.0000  0.0000
  o =  0.9799  v =  0.0000  0.0000  0.0000  0.0000  0.0000 -0.1175  0.1786 -0.9623  0.1661  0.0243      0.0000  0.0000  0.0000  0.0000  0.0000  0.0000  0.0000  0.0000  0.0000  0.0000
  o =  1.0022  v =  0.0000  0.0000  0.0000  0.0000  0.0000  0.0888 -0.2499 -0.0207  0.0709  0.9614      0.0000  0.0000  0.0000  0.0000  0.0000  0.0000  0.0000  0.0000  0.0000  0.0000
  o =  1.0049  v =  0.0000  0.0000  0.0000  0.0000  0.0000  0.6399 -0.4825 -0.2607 -0.5164 -0.1521      0.0000  0.0000  0.0000  0.0000  0.0000  0.0000  0.0000  0.0000  0.0000  0.0000
  o =  1.0247  v =  0.0000  0.0000  0.0000  0.0000  0.0000 -0.7542 -0.4604 -0.0735 -0.4621 -0.0175      0.0000  0.0000  0.0000  0.0000  0.0000  0.0000  0.0000  0.0000  0.0000  0.0000
atom =   2  type =  1  l = 2
 
 onsite density matrix
 
spin component  1
 
  1.0083  0.0053 -0.0271  0.0054 -0.0000
  0.0053  0.9951  0.0085  0.0029 -0.0079
 -0.0271  0.0085  0.9830  0.0083  0.0009
  0.0054  0.0029  0.0083  0.9936  0.0084
 -0.0000 -0.0079  0.0009  0.0084  0.9958
 
spin component  2
 
  0.0249 -0.0013 -0.0214 -0.0012  0.0002
 -0.0013  0.0066 -0.0023 -0.0257  0.0023
 -0.0214 -0.0023  0.0099 -0.0023 -0.0004
 -0.0012 -0.0257 -0.0023  0.0074 -0.0028
  0.0002  0.0023 -0.0004 -0.0028 -0.0206
 
 occupancies and eigenvectors
 
  o = -0.0210  v =  0.0000  0.0000  0.0000  0.0000  0.0000  0.0346  0.1228  0.0620  0.2118  0.9670      0.0000  0.0000  0.0000  0.0000  0.0000  0.0000  0.0000  0.0000  0.0000  0.0000
  o = -0.0195  v =  0.0000  0.0000  0.0000  0.0000  0.0000  0.1337  0.6813  0.1967  0.6472 -0.2457      0.0000  0.0000  0.0000  0.0000  0.0000  0.0000  0.0000  0.0000  0.0000  0.0000
  o = -0.0044  v =  0.0000  0.0000  0.0000  0.0000  0.0000 -0.5618  0.1757 -0.7892  0.1748  0.0100      0.0000  0.0000  0.0000  0.0000  0.0000  0.0000  0.0000  0.0000  0.0000  0.0000
  o =  0.0329  v =  0.0000  0.0000  0.0000  0.0000  0.0000 -0.0032 -0.6999  0.0031  0.7111 -0.0670      0.0000  0.0000  0.0000  0.0000  0.0000  0.0000  0.0000  0.0000  0.0000  0.0000
  o =  0.0401  v =  0.0000  0.0000  0.0000  0.0000  0.0000  0.8157  0.0014 -0.5784  0.0081  0.0060      0.0000  0.0000  0.0000  0.0000  0.0000  0.0000  0.0000  0.0000  0.0000  0.0000
  o =  0.9604  v = -0.5018  0.2509 -0.7879  0.2533  0.0149  0.0000  0.0000  0.0000  0.0000  0.0000      0.0000  0.0000  0.0000  0.0000  0.0000  0.0000  0.0000  0.0000  0.0000  0.0000
  o =  0.9818  v = -0.0030 -0.5131  0.0113  0.5751 -0.6371  0.0000  0.0000  0.0000  0.0000  0.0000      0.0000  0.0000  0.0000  0.0000  0.0000  0.0000  0.0000  0.0000  0.0000  0.0000
  o =  1.0026  v = -0.1917 -0.6817 -0.3007 -0.6380 -0.0312  0.0000  0.0000  0.0000  0.0000  0.0000      0.0000  0.0000  0.0000  0.0000  0.0000  0.0000  0.0000  0.0000  0.0000  0.0000
  o =  1.0053  v =  0.0173 -0.4571  0.0010  0.4451  0.7699  0.0000  0.0000  0.0000  0.0000  0.0000      0.0000  0.0000  0.0000  0.0000  0.0000  0.0000  0.0000  0.0000  0.0000  0.0000
  o =  1.0256  v = -0.8433 -0.0019  0.5372  0.0014  0.0163  0.0000  0.0000  0.0000  0.0000  0.0000      0.0000  0.0000  0.0000  0.0000  0.0000  0.0000  0.0000  0.0000  0.0000  0.0000
     EDDAV:  cpu time    1.9822: real time    1.9822
 BZINTS: Fermi energy:  1.016000; 54.000000 electrons
         Band energy:-762.906023;  BLOECHL correction:  0.000000
       DOS:  cpu time    0.0047: real time    0.0047
    CHARGE:  cpu time    0.0965: real time    0.0965
    MIXING:  cpu time    0.0005: real time    0.0005
    --------------------------------------------
      LOOP:  cpu time    4.2557: real time    4.2558

 eigenvalue-minimisations  :  7476
 total energy-change (2. order) :-0.1877921E+02  (-0.1968412E+02)
 number of electron      54.0000009 magnetization       0.0000000
 augmentation part       19.8670073 magnetization       0.0012756

 Broyden mixing:
  rms(total) = 0.22627E+01    rms(broyden)= 0.22627E+01
  rms(prec ) = 0.22885E+01
  weight for this iteration     100.00

 eigenvalues of (default mixing * dielectric matrix)
  average eigenvalue GAMMA=   0.2323
  0.2323

 Free energy of the ion-electron system (eV)
  ---------------------------------------------------
  alpha Z        PSCENC =       194.90578087
  Ewald energy   TEWEN  =     -4169.40277502
  -Hartree energ DENC   =     -2165.60361931
  -exchange      EXHF   =         0.00000000
  -V(xc)+E(xc)   XCENC  =       294.35469980
  PAW double counting   =      7192.26037048    -7299.55106656
  entropy T*S    EENTRO =         0.00000000
  eigenvalues    EBANDS =      -762.90602277
  atomic energy  EATOM  =      6677.64854832
  Solvation  Ediel_sol  =         0.00000000
  ---------------------------------------------------
  free energy    TOTEN  =       -38.29408420 eV

  energy without entropy =      -38.29408420  energy(sigma->0) =      -38.29408420


--------------------------------------------------------------------------------------------------------




--------------------------------------- Iteration      1(   3)  ---------------------------------------


    POTLOK:  cpu time    0.0161: real time    0.0161
    SETDIJ:  cpu time    2.1505: real time    2.1505
atom =   1  type =  1  l = 2
 
 onsite density matrix
 
spin component  1
 
  0.0329  0.0002  0.0198  0.0002 -0.0000
  0.0002  0.0228  0.0004  0.0194 -0.0006
  0.0198  0.0004  0.0196  0.0004  0.0000
  0.0002  0.0194  0.0004  0.0227  0.0004
 -0.0000 -0.0006  0.0000  0.0004 -0.0007
 
spin component  2
 
  0.9961  0.0043  0.0078  0.0044  0.0000
  0.0043  0.9779  0.0028  0.0209 -0.0031
  0.0078  0.0028  0.9712  0.0029  0.0003
  0.0044  0.0209  0.0029  0.9775  0.0034
  0.0000 -0.0031  0.0003  0.0034  0.9748
 
 occupancies and eigenvectors
 
  o = -0.0008  v =  0.0034  0.1208 -0.0045 -0.1175  0.9857  0.0000  0.0000  0.0000  0.0000  0.0000      0.0000  0.0000  0.0000  0.0000  0.0000  0.0000  0.0000  0.0000  0.0000  0.0000
  o =  0.0034  v = -0.0085 -0.6961  0.0138  0.6977  0.1686  0.0000  0.0000  0.0000  0.0000  0.0000      0.0000  0.0000  0.0000  0.0000  0.0000  0.0000  0.0000  0.0000  0.0000  0.0000
  o =  0.0054  v = -0.5828  0.0057  0.8124 -0.0182  0.0028  0.0000  0.0000  0.0000  0.0000  0.0000      0.0000  0.0000  0.0000  0.0000  0.0000  0.0000  0.0000  0.0000  0.0000  0.0000
  o =  0.0421  v =  0.0896 -0.7037  0.0535 -0.7027  0.0024  0.0000  0.0000  0.0000  0.0000  0.0000      0.0000  0.0000  0.0000  0.0000  0.0000  0.0000  0.0000  0.0000  0.0000  0.0000
  o =  0.0472  v = -0.8076 -0.0743 -0.5805 -0.0727  0.0006  0.0000  0.0000  0.0000  0.0000  0.0000      0.0000  0.0000  0.0000  0.0000  0.0000  0.0000  0.0000  0.0000  0.0000  0.0000
  o =  0.9557  v =  0.0000  0.0000  0.0000  0.0000  0.0000  0.0036  0.6822  0.0016 -0.6926  0.2342      0.0000  0.0000  0.0000  0.0000  0.0000  0.0000  0.0000  0.0000  0.0000  0.0000
  o =  0.9687  v =  0.0000  0.0000  0.0000  0.0000  0.0000 -0.2580 -0.0478  0.9623 -0.0597 -0.0397      0.0000  0.0000  0.0000  0.0000  0.0000  0.0000  0.0000  0.0000  0.0000  0.0000
  o =  0.9759  v =  0.0000  0.0000  0.0000  0.0000  0.0000 -0.0132 -0.1733  0.0377  0.1578  0.9713      0.0000  0.0000  0.0000  0.0000  0.0000  0.0000  0.0000  0.0000  0.0000  0.0000
  o =  0.9915  v =  0.0000  0.0000  0.0000  0.0000  0.0000  0.7063 -0.4963  0.1344 -0.4866 -0.0052      0.0000  0.0000  0.0000  0.0000  0.0000  0.0000  0.0000  0.0000  0.0000  0.0000
  o =  1.0056  v =  0.0000  0.0000  0.0000  0.0000  0.0000 -0.6591 -0.5059 -0.2335 -0.5051 -0.0082      0.0000  0.0000  0.0000  0.0000  0.0000  0.0000  0.0000  0.0000  0.0000  0.0000
atom =   2  type =  1  l = 2
 
 onsite density matrix
 
spin component  1
 
  0.9930  0.0030 -0.0247  0.0031  0.0000
  0.0030  0.9800  0.0049 -0.0064 -0.0046
 -0.0247  0.0049  0.9721  0.0048  0.0004
  0.0031 -0.0064  0.0048  0.9793  0.0048
  0.0000 -0.0046  0.0004  0.0048  0.9724
 
spin component  2
 
  0.0368  0.0004 -0.0226  0.0005  0.0001
  0.0004  0.0209  0.0004 -0.0181 -0.0002
 -0.0226  0.0004  0.0199  0.0003 -0.0001
  0.0005 -0.0181  0.0003  0.0210  0.0000
  0.0001 -0.0002 -0.0001  0.0000  0.0006
 
 occupancies and eigenvectors
 
  o =  0.0006  v =  0.0000  0.0000  0.0000  0.0000  0.0000 -0.0101  0.0484 -0.0094  0.0427  0.9978      0.0000  0.0000  0.0000  0.0000  0.0000  0.0000  0.0000  0.0000  0.0000  0.0000
  o =  0.0025  v =  0.0000  0.0000  0.0000  0.0000  0.0000 -0.2286  0.6490 -0.3237  0.6463 -0.0645      0.0000  0.0000  0.0000  0.0000  0.0000  0.0000  0.0000  0.0000  0.0000  0.0000
  o =  0.0046  v =  0.0000  0.0000  0.0000  0.0000  0.0000  0.5221  0.2810  0.7551  0.2794 -0.0132      0.0000  0.0000  0.0000  0.0000  0.0000  0.0000  0.0000  0.0000  0.0000  0.0000
  o =  0.0391  v =  0.0000  0.0000  0.0000  0.0000  0.0000  0.0038  0.7054 -0.0029 -0.7088 -0.0038      0.0000  0.0000  0.0000  0.0000  0.0000  0.0000  0.0000  0.0000  0.0000  0.0000
  o =  0.0524  v =  0.0000  0.0000  0.0000  0.0000  0.0000 -0.8216  0.0007  0.5700 -0.0060 -0.0027      0.0000  0.0000  0.0000  0.0000  0.0000  0.0000  0.0000  0.0000  0.0000  0.0000
  o =  0.9525  v = -0.5131  0.2575 -0.7766  0.2590  0.0146  0.0000  0.0000  0.0000  0.0000  0.0000      0.0000  0.0000  0.0000  0.0000  0.0000  0.0000  0.0000  0.0000  0.0000  0.0000
  o =  0.9697  v =  0.0000  0.2266 -0.0102 -0.3081  0.9239  0.0000  0.0000  0.0000  0.0000  0.0000      0.0000  0.0000  0.0000  0.0000  0.0000  0.0000  0.0000  0.0000  0.0000  0.0000
  o =  0.9764  v = -0.2074 -0.6597 -0.3009 -0.6539 -0.0595  0.0000  0.0000  0.0000  0.0000  0.0000      0.0000  0.0000  0.0000  0.0000  0.0000  0.0000  0.0000  0.0000  0.0000  0.0000
  o =  0.9888  v =  0.0000  0.6686  0.0009 -0.6406 -0.3776  0.0000  0.0000  0.0000  0.0000  0.0000      0.0000  0.0000  0.0000  0.0000  0.0000  0.0000  0.0000  0.0000  0.0000  0.0000
  o =  1.0095  v = -0.8329  0.0057  0.5533  0.0032  0.0058  0.0000  0.0000  0.0000  0.0000  0.0000      0.0000  0.0000  0.0000  0.0000  0.0000  0.0000  0.0000  0.0000  0.0000  0.0000
     EDDAV:  cpu time    2.1849: real time    2.1850
 BZINTS: Fermi energy:  0.963648; 54.000000 electrons
         Band energy:-764.940420;  BLOECHL correction:  0.000000
       DOS:  cpu time    0.0055: real time    0.0055
    CHARGE:  cpu time    0.0963: real time    0.0963
    MIXING:  cpu time    0.0006: real time    0.0006
    --------------------------------------------
      LOOP:  cpu time    4.4538: real time    4.4539

 eigenvalue-minimisations  :  8304
 total energy-change (2. order) :-0.3126588E+00  (-0.2799925E+00)
 number of electron      54.0000009 magnetization      -0.0000000
 augmentation part       19.8968422 magnetization       0.0009641

 Broyden mixing:
  rms(total) = 0.17526E+01    rms(broyden)= 0.17526E+01
  rms(prec ) = 0.17751E+01
  weight for this iteration     100.00

 eigenvalues of (default mixing * dielectric matrix)
  average eigenvalue GAMMA=   0.9719
  1.3564  0.5873

 Free energy of the ion-electron system (eV)
  ---------------------------------------------------
  alpha Z        PSCENC =       194.90578087
  Ewald energy   TEWEN  =     -4169.40277502
  -Hartree energ DENC   =     -2164.62074281
  -exchange      EXHF   =         0.00000000
  -V(xc)+E(xc)   XCENC  =       294.17016682
  PAW double counting   =      7049.85526512    -7156.22256608
  entropy T*S    EENTRO =         0.00000000
  eigenvalues    EBANDS =      -764.94042020
  atomic energy  EATOM  =      6677.64854832
  Solvation  Ediel_sol  =         0.00000000
  ---------------------------------------------------
  free energy    TOTEN  =       -38.60674299 eV

  energy without entropy =      -38.60674299  energy(sigma->0) =      -38.60674299


--------------------------------------------------------------------------------------------------------




--------------------------------------- Iteration      1(   4)  ---------------------------------------


    POTLOK:  cpu time    0.0162: real time    0.0162
    SETDIJ:  cpu time    2.1338: real time    2.1338
atom =   1  type =  1  l = 2
 
 onsite density matrix
 
spin component  1
 
  0.0374  0.0004  0.0228  0.0004 -0.0000
  0.0004  0.0293  0.0002  0.0197  0.0003
  0.0228  0.0002  0.0249  0.0002 -0.0000
  0.0004  0.0197  0.0002  0.0292 -0.0005
 -0.0000  0.0003 -0.0000 -0.0005  0.0067
 
spin component  2
 
  0.9806  0.0015  0.0116  0.0016  0.0000
  0.0015  0.9693  0.0013  0.0174 -0.0020
  0.0116  0.0013  0.9638  0.0013  0.0002
  0.0016  0.0174  0.0013  0.9692  0.0023
  0.0000 -0.0020  0.0002  0.0023  0.9599
 
 occupancies and eigenvectors
 
  o =  0.0066  v =  0.0185  0.1322 -0.0259 -0.1363 -0.9813  0.0000  0.0000  0.0000  0.0000  0.0000      0.0000  0.0000  0.0000  0.0000  0.0000  0.0000  0.0000  0.0000  0.0000  0.0000
  o =  0.0075  v = -0.6062 -0.0008  0.7946  0.0054 -0.0333  0.0000  0.0000  0.0000  0.0000  0.0000      0.0000  0.0000  0.0000  0.0000  0.0000  0.0000  0.0000  0.0000  0.0000  0.0000
  o =  0.0096  v = -0.0062  0.6935  0.0086 -0.6950  0.1896  0.0000  0.0000  0.0000  0.0000  0.0000      0.0000  0.0000  0.0000  0.0000  0.0000  0.0000  0.0000  0.0000  0.0000  0.0000
  o =  0.0489  v =  0.0750 -0.7049  0.0614 -0.7027  0.0024  0.0000  0.0000  0.0000  0.0000  0.0000      0.0000  0.0000  0.0000  0.0000  0.0000  0.0000  0.0000  0.0000  0.0000  0.0000
  o =  0.0548  v = -0.7915 -0.0686 -0.6034 -0.0684  0.0013  0.0000  0.0000  0.0000  0.0000  0.0000      0.0000  0.0000  0.0000  0.0000  0.0000  0.0000  0.0000  0.0000  0.0000  0.0000
  o =  0.9508  v =  0.0000  0.0000  0.0000  0.0000  0.0000 -0.0027 -0.6678  0.0046  0.6718 -0.3206      0.0000  0.0000  0.0000  0.0000  0.0000  0.0000  0.0000  0.0000  0.0000  0.0000
  o =  0.9578  v =  0.0000  0.0000  0.0000  0.0000  0.0000  0.4527  0.0007 -0.8898  0.0314  0.0478      0.0000  0.0000  0.0000  0.0000  0.0000  0.0000  0.0000  0.0000  0.0000  0.0000
  o =  0.9609  v =  0.0000  0.0000  0.0000  0.0000  0.0000 -0.0268 -0.2316  0.0447  0.2208  0.9460      0.0000  0.0000  0.0000  0.0000  0.0000  0.0000  0.0000  0.0000  0.0000  0.0000
  o =  0.9838  v =  0.0000  0.0000  0.0000  0.0000  0.0000 -0.6435  0.4961 -0.3094  0.4939  0.0026      0.0000  0.0000  0.0000  0.0000  0.0000  0.0000  0.0000  0.0000  0.0000  0.0000
  o =  0.9894  v =  0.0000  0.0000  0.0000  0.0000  0.0000 -0.6166 -0.5043 -0.3323 -0.5050 -0.0074      0.0000  0.0000  0.0000  0.0000  0.0000  0.0000  0.0000  0.0000  0.0000  0.0000
atom =   2  type =  1  l = 2
 
 onsite density matrix
 
spin component  1
 
  0.9792  0.0019 -0.0206  0.0019  0.0001
  0.0019  0.9709  0.0023 -0.0105 -0.0017
 -0.0206  0.0023  0.9633  0.0022  0.0003
  0.0019 -0.0105  0.0022  0.9705  0.0019
  0.0001 -0.0017  0.0003  0.0019  0.9596
 
spin component  2
 
  0.0390 -0.0003 -0.0227 -0.0002 -0.0000
 -0.0003  0.0278  0.0001 -0.0196 -0.0003
 -0.0227  0.0001  0.0257  0.0001 -0.0001
 -0.0002 -0.0196  0.0001  0.0279  0.0002
 -0.0000 -0.0003 -0.0001  0.0002  0.0067
 
 occupancies and eigenvectors
 
  o =  0.0067  v =  0.0000  0.0000  0.0000  0.0000  0.0000 -0.0269 -0.0391 -0.0367 -0.0267 -0.9978      0.0000  0.0000  0.0000  0.0000  0.0000  0.0000  0.0000  0.0000  0.0000  0.0000
  o =  0.0082  v =  0.0000  0.0000  0.0000  0.0000  0.0000 -0.1845 -0.6748 -0.2336 -0.6728  0.0580      0.0000  0.0000  0.0000  0.0000  0.0000  0.0000  0.0000  0.0000  0.0000  0.0000
  o =  0.0087  v =  0.0000  0.0000  0.0000  0.0000  0.0000  0.5695 -0.2114  0.7649 -0.2122 -0.0296      0.0000  0.0000  0.0000  0.0000  0.0000  0.0000  0.0000  0.0000  0.0000  0.0000
  o =  0.0475  v =  0.0000  0.0000  0.0000  0.0000  0.0000  0.0006  0.7059 -0.0022 -0.7082 -0.0086      0.0000  0.0000  0.0000  0.0000  0.0000  0.0000  0.0000  0.0000  0.0000  0.0000
  o =  0.0560  v =  0.0000  0.0000  0.0000  0.0000  0.0000 -0.8005  0.0070  0.5992  0.0044 -0.0009      0.0000  0.0000  0.0000  0.0000  0.0000  0.0000  0.0000  0.0000  0.0000  0.0000
  o =  0.9478  v = -0.5387  0.2219 -0.7822  0.2198  0.0200  0.0000  0.0000  0.0000  0.0000  0.0000      0.0000  0.0000  0.0000  0.0000  0.0000  0.0000  0.0000  0.0000  0.0000  0.0000
  o =  0.9593  v = -0.0005  0.0235 -0.0067 -0.1389  0.9900  0.0000  0.0000  0.0000  0.0000  0.0000      0.0000  0.0000  0.0000  0.0000  0.0000  0.0000  0.0000  0.0000  0.0000  0.0000
  o =  0.9616  v =  0.1671  0.6689  0.2648  0.6694  0.0799  0.0000  0.0000  0.0000  0.0000  0.0000      0.0000  0.0000  0.0000  0.0000  0.0000  0.0000  0.0000  0.0000  0.0000  0.0000
  o =  0.9816  v =  0.0038  0.7090  0.0001 -0.6958 -0.1145  0.0000  0.0000  0.0000  0.0000  0.0000      0.0000  0.0000  0.0000  0.0000  0.0000  0.0000  0.0000  0.0000  0.0000  0.0000
  o =  0.9933  v = -0.8257 -0.0062  0.5639 -0.0110  0.0020  0.0000  0.0000  0.0000  0.0000  0.0000      0.0000  0.0000  0.0000  0.0000  0.0000  0.0000  0.0000  0.0000  0.0000  0.0000
     EDDAV:  cpu time    2.1242: real time    2.1243
 BZINTS: Fermi energy:  0.771444; 54.000000 electrons
         Band energy:-769.263443;  BLOECHL correction:  0.000000
       DOS:  cpu time    0.0055: real time    0.0055
    CHARGE:  cpu time    0.0964: real time    0.0964
    MIXING:  cpu time    0.0006: real time    0.0006
    --------------------------------------------
      LOOP:  cpu time    4.3767: real time    4.3767

 eigenvalue-minimisations  :  8172
 total energy-change (2. order) : 0.7821055E-01  (-0.8216146E-01)
 number of electron      54.0000009 magnetization      -0.0000000
 augmentation part       19.9338401 magnetization       0.0005568

 Broyden mixing:
  rms(total) = 0.53300E+00    rms(broyden)= 0.53299E+00
  rms(prec ) = 0.54988E+00
  weight for this iteration     100.00

 eigenvalues of (default mixing * dielectric matrix)
  average eigenvalue GAMMA=   1.1687
  2.0205  0.7428  0.7428

 Free energy of the ion-electron system (eV)
  ---------------------------------------------------
  alpha Z        PSCENC =       194.90578087
  Ewald energy   TEWEN  =     -4169.40277502
  -Hartree energ DENC   =     -2165.46705422
  -exchange      EXHF   =         0.00000000
  -V(xc)+E(xc)   XCENC  =       294.26435526
  PAW double counting   =      6522.51021791    -6623.72416303
  entropy T*S    EENTRO =         0.00000000
  eigenvalues    EBANDS =      -769.26344252
  atomic energy  EATOM  =      6677.64854832
  Solvation  Ediel_sol  =         0.00000000
  ---------------------------------------------------
  free energy    TOTEN  =       -38.52853244 eV

  energy without entropy =      -38.52853244  energy(sigma->0) =      -38.52853244


--------------------------------------------------------------------------------------------------------




--------------------------------------- Iteration      1(   5)  ---------------------------------------


    POTLOK:  cpu time    0.0159: real time    0.0159
    SETDIJ:  cpu time    2.1247: real time    2.1247
atom =   1  type =  1  l = 2
 
 onsite density matrix
 
spin component  1
 
  0.0470  0.0010  0.0186  0.0010  0.0000
  0.0010  0.0359  0.0007  0.0202 -0.0013
  0.0186  0.0007  0.0306  0.0008  0.0001
  0.0010  0.0202  0.0008  0.0359  0.0015
  0.0000 -0.0013  0.0001  0.0015  0.0200
 
spin component  2
 
  0.9670 -0.0006  0.0212 -0.0007 -0.0000
 -0.0006  0.9642 -0.0004  0.0157  0.0009
  0.0212 -0.0004  0.9593 -0.0005 -0.0001
 -0.0007  0.0157 -0.0005  0.9642 -0.0011
 -0.0000  0.0009 -0.0001 -0.0011  0.9438
 
 occupancies and eigenvectors
 
  o =  0.0149  v =  0.0032  0.6571 -0.0050 -0.6596  0.3648  0.0000  0.0000  0.0000  0.0000  0.0000      0.0000  0.0000  0.0000  0.0000  0.0000  0.0000  0.0000  0.0000  0.0000  0.0000
  o =  0.0185  v = -0.5448  0.0125  0.8374 -0.0181 -0.0390  0.0000  0.0000  0.0000  0.0000  0.0000      0.0000  0.0000  0.0000  0.0000  0.0000  0.0000  0.0000  0.0000  0.0000  0.0000
  o =  0.0208  v =  0.0259  0.2604 -0.0358 -0.2547 -0.9302  0.0000  0.0000  0.0000  0.0000  0.0000      0.0000  0.0000  0.0000  0.0000  0.0000  0.0000  0.0000  0.0000  0.0000  0.0000
  o =  0.0553  v =  0.3521 -0.6429  0.2246 -0.6421 -0.0030  0.0000  0.0000  0.0000  0.0000  0.0000      0.0000  0.0000  0.0000  0.0000  0.0000  0.0000  0.0000  0.0000  0.0000  0.0000
  o =  0.0599  v = -0.7606 -0.2948 -0.4970 -0.2957 -0.0036  0.0000  0.0000  0.0000  0.0000  0.0000      0.0000  0.0000  0.0000  0.0000  0.0000  0.0000  0.0000  0.0000  0.0000  0.0000
  o =  0.9416  v =  0.0000  0.0000  0.0000  0.0000  0.0000  0.6398  0.0092 -0.7676 -0.0056 -0.0369      0.0000  0.0000  0.0000  0.0000  0.0000  0.0000  0.0000  0.0000  0.0000  0.0000
  o =  0.9434  v =  0.0000  0.0000  0.0000  0.0000  0.0000 -0.0262  0.1853  0.0281 -0.1901 -0.9634      0.0000  0.0000  0.0000  0.0000  0.0000  0.0000  0.0000  0.0000  0.0000  0.0000
  o =  0.9489  v =  0.0000  0.0000  0.0000  0.0000  0.0000 -0.0003  0.6825  0.0002 -0.6809  0.2656      0.0000  0.0000  0.0000  0.0000  0.0000  0.0000  0.0000  0.0000  0.0000  0.0000
  o =  0.9796  v =  0.0000  0.0000  0.0000  0.0000  0.0000  0.1634  0.6905  0.1395  0.6907 -0.0038      0.0000  0.0000  0.0000  0.0000  0.0000  0.0000  0.0000  0.0000  0.0000  0.0000
  o =  0.9849  v =  0.0000  0.0000  0.0000  0.0000  0.0000 -0.7505  0.1514 -0.6249  0.1524  0.0012      0.0000  0.0000  0.0000  0.0000  0.0000  0.0000  0.0000  0.0000  0.0000  0.0000
atom =   2  type =  1  l = 2
 
 onsite density matrix
 
spin component  1
 
  0.9691 -0.0009 -0.0176 -0.0008 -0.0000
 -0.0009  0.9626 -0.0010 -0.0186  0.0007
 -0.0176 -0.0010  0.9597 -0.0009 -0.0002
 -0.0008 -0.0186 -0.0009  0.9629 -0.0009
 -0.0000  0.0007 -0.0002 -0.0009  0.9443
 
spin component  2
 
  0.0450  0.0012 -0.0239  0.0012  0.0000
  0.0012  0.0377  0.0014 -0.0160 -0.0011
 -0.0239  0.0014  0.0300  0.0014  0.0002
  0.0012 -0.0160  0.0014  0.0374  0.0012
  0.0000 -0.0011  0.0002  0.0012  0.0195
 
 occupancies and eigenvectors
 
  o =  0.0118  v =  0.0000  0.0000  0.0000  0.0000  0.0000 -0.5726  0.1817 -0.7785  0.1804  0.0208      0.0000  0.0000  0.0000  0.0000  0.0000  0.0000  0.0000  0.0000  0.0000  0.0000
  o =  0.0194  v =  0.0000  0.0000  0.0000  0.0000  0.0000  0.0058 -0.0055  0.0044 -0.0722  0.9974      0.0000  0.0000  0.0000  0.0000  0.0000  0.0000  0.0000  0.0000  0.0000  0.0000
  o =  0.0222  v =  0.0000  0.0000  0.0000  0.0000  0.0000  0.1491  0.6807  0.2091  0.6842  0.0514      0.0000  0.0000  0.0000  0.0000  0.0000  0.0000  0.0000  0.0000  0.0000  0.0000
  o =  0.0536  v =  0.0000  0.0000  0.0000  0.0000  0.0000  0.0023  0.7097 -0.0002 -0.7030 -0.0470      0.0000  0.0000  0.0000  0.0000  0.0000  0.0000  0.0000  0.0000  0.0000  0.0000
  o =  0.0625  v =  0.0000  0.0000  0.0000  0.0000  0.0000 -0.8061 -0.0012  0.5917 -0.0041  0.0018      0.0000  0.0000  0.0000  0.0000  0.0000  0.0000  0.0000  0.0000  0.0000  0.0000
  o =  0.9431  v = -0.3087 -0.6053 -0.3978 -0.6055 -0.1159  0.0000  0.0000  0.0000  0.0000  0.0000      0.0000  0.0000  0.0000  0.0000  0.0000  0.0000  0.0000  0.0000  0.0000  0.0000
  o =  0.9443  v = -0.0231 -0.1020 -0.0262 -0.0589  0.9924  0.0000  0.0000  0.0000  0.0000  0.0000      0.0000  0.0000  0.0000  0.0000  0.0000  0.0000  0.0000  0.0000  0.0000  0.0000
  o =  0.9472  v =  0.5248 -0.3563  0.6854 -0.3564 -0.0274  0.0000  0.0000  0.0000  0.0000  0.0000      0.0000  0.0000  0.0000  0.0000  0.0000  0.0000  0.0000  0.0000  0.0000  0.0000
  o =  0.9813  v =  0.0064 -0.7044 -0.0036  0.7091 -0.0303  0.0000  0.0000  0.0000  0.0000  0.0000      0.0000  0.0000  0.0000  0.0000  0.0000  0.0000  0.0000  0.0000  0.0000  0.0000
  o =  0.9826  v = -0.7929 -0.0029  0.6093  0.0073 -0.0022  0.0000  0.0000  0.0000  0.0000  0.0000      0.0000  0.0000  0.0000  0.0000  0.0000  0.0000  0.0000  0.0000  0.0000  0.0000
     EDDAV:  cpu time    1.9319: real time    1.9319
 BZINTS: Fermi energy:  0.692236; 54.000000 electrons
         Band energy:-773.340438;  BLOECHL correction:  0.000000
       DOS:  cpu time    0.0055: real time    0.0055
    CHARGE:  cpu time    0.1025: real time    0.1025
    MIXING:  cpu time    0.0007: real time    0.0007
    --------------------------------------------
      LOOP:  cpu time    4.1811: real time    4.1812

 eigenvalue-minimisations  :  7284
 total energy-change (2. order) : 0.6393188E-02  (-0.9030527E-02)
 number of electron      54.0000009 magnetization      -0.0000000
 augmentation part       19.9510025 magnetization      -0.0004343

 Broyden mixing:
  rms(total) = 0.14901E+00    rms(broyden)= 0.14901E+00
  rms(prec ) = 0.16729E+00
  weight for this iteration     100.00

 eigenvalues of (default mixing * dielectric matrix)
  average eigenvalue GAMMA=   1.1247
  2.3709  0.7652  0.7652  0.5976

 Free energy of the ion-electron system (eV)
  ---------------------------------------------------
  alpha Z        PSCENC =       194.90578087
  Ewald energy   TEWEN  =     -4169.40277502
  -Hartree energ DENC   =     -2163.47331711
  -exchange      EXHF   =         0.00000000
  -V(xc)+E(xc)   XCENC  =       294.11736686
  PAW double counting   =      6278.73131355    -6377.70861883
  entropy T*S    EENTRO =         0.00000000
  eigenvalues    EBANDS =      -773.34043789
  atomic energy  EATOM  =      6677.64854832
  Solvation  Ediel_sol  =         0.00000000
  ---------------------------------------------------
  free energy    TOTEN  =       -38.52213925 eV

  energy without entropy =      -38.52213925  energy(sigma->0) =      -38.52213925


--------------------------------------------------------------------------------------------------------




--------------------------------------- Iteration      1(   6)  ---------------------------------------


    POTLOK:  cpu time    0.0159: real time    0.0159
    SETDIJ:  cpu time    2.1242: real time    2.1242
atom =   1  type =  1  l = 2
 
 onsite density matrix
 
spin component  1
 
  0.0391  0.0001  0.0222  0.0001 -0.0000
  0.0001  0.0320  0.0001  0.0192  0.0001
  0.0222  0.0001  0.0269  0.0001 -0.0000
  0.0001  0.0192  0.0001  0.0320 -0.0001
 -0.0000  0.0001 -0.0000 -0.0001  0.0112
 
spin component  2
 
  0.9750  0.0000  0.0183  0.0000 -0.0000
  0.0000  0.9689  0.0001  0.0167 -0.0002
  0.0183  0.0001  0.9636  0.0001  0.0000
  0.0000  0.0167  0.0001  0.9689  0.0002
 -0.0000 -0.0002  0.0000  0.0002  0.9526
 
 occupancies and eigenvectors
 
  o =  0.0100  v = -0.6062 -0.0010  0.7953  0.0011  0.0024  0.0000  0.0000  0.0000  0.0000  0.0000      0.0000  0.0000  0.0000  0.0000  0.0000  0.0000  0.0000  0.0000  0.0000  0.0000
  o =  0.0112  v = -0.0016  0.0348  0.0019 -0.0349 -0.9988  0.0000  0.0000  0.0000  0.0000  0.0000      0.0000  0.0000  0.0000  0.0000  0.0000  0.0000  0.0000  0.0000  0.0000  0.0000
  o =  0.0129  v =  0.0007 -0.7061 -0.0012  0.7064 -0.0493  0.0000  0.0000  0.0000  0.0000  0.0000      0.0000  0.0000  0.0000  0.0000  0.0000  0.0000  0.0000  0.0000  0.0000  0.0000
  o =  0.0511  v =  0.0267 -0.7069  0.0205 -0.7065  0.0001  0.0000  0.0000  0.0000  0.0000  0.0000      0.0000  0.0000  0.0000  0.0000  0.0000  0.0000  0.0000  0.0000  0.0000  0.0000
  o =  0.0561  v = -0.7949 -0.0237 -0.6058 -0.0239  0.0001  0.0000  0.0000  0.0000  0.0000  0.0000      0.0000  0.0000  0.0000  0.0000  0.0000  0.0000  0.0000  0.0000  0.0000  0.0000
  o =  0.9501  v =  0.0000  0.0000  0.0000  0.0000  0.0000 -0.5930 -0.0014  0.8052 -0.0008 -0.0058      0.0000  0.0000  0.0000  0.0000  0.0000  0.0000  0.0000  0.0000  0.0000  0.0000
  o =  0.9520  v =  0.0000  0.0000  0.0000  0.0000  0.0000  0.0020 -0.6264 -0.0023  0.6266 -0.4637      0.0000  0.0000  0.0000  0.0000  0.0000  0.0000  0.0000  0.0000  0.0000  0.0000
  o =  0.9528  v =  0.0000  0.0000  0.0000  0.0000  0.0000 -0.0031 -0.3284  0.0039  0.3274  0.8860      0.0000  0.0000  0.0000  0.0000  0.0000  0.0000  0.0000  0.0000  0.0000  0.0000
  o =  0.9855  v =  0.0000  0.0000  0.0000  0.0000  0.0000  0.0179 -0.7068  0.0112 -0.7071 -0.0007      0.0000  0.0000  0.0000  0.0000  0.0000  0.0000  0.0000  0.0000  0.0000  0.0000
  o =  0.9885  v =  0.0000  0.0000  0.0000  0.0000  0.0000 -0.8050 -0.0150 -0.5929 -0.0148 -0.0003      0.0000  0.0000  0.0000  0.0000  0.0000  0.0000  0.0000  0.0000  0.0000  0.0000
atom =   2  type =  1  l = 2
 
 onsite density matrix
 
spin component  1
 
  0.9748  0.0002 -0.0190  0.0002  0.0000
  0.0002  0.9691  0.0001 -0.0164 -0.0000
 -0.0190  0.0001  0.9634  0.0001  0.0000
  0.0002 -0.0164  0.0001  0.9691  0.0000
  0.0000 -0.0000  0.0000  0.0000  0.9527
 
spin component  2
 
  0.0393 -0.0000 -0.0223 -0.0000 -0.0000
 -0.0000  0.0319  0.0000 -0.0190 -0.0001
 -0.0223  0.0000  0.0270  0.0000 -0.0000
 -0.0000 -0.0190  0.0000  0.0319  0.0001
 -0.0000 -0.0001 -0.0000  0.0001  0.0111
 
 occupancies and eigenvectors
 
  o =  0.0101  v =  0.0000  0.0000  0.0000  0.0000  0.0000 -0.6060  0.0048 -0.7954  0.0050 -0.0099      0.0000  0.0000  0.0000  0.0000  0.0000  0.0000  0.0000  0.0000  0.0000  0.0000
  o =  0.0111  v =  0.0000  0.0000  0.0000  0.0000  0.0000 -0.0059  0.0019 -0.0079 -0.0020  0.9999      0.0000  0.0000  0.0000  0.0000  0.0000  0.0000  0.0000  0.0000  0.0000  0.0000
  o =  0.0128  v =  0.0000  0.0000  0.0000  0.0000  0.0000 -0.0056 -0.7071 -0.0044 -0.7071 -0.0002      0.0000  0.0000  0.0000  0.0000  0.0000  0.0000  0.0000  0.0000  0.0000  0.0000
  o =  0.0509  v =  0.0000  0.0000  0.0000  0.0000  0.0000  0.0003  0.7071 -0.0005 -0.7071 -0.0028      0.0000  0.0000  0.0000  0.0000  0.0000  0.0000  0.0000  0.0000  0.0000  0.0000
  o =  0.0562  v =  0.0000  0.0000  0.0000  0.0000  0.0000 -0.7954  0.0016  0.6061  0.0009  0.0001      0.0000  0.0000  0.0000  0.0000  0.0000  0.0000  0.0000  0.0000  0.0000  0.0000
  o =  0.9493  v = -0.5946  0.0548 -0.8002  0.0543  0.0088  0.0000  0.0000  0.0000  0.0000  0.0000      0.0000  0.0000  0.0000  0.0000  0.0000  0.0000  0.0000  0.0000  0.0000  0.0000
  o =  0.9527  v = -0.0101 -0.2373 -0.0147 -0.2394  0.9413  0.0000  0.0000  0.0000  0.0000  0.0000      0.0000  0.0000  0.0000  0.0000  0.0000  0.0000  0.0000  0.0000  0.0000  0.0000
  o =  0.9527  v = -0.0434 -0.6635 -0.0619 -0.6634 -0.3374  0.0000  0.0000  0.0000  0.0000  0.0000      0.0000  0.0000  0.0000  0.0000  0.0000  0.0000  0.0000  0.0000  0.0000  0.0000
  o =  0.9854  v =  0.0014  0.7074 -0.0006 -0.7068 -0.0014  0.0000  0.0000  0.0000  0.0000  0.0000      0.0000  0.0000  0.0000  0.0000  0.0000  0.0000  0.0000  0.0000  0.0000  0.0000
  o =  0.9889  v = -0.8028 -0.0005  0.5963 -0.0026 -0.0001  0.0000  0.0000  0.0000  0.0000  0.0000      0.0000  0.0000  0.0000  0.0000  0.0000  0.0000  0.0000  0.0000  0.0000  0.0000
     EDDAV:  cpu time    2.1479: real time    2.1479
 BZINTS: Fermi energy:  0.701766; 54.000000 electrons
         Band energy:-773.760620;  BLOECHL correction:  0.000000
       DOS:  cpu time    0.0055: real time    0.0055
    CHARGE:  cpu time    0.0965: real time    0.0965
    MIXING:  cpu time    0.0007: real time    0.0007
    --------------------------------------------
      LOOP:  cpu time    4.3906: real time    4.3906

 eigenvalue-minimisations  :  8244
 total energy-change (2. order) : 0.1593466E-03  (-0.1590976E-02)
 number of electron      54.0000009 magnetization      -0.0000000
 augmentation part       19.9592077 magnetization      -0.0002640

 Broyden mixing:
  rms(total) = 0.78046E-01    rms(broyden)= 0.78044E-01
  rms(prec ) = 0.84852E-01
  weight for this iteration     100.00

 eigenvalues of (default mixing * dielectric matrix)
  average eigenvalue GAMMA=   1.1068
  2.3807  0.9244  0.9244  0.6523  0.6523

 Free energy of the ion-electron system (eV)
  ---------------------------------------------------
  alpha Z        PSCENC =       194.90578087
  Ewald energy   TEWEN  =     -4169.40277502
  -Hartree energ DENC   =     -2163.59425566
  -exchange      EXHF   =         0.00000000
  -V(xc)+E(xc)   XCENC  =       294.09426129
  PAW double counting   =      6256.43090455    -6354.84382388
  entropy T*S    EENTRO =         0.00000000
  eigenvalues    EBANDS =      -773.76062036
  atomic energy  EATOM  =      6677.64854832
  Solvation  Ediel_sol  =         0.00000000
  ---------------------------------------------------
  free energy    TOTEN  =       -38.52197990 eV

  energy without entropy =      -38.52197990  energy(sigma->0) =      -38.52197990


--------------------------------------------------------------------------------------------------------




--------------------------------------- Iteration      1(   7)  ---------------------------------------


    POTLOK:  cpu time    0.0163: real time    0.0163
    SETDIJ:  cpu time    2.1263: real time    2.1263
atom =   1  type =  1  l = 2
 
 onsite density matrix
 
spin component  1
 
  0.0398  0.0001  0.0217  0.0001  0.0000
  0.0001  0.0323  0.0001  0.0191 -0.0001
  0.0217  0.0001  0.0274  0.0001  0.0000
  0.0001  0.0191  0.0001  0.0323  0.0001
  0.0000 -0.0001  0.0000  0.0001  0.0120
 
spin component  2
 
  0.9746 -0.0000  0.0190 -0.0000 -0.0000
 -0.0000  0.9689  0.0000  0.0168 -0.0000
  0.0190  0.0000  0.9635 -0.0000 -0.0000
 -0.0000  0.0168 -0.0000  0.9689  0.0000
 -0.0000 -0.0000 -0.0000  0.0000  0.9520
 
 occupancies and eigenvectors
 
  o =  0.0110  v = -0.6020 -0.0002  0.7985  0.0004 -0.0071  0.0000  0.0000  0.0000  0.0000  0.0000      0.0000  0.0000  0.0000  0.0000  0.0000  0.0000  0.0000  0.0000  0.0000  0.0000
  o =  0.0120  v =  0.0043 -0.0725 -0.0056  0.0729 -0.9947  0.0000  0.0000  0.0000  0.0000  0.0000      0.0000  0.0000  0.0000  0.0000  0.0000  0.0000  0.0000  0.0000  0.0000  0.0000
  o =  0.0133  v =  0.0003  0.7033 -0.0002 -0.7034 -0.1028  0.0000  0.0000  0.0000  0.0000  0.0000      0.0000  0.0000  0.0000  0.0000  0.0000  0.0000  0.0000  0.0000  0.0000  0.0000
  o =  0.0514  v =  0.0307 -0.7067  0.0233 -0.7065 -0.0003  0.0000  0.0000  0.0000  0.0000  0.0000      0.0000  0.0000  0.0000  0.0000  0.0000  0.0000  0.0000  0.0000  0.0000  0.0000
  o =  0.0562  v = -0.7979 -0.0272 -0.6016 -0.0273 -0.0001  0.0000  0.0000  0.0000  0.0000  0.0000      0.0000  0.0000  0.0000  0.0000  0.0000  0.0000  0.0000  0.0000  0.0000  0.0000
  o =  0.9493  v =  0.0000  0.0000  0.0000  0.0000  0.0000  0.6001  0.0011 -0.8000  0.0002 -0.0003      0.0000  0.0000  0.0000  0.0000  0.0000  0.0000  0.0000  0.0000  0.0000  0.0000
  o =  0.9520  v =  0.0000  0.0000  0.0000  0.0000  0.0000  0.0002  0.0196 -0.0002 -0.0196  0.9996      0.0000  0.0000  0.0000  0.0000  0.0000  0.0000  0.0000  0.0000  0.0000  0.0000
  o =  0.9521  v =  0.0000  0.0000  0.0000  0.0000  0.0000 -0.0004  0.7069  0.0004 -0.7068 -0.0277      0.0000  0.0000  0.0000  0.0000  0.0000  0.0000  0.0000  0.0000  0.0000  0.0000
  o =  0.9857  v =  0.0000  0.0000  0.0000  0.0000  0.0000  0.0102  0.7070  0.0088  0.7071 -0.0000      0.0000  0.0000  0.0000  0.0000  0.0000  0.0000  0.0000  0.0000  0.0000  0.0000
  o =  0.9889  v =  0.0000  0.0000  0.0000  0.0000  0.0000 -0.7999  0.0095 -0.6000  0.0096  0.0001      0.0000  0.0000  0.0000  0.0000  0.0000  0.0000  0.0000  0.0000  0.0000  0.0000
atom =   2  type =  1  l = 2
 
 onsite density matrix
 
spin component  1
 
  0.9747 -0.0000 -0.0190 -0.0000  0.0000
 -0.0000  0.9689 -0.0000 -0.0169  0.0000
 -0.0190 -0.0000  0.9635 -0.0000 -0.0000
 -0.0000 -0.0169 -0.0000  0.9689 -0.0000
  0.0000  0.0000 -0.0000 -0.0000  0.9521
 
spin component  2
 
  0.0397  0.0001 -0.0222  0.0001  0.0000
  0.0001  0.0324  0.0001 -0.0187 -0.0001
 -0.0222  0.0001  0.0274  0.0001  0.0000
  0.0001 -0.0187  0.0001  0.0324  0.0001
  0.0000 -0.0001  0.0000  0.0001  0.0120
 
 occupancies and eigenvectors
 
  o =  0.0105  v =  0.0000  0.0000  0.0000  0.0000  0.0000  0.6037 -0.0452  0.7946 -0.0451 -0.0078      0.0000  0.0000  0.0000  0.0000  0.0000  0.0000  0.0000  0.0000  0.0000  0.0000
  o =  0.0120  v =  0.0000  0.0000  0.0000  0.0000  0.0000  0.0047  0.0003  0.0059 -0.0055  1.0000      0.0000  0.0000  0.0000  0.0000  0.0000  0.0000  0.0000  0.0000  0.0000  0.0000
  o =  0.0137  v =  0.0000  0.0000  0.0000  0.0000  0.0000  0.0390  0.7055  0.0506  0.7059  0.0031      0.0000  0.0000  0.0000  0.0000  0.0000  0.0000  0.0000  0.0000  0.0000  0.0000
[...]
     18      -2.6310      1.00000
     19      -2.5119      1.00000
     20      -2.0200      1.00000
     21      -1.6976      1.00000
     22      -1.5803      1.00000
     23      -1.3925      1.00000
     24      -0.9687      1.00000
     25      -0.6684      1.00000
     26      -0.1534      1.00000
     27       0.4551      1.00000
     28       7.8880      0.00000
     29       7.9467      0.00000
     30       8.1465      0.00000
     31       8.5156      0.00000
     32       9.1302      0.00000
     33       9.1380      0.00000
     34      10.5144      0.00000
     35      11.0054      0.00000
     36      12.1717      0.00000

 k-point    48 :      -0.1250   -0.1250    0.4167
  band No.  band energies     occupation 
      1     -46.7629      1.00000
      2     -46.7252      1.00000
      3     -46.7100      1.00000
      4     -41.7437      1.00000
      5     -41.7096      1.00000
      6     -41.6887      1.00000
      7     -20.8079      1.00000
      8     -20.6860      1.00000
      9     -20.6391      1.00000
     10     -20.5426      1.00000
     11      -4.4911      1.00000
     12      -3.9693      1.00000
     13      -3.7124      1.00000
     14      -3.5916      1.00000
     15      -3.5505      1.00000
     16      -3.1919      1.00000
     17      -2.7331      1.00000
     18      -2.6905      1.00000
     19      -2.4147      1.00000
     20      -2.0681      1.00000
     21      -1.8056      1.00000
     22      -1.7657      1.00000
     23      -1.4064      1.00000
     24      -0.9087      1.00000
     25      -0.5393      1.00000
     26      -0.1098      1.00000
     27       0.1870      1.00000
     28       7.8222      0.00000
     29       7.8854      0.00000
     30       7.9466      0.00000
     31       8.5015      0.00000
     32       8.7277      0.00000
     33       9.0518      0.00000
     34      10.7966      0.00000
     35      11.9724      0.00000
     36      12.4202      0.00000


--------------------------------------------------------------------------------------------------------


 soft charge-density along one line, spin component           1
         0         1         2         3         4         5         6         7         8         9
 total charge-density along one line
 
 soft charge-density along one line, spin component           2
         0         1         2         3         4         5         6         7         8         9
 total charge-density along one line
 
 pseudopotential strength for first ion, spin component:           1
-42.482   0.000  -0.027   7.863  -0.000   0.011   0.000   0.000
  0.000 -42.454   0.000  -0.000   7.850  -0.000   0.000   0.000
 -0.027   0.000 -42.482   0.011  -0.000   7.863   0.000   0.000
  7.863  -0.000   0.011   5.261   0.000  -0.002   0.000  -0.000
 -0.000   7.850  -0.000   0.000   5.263   0.000  -0.000  -0.000
  0.011  -0.000   7.863  -0.002   0.000   5.261  -0.000  -0.000
  0.000   0.000   0.000   0.000  -0.000  -0.000  -0.622   0.000
  0.000   0.000   0.000  -0.000  -0.000  -0.000   0.000  -0.572
 -0.000   0.000   0.000   0.000  -0.000  -0.000  -0.091   0.000
  0.000   0.000   0.000  -0.000  -0.000  -0.000   0.000  -0.105
 -0.000   0.000  -0.000   0.000  -0.000   0.000  -0.000   0.000
  0.000   0.000   0.000   0.000  -0.000  -0.000  -1.039   0.000
  0.000   0.000   0.000  -0.000  -0.000  -0.000   0.000  -0.988
 -0.000   0.000   0.000   0.000  -0.000  -0.000  -0.096   0.000
  0.000   0.000   0.000  -0.000  -0.000  -0.000   0.000  -0.108
 -0.000   0.000  -0.000   0.000  -0.000   0.000  -0.000   0.000
 -0.000  -0.000  -0.000   0.000   0.000   0.000   0.006  -0.000
 -0.000  -0.000  -0.000   0.000   0.000   0.000   0.012  -0.000
 pseudopotential strength for first ion, spin component:           2
-45.846  -0.000  -0.019   9.403   0.000   0.007   0.000   0.000
 -0.000 -45.827  -0.000   0.000   9.397   0.000   0.000   0.000
 -0.019  -0.000 -45.846   0.007   0.000   9.403   0.000   0.000
  9.403   0.000   0.007   4.742  -0.000  -0.001  -0.000  -0.000
  0.000   9.397   0.000  -0.000   4.743  -0.000  -0.000  -0.000
  0.007   0.000   9.403  -0.001  -0.000   4.742  -0.000  -0.000
  0.000   0.000   0.000  -0.000  -0.000  -0.000  -8.620   0.000
  0.000   0.000   0.000  -0.000  -0.000  -0.000   0.000  -8.580
 -0.000   0.000  -0.000   0.000  -0.000   0.000  -0.079   0.000
  0.000  -0.000  -0.000  -0.000   0.000   0.000   0.000  -0.094
 -0.000  -0.000   0.000   0.000   0.000  -0.000  -0.000  -0.000
  0.000   0.000   0.000  -0.000  -0.000  -0.000  -9.141   0.000
  0.000   0.000   0.000  -0.000  -0.000  -0.000   0.000  -9.100
 -0.000   0.000  -0.000   0.000  -0.000   0.000  -0.082   0.000
  0.000  -0.000  -0.000  -0.000   0.000   0.000   0.000  -0.097
 -0.000  -0.000   0.000   0.000   0.000  -0.000  -0.000  -0.000
 -0.000  -0.000  -0.000   0.000  -0.000   0.000   0.003   0.000
 -0.000  -0.000  -0.000   0.000  -0.000   0.000   0.005   0.000
 total augmentation occupancy for first ion, spin component:           1
  1.998   0.000   0.000  -0.013  -0.000   0.000   0.000  -0.000   0.000   0.000   0.000  -0.000   0.000  -0.000  -0.000  -0.000
  0.000   1.998   0.000  -0.000  -0.013  -0.000   0.000  -0.000  -0.000  -0.000  -0.000  -0.000   0.000   0.000   0.000   0.000
  0.000   0.000   1.998   0.000  -0.000  -0.013  -0.000   0.000   0.000  -0.000   0.000   0.000  -0.000  -0.000   0.000  -0.000
 -0.013  -0.000   0.000   0.085  -0.000  -0.008  -0.000   0.000  -0.000   0.000  -0.000   0.000  -0.000   0.000  -0.000   0.000
 -0.000  -0.013  -0.000  -0.000   0.098  -0.000   0.000  -0.000   0.000   0.000   0.000  -0.000   0.000  -0.000  -0.000  -0.000
  0.000  -0.000  -0.013  -0.008  -0.000   0.085   0.000   0.000   0.000  -0.000   0.000  -0.000  -0.000  -0.000   0.000  -0.000
  0.000   0.000  -0.000  -0.000   0.000   0.000   7.693  -0.000   2.948  -0.000  -0.000  -5.728   0.000  -2.783   0.000   0.000
 -0.000  -0.000   0.000   0.000  -0.000   0.000  -0.000   6.599   0.000   2.600   0.000   0.000  -4.689  -0.000  -2.451  -0.000
  0.000  -0.000   0.000  -0.000   0.000   0.000   2.948   0.000   5.973   0.000   0.000  -2.783  -0.000  -4.119  -0.000  -0.000
  0.000  -0.000  -0.000   0.000   0.000  -0.000  -0.000   2.600   0.000   6.599  -0.000   0.000  -2.451  -0.000  -4.689   0.000
  0.000  -0.000   0.000  -0.000   0.000   0.000  -0.000   0.000   0.000  -0.000   3.872   0.000  -0.000  -0.000   0.000  -2.098
 -0.000  -0.000   0.000   0.000  -0.000  -0.000  -5.728   0.000  -2.783   0.000   0.000   4.930  -0.000   2.653  -0.000  -0.000
  0.000   0.000  -0.000  -0.000   0.000  -0.000   0.000  -4.689  -0.000  -2.451  -0.000  -0.000   3.936   0.000   2.332   0.000
 -0.000   0.000  -0.000   0.000  -0.000  -0.000  -2.783  -0.000  -4.119  -0.000  -0.000   2.653   0.000   3.412   0.000   0.000
 -0.000   0.000   0.000  -0.000  -0.000   0.000   0.000  -2.451  -0.000  -4.689   0.000  -0.000   2.332   0.000   3.936  -0.000
 -0.000   0.000  -0.000   0.000  -0.000  -0.000   0.000  -0.000  -0.000   0.000  -2.098  -0.000   0.000   0.000  -0.000   1.451
 -0.000  -0.000   0.000   0.000   0.000  -0.000   0.195   0.000  -0.219   0.000  -0.000  -0.223  -0.000   0.234  -0.000   0.000
  0.000   0.000  -0.000  -0.000  -0.000   0.000   0.001  -0.000   0.016  -0.000   0.000   0.022   0.000  -0.030   0.000  -0.000
 total augmentation occupancy for first ion, spin component:           2
  0.003  -0.000  -0.000   0.011  -0.000  -0.000   0.000  -0.000  -0.000   0.000   0.000  -0.000   0.000   0.000  -0.000  -0.000
 -0.000   0.003  -0.000  -0.000   0.011  -0.000  -0.000   0.000   0.000  -0.000  -0.000   0.000  -0.000  -0.000   0.000   0.000
 -0.000  -0.000   0.003  -0.000  -0.000   0.011   0.000  -0.000   0.000  -0.000   0.000  -0.000   0.000  -0.000   0.000  -0.000
  0.011  -0.000  -0.000  -0.011   0.000  -0.000   0.000  -0.000   0.000   0.000  -0.000  -0.000   0.000  -0.000  -0.000   0.000
 -0.000   0.011  -0.000   0.000  -0.011   0.000  -0.000  -0.000  -0.000   0.000   0.000   0.000   0.000   0.000  -0.000  -0.000
 -0.000  -0.000   0.011  -0.000   0.000  -0.011  -0.000   0.000  -0.000  -0.000   0.000   0.000  -0.000   0.000   0.000  -0.000
  0.000  -0.000   0.000   0.000  -0.000  -0.000  -5.554   0.000  -1.732   0.000   0.000   3.284  -0.000   1.398  -0.000  -0.000
 -0.000   0.000  -0.000  -0.000  -0.000   0.000   0.000  -4.917  -0.000  -1.537  -0.000  -0.000   2.759   0.000   1.241   0.000
 -0.000   0.000   0.000   0.000  -0.000  -0.000  -1.732  -0.000  -4.478  -0.000  -0.000   1.398   0.000   2.412   0.000   0.000
  0.000  -0.000  -0.000   0.000   0.000  -0.000   0.000  -1.537  -0.000  -4.917   0.000  -0.000   1.241   0.000   2.759  -0.000
  0.000  -0.000   0.000  -0.000   0.000   0.000   0.000  -0.000  -0.000   0.000  -3.354  -0.000   0.000   0.000  -0.000   1.493
 -0.000   0.000  -0.000  -0.000   0.000   0.000   3.284  -0.000   1.398  -0.000  -0.000  -2.133   0.000  -1.072   0.000   0.000
  0.000  -0.000   0.000   0.000   0.000  -0.000  -0.000   2.759   0.000   1.241   0.000   0.000  -1.719  -0.000  -0.952  -0.000
  0.000  -0.000  -0.000  -0.000   0.000   0.000   1.398   0.000   2.412   0.000   0.000  -1.072  -0.000  -1.460  -0.000  -0.000
 -0.000   0.000   0.000  -0.000  -0.000   0.000  -0.000   1.241   0.000   2.759  -0.000   0.000  -0.952  -0.000  -1.719   0.000
 -0.000   0.000  -0.000   0.000  -0.000  -0.000  -0.000   0.000   0.000  -0.000   1.493   0.000  -0.000  -0.000   0.000  -0.743
  0.000  -0.000  -0.000   0.000  -0.000  -0.000   0.015  -0.000   0.015  -0.000   0.000  -0.015   0.000  -0.004   0.000  -0.000
 -0.000   0.000   0.000  -0.000   0.000   0.000  -0.043   0.000   0.024   0.000  -0.000   0.025  -0.000  -0.013  -0.000   0.000


------------------------ aborting loop because EDIFF is reached ----------------------------------------


 


 total charge     
 
# of ion       s       p       d       tot
------------------------------------------
    1        0.166   6.149   4.953  11.268
    2        0.166   6.149   4.953  11.268
    3        1.726   4.368   0.000   6.093
    4        1.726   4.368   0.000   6.093
    5        1.726   4.368   0.000   6.093
    6        1.726   4.368   0.000   6.093
--------------------------------------------------
tot          7.234  29.769   9.907  46.909
 


 magnetization (x)
 
# of ion       s       p       d       tot
------------------------------------------
    1       -0.019  -0.019  -4.676  -4.714
    2        0.019   0.019   4.676   4.714
    3        0.002   0.011   0.000   0.012
    4        0.002   0.011   0.000   0.012
    5       -0.002  -0.011   0.000  -0.012
    6       -0.002  -0.011   0.000  -0.012
--------------------------------------------------
tot         -0.000  -0.000   0.000  -0.000
 
    CHARGE:  cpu time    0.0978: real time    0.0978
    FORLOC:  cpu time    0.0011: real time    0.0011
    FORNL :  cpu time    0.5490: real time    0.5491
    STRESS:  cpu time    1.5305: real time    1.5305
    FORCOR:  cpu time    0.0152: real time    0.0152
    FORHAR:  cpu time    0.0021: real time    0.0021
    MIXING:  cpu time    0.0010: real time    0.0010
    OFIELD:  cpu time    0.0000: real time    0.0000

  FORCE on cell =-STRESS in cart. coord.  units (eV):
  Direction    XX          YY          ZZ          XY          YZ          ZX
  --------------------------------------------------------------------------------------
  Alpha Z   194.90578   194.90578   194.90578
  Ewald   -1580.28484 -1580.28484 -1008.83621     0.00000     0.00000     0.00000
  Hartree   593.01039   593.01039   979.42572    -0.00005    -0.00000    -0.00000
  E(xc)    -314.23208  -314.23208  -314.00923    -0.00000    -0.00000    -0.00000
  Local     158.89186   158.89186  -792.02825     0.00006     0.00000     0.00000
  n-local  -242.90394  -242.90394  -241.74595    -0.00000    -0.00000    -0.00000
  augment   265.57502   265.57502   265.04549     0.00000     0.00000     0.00000
  Kinetic   925.04548   925.04548   917.23551     0.00000     0.00000     0.00000
  Fock        0.00000     0.00000     0.00000     0.00000     0.00000     0.00000
  -------------------------------------------------------------------------------------
  Total       0.00767     0.00767    -0.00713     0.00001     0.00000     0.00000
  in kB       0.15519     0.15519    -0.14422     0.00014     0.00004     0.00004
  external pressure =        0.06 kB  Pullay stress =        0.00 kB


 VOLUME and BASIS-vectors are now :
 -----------------------------------------------------------------------------
  energy-cutoff  :      600.00
  volume of cell :       79.20
      direct lattice vectors                 reciprocal lattice vectors
     4.892609286  0.000000000  0.000000000     0.204389916  0.000000000  0.000000000
     0.000000000  4.892609286  0.000000000     0.000000000  0.204389916  0.000000000
     0.000000000  0.000000000  3.308802205     0.000000000  0.000000000  0.302224170

  length of vectors
     4.892609286  4.892609286  3.308802205     0.204389916  0.204389916  0.302224170


 FORCES acting on ions
    electron-ion (+dipol)            ewald-force                    non-local-force                 convergence-correction
 -----------------------------------------------------------------------------------------------
   -.530E-10 -.233E-09 -.161E-09   -.284E-13 0.142E-12 -.151E-13   0.113E-08 -.243E-09 -.231E-08   0.150E-09 0.798E-09 0.340E-09
   -.244E-09 0.225E-09 0.455E-10   -.853E-13 -.568E-13 -.166E-13   0.920E-09 0.140E-08 0.113E-08   0.679E-09 -.811E-09 -.844E-10
   -.347E+02 0.347E+02 0.447E-06   0.361E+02 -.361E+02 0.856E-15   -.142E+01 0.142E+01 0.726E-06   0.221E-04 -.193E-04 -.119E-05
   0.347E+02 -.347E+02 -.448E-06   -.361E+02 0.361E+02 0.963E-15   0.142E+01 -.142E+01 -.726E-06   -.221E-04 0.193E-04 0.119E-05
   0.347E+02 0.347E+02 -.520E-07   -.361E+02 -.361E+02 0.592E-14   0.142E+01 0.142E+01 0.100E-05   -.721E-05 -.112E-04 -.929E-06
   -.347E+02 -.347E+02 0.520E-07   0.361E+02 0.361E+02 0.602E-14   -.142E+01 -.142E+01 -.100E-05   0.721E-05 0.112E-04 0.929E-06
 -----------------------------------------------------------------------------------------------
   -.392E-09 -.431E-10 -.730E-10   -.711E-14 0.711E-14 -.180E-13   0.192E-08 0.113E-08 -.178E-08   0.900E-09 0.676E-10 0.294E-09
 
 
 POSITION                                       TOTAL-FORCE (eV/Angst)
 -----------------------------------------------------------------------------------
      2.44630      2.44630      1.65440         0.000000      0.000000     -0.000000
      0.00000      0.00000      0.00000         0.000000      0.000000      0.000000
      0.95506      3.93755      1.65440        -0.003054      0.003053     -0.000000
      3.93755      0.95506      1.65440         0.003054     -0.003053      0.000000
      1.49124      1.49124      0.00000         0.003056      0.003056      0.000000
      3.40137      3.40137      0.00000        -0.003056     -0.003056     -0.000000
 -----------------------------------------------------------------------------------
    total drift:                                0.000000      0.000000     -0.000000


--------------------------------------------------------------------------------------------------------



  FREE ENERGIE OF THE ION-ELECTRON SYSTEM (eV)
  ---------------------------------------------------
  free  energy   TOTEN  =       -38.52076093 eV

  energy  without entropy=      -38.52076093  energy(sigma->0) =      -38.52076093
 


--------------------------------------------------------------------------------------------------------


    POTLOK:  cpu time    4.0290: real time    4.0290

 Total magnetic moment S=     1.0000000

 Fermi contact (isotropic) hyperfine coupling parameter (MHz) 
 -------------------------------------------------------------
  ion      A_pw      A_1PS     A_1AE     A_1c      A_tot
 -------------------------------------------------------------
   1   -1295.595 -1295.528  -407.019  1239.312  -407.086
   2    1295.595  1295.528   407.019 -1239.312   407.086
   3      26.151    26.038   189.676   -17.237   189.788
   4      26.151    26.038   189.676   -17.237   189.788
   5     -26.151   -26.038  -189.676    17.237  -189.788
   6     -26.151   -26.038  -189.676    17.237  -189.788
 -------------------------------------------------------------


 Dipolar hyperfine coupling parameters (MHz)
 ---------------------------------------------------------------------
  ion      A_xx      A_yy      A_zz      A_xy      A_xz      A_yz
 ---------------------------------------------------------------------
   1       7.221     7.221   -14.442     3.490     0.001     0.001
   2      -7.221    -7.221    14.442     3.490    -0.001    -0.001
   3     -45.540   -45.540    91.080     8.062     0.000     0.000
   4     -45.540   -45.540    91.080     8.062     0.000     0.000
   5      45.540    45.540   -91.079     8.061     0.000     0.000
   6      45.540    45.540   -91.079     8.061     0.000     0.000
 ---------------------------------------------------------------------


 Total hyperfine coupling parameters after diagonalization (MHz)
 (convention: |A_zz| > |A_xx| > |A_yy|)
 ----------------------------------------------------------------------
  ion      A_xx      A_yy      A_zz     asymmetry (A_yy - A_xx)/ A_zz 
 ----------------------------------------------------------------------
   1    -403.356  -396.375  -421.528      -0.017
   2     403.355   396.375   421.528      -0.017
   3     152.310   136.187   280.868      -0.057
   4     152.310   136.187   280.868      -0.057
   5    -152.310  -136.187  -280.867      -0.057
   6    -152.310  -136.187  -280.867      -0.057
 ---------------------------------------------------------------------



--------------------------------------------------------------------------------------------------------


 writing wavefunctions
     LOOP+:  cpu time   88.5344: real time   88.5635
    4ORBIT:  cpu time    0.0000: real time    0.0000
 


 total charge     
 
# of ion       s       p       d       tot
------------------------------------------
    1        0.166   6.149   4.953  11.268
    2        0.166   6.149   4.953  11.268
    3        1.726   4.368   0.000   6.093
    4        1.726   4.368   0.000   6.093
    5        1.726   4.368   0.000   6.093
    6        1.726   4.368   0.000   6.093
--------------------------------------------------
tot          7.234  29.769   9.907  46.909
 


 magnetization (x)
 
# of ion       s       p       d       tot
------------------------------------------
    1       -0.019  -0.019  -4.676  -4.714
    2        0.019   0.019   4.676   4.714
    3        0.002   0.011   0.000   0.012
    4        0.002   0.011   0.000   0.012
    5       -0.002  -0.011   0.000  -0.012
    6       -0.002  -0.011   0.000  -0.012
--------------------------------------------------
tot         -0.000  -0.000   0.000  -0.000
 
 BZINTS: Fermi energy:  0.732895; 54.000000 electrons
         Band energy:-771.871857;  BLOECHL correction:  0.000000

 total amount of memory used by VASP MPI-rank0    83995. kBytes
=======================================================================

   base      :      30000. kBytes
   nonl-proj :      36915. kBytes
   fftplans  :       1875. kBytes
   grid      :       2467. kBytes
   one-center:        186. kBytes
   wavefun   :      12552. kBytes
 
  
  
 General timing and accounting informations for this job:
 ========================================================
  
                  Total CPU time used (sec):       90.561
                            User time (sec):       61.387
                          System time (sec):       29.174
                         Elapsed time (sec):       90.641
  
                   Maximum memory used (kb):       94236.
                   Average memory used (kb):           0.
  
                          Minor page faults:        20580
                          Major page faults:            5
                 Voluntary context switches:          315
