 vasp.5.4.4.18Apr17-6-g9f103f2a35 (build Apr 27 2017 11:13:10) complex          
  
 executed on           IFC91_ompi date 2020.05.13  10:26:26
 running on   12 total cores
 distrk:  each k-point on   12 cores,    1 groups
 distr:  one band on NCORES_PER_BAND=   1 cores,   12 groups


--------------------------------------------------------------------------------------------------------


 INCAR:
 POTCAR:    PAW_PBE Mn_pv 02Aug2007               
 POTCAR:    PAW_PBE F 08Apr2002                   

 ----------------------------------------------------------------------------- 
|                                                                             |
|           W    W    AA    RRRRR   N    N  II  N    N   GGGG   !!!           |
|           W    W   A  A   R    R  NN   N  II  NN   N  G    G  !!!           |
|           W    W  A    A  R    R  N N  N  II  N N  N  G       !!!           |
|           W WW W  AAAAAA  RRRRR   N  N N  II  N  N N  G  GGG   !            |
|           WW  WW  A    A  R   R   N   NN  II  N   NN  G    G                |
|           W    W  A    A  R    R  N    N  II  N    N   GGGG   !!!           |
|                                                                             |
|      For optimal performance we recommend to set                            |
|        NCORE= 4 - approx SQRT( number of cores)                             |
|      NCORE specifies how many cores store one orbital (NPAR=cpu/NCORE).     |
|      This setting can  greatly improve the performance of VASP for DFT.     |
|      The default,   NCORE=1            might be grossly inefficient         |
|      on modern multi-core architectures or massively parallel machines.     |
|      Do your own testing !!!!                                               |
|      Unfortunately you need to use the default for GW and RPA calculations. |
|      (for HF NCORE is supported but not extensively tested yet)             |
|                                                                             |
 ----------------------------------------------------------------------------- 

 POTCAR:    PAW_PBE Mn_pv 02Aug2007               
   VRHFIN =Mn: 3p4s3d                                                           
   LEXCH  = PE                                                                  
   EATOM  =  2025.2664 eV,  148.8529 Ry                                         
                                                                                
   TITEL  = PAW_PBE Mn_pv 02Aug2007                                             
   LULTRA =        F    use ultrasoft PP ?                                      
   IUNSCR =        1    unscreen: 0-lin 1-nonlin 2-no                           
   RPACOR =    2.080    partial core radius                                     
   POMASS =   54.938; ZVAL   =   13.000    mass and valenz                      
   RCORE  =    2.300    outmost cutoff radius                                   
   RWIGS  =    2.500; RWIGS  =    1.323    wigner-seitz radius (au A)           
   ENMAX  =  269.864; ENMIN  =  202.398 eV                                      
   ICORE  =        3    local potential                                         
   LCOR   =        T    correct aug charges                                     
   LPAW   =        T    paw PP                                                  
   EAUG   =  569.085                                                            
   DEXC   =    0.000                                                            
   RMAX   =    2.343    core radius for proj-oper                               
   RAUG   =    1.300    factor for augmentation sphere                          
   RDEP   =    2.338    radius for radial grids                                 
   RDEPT  =    1.798    core radius for aug-charge                              
                                                                                
   Atomic configuration                                                         
    8 entries                                                                   
     n  l   j            E        occ.                                          
     1  0  0.50     -6424.8287   2.0000                                         
     2  0  0.50      -739.1154   2.0000                                         
     2  1  1.50      -625.3949   6.0000                                         
     3  0  0.50       -81.6100   2.0000                                         
     3  1  1.50       -50.4667   6.0000                                         
     3  2  2.50        -3.3745   6.0000                                         
     4  0  0.50        -4.1331   1.0000                                         
     4  3  2.50        -1.3606   0.0000                                         
   Description                                                                  
     l       E           TYP  RCUT    TYP  RCUT                                 
     1    -50.4666628     23  2.000                                             
     1     -1.3605826     23  2.000                                             
     2     -3.3744729     23  2.300                                             
     2     -4.7350555     23  2.300                                             
     0     -4.1331431     23  2.300                                             
     0      7.6656591     23  2.300                                             
     3      9.5240782     23  2.300                                             
  local pseudopotential read in
  partial core-charges read in
  partial kinetic energy density read in
  atomic valenz-charges read in
  non local Contribution for L=           1  read in
    real space projection operators read in
  non local Contribution for L=           1  read in
    real space projection operators read in
  non local Contribution for L=           2  read in
    real space projection operators read in
  non local Contribution for L=           2  read in
    real space projection operators read in
  non local Contribution for L=           0  read in
    real space projection operators read in
  non local Contribution for L=           0  read in
    real space projection operators read in
    PAW grid and wavefunctions read in
 
   number of l-projection  operators is LMAX  =           6
   number of lm-projection operators is LMMAX =          18
 
 POTCAR:    PAW_PBE F 08Apr2002                   
   VRHFIN =F: s2p5                                                              
   LEXCH  = PE                                                                  
   EATOM  =   659.6475 eV,   48.4827 Ry                                         
                                                                                
   TITEL  = PAW_PBE F 08Apr2002                                                 
   LULTRA =        F    use ultrasoft PP ?                                      
   IUNSCR =        1    unscreen: 0-lin 1-nonlin 2-no                           
   RPACOR =    1.200    partial core radius                                     
   POMASS =   18.998; ZVAL   =    7.000    mass and valenz                      
   RCORE  =    1.520    outmost cutoff radius                                   
   RWIGS  =    1.500; RWIGS  =    0.794    wigner-seitz radius (au A)           
   ENMAX  =  400.000; ENMIN  =  300.000 eV                                      
   ICORE  =        2    local potential                                         
   LCOR   =        T    correct aug charges                                     
   LPAW   =        T    paw PP                                                  
   EAUG   =  613.614                                                            
   RMAX   =    1.555    core radius for proj-oper                               
   RAUG   =    1.300    factor for augmentation sphere                          
   RDEP   =    1.539    radius for radial grids                                 
   RDEPT  =    1.299    core radius for aug-charge                              
                                                                                
   Atomic configuration                                                         
    4 entries                                                                   
     n  l   j            E        occ.                                          
     1  0  0.50      -663.3661   2.0000                                         
     2  0  0.50       -29.8995   2.0000                                         
     2  1  0.50       -11.1114   5.0000                                         
     3  2  1.50       -10.8847   0.0000                                         
   Description                                                                  
     l       E           TYP  RCUT    TYP  RCUT                                 
     0    -29.8995018     23  1.200                                             
     0     -9.5240782     23  1.200                                             
     1    -11.1113914     23  1.520                                             
     1      1.3605826     23  1.520                                             
     2    -10.8846608      7  1.500                                             
  local pseudopotential read in
  partial core-charges read in
  partial kinetic energy density read in
  atomic valenz-charges read in
  non local Contribution for L=           0  read in
    real space projection operators read in
  non local Contribution for L=           0  read in
    real space projection operators read in
  non local Contribution for L=           1  read in
    real space projection operators read in
  non local Contribution for L=           1  read in
    real space projection operators read in
    PAW grid and wavefunctions read in
 
   number of l-projection  operators is LMAX  =           4
   number of lm-projection operators is LMMAX =           8
 
  PAW_PBE Mn_pv 02Aug2007               :
 energy of atom  1       EATOM=-2025.2664
 kinetic energy error for atom=    0.0047 (will be added to EATOM!!)
  PAW_PBE F 08Apr2002                   :
 energy of atom  2       EATOM= -659.6475
 kinetic energy error for atom=    0.0256 (will be added to EATOM!!)
 
 
 POSCAR: Mn  F                                   
  positions in cartesian coordinates
  No initial velocities read in

 METAGGA = SCAN     LMAXTAU =  6    LMIXTAU =  F

 exchange correlation table for  LEXCH =        8
   RHO(1)=    0.500       N(1)  =     2000
   RHO(2)=  100.500       N(2)  =     4000
 


--------------------------------------------------------------------------------------------------------


 ion  position               nearest neighbor table
   1  0.500  0.500  0.500-   3 2.09   4 2.09   5 2.12   6 2.12   5 2.12   6 2.12
   2  0.000  0.000  0.000-   5 2.09   6 2.09   3 2.12   4 2.12   3 2.12   4 2.12
   3  0.196  0.804  0.500-   1 2.09   2 2.12   2 2.12
   4  0.804  0.196  0.500-   1 2.09   2 2.12   2 2.12
   5  0.304  0.304  0.000-   2 2.09   1 2.12   1 2.12
   6  0.696  0.696  0.000-   2 2.09   1 2.12   1 2.12
 
  LATTYP: Found a simple tetragonal cell.
 ALAT       =     4.8525685001
 C/A-ratio  =     0.6775817662
  
  Lattice vectors:
  
 A1 = (   4.8525685001,   0.0000000000,   0.0000000000)
 A2 = (   0.0000000000,   4.8525685001,   0.0000000000)
 A3 = (   0.0000000000,   0.0000000000,   3.2880119349)


Analysis of symmetry for initial positions (statically):
=====================================================================
 Subroutine PRICEL returns:
 Original cell was already a primitive cell.
 

 Routine SETGRP: Setting up the symmetry group for a 
 simple tetragonal supercell.


 Subroutine GETGRP returns: Found 16 space group operations
 (whereof  8 operations were pure point group operations)
 out of a pool of 16 trial point group operations.


The static configuration has the point symmetry D_2h.
 The point group associated with its full space group is D_4h.


Analysis of symmetry for dynamics (positions and initial velocities):
=====================================================================
 Subroutine PRICEL returns:
 Original cell was already a primitive cell.
 

 Routine SETGRP: Setting up the symmetry group for a 
 simple tetragonal supercell.


 Subroutine GETGRP returns: Found 16 space group operations
 (whereof  8 operations were pure point group operations)
 out of a pool of 16 trial point group operations.


The dynamic configuration has the point symmetry D_2h.
 The point group associated with its full space group is D_4h.


Analysis of structural, dynamic, and magnetic symmetry:
=====================================================================
 Subroutine PRICEL returns:
 Original cell was already a primitive cell.
 

 Routine SETGRP: Setting up the symmetry group for a 
 simple tetragonal supercell.


 Subroutine GETGRP returns: Found 16 space group operations
 (whereof  8 operations were pure point group operations)
 out of a pool of 16 trial point group operations.


The magnetic configuration has the point symmetry D_2h.
 The point group associated with its full space group is D_4h.


 Subroutine INISYM returns: Found 16 space group operations
 (whereof  8 operations are pure point group operations),
 and found     1 'primitive' translations

 
 
 KPOINTS: KPOINTS created by Atomic Simulation Env

Automatic generation of k-mesh.
Space group operators:
 irot       det(A)        alpha          n_x          n_y          n_z        tau_x        tau_y        tau_z
    1     1.000000     0.000000     1.000000     0.000000     0.000000     0.000000     0.000000     0.000000
    2    -1.000000     0.000000     1.000000     0.000000     0.000000     0.000000     0.000000     0.000000
    3     1.000000   180.000000     0.000000     0.000000     1.000000     0.000000     0.000000     0.000000
    4    -1.000000   180.000000     0.000000     0.000000     1.000000     0.000000     0.000000     0.000000
    5     1.000000   180.000000     0.707107     0.707107     0.000000     0.000000     0.000000     0.000000
    6    -1.000000   180.000000     0.707107     0.707107     0.000000     0.000000     0.000000     0.000000
    7     1.000000   180.000000     0.707107    -0.707107     0.000000     0.000000     0.000000     0.000000
    8    -1.000000   180.000000     0.707107    -0.707107     0.000000     0.000000     0.000000     0.000000
    9     1.000000    90.000000     0.000000     0.000000    -1.000000     0.500000     0.500000     0.500000
   10    -1.000000    90.000000     0.000000     0.000000    -1.000000     0.500000     0.500000     0.500000
   11     1.000000    90.000000     0.000000     0.000000     1.000000     0.500000     0.500000     0.500000
   12    -1.000000    90.000000     0.000000     0.000000     1.000000     0.500000     0.500000     0.500000
   13     1.000000   180.000000     0.000000     1.000000     0.000000     0.500000     0.500000     0.500000
   14    -1.000000   180.000000     0.000000     1.000000     0.000000     0.500000     0.500000     0.500000
   15     1.000000   180.000000     1.000000     0.000000     0.000000     0.500000     0.500000     0.500000
   16    -1.000000   180.000000     1.000000     0.000000     0.000000     0.500000     0.500000     0.500000
 
 Subroutine IBZKPT returns following result:
 ===========================================
 
 Found      9 irreducible k-points:
 
 Following reciprocal coordinates:
            Coordinates               Weight
  0.125000  0.125000  0.083333      8.000000
  0.375000  0.125000  0.083333     16.000000
  0.375000  0.375000  0.083333      8.000000
  0.125000  0.125000  0.250000      8.000000
  0.375000  0.125000  0.250000     16.000000
  0.375000  0.375000  0.250000      8.000000
  0.125000  0.125000  0.416667      8.000000
  0.375000  0.125000  0.416667     16.000000
  0.375000  0.375000  0.416667      8.000000
 
 Following cartesian coordinates:
            Coordinates               Weight
  0.025760  0.025760  0.025345      8.000000
  0.077279  0.025760  0.025345     16.000000
  0.077279  0.077279  0.025345      8.000000
  0.025760  0.025760  0.076034      8.000000
  0.077279  0.025760  0.076034     16.000000
  0.077279  0.077279  0.076034      8.000000
  0.025760  0.025760  0.126723      8.000000
  0.077279  0.025760  0.126723     16.000000
  0.077279  0.077279  0.126723      8.000000
 
 TETIRR: Found    106 inequivalent tetrahedra from      576


--------------------------------------------------------------------------------------------------------




 Dimension of arrays:
   k-points           NKPTS =      9   k-points in BZ     NKDIM =      9   number of bands    NBANDS=     36
   number of dos      NEDOS =    301   number of ions     NIONS =      6
   non local maximal  LDIM  =      6   non local SUM 2l+1 LMDIM =     18
   total plane-waves  NPLWV =  18000
   max r-space proj   IRMAX =      1   max aug-charges    IRDMAX=  56627
   dimension x,y,z NGX =    30 NGY =   30 NGZ =   20
   dimension x,y,z NGXF=    60 NGYF=   60 NGZF=   40
   support grid    NGXF=   120 NGYF=  120 NGZF=   80
   ions per type =               2   4
   NGX,Y,Z   is equivalent  to a cutoff of  10.28, 10.28, 10.11 a.u.
   NGXF,Y,Z  is equivalent  to a cutoff of  20.56, 20.56, 20.22 a.u.

 SYSTEM =  unknown system                          
 POSCAR =  Mn  F                                   

 Startparameter for this run:
   NWRITE =      2    write-flag & timer
   PREC   = normal    normal or accurate (medium, high low for compatibility)
   ISTART =      0    job   : 0-new  1-cont  2-samecut
   ICHARG =      2    charge: 1-file 2-atom 10-const
   ISPIN  =      2    spin polarized calculation?
   LNONCOLLINEAR =      F non collinear calculations
   LSORBIT =      F    spin-orbit coupling
   INIWAV =      1    electr: 0-lowe 1-rand  2-diag
   LASPH  =      T    aspherical Exc in radial PAW
   METAGGA=      F    non-selfconsistent MetaGGA calc.

 Electronic Relaxation 1
   ENCUT  =  600.0 eV  44.10 Ry    6.64 a.u.   9.69  9.69  6.57*2*pi/ulx,y,z
   ENINI  =  600.0     initial cutoff
   ENAUG  =  613.6 eV  augmentation charge cutoff
   NELM   =     60;   NELMIN=  2; NELMDL= -5     # of ELM steps 
   EDIFF  = 0.1E-05   stopping-criterion for ELM
   LREAL  =      F    real-space projection
   NLSPLINE    = F    spline interpolate recip. space projectors
   LCOMPAT=      F    compatible to vasp.4.4
   GGA_COMPAT  = T    GGA compatible to vasp.4.4-vasp.4.6
   LMAXPAW     = -100 max onsite density
   LMAXMIX     =    4 max onsite mixed and CHGCAR
   VOSKOWN=      0    Vosko Wilk Nusair interpolation
   ROPT   =    0.00000   0.00000
 Ionic relaxation
   EDIFFG = 0.1E-04   stopping-criterion for IOM
   NSW    =      0    number of steps for IOM
   NBLOCK =      1;   KBLOCK =      1    inner block; outer block 
   IBRION =     -1    ionic relax: 0-MD 1-quasi-New 2-CG
   NFREE  =      0    steps in history (QN), initial steepest desc. (CG)
   ISIF   =      2    stress and relaxation
   IWAVPR =     10    prediction:  0-non 1-charg 2-wave 3-comb
   ISYM   =      2    0-nonsym 1-usesym 2-fastsym
   LCORR  =      T    Harris-Foulkes like correction to forces

   POTIM  = 0.5000    time-step for ionic-motion
   TEIN   =    0.0    initial temperature
   TEBEG  =    0.0;   TEEND  =   0.0 temperature during run
   SMASS  =  -3.00    Nose mass-parameter (am)
   estimated Nose-frequenzy (Omega)   =  0.10E-29 period in steps =****** mass=  -0.538E-27a.u.
   SCALEE = 1.0000    scale energy and forces
   NPACO  =    256;   APACO  = 16.0  distance and # of slots for P.C.
   PSTRESS=    0.0 pullay stress

  Mass of Ions in am
   POMASS =  54.94 19.00
  Ionic Valenz
   ZVAL   =  13.00  7.00
  Atomic Wigner-Seitz radii
   RWIGS  =  -1.00 -1.00
  virtual crystal weights 
   VCA    =   1.00  1.00
   NELECT =      54.0000    total number of electrons
   NUPDOWN=      -1.0000    fix difference up-down

 DOS related values:
   EMIN   =  10.00;   EMAX   =-10.00  energy-range for DOS
   EFERMI =   0.00
   ISMEAR =    -5;   SIGMA  =   0.20  broadening in eV -4-tet -1-fermi 0-gaus

 Electronic relaxation 2 (details)
   IALGO  =     38    algorithm
   LDIAG  =      T    sub-space diagonalisation (order eigenvalues)
   LSUBROT=      F    optimize rotation matrix (better conditioning)
   TURBO    =      0    0=normal 1=particle mesh
   IRESTART =      0    0=no restart 2=restart with 2 vectors
   NREBOOT  =      0    no. of reboots
   NMIN     =      0    reboot dimension
   EREF     =   0.00    reference energy to select bands
   IMIX   =      4    mixing-type and parameters
     AMIX     =   0.40;   BMIX     =  1.00
     AMIX_MAG =   1.60;   BMIX_MAG =  1.00
     AMIN     =   0.10
     WC   =   100.;   INIMIX=   1;  MIXPRE=   1;  MAXMIX= -45

 Intra band minimization:
   WEIMIN = 0.0000     energy-eigenvalue tresh-hold
   EBREAK =  0.69E-08  absolut break condition
   DEPER  =   0.30     relativ break condition  

   TIME   =   0.40     timestep for ELM

  volume/ion in A,a.u.               =      12.90        87.08
  Fermi-wavevector in a.u.,A,eV,Ry     =   1.451824  2.743549 28.678246  2.107792
  Thomas-Fermi vector in A             =   2.569276
 
 Write flags
   LWAVE        =      T    write WAVECAR
   LDOWNSAMPLE  =      F    k-point downsampling of WAVECAR
   LCHARG       =      T    write CHGCAR
   LVTOT        =      F    write LOCPOT, total local potential
   LVHAR        =      F    write LOCPOT, Hartree potential only
   LELF         =      F    write electronic localiz. function (ELF)
   LORBIT       =     11    0 simple, 1 ext, 2 COOP (PROOUT), +10 PAW based schemes


 Dipole corrections
   LMONO  =      F    monopole corrections only (constant potential shift)
   LDIPOL =      F    correct potential (dipole corrections)
   IDIPOL =      0    1-x, 2-y, 3-z, 4-all directions 
   EPSILON=  1.0000000 bulk dielectric constant

 LDA+U is selected, type is set to LDAUTYPE =  2
   angular momentum for each species LDAUL =     2   -1
   U (eV)           for each species LDAUU =   0.0  0.0
   J (eV)           for each species LDAUJ =   0.0  0.0
 Exchange correlation treatment:
   GGA     =    --    GGA type
   LEXCH   =     8    internal setting for exchange type
   VOSKOWN=      0    Vosko Wilk Nusair interpolation
   LHFCALC =     F    Hartree Fock is set to
   LHFONE  =     F    Hartree Fock one center treatment
   AEXX    =    0.0000 exact exchange contribution

 Linear response parameters
   LEPSILON=     F    determine dielectric tensor
   LRPA    =     F    only Hartree local field effects (RPA)
   LNABLA  =     F    use nabla operator in PAW spheres
   LVEL    =     F    velocity operator in full k-point grid
   LINTERFAST=   F  fast interpolation
   KINTER  =     0    interpolate to denser k-point grid
   CSHIFT  =0.1000    complex shift for real part using Kramers Kronig
   OMEGAMAX=  -1.0    maximum frequency
   DEG_THRESHOLD= 0.2000000E-02 threshold for treating states as degnerate
   RTIME   =   -0.100 relaxation time in fs
  (WPLASMAI=    0.000 imaginary part of plasma frequency in eV, 0.658/RTIME)
   DFIELD  = 0.0000000 0.0000000 0.0000000 field for delta impulse in time
 
 Orbital magnetization related:
   ORBITALMAG=     F  switch on orbital magnetization
   LCHIMAG   =     F  perturbation theory with respect to B field
   DQ        =  0.001000  dq finite difference perturbation B field
   LLRAUG    =     F  two centre corrections for induced B field



--------------------------------------------------------------------------------------------------------


 Static calculation
 charge density and potential will be updated during run
 spin polarized calculation
 Variant of blocked Davidson
 Davidson routine will perform the subspace rotation
 perform sub-space diagonalisation
    after iterative eigenvector-optimisation
 modified Broyden-mixing scheme, WC =      100.0
 initial mixing is a Kerker type mixing with AMIX =  0.4000 and BMIX =      1.0000
 Hartree-type preconditioning will be used
 using additional bands            9
 reciprocal scheme for non local part
 use partial core corrections
 calculate Harris-corrections to forces 
   (improved forces if not selfconsistent)
 use gradient corrections 
 use of overlap-Matrix (Vanderbilt PP)
 Fermi weights with tetrahedron method with Bloechl corrections


--------------------------------------------------------------------------------------------------------


  energy-cutoff  :      600.00
  volume of cell :       77.42
      direct lattice vectors                 reciprocal lattice vectors
     4.852568500  0.000000000  0.000000000     0.206076431  0.000000000  0.000000000
     0.000000000  4.852568500  0.000000000     0.000000000  0.206076431  0.000000000
     0.000000000  0.000000000  3.288011935     0.000000000  0.000000000  0.304135149

  length of vectors
     4.852568500  4.852568500  3.288011935     0.206076431  0.206076431  0.304135149


 
 k-points in units of 2pi/SCALE and weight: KPOINTS created by Atomic Simulation Env
   0.02575955  0.02575955  0.02534460       0.083
   0.07727866  0.02575955  0.02534460       0.167
   0.07727866  0.07727866  0.02534460       0.083
   0.02575955  0.02575955  0.07603379       0.083
   0.07727866  0.02575955  0.07603379       0.167
   0.07727866  0.07727866  0.07603379       0.083
   0.02575955  0.02575955  0.12672298       0.083
   0.07727866  0.02575955  0.12672298       0.167
   0.07727866  0.07727866  0.12672298       0.083
 
 k-points in reciprocal lattice and weights: KPOINTS created by Atomic Simulation Env
   0.12500000  0.12500000  0.08333333       0.083
   0.37500000  0.12500000  0.08333333       0.167
   0.37500000  0.37500000  0.08333333       0.083
   0.12500000  0.12500000  0.25000000       0.083
   0.37500000  0.12500000  0.25000000       0.167
   0.37500000  0.37500000  0.25000000       0.083
   0.12500000  0.12500000  0.41666667       0.083
   0.37500000  0.12500000  0.41666667       0.167
   0.37500000  0.37500000  0.41666667       0.083
 
 position of ions in fractional coordinates (direct lattice) 
   0.50000000  0.50000000  0.50000000
   0.00000000  0.00000000  0.00000000
   0.19609954  0.80390046  0.50000000
   0.80390046  0.19609954  0.50000000
   0.30390046  0.30390046  0.00000000
   0.69609954  0.69609954  0.00000000
 
 position of ions in cartesian coordinates  (Angst):
   2.42628425  2.42628425  1.64400597
   0.00000000  0.00000000  0.00000000
   0.95158645  3.90098205  1.64400597
   3.90098205  0.95158645  1.64400597
   1.47469780  1.47469780  0.00000000
   3.37787070  3.37787070  0.00000000
 


--------------------------------------------------------------------------------------------------------


 k-point  1 :   0.1250 0.1250 0.0833  plane waves:    2587
 k-point  2 :   0.3750 0.1250 0.0833  plane waves:    2596
 k-point  3 :   0.3750 0.3750 0.0833  plane waves:    2581
 k-point  4 :   0.1250 0.1250 0.2500  plane waves:    2588
 k-point  5 :   0.3750 0.1250 0.2500  plane waves:    2582
 k-point  6 :   0.3750 0.3750 0.2500  plane waves:    2594
 k-point  7 :   0.1250 0.1250 0.4167  plane waves:    2575
 k-point  8 :   0.3750 0.1250 0.4167  plane waves:    2574
 k-point  9 :   0.3750 0.3750 0.4167  plane waves:    2576

 maximum and minimum number of plane-waves per node :      2596     2574

 maximum number of plane-waves:      2596
 maximum index in each direction: 
   IXMAX=    9   IYMAX=    9   IZMAX=    6
   IXMIN=  -10   IYMIN=  -10   IZMIN=   -6


 serial   3D FFT for wavefunctions
 parallel 3D FFT for charge:
    minimum data exchange during FFTs selected (reduces bandwidth)


 total amount of memory used by VASP MPI-rank0    45192. kBytes
=======================================================================

   base      :      30000. kBytes
   nonl-proj :       6999. kBytes
   fftplans  :       1875. kBytes
   grid      :       3820. kBytes
   one-center:        186. kBytes
   wavefun   :       2312. kBytes
 
     INWAV:  cpu time    0.0000: real time    0.0000
 Broyden mixing: mesh for mixing (old mesh)
   NGX = 19   NGY = 19   NGZ = 13
  (NGX  = 60   NGY  = 60   NGZ  = 40)
  gives a total of   4693 points

 initial charge density was supplied:
 charge density of overlapping atoms calculated
 number of electron      54.0000000 magnetization       0.0000000
 keeping initial charge density in first step


--------------------------------------------------------------------------------------------------------


 Maximum index for augmentation-charges         4323 (set IRDMAX)


--------------------------------------------------------------------------------------------------------


 First call to EWALD:  gamma=   0.416
 Maximum number of real-space cells 2x 2x 3
 Maximum number of reciprocal cells 3x 3x 2

    FEWALD:  cpu time    0.0010: real time    0.0010


--------------------------------------- Iteration      1(   1)  ---------------------------------------


    POTLOK:  cpu time    0.0365: real time    0.0365
    SETDIJ:  cpu time    0.8376: real time    0.8376
atom =   1  type =  1  l = 2
 
 onsite density matrix
 
spin component  1
 
  0.2835  0.0000  0.0000  0.0000  0.0000
  0.0000  0.2835  0.0000  0.0000  0.0000
  0.0000  0.0000  0.2835  0.0000  0.0000
  0.0000  0.0000  0.0000  0.2835  0.0000
  0.0000  0.0000  0.0000  0.0000  0.2835
 
spin component  2
 
  0.7694  0.0000  0.0000  0.0000  0.0000
  0.0000  0.7694  0.0000  0.0000  0.0000
  0.0000  0.0000  0.7694  0.0000  0.0000
  0.0000  0.0000  0.0000  0.7694  0.0000
  0.0000  0.0000  0.0000  0.0000  0.7694
 
 occupancies and eigenvectors
 
  o =  0.2835  v =  1.0000  0.0000  0.0000  0.0000  0.0000  0.0000  0.0000  0.0000  0.0000  0.0000      0.0000  0.0000  0.0000  0.0000  0.0000  0.0000  0.0000  0.0000  0.0000  0.0000
  o =  0.2835  v =  0.0000  1.0000  0.0000  0.0000  0.0000  0.0000  0.0000  0.0000  0.0000  0.0000      0.0000  0.0000  0.0000  0.0000  0.0000  0.0000  0.0000  0.0000  0.0000  0.0000
  o =  0.2835  v =  0.0000  0.0000  1.0000  0.0000  0.0000  0.0000  0.0000  0.0000  0.0000  0.0000      0.0000  0.0000  0.0000  0.0000  0.0000  0.0000  0.0000  0.0000  0.0000  0.0000
  o =  0.2835  v =  0.0000  0.0000  0.0000  1.0000  0.0000  0.0000  0.0000  0.0000  0.0000  0.0000      0.0000  0.0000  0.0000  0.0000  0.0000  0.0000  0.0000  0.0000  0.0000  0.0000
  o =  0.2835  v =  0.0000  0.0000  0.0000  0.0000  1.0000  0.0000  0.0000  0.0000  0.0000  0.0000      0.0000  0.0000  0.0000  0.0000  0.0000  0.0000  0.0000  0.0000  0.0000  0.0000
  o =  0.7694  v =  0.0000  0.0000  0.0000  0.0000  0.0000  1.0000  0.0000  0.0000  0.0000  0.0000      0.0000  0.0000  0.0000  0.0000  0.0000  0.0000  0.0000  0.0000  0.0000  0.0000
  o =  0.7694  v =  0.0000  0.0000  0.0000  0.0000  0.0000  0.0000  1.0000  0.0000  0.0000  0.0000      0.0000  0.0000  0.0000  0.0000  0.0000  0.0000  0.0000  0.0000  0.0000  0.0000
  o =  0.7694  v =  0.0000  0.0000  0.0000  0.0000  0.0000  0.0000  0.0000  1.0000  0.0000  0.0000      0.0000  0.0000  0.0000  0.0000  0.0000  0.0000  0.0000  0.0000  0.0000  0.0000
  o =  0.7694  v =  0.0000  0.0000  0.0000  0.0000  0.0000  0.0000  0.0000  0.0000  1.0000  0.0000      0.0000  0.0000  0.0000  0.0000  0.0000  0.0000  0.0000  0.0000  0.0000  0.0000
  o =  0.7694  v =  0.0000  0.0000  0.0000  0.0000  0.0000  0.0000  0.0000  0.0000  0.0000  1.0000      0.0000  0.0000  0.0000  0.0000  0.0000  0.0000  0.0000  0.0000  0.0000  0.0000
atom =   2  type =  1  l = 2
 
 onsite density matrix
 
spin component  1
 
  0.7694  0.0000  0.0000  0.0000  0.0000
  0.0000  0.7694  0.0000  0.0000  0.0000
  0.0000  0.0000  0.7694  0.0000  0.0000
  0.0000  0.0000  0.0000  0.7694  0.0000
  0.0000  0.0000  0.0000  0.0000  0.7694
 
spin component  2
 
  0.2835  0.0000  0.0000  0.0000  0.0000
  0.0000  0.2835  0.0000  0.0000  0.0000
  0.0000  0.0000  0.2835  0.0000  0.0000
  0.0000  0.0000  0.0000  0.2835  0.0000
  0.0000  0.0000  0.0000  0.0000  0.2835
 
 occupancies and eigenvectors
 
  o =  0.2835  v =  0.0000  0.0000  0.0000  0.0000  0.0000  1.0000  0.0000  0.0000  0.0000  0.0000      0.0000  0.0000  0.0000  0.0000  0.0000  0.0000  0.0000  0.0000  0.0000  0.0000
  o =  0.2835  v =  0.0000  0.0000  0.0000  0.0000  0.0000  0.0000  1.0000  0.0000  0.0000  0.0000      0.0000  0.0000  0.0000  0.0000  0.0000  0.0000  0.0000  0.0000  0.0000  0.0000
  o =  0.2835  v =  0.0000  0.0000  0.0000  0.0000  0.0000  0.0000  0.0000  1.0000  0.0000  0.0000      0.0000  0.0000  0.0000  0.0000  0.0000  0.0000  0.0000  0.0000  0.0000  0.0000
  o =  0.2835  v =  0.0000  0.0000  0.0000  0.0000  0.0000  0.0000  0.0000  0.0000  1.0000  0.0000      0.0000  0.0000  0.0000  0.0000  0.0000  0.0000  0.0000  0.0000  0.0000  0.0000
  o =  0.2835  v =  0.0000  0.0000  0.0000  0.0000  0.0000  0.0000  0.0000  0.0000  0.0000  1.0000      0.0000  0.0000  0.0000  0.0000  0.0000  0.0000  0.0000  0.0000  0.0000  0.0000
  o =  0.7694  v =  1.0000  0.0000  0.0000  0.0000  0.0000  0.0000  0.0000  0.0000  0.0000  0.0000      0.0000  0.0000  0.0000  0.0000  0.0000  0.0000  0.0000  0.0000  0.0000  0.0000
  o =  0.7694  v =  0.0000  1.0000  0.0000  0.0000  0.0000  0.0000  0.0000  0.0000  0.0000  0.0000      0.0000  0.0000  0.0000  0.0000  0.0000  0.0000  0.0000  0.0000  0.0000  0.0000
  o =  0.7694  v =  0.0000  0.0000  1.0000  0.0000  0.0000  0.0000  0.0000  0.0000  0.0000  0.0000      0.0000  0.0000  0.0000  0.0000  0.0000  0.0000  0.0000  0.0000  0.0000  0.0000
  o =  0.7694  v =  0.0000  0.0000  0.0000  1.0000  0.0000  0.0000  0.0000  0.0000  0.0000  0.0000      0.0000  0.0000  0.0000  0.0000  0.0000  0.0000  0.0000  0.0000  0.0000  0.0000
  o =  0.7694  v =  0.0000  0.0000  0.0000  0.0000  1.0000  0.0000  0.0000  0.0000  0.0000  0.0000      0.0000  0.0000  0.0000  0.0000  0.0000  0.0000  0.0000  0.0000  0.0000  0.0000
     EDDAV:  cpu time    0.7087: real time    0.7279
 BZINTS: Fermi energy: 25.395332; 54.000000 electrons
         Band energy: 380.313496;  BLOECHL correction: -0.352740
       DOS:  cpu time    0.0107: real time    0.0107
    --------------------------------------------
      LOOP:  cpu time    1.5934: real time    1.6127

 eigenvalue-minimisations  :  1296
 total energy-change (2. order) : 0.9693681E+03  (-0.3749541E+04)
 number of electron      54.0000000 magnetization       0.0000000
 augmentation part       54.0000000 magnetization       0.0000000

 Free energy of the ion-electron system (eV)
  ---------------------------------------------------
  alpha Z        PSCENC =       199.38838823
  Ewald energy   TEWEN  =     -4203.06823030
  -Hartree energ DENC   =     -2130.62061717
  -exchange      EXHF   =         0.00000000
  -V(xc)+E(xc)   XCENC  =        -3.96110837
  PAW double counting   =      5566.43601843    -5528.13058630
  entropy T*S    EENTRO =         0.00000000
  eigenvalues    EBANDS =       380.31349568
  atomic energy  EATOM  =      6689.01075358
  Solvation  Ediel_sol  =         0.00000000
  ---------------------------------------------------
  free energy    TOTEN  =       969.36811379 eV

  energy without entropy =      969.36811379  energy(sigma->0) =      969.36811379


--------------------------------------------------------------------------------------------------------




--------------------------------------- Iteration      1(   2)  ---------------------------------------


     EDDAV:  cpu time    0.7793: real time    0.7793
 BZINTS: Fermi energy: 11.576670; 54.000000 electrons
         Band energy:-184.958888;  BLOECHL correction:  0.000000
       DOS:  cpu time    0.0018: real time    0.0018
    --------------------------------------------
      LOOP:  cpu time    0.7811: real time    0.7811

 eigenvalue-minimisations  :  1512
 total energy-change (2. order) :-0.5652724E+03  (-0.5405232E+03)
 number of electron      54.0000000 magnetization       0.0000000
 augmentation part       54.0000000 magnetization       0.0000000

 Free energy of the ion-electron system (eV)
  ---------------------------------------------------
  alpha Z        PSCENC =       199.38838823
  Ewald energy   TEWEN  =     -4203.06823030
  -Hartree energ DENC   =     -2130.62061717
  -exchange      EXHF   =         0.00000000
  -V(xc)+E(xc)   XCENC  =        -3.96110837
  PAW double counting   =      5566.43601843    -5528.13058630
  entropy T*S    EENTRO =         0.00000000
  eigenvalues    EBANDS =      -184.95888772
  atomic energy  EATOM  =      6689.01075358
  Solvation  Ediel_sol  =         0.00000000
  ---------------------------------------------------
  free energy    TOTEN  =       404.09573039 eV

  energy without entropy =      404.09573039  energy(sigma->0) =      404.09573039


--------------------------------------------------------------------------------------------------------




--------------------------------------- Iteration      1(   3)  ---------------------------------------


     EDDAV:  cpu time    0.7627: real time    0.7627
 BZINTS: Fermi energy:  9.962902; 54.000000 electrons
         Band energy:-219.503446;  BLOECHL correction:  0.000000
       DOS:  cpu time    0.0017: real time    0.0017
    --------------------------------------------
      LOOP:  cpu time    0.7644: real time    0.7644

 eigenvalue-minimisations  :  1464
 total energy-change (2. order) :-0.3454456E+02  (-0.3429464E+02)
 number of electron      54.0000000 magnetization       0.0000000
 augmentation part       54.0000000 magnetization       0.0000000

 Free energy of the ion-electron system (eV)
  ---------------------------------------------------
  alpha Z        PSCENC =       199.38838823
  Ewald energy   TEWEN  =     -4203.06823030
  -Hartree energ DENC   =     -2130.62061717
  -exchange      EXHF   =         0.00000000
  -V(xc)+E(xc)   XCENC  =        -3.96110837
  PAW double counting   =      5566.43601843    -5528.13058630
  entropy T*S    EENTRO =         0.00000000
  eigenvalues    EBANDS =      -219.50344552
  atomic energy  EATOM  =      6689.01075358
  Solvation  Ediel_sol  =         0.00000000
  ---------------------------------------------------
  free energy    TOTEN  =       369.55117259 eV

  energy without entropy =      369.55117259  energy(sigma->0) =      369.55117259


--------------------------------------------------------------------------------------------------------




--------------------------------------- Iteration      1(   4)  ---------------------------------------


     EDDAV:  cpu time    0.8080: real time    0.8080
 BZINTS: Fermi energy:  9.926435; 54.000000 electrons
         Band energy:-219.927965;  BLOECHL correction:  0.000000
       DOS:  cpu time    0.0017: real time    0.0017
    --------------------------------------------
      LOOP:  cpu time    0.8098: real time    0.8098

 eigenvalue-minimisations  :  1572
 total energy-change (2. order) :-0.4245193E+00  (-0.4241628E+00)
 number of electron      54.0000000 magnetization       0.0000000
 augmentation part       54.0000000 magnetization       0.0000000

 Free energy of the ion-electron system (eV)
  ---------------------------------------------------
  alpha Z        PSCENC =       199.38838823
  Ewald energy   TEWEN  =     -4203.06823030
  -Hartree energ DENC   =     -2130.62061717
  -exchange      EXHF   =         0.00000000
  -V(xc)+E(xc)   XCENC  =        -3.96110837
  PAW double counting   =      5566.43601843    -5528.13058630
  entropy T*S    EENTRO =         0.00000000
  eigenvalues    EBANDS =      -219.92796480
  atomic energy  EATOM  =      6689.01075358
  Solvation  Ediel_sol  =         0.00000000
  ---------------------------------------------------
  free energy    TOTEN  =       369.12665331 eV

  energy without entropy =      369.12665331  energy(sigma->0) =      369.12665331


--------------------------------------------------------------------------------------------------------




--------------------------------------- Iteration      1(   5)  ---------------------------------------


     EDDAV:  cpu time    0.7687: real time    0.7687
 BZINTS: Fermi energy: 10.091610; 54.000000 electrons
         Band energy:-219.935171;  BLOECHL correction:  0.000000
       DOS:  cpu time    0.0020: real time    0.0020
    CHARGE:  cpu time    0.1497: real time    0.1497
    MIXING:  cpu time    0.0005: real time    0.0005
    --------------------------------------------
      LOOP:  cpu time    0.9210: real time    0.9210

 eigenvalue-minimisations  :  1476
 total energy-change (2. order) :-0.7206681E-02  (-0.7206562E-02)
 number of electron      54.0000009 magnetization       0.0000000
 augmentation part       22.6529376 magnetization       0.0000000

 Broyden mixing:
  rms(total) = 0.58797E+01    rms(broyden)= 0.58792E+01
  rms(prec ) = 0.61147E+01
  weight for this iteration     100.00

 Free energy of the ion-electron system (eV)
  ---------------------------------------------------
  alpha Z        PSCENC =       199.38838823
  Ewald energy   TEWEN  =     -4203.06823030
  -Hartree energ DENC   =     -2130.62061717
  -exchange      EXHF   =         0.00000000
  -V(xc)+E(xc)   XCENC  =        -3.96110837
  PAW double counting   =      5566.43601843    -5528.13058630
  entropy T*S    EENTRO =         0.00000000
  eigenvalues    EBANDS =      -219.93517148
  atomic energy  EATOM  =      6689.01075358
  Solvation  Ediel_sol  =         0.00000000
  ---------------------------------------------------
  free energy    TOTEN  =       369.11944663 eV

  energy without entropy =      369.11944663  energy(sigma->0) =      369.11944663


--------------------------------------------------------------------------------------------------------




--------------------------------------- Iteration      1(   6)  ---------------------------------------


    POTLOK:  cpu time    0.0334: real time    0.0334
    SETDIJ:  cpu time    0.7944: real time    0.7944
atom =   1  type =  1  l = 2
 
 onsite density matrix
 
spin component  1
 
  0.0359  0.0000  0.0669  0.0000 -0.0000
  0.0000  0.0074  0.0000  0.0614  0.0000
  0.0669  0.0000 -0.0036  0.0000  0.0000
  0.0000  0.0614  0.0000  0.0074  0.0000
 -0.0000  0.0000  0.0000  0.0000 -0.0736
 
spin component  2
 
  1.0563  0.0000 -0.0323  0.0000  0.0000
  0.0000  1.0711  0.0000 -0.0297  0.0000
 -0.0323  0.0000  1.0750  0.0000 -0.0000
  0.0000 -0.0297  0.0000  1.0711  0.0000
  0.0000  0.0000 -0.0000  0.0000  1.1111
 
 occupancies and eigenvectors
 
  o = -0.0736  v =  0.0000  0.0000 -0.0000  0.0000  1.0000  0.0000  0.0000  0.0000  0.0000  0.0000      0.0000  0.0000  0.0000  0.0000  0.0000  0.0000  0.0000  0.0000  0.0000  0.0000
  o = -0.0540  v =  0.0000  0.7071  0.0000 -0.7071 -0.0000  0.0000  0.0000  0.0000  0.0000  0.0000      0.0000  0.0000  0.0000  0.0000  0.0000  0.0000  0.0000  0.0000  0.0000  0.0000
  o = -0.0536  v = -0.5986  0.0000  0.8010  0.0000  0.0000  0.0000  0.0000  0.0000  0.0000  0.0000      0.0000  0.0000  0.0000  0.0000  0.0000  0.0000  0.0000  0.0000  0.0000  0.0000
  o =  0.0687  v =  0.0000 -0.7071  0.0000 -0.7071  0.0000  0.0000  0.0000  0.0000  0.0000  0.0000      0.0000  0.0000  0.0000  0.0000  0.0000  0.0000  0.0000  0.0000  0.0000  0.0000
  o =  0.0859  v =  0.8010  0.0000  0.5986  0.0000  0.0000  0.0000  0.0000  0.0000  0.0000  0.0000      0.0000  0.0000  0.0000  0.0000  0.0000  0.0000  0.0000  0.0000  0.0000  0.0000
  o =  1.0320  v =  0.0000  0.0000  0.0000  0.0000  0.0000  0.7997 -0.0000  0.6004  0.0000  0.0000      0.0000  0.0000  0.0000  0.0000  0.0000  0.0000  0.0000  0.0000  0.0000  0.0000
  o =  1.0415  v =  0.0000  0.0000  0.0000  0.0000  0.0000  0.0000 -0.7071  0.0000 -0.7071 -0.0000      0.0000  0.0000  0.0000  0.0000  0.0000  0.0000  0.0000  0.0000  0.0000  0.0000
  o =  1.0993  v =  0.0000  0.0000  0.0000  0.0000  0.0000  0.6004  0.0000 -0.7997  0.0000 -0.0000      0.0000  0.0000  0.0000  0.0000  0.0000  0.0000  0.0000  0.0000  0.0000  0.0000
  o =  1.1008  v =  0.0000  0.0000  0.0000  0.0000  0.0000  0.0000  0.7071  0.0000 -0.7071  0.0000      0.0000  0.0000  0.0000  0.0000  0.0000  0.0000  0.0000  0.0000  0.0000  0.0000
  o =  1.1111  v =  0.0000  0.0000  0.0000  0.0000  0.0000  0.0000 -0.0000 -0.0000  0.0000  1.0000      0.0000  0.0000  0.0000  0.0000  0.0000  0.0000  0.0000  0.0000  0.0000  0.0000
atom =   2  type =  1  l = 2
 
 onsite density matrix
 
spin component  1
 
  1.0563  0.0000  0.0323  0.0000  0.0000
  0.0000  1.0711  0.0000  0.0297  0.0000
  0.0323  0.0000  1.0750  0.0000  0.0000
  0.0000  0.0297  0.0000  1.0711  0.0000
  0.0000  0.0000  0.0000  0.0000  1.1111
 
spin component  2
 
  0.0359  0.0000 -0.0669  0.0000 -0.0000
  0.0000  0.0074  0.0000 -0.0614  0.0000
 -0.0669  0.0000 -0.0036  0.0000 -0.0000
  0.0000 -0.0614  0.0000  0.0074  0.0000
 -0.0000  0.0000 -0.0000  0.0000 -0.0736
 
 occupancies and eigenvectors
 
  o = -0.0736  v =  0.0000  0.0000  0.0000  0.0000  0.0000  0.0000  0.0000  0.0000  0.0000  1.0000      0.0000  0.0000  0.0000  0.0000  0.0000  0.0000  0.0000  0.0000  0.0000  0.0000
  o = -0.0540  v =  0.0000  0.0000  0.0000  0.0000  0.0000  0.0000 -0.7071  0.0000 -0.7071  0.0000      0.0000  0.0000  0.0000  0.0000  0.0000  0.0000  0.0000  0.0000  0.0000  0.0000
  o = -0.0536  v =  0.0000  0.0000  0.0000  0.0000  0.0000 -0.5986  0.0000 -0.8010  0.0000  0.0000      0.0000  0.0000  0.0000  0.0000  0.0000  0.0000  0.0000  0.0000  0.0000  0.0000
  o =  0.0687  v =  0.0000  0.0000  0.0000  0.0000  0.0000  0.0000  0.7071  0.0000 -0.7071 -0.0000      0.0000  0.0000  0.0000  0.0000  0.0000  0.0000  0.0000  0.0000  0.0000  0.0000
  o =  0.0859  v =  0.0000  0.0000  0.0000  0.0000  0.0000  0.8010  0.0000 -0.5986  0.0000  0.0000      0.0000  0.0000  0.0000  0.0000  0.0000  0.0000  0.0000  0.0000  0.0000  0.0000
  o =  1.0320  v =  0.7997 -0.0000 -0.6004  0.0000  0.0000  0.0000  0.0000  0.0000  0.0000  0.0000      0.0000  0.0000  0.0000  0.0000  0.0000  0.0000  0.0000  0.0000  0.0000  0.0000
  o =  1.0415  v =  0.0000  0.7071  0.0000 -0.7071  0.0000  0.0000  0.0000  0.0000  0.0000  0.0000      0.0000  0.0000  0.0000  0.0000  0.0000  0.0000  0.0000  0.0000  0.0000  0.0000
  o =  1.0993  v =  0.6004  0.0000  0.7997  0.0000 -0.0000  0.0000  0.0000  0.0000  0.0000  0.0000      0.0000  0.0000  0.0000  0.0000  0.0000  0.0000  0.0000  0.0000  0.0000  0.0000
  o =  1.1008  v =  0.0000 -0.7071  0.0000 -0.7071 -0.0000  0.0000  0.0000  0.0000  0.0000  0.0000      0.0000  0.0000  0.0000  0.0000  0.0000  0.0000  0.0000  0.0000  0.0000  0.0000
  o =  1.1111  v =  0.0000 -0.0000  0.0000  0.0000  1.0000  0.0000  0.0000  0.0000  0.0000  0.0000      0.0000  0.0000  0.0000  0.0000  0.0000  0.0000  0.0000  0.0000  0.0000  0.0000
     EDDAV:  cpu time    0.8080: real time    0.8080
 BZINTS: Fermi energy:  7.011190; 54.000000 electrons
         Band energy:-732.537356;  BLOECHL correction: -0.008868
       DOS:  cpu time    0.0101: real time    0.0101
    CHARGE:  cpu time    0.1503: real time    0.1503
    MIXING:  cpu time    0.0006: real time    0.0006
    --------------------------------------------
      LOOP:  cpu time    1.7968: real time    1.7969

 eigenvalue-minimisations  :  1584
 total energy-change (2. order) :-0.4379367E+03  (-0.2833201E+02)
 number of electron      54.0000008 magnetization       0.0000000
 augmentation part       19.6796951 magnetization       0.0000000

 Broyden mixing:
  rms(total) = 0.62693E+01    rms(broyden)= 0.62692E+01
  rms(prec ) = 0.67558E+01
  weight for this iteration     100.00

 eigenvalues of (default mixing * dielectric matrix)
  average eigenvalue GAMMA=   0.4170
  0.4170

 Free energy of the ion-electron system (eV)
  ---------------------------------------------------
  alpha Z        PSCENC =       199.38838823
  Ewald energy   TEWEN  =     -4203.06823030
  -Hartree energ DENC   =     -2199.42988450
  -exchange      EXHF   =         0.00000000
  -V(xc)+E(xc)   XCENC  =       144.31878431
  PAW double counting   =      6428.51957576    -6395.01932987
  entropy T*S    EENTRO =         0.00000000
  eigenvalues    EBANDS =      -732.53735550
  atomic energy  EATOM  =      6689.01075358
  Solvation  Ediel_sol  =         0.00000000
  ---------------------------------------------------
  free energy    TOTEN  =       -68.81729829 eV

  energy without entropy =      -68.81729829  energy(sigma->0) =      -68.81729829


--------------------------------------------------------------------------------------------------------




--------------------------------------- Iteration      1(   7)  ---------------------------------------


    POTLOK:  cpu time    0.0330: real time    0.0330
    SETDIJ:  cpu time    0.7817: real time    0.7817
atom =   1  type =  1  l = 2
 
 onsite density matrix
 
spin component  1
 
  0.0846  0.0000  0.0367  0.0000  0.0000
  0.0000  0.0547  0.0000  0.0246  0.0000
  0.0367  0.0000  0.0595  0.0000  0.0000
  0.0000  0.0246  0.0000  0.0547  0.0000
  0.0000  0.0000  0.0000  0.0000  0.0187
 
spin component  2
 
  0.9748  0.0000 -0.0065  0.0000  0.0000
  0.0000  1.0027  0.0000  0.0084  0.0000
 -0.0065  0.0000  0.9859  0.0000 -0.0000
  0.0000  0.0084  0.0000  1.0027  0.0000
  0.0000  0.0000 -0.0000  0.0000  0.9983
 
 occupancies and eigenvectors
 
  o =  0.0187  v =  0.0000 -0.0000 -0.0000  0.0000  1.0000  0.0000  0.0000  0.0000  0.0000  0.0000      0.0000  0.0000  0.0000  0.0000  0.0000  0.0000  0.0000  0.0000  0.0000  0.0000
  o =  0.0301  v =  0.0000  0.7071  0.0000 -0.7071  0.0000  0.0000  0.0000  0.0000  0.0000  0.0000      0.0000  0.0000  0.0000  0.0000  0.0000  0.0000  0.0000  0.0000  0.0000  0.0000
  o =  0.0332  v = -0.5814 -0.0000  0.8136  0.0000  0.0000  0.0000  0.0000  0.0000  0.0000  0.0000      0.0000  0.0000  0.0000  0.0000  0.0000  0.0000  0.0000  0.0000  0.0000  0.0000
  o =  0.0793  v =  0.0000 -0.7071  0.0000 -0.7071 -0.0000  0.0000  0.0000  0.0000  0.0000  0.0000      0.0000  0.0000  0.0000  0.0000  0.0000  0.0000  0.0000  0.0000  0.0000  0.0000
  o =  0.1108  v = -0.8136  0.0000 -0.5814  0.0000 -0.0000  0.0000  0.0000  0.0000  0.0000  0.0000      0.0000  0.0000  0.0000  0.0000  0.0000  0.0000  0.0000  0.0000  0.0000  0.0000
  o =  0.9718  v =  0.0000  0.0000  0.0000  0.0000  0.0000 -0.9072  0.0000 -0.4207  0.0000  0.0000      0.0000  0.0000  0.0000  0.0000  0.0000  0.0000  0.0000  0.0000  0.0000  0.0000
  o =  0.9889  v =  0.0000  0.0000  0.0000  0.0000  0.0000 -0.4207  0.0000  0.9072  0.0000 -0.0000      0.0000  0.0000  0.0000  0.0000  0.0000  0.0000  0.0000  0.0000  0.0000  0.0000
  o =  0.9943  v =  0.0000  0.0000  0.0000  0.0000  0.0000  0.0000  0.7071 -0.0000 -0.7071 -0.0000      0.0000  0.0000  0.0000  0.0000  0.0000  0.0000  0.0000  0.0000  0.0000  0.0000
  o =  0.9983  v =  0.0000  0.0000  0.0000  0.0000  0.0000  0.0000  0.0000  0.0000 -0.0000  1.0000      0.0000  0.0000  0.0000  0.0000  0.0000  0.0000  0.0000  0.0000  0.0000  0.0000
  o =  1.0112  v =  0.0000  0.0000  0.0000  0.0000  0.0000  0.0000 -0.7071 -0.0000 -0.7071 -0.0000      0.0000  0.0000  0.0000  0.0000  0.0000  0.0000  0.0000  0.0000  0.0000  0.0000
atom =   2  type =  1  l = 2
 
 onsite density matrix
 
spin component  1
 
  0.9748  0.0000  0.0065  0.0000  0.0000
  0.0000  1.0027  0.0000 -0.0084  0.0000
  0.0065  0.0000  0.9859  0.0000  0.0000
  0.0000 -0.0084  0.0000  1.0027  0.0000
  0.0000  0.0000  0.0000  0.0000  0.9983
 
spin component  2
 
  0.0846  0.0000 -0.0367  0.0000  0.0000
  0.0000  0.0547  0.0000 -0.0246  0.0000
 -0.0367  0.0000  0.0595  0.0000 -0.0000
  0.0000 -0.0246  0.0000  0.0547  0.0000
  0.0000  0.0000 -0.0000  0.0000  0.0187
 
 occupancies and eigenvectors
 
  o =  0.0187  v =  0.0000  0.0000  0.0000  0.0000  0.0000  0.0000 -0.0000  0.0000  0.0000  1.0000      0.0000  0.0000  0.0000  0.0000  0.0000  0.0000  0.0000  0.0000  0.0000  0.0000
  o =  0.0301  v =  0.0000  0.0000  0.0000  0.0000  0.0000  0.0000 -0.7071  0.0000 -0.7071 -0.0000      0.0000  0.0000  0.0000  0.0000  0.0000  0.0000  0.0000  0.0000  0.0000  0.0000
  o =  0.0332  v =  0.0000  0.0000  0.0000  0.0000  0.0000 -0.5814 -0.0000 -0.8136  0.0000  0.0000      0.0000  0.0000  0.0000  0.0000  0.0000  0.0000  0.0000  0.0000  0.0000  0.0000
  o =  0.0793  v =  0.0000  0.0000  0.0000  0.0000  0.0000  0.0000  0.7071  0.0000 -0.7071  0.0000      0.0000  0.0000  0.0000  0.0000  0.0000  0.0000  0.0000  0.0000  0.0000  0.0000
  o =  0.1108  v =  0.0000  0.0000  0.0000  0.0000  0.0000 -0.8136  0.0000  0.5814  0.0000 -0.0000      0.0000  0.0000  0.0000  0.0000  0.0000  0.0000  0.0000  0.0000  0.0000  0.0000
  o =  0.9718  v = -0.9072  0.0000  0.4207  0.0000  0.0000  0.0000  0.0000  0.0000  0.0000  0.0000      0.0000  0.0000  0.0000  0.0000  0.0000  0.0000  0.0000  0.0000  0.0000  0.0000
  o =  0.9889  v = -0.4207  0.0000 -0.9072  0.0000 -0.0000  0.0000  0.0000  0.0000  0.0000  0.0000      0.0000  0.0000  0.0000  0.0000  0.0000  0.0000  0.0000  0.0000  0.0000  0.0000
  o =  0.9943  v =  0.0000 -0.7071  0.0000 -0.7071 -0.0000  0.0000  0.0000  0.0000  0.0000  0.0000      0.0000  0.0000  0.0000  0.0000  0.0000  0.0000  0.0000  0.0000  0.0000  0.0000
  o =  0.9983  v =  0.0000 -0.0000 -0.0000 -0.0000  1.0000  0.0000  0.0000  0.0000  0.0000  0.0000      0.0000  0.0000  0.0000  0.0000  0.0000  0.0000  0.0000  0.0000  0.0000  0.0000
  o =  1.0112  v =  0.0000  0.7071  0.0000 -0.7071 -0.0000  0.0000  0.0000  0.0000  0.0000  0.0000      0.0000  0.0000  0.0000  0.0000  0.0000  0.0000  0.0000  0.0000  0.0000  0.0000
     EDDAV:  cpu time    0.7263: real time    0.7263
 BZINTS: Fermi energy:  4.956610; 54.000000 electrons
         Band energy:-777.829706;  BLOECHL correction:  0.000000
       DOS:  cpu time    0.0017: real time    0.0017
    CHARGE:  cpu time    0.1503: real time    0.1503
    MIXING:  cpu time    0.0006: real time    0.0006
    --------------------------------------------
      LOOP:  cpu time    1.6937: real time    1.6937

 eigenvalue-minimisations  :  1356
 total energy-change (2. order) :-0.2739200E+01  (-0.5096533E+01)
 number of electron      54.0000008 magnetization       0.0000000
 augmentation part       19.6919661 magnetization       0.0000000

 Broyden mixing:
  rms(total) = 0.17250E+01    rms(broyden)= 0.17248E+01
  rms(prec ) = 0.25264E+01
  weight for this iteration     100.00

 eigenvalues of (default mixing * dielectric matrix)
  average eigenvalue GAMMA=   0.6940
  0.6940  0.6940

 Free energy of the ion-electron system (eV)
  ---------------------------------------------------
  alpha Z        PSCENC =       199.38838823
  Ewald energy   TEWEN  =     -4203.06823030
  -Hartree energ DENC   =     -2179.86676966
  -exchange      EXHF   =         0.00000000
  -V(xc)+E(xc)   XCENC  =       167.64925674
  PAW double counting   =      6485.83601292    -6452.67620442
  entropy T*S    EENTRO =         0.00000000
  eigenvalues    EBANDS =      -777.82970579
  atomic energy  EATOM  =      6689.01075358
  Solvation  Ediel_sol  =         0.00000000
  ---------------------------------------------------
  free energy    TOTEN  =       -71.55649870 eV

  energy without entropy =      -71.55649870  energy(sigma->0) =      -71.55649870


--------------------------------------------------------------------------------------------------------




--------------------------------------- Iteration      1(   8)  ---------------------------------------


    POTLOK:  cpu time    0.0330: real time    0.0330
    SETDIJ:  cpu time    0.7794: real time    0.7794
atom =   1  type =  1  l = 2
 
 onsite density matrix
 
spin component  1
 
  0.0470  0.0000  0.0142  0.0000  0.0000
  0.0000  0.0504  0.0000  0.0218  0.0000
  0.0142  0.0000  0.0412  0.0000 -0.0000
  0.0000  0.0218  0.0000  0.0504  0.0000
  0.0000  0.0000 -0.0000  0.0000  0.0235
 
spin component  2
 
  0.9916  0.0000  0.0229  0.0000 -0.0000
  0.0000  0.9815  0.0000  0.0120  0.0000
  0.0229  0.0000  0.9803  0.0000 -0.0000
  0.0000  0.0120  0.0000  0.9815  0.0000
 -0.0000  0.0000 -0.0000  0.0000  0.9685
 
 occupancies and eigenvectors
 
  o =  0.0235  v =  0.0000  0.0000 -0.0000  0.0000 -1.0000  0.0000  0.0000  0.0000  0.0000  0.0000      0.0000  0.0000  0.0000  0.0000  0.0000  0.0000  0.0000  0.0000  0.0000  0.0000
  o =  0.0286  v =  0.0000 -0.7071  0.0000  0.7071 -0.0000  0.0000  0.0000  0.0000  0.0000  0.0000      0.0000  0.0000  0.0000  0.0000  0.0000  0.0000  0.0000  0.0000  0.0000  0.0000
  o =  0.0296  v = -0.6312  0.0000  0.7756  0.0000 -0.0000  0.0000  0.0000  0.0000  0.0000  0.0000      0.0000  0.0000  0.0000  0.0000  0.0000  0.0000  0.0000  0.0000  0.0000  0.0000
  o =  0.0586  v = -0.7756 -0.0000 -0.6312  0.0000  0.0000  0.0000  0.0000  0.0000  0.0000  0.0000      0.0000  0.0000  0.0000  0.0000  0.0000  0.0000  0.0000  0.0000  0.0000  0.0000
  o =  0.0722  v =  0.0000 -0.7071  0.0000 -0.7071 -0.0000  0.0000  0.0000  0.0000  0.0000  0.0000      0.0000  0.0000  0.0000  0.0000  0.0000  0.0000  0.0000  0.0000  0.0000  0.0000
  o =  0.9623  v =  0.0000  0.0000  0.0000  0.0000  0.0000 -0.6170  0.0000  0.7869 -0.0000  0.0000      0.0000  0.0000  0.0000  0.0000  0.0000  0.0000  0.0000  0.0000  0.0000  0.0000
  o =  0.9685  v =  0.0000  0.0000  0.0000  0.0000  0.0000  0.0000  0.0000 -0.0000 -0.0000  1.0000      0.0000  0.0000  0.0000  0.0000  0.0000  0.0000  0.0000  0.0000  0.0000  0.0000
  o =  0.9695  v =  0.0000  0.0000  0.0000  0.0000  0.0000  0.0000  0.7071 -0.0000 -0.7071 -0.0000      0.0000  0.0000  0.0000  0.0000  0.0000  0.0000  0.0000  0.0000  0.0000  0.0000
  o =  0.9936  v =  0.0000  0.0000  0.0000  0.0000  0.0000  0.0000  0.7071  0.0000  0.7071 -0.0000      0.0000  0.0000  0.0000  0.0000  0.0000  0.0000  0.0000  0.0000  0.0000  0.0000
  o =  1.0096  v =  0.0000  0.0000  0.0000  0.0000  0.0000 -0.7869  0.0000 -0.6170  0.0000  0.0000      0.0000  0.0000  0.0000  0.0000  0.0000  0.0000  0.0000  0.0000  0.0000  0.0000
atom =   2  type =  1  l = 2
 
 onsite density matrix
 
spin component  1
 
  0.9916  0.0000 -0.0229  0.0000  0.0000
  0.0000  0.9815  0.0000 -0.0120  0.0000
 -0.0229  0.0000  0.9803  0.0000  0.0000
  0.0000 -0.0120  0.0000  0.9815  0.0000
  0.0000  0.0000  0.0000  0.0000  0.9685
 
spin component  2
 
  0.0470  0.0000 -0.0142  0.0000 -0.0000
  0.0000  0.0504  0.0000 -0.0218  0.0000
 -0.0142  0.0000  0.0412  0.0000 -0.0000
  0.0000 -0.0218  0.0000  0.0504  0.0000
 -0.0000  0.0000 -0.0000  0.0000  0.0235
 
 occupancies and eigenvectors
 
  o =  0.0235  v =  0.0000  0.0000  0.0000  0.0000  0.0000  0.0000  0.0000  0.0000  0.0000  1.0000      0.0000  0.0000  0.0000  0.0000  0.0000  0.0000  0.0000  0.0000  0.0000  0.0000
  o =  0.0286  v =  0.0000  0.0000  0.0000  0.0000  0.0000  0.0000 -0.7071  0.0000 -0.7071 -0.0000      0.0000  0.0000  0.0000  0.0000  0.0000  0.0000  0.0000  0.0000  0.0000  0.0000
  o =  0.0296  v =  0.0000  0.0000  0.0000  0.0000  0.0000 -0.6312  0.0000 -0.7756  0.0000  0.0000      0.0000  0.0000  0.0000  0.0000  0.0000  0.0000  0.0000  0.0000  0.0000  0.0000
  o =  0.0586  v =  0.0000  0.0000  0.0000  0.0000  0.0000 -0.7756 -0.0000  0.6312  0.0000 -0.0000      0.0000  0.0000  0.0000  0.0000  0.0000  0.0000  0.0000  0.0000  0.0000  0.0000
  o =  0.0722  v =  0.0000  0.0000  0.0000  0.0000  0.0000  0.0000 -0.7071  0.0000  0.7071 -0.0000      0.0000  0.0000  0.0000  0.0000  0.0000  0.0000  0.0000  0.0000  0.0000  0.0000
  o =  0.9623  v = -0.6170  0.0000 -0.7869  0.0000  0.0000  0.0000  0.0000  0.0000  0.0000  0.0000      0.0000  0.0000  0.0000  0.0000  0.0000  0.0000  0.0000  0.0000  0.0000  0.0000
  o =  0.9685  v =  0.0000  0.0000 -0.0000  0.0000 -1.0000  0.0000  0.0000  0.0000  0.0000  0.0000      0.0000  0.0000  0.0000  0.0000  0.0000  0.0000  0.0000  0.0000  0.0000  0.0000
  o =  0.9695  v =  0.0000 -0.7071  0.0000 -0.7071 -0.0000  0.0000  0.0000  0.0000  0.0000  0.0000      0.0000  0.0000  0.0000  0.0000  0.0000  0.0000  0.0000  0.0000  0.0000  0.0000
  o =  0.9936  v =  0.0000 -0.7071  0.0000  0.7071 -0.0000  0.0000  0.0000  0.0000  0.0000  0.0000      0.0000  0.0000  0.0000  0.0000  0.0000  0.0000  0.0000  0.0000  0.0000  0.0000
  o =  1.0096  v = -0.7869  0.0000  0.6170  0.0000 -0.0000  0.0000  0.0000  0.0000  0.0000  0.0000      0.0000  0.0000  0.0000  0.0000  0.0000  0.0000  0.0000  0.0000  0.0000  0.0000
     EDDAV:  cpu time    0.7965: real time    0.7965
 BZINTS: Fermi energy:  3.285250; 54.000000 electrons
         Band energy:-787.970448;  BLOECHL correction:  0.000000
       DOS:  cpu time    0.0017: real time    0.0017
    CHARGE:  cpu time    0.1504: real time    0.1504
    MIXING:  cpu time    0.0006: real time    0.0006
    --------------------------------------------
      LOOP:  cpu time    1.7616: real time    1.7616

 eigenvalue-minimisations  :  1560
 total energy-change (2. order) : 0.2891024E+01  (-0.6990644E+00)
 number of electron      54.0000007 magnetization      -0.0000000
 augmentation part       19.8584892 magnetization      -0.0000000

 Broyden mixing:
  rms(total) = 0.66815E+00    rms(broyden)= 0.66797E+00
  rms(prec ) = 0.10041E+01
  weight for this iteration     100.00

 eigenvalues of (default mixing * dielectric matrix)
  average eigenvalue GAMMA=   0.7726
  0.9946  0.6616  0.6616

 Free energy of the ion-electron system (eV)
  ---------------------------------------------------
  alpha Z        PSCENC =       199.38838823
  Ewald energy   TEWEN  =     -4203.06823030
  -Hartree energ DENC   =     -2171.61833994
  -exchange      EXHF   =         0.00000000
  -V(xc)+E(xc)   XCENC  =       170.53762109
  PAW double counting   =      6415.25185533    -6380.19707409
  entropy T*S    EENTRO =         0.00000000
  eigenvalues    EBANDS =      -787.97044838
  atomic energy  EATOM  =      6689.01075358
  Solvation  Ediel_sol  =         0.00000000
  ---------------------------------------------------
  free energy    TOTEN  =       -68.66547448 eV

  energy without entropy =      -68.66547448  energy(sigma->0) =      -68.66547448


--------------------------------------------------------------------------------------------------------




--------------------------------------- Iteration      1(   9)  ---------------------------------------


    POTLOK:  cpu time    0.0329: real time    0.0329
    SETDIJ:  cpu time    0.7809: real time    0.7809
atom =   1  type =  1  l = 2
 
 onsite density matrix
 
spin component  1
 
  0.0686  0.0000  0.0376  0.0000 -0.0000
  0.0000  0.0473  0.0000  0.0196  0.0000
  0.0376  0.0000  0.0499  0.0000 -0.0000
  0.0000  0.0196  0.0000  0.0473  0.0000
 -0.0000  0.0000 -0.0000  0.0000  0.0229
 
spin component  2
 
  0.9492  0.0000  0.0062  0.0000 -0.0000
  0.0000  0.9583  0.0000  0.0164  0.0000
  0.0062  0.0000  0.9455  0.0000  0.0000
  0.0000  0.0164  0.0000  0.9583  0.0000
 -0.0000  0.0000  0.0000  0.0000  0.9426
 
 occupancies and eigenvectors
 
  o =  0.0205  v = -0.6155  0.0000  0.7881  0.0000  0.0000  0.0000  0.0000  0.0000  0.0000  0.0000      0.0000  0.0000  0.0000  0.0000  0.0000  0.0000  0.0000  0.0000  0.0000  0.0000
  o =  0.0229  v = -0.0000 -0.0000  0.0000  0.0000 -1.0000  0.0000  0.0000  0.0000  0.0000  0.0000      0.0000  0.0000  0.0000  0.0000  0.0000  0.0000  0.0000  0.0000  0.0000  0.0000
  o =  0.0277  v =  0.0000  0.7071  0.0000 -0.7071  0.0000  0.0000  0.0000  0.0000  0.0000  0.0000      0.0000  0.0000  0.0000  0.0000  0.0000  0.0000  0.0000  0.0000  0.0000  0.0000
  o =  0.0669  v =  0.0000 -0.7071  0.0000 -0.7071 -0.0000  0.0000  0.0000  0.0000  0.0000  0.0000      0.0000  0.0000  0.0000  0.0000  0.0000  0.0000  0.0000  0.0000  0.0000  0.0000
  o =  0.0980  v = -0.7881  0.0000 -0.6155  0.0000  0.0000  0.0000  0.0000  0.0000  0.0000  0.0000      0.0000  0.0000  0.0000  0.0000  0.0000  0.0000  0.0000  0.0000  0.0000  0.0000
  o =  0.9408  v =  0.0000  0.0000  0.0000  0.0000  0.0000 -0.5979 -0.0000  0.8016  0.0000 -0.0000      0.0000  0.0000  0.0000  0.0000  0.0000  0.0000  0.0000  0.0000  0.0000  0.0000
  o =  0.9419  v =  0.0000  0.0000  0.0000  0.0000  0.0000  0.0000  0.7071  0.0000 -0.7071 -0.0000      0.0000  0.0000  0.0000  0.0000  0.0000  0.0000  0.0000  0.0000  0.0000  0.0000
  o =  0.9426  v =  0.0000  0.0000  0.0000  0.0000  0.0000 -0.0000  0.0000  0.0000  0.0000  1.0000      0.0000  0.0000  0.0000  0.0000  0.0000  0.0000  0.0000  0.0000  0.0000  0.0000
  o =  0.9538  v =  0.0000  0.0000  0.0000  0.0000  0.0000 -0.8016 -0.0000 -0.5979  0.0000 -0.0000      0.0000  0.0000  0.0000  0.0000  0.0000  0.0000  0.0000  0.0000  0.0000  0.0000
  o =  0.9747  v =  0.0000  0.0000  0.0000  0.0000  0.0000  0.0000 -0.7071  0.0000 -0.7071  0.0000      0.0000  0.0000  0.0000  0.0000  0.0000  0.0000  0.0000  0.0000  0.0000  0.0000
atom =   2  type =  1  l = 2
 
 onsite density matrix
 
spin component  1
 
  0.9492  0.0000 -0.0062  0.0000 -0.0000
  0.0000  0.9583  0.0000 -0.0164  0.0000
 -0.0062  0.0000  0.9455  0.0000  0.0000
  0.0000 -0.0164  0.0000  0.9583  0.0000
 -0.0000  0.0000  0.0000  0.0000  0.9426
 
spin component  2
 
  0.0686  0.0000 -0.0376  0.0000  0.0000
  0.0000  0.0473  0.0000 -0.0196  0.0000
 -0.0376  0.0000  0.0499  0.0000  0.0000
  0.0000 -0.0196  0.0000  0.0473  0.0000
  0.0000  0.0000  0.0000  0.0000  0.0229
 
 occupancies and eigenvectors
 
  o =  0.0205  v =  0.0000  0.0000  0.0000  0.0000  0.0000 -0.6155 -0.0000 -0.7881  0.0000  0.0000      0.0000  0.0000  0.0000  0.0000  0.0000  0.0000  0.0000  0.0000  0.0000  0.0000
  o =  0.0229  v =  0.0000  0.0000  0.0000  0.0000  0.0000 -0.0000  0.0000 -0.0000  0.0000 -1.0000      0.0000  0.0000  0.0000  0.0000  0.0000  0.0000  0.0000  0.0000  0.0000  0.0000
  o =  0.0277  v =  0.0000  0.0000  0.0000  0.0000  0.0000  0.0000  0.7071  0.0000  0.7071  0.0000      0.0000  0.0000  0.0000  0.0000  0.0000  0.0000  0.0000  0.0000  0.0000  0.0000
  o =  0.0669  v =  0.0000  0.0000  0.0000  0.0000  0.0000  0.0000  0.7071  0.0000 -0.7071  0.0000      0.0000  0.0000  0.0000  0.0000  0.0000  0.0000  0.0000  0.0000  0.0000  0.0000
  o =  0.0980  v =  0.0000  0.0000  0.0000  0.0000  0.0000 -0.7881 -0.0000  0.6155  0.0000  0.0000      0.0000  0.0000  0.0000  0.0000  0.0000  0.0000  0.0000  0.0000  0.0000  0.0000
  o =  0.9408  v = -0.5979  0.0000 -0.8016  0.0000  0.0000  0.0000  0.0000  0.0000  0.0000  0.0000      0.0000  0.0000  0.0000  0.0000  0.0000  0.0000  0.0000  0.0000  0.0000  0.0000
  o =  0.9419  v = -0.0000 -0.7071 -0.0000 -0.7071 -0.0000  0.0000  0.0000  0.0000  0.0000  0.0000      0.0000  0.0000  0.0000  0.0000  0.0000  0.0000  0.0000  0.0000  0.0000  0.0000
  o =  0.9426  v =  0.0000 -0.0000  0.0000 -0.0000  1.0000  0.0000  0.0000  0.0000  0.0000  0.0000      0.0000  0.0000  0.0000  0.0000  0.0000  0.0000  0.0000  0.0000  0.0000  0.0000
  o =  0.9538  v = -0.8016  0.0000  0.5979  0.0000  0.0000  0.0000  0.0000  0.0000  0.0000  0.0000      0.0000  0.0000  0.0000  0.0000  0.0000  0.0000  0.0000  0.0000  0.0000  0.0000
  o =  0.9747  v =  0.0000 -0.7071 -0.0000  0.7071 -0.0000  0.0000  0.0000  0.0000  0.0000  0.0000      0.0000  0.0000  0.0000  0.0000  0.0000  0.0000  0.0000  0.0000  0.0000  0.0000
     EDDAV:  cpu time    0.7808: real time    0.7808
 BZINTS: Fermi energy:  2.240075; 54.000000 electrons
         Band energy:-795.347179;  BLOECHL correction:  0.000000
       DOS:  cpu time    0.0020: real time    0.0020
    CHARGE:  cpu time    0.1489: real time    0.1489
    MIXING:  cpu time    0.0007: real time    0.0007
    --------------------------------------------
      LOOP:  cpu time    1.7461: real time    1.7461

 eigenvalue-minimisations  :  1512
 total energy-change (2. order) : 0.5050437E+00  (-0.5030024E+00)
 number of electron      54.0000007 magnetization      -0.0000000
 augmentation part       19.9964635 magnetization      -0.0000000

 Broyden mixing:
  rms(total) = 0.81711E+00    rms(broyden)= 0.81707E+00
  rms(prec ) = 0.89642E+00
  weight for this iteration     100.00

 eigenvalues of (default mixing * dielectric matrix)
  average eigenvalue GAMMA=   0.9470
  1.7197  0.5745  0.7469  0.7469

 Free energy of the ion-electron system (eV)
  ---------------------------------------------------
  alpha Z        PSCENC =       199.38838823
  Ewald energy   TEWEN  =     -4203.06823030
  -Hartree energ DENC   =     -2163.01411041
  -exchange      EXHF   =         0.00000000
  -V(xc)+E(xc)   XCENC  =       168.60813248
  PAW double counting   =      6438.48609005    -6402.22427576
  entropy T*S    EENTRO =         0.00000000
  eigenvalues    EBANDS =      -795.34717860
  atomic energy  EATOM  =      6689.01075358
  Solvation  Ediel_sol  =         0.00000000
  ---------------------------------------------------
  free energy    TOTEN  =       -68.16043073 eV

  energy without entropy =      -68.16043073  energy(sigma->0) =      -68.16043073


--------------------------------------------------------------------------------------------------------




--------------------------------------- Iteration      1(  10)  ---------------------------------------


    POTLOK:  cpu time    0.0329: real time    0.0329
    SETDIJ:  cpu time    0.7817: real time    0.7817
atom =   1  type =  1  l = 2
 
 onsite density matrix
 
spin component  1
 
  0.0468  0.0000  0.0151  0.0000  0.0000
  0.0000  0.0510  0.0000  0.0209  0.0000
  0.0151  0.0000  0.0396  0.0000  0.0000
  0.0000  0.0209  0.0000  0.0510  0.0000
  0.0000  0.0000  0.0000  0.0000  0.0288
 
spin component  2
 
  0.9677  0.0000  0.0305  0.0000 -0.0000
  0.0000  0.9517  0.0000  0.0168  0.0000
  0.0305  0.0000  0.9517  0.0000  0.0000
  0.0000  0.0168  0.0000  0.9517  0.0000
 -0.0000  0.0000  0.0000  0.0000  0.9325
 
 occupancies and eigenvectors
 
  o =  0.0277  v = -0.6199  0.0000  0.7847 -0.0000 -0.0000  0.0000  0.0000  0.0000  0.0000  0.0000      0.0000  0.0000  0.0000  0.0000  0.0000  0.0000  0.0000  0.0000  0.0000  0.0000
  o =  0.0288  v = -0.0000  0.0000  0.0000 -0.0000  1.0000  0.0000  0.0000  0.0000  0.0000  0.0000      0.0000  0.0000  0.0000  0.0000  0.0000  0.0000  0.0000  0.0000  0.0000  0.0000
  o =  0.0301  v =  0.0000  0.7071 -0.0000 -0.7071 -0.0000  0.0000  0.0000  0.0000  0.0000  0.0000      0.0000  0.0000  0.0000  0.0000  0.0000  0.0000  0.0000  0.0000  0.0000  0.0000
  o =  0.0587  v = -0.7847 -0.0000 -0.6199 -0.0000 -0.0000  0.0000  0.0000  0.0000  0.0000  0.0000      0.0000  0.0000  0.0000  0.0000  0.0000  0.0000  0.0000  0.0000  0.0000  0.0000
  o =  0.0719  v =  0.0000 -0.7071  0.0000 -0.7071  0.0000  0.0000  0.0000  0.0000  0.0000  0.0000      0.0000  0.0000  0.0000  0.0000  0.0000  0.0000  0.0000  0.0000  0.0000  0.0000
  o =  0.9282  v =  0.0000  0.0000  0.0000  0.0000  0.0000 -0.6108  0.0000  0.7918 -0.0000 -0.0000      0.0000  0.0000  0.0000  0.0000  0.0000  0.0000  0.0000  0.0000  0.0000  0.0000
  o =  0.9325  v =  0.0000  0.0000  0.0000  0.0000  0.0000 -0.0000  0.0000  0.0000 -0.0000  1.0000      0.0000  0.0000  0.0000  0.0000  0.0000  0.0000  0.0000  0.0000  0.0000  0.0000
  o =  0.9349  v =  0.0000  0.0000  0.0000  0.0000  0.0000  0.0000  0.7071 -0.0000 -0.7071 -0.0000      0.0000  0.0000  0.0000  0.0000  0.0000  0.0000  0.0000  0.0000  0.0000  0.0000
  o =  0.9685  v =  0.0000  0.0000  0.0000  0.0000  0.0000  0.0000  0.7071 -0.0000  0.7071  0.0000      0.0000  0.0000  0.0000  0.0000  0.0000  0.0000  0.0000  0.0000  0.0000  0.0000
  o =  0.9912  v =  0.0000  0.0000  0.0000  0.0000  0.0000 -0.7918  0.0000 -0.6108  0.0000 -0.0000      0.0000  0.0000  0.0000  0.0000  0.0000  0.0000  0.0000  0.0000  0.0000  0.0000
atom =   2  type =  1  l = 2
 
 onsite density matrix
 
spin component  1
 
  0.9677  0.0000 -0.0305  0.0000  0.0000
  0.0000  0.9517  0.0000 -0.0168  0.0000
 -0.0305  0.0000  0.9517  0.0000  0.0000
  0.0000 -0.0168  0.0000  0.9517  0.0000
  0.0000  0.0000  0.0000  0.0000  0.9325
 
spin component  2
 
  0.0468  0.0000 -0.0151  0.0000  0.0000
  0.0000  0.0510  0.0000 -0.0209  0.0000
 -0.0151  0.0000  0.0396  0.0000 -0.0000
  0.0000 -0.0209  0.0000  0.0510  0.0000
  0.0000  0.0000 -0.0000  0.0000  0.0288
 
 occupancies and eigenvectors
 
  o =  0.0277  v =  0.0000  0.0000  0.0000  0.0000  0.0000 -0.6199  0.0000 -0.7847  0.0000 -0.0000      0.0000  0.0000  0.0000  0.0000  0.0000  0.0000  0.0000  0.0000  0.0000  0.0000
  o =  0.0288  v =  0.0000  0.0000  0.0000  0.0000  0.0000 -0.0000 -0.0000 -0.0000  0.0000  1.0000      0.0000  0.0000  0.0000  0.0000  0.0000  0.0000  0.0000  0.0000  0.0000  0.0000
  o =  0.0301  v =  0.0000  0.0000  0.0000  0.0000  0.0000  0.0000 -0.7071  0.0000 -0.7071 -0.0000      0.0000  0.0000  0.0000  0.0000  0.0000  0.0000  0.0000  0.0000  0.0000  0.0000
  o =  0.0587  v =  0.0000  0.0000  0.0000  0.0000  0.0000 -0.7847  0.0000  0.6199  0.0000 -0.0000      0.0000  0.0000  0.0000  0.0000  0.0000  0.0000  0.0000  0.0000  0.0000  0.0000
  o =  0.0719  v =  0.0000  0.0000  0.0000  0.0000  0.0000  0.0000  0.7071  0.0000 -0.7071  0.0000      0.0000  0.0000  0.0000  0.0000  0.0000  0.0000  0.0000  0.0000  0.0000  0.0000
  o =  0.9282  v = -0.6108 -0.0000 -0.7918  0.0000  0.0000  0.0000  0.0000  0.0000  0.0000  0.0000      0.0000  0.0000  0.0000  0.0000  0.0000  0.0000  0.0000  0.0000  0.0000  0.0000
  o =  0.9325  v =  0.0000  0.0000  0.0000  0.0000  1.0000  0.0000  0.0000  0.0000  0.0000  0.0000      0.0000  0.0000  0.0000  0.0000  0.0000  0.0000  0.0000  0.0000  0.0000  0.0000
  o =  0.9349  v = -0.0000  0.7071 -0.0000  0.7071 -0.0000  0.0000  0.0000  0.0000  0.0000  0.0000      0.0000  0.0000  0.0000  0.0000  0.0000  0.0000  0.0000  0.0000  0.0000  0.0000
  o =  0.9685  v =  0.0000 -0.7071  0.0000  0.7071  0.0000  0.0000  0.0000  0.0000  0.0000  0.0000      0.0000  0.0000  0.0000  0.0000  0.0000  0.0000  0.0000  0.0000  0.0000  0.0000
  o =  0.9912  v = -0.7918 -0.0000  0.6108  0.0000  0.0000  0.0000  0.0000  0.0000  0.0000  0.0000      0.0000  0.0000  0.0000  0.0000  0.0000  0.0000  0.0000  0.0000  0.0000  0.0000
     EDDAV:  cpu time    0.7394: real time    0.7394
 BZINTS: Fermi energy:  2.201044; 54.000000 electrons
         Band energy:-797.664865;  BLOECHL correction:  0.000000
       DOS:  cpu time    0.0020: real time    0.0020
    CHARGE:  cpu time    0.1508: real time    0.1508
    MIXING:  cpu time    0.0007: real time    0.0007
    --------------------------------------------
      LOOP:  cpu time    1.7075: real time    1.7075

 eigenvalue-minimisations  :  1392
 total energy-change (2. order) : 0.4833401E-01  (-0.4408975E-01)
 number of electron      54.0000007 magnetization      -0.0000000
 augmentation part       19.9921414 magnetization      -0.0000000

 Broyden mixing:
  rms(total) = 0.59926E+00    rms(broyden)= 0.59926E+00
  rms(prec ) = 0.66851E+00
  weight for this iteration     100.00

 eigenvalues of (default mixing * dielectric matrix)
  average eigenvalue GAMMA=   1.2133
  2.8730  0.9939  0.9939  0.6028  0.6028

 Free energy of the ion-electron system (eV)
  ---------------------------------------------------
  alpha Z        PSCENC =       199.38838823
  Ewald energy   TEWEN  =     -4203.06823030
  -Hartree energ DENC   =     -2156.66564848
  -exchange      EXHF   =         0.00000000
  -V(xc)+E(xc)   XCENC  =       165.82923973
  PAW double counting   =      6504.49843296    -6469.44016706
  entropy T*S    EENTRO =         0.00000000
  eigenvalues    EBANDS =      -797.66486537
  atomic energy  EATOM  =      6689.01075358
  Solvation  Ediel_sol  =         0.00000000
  ---------------------------------------------------
  free energy    TOTEN  =       -68.11209672 eV

  energy without entropy =      -68.11209672  energy(sigma->0) =      -68.11209672


--------------------------------------------------------------------------------------------------------




--------------------------------------- Iteration      1(  11)  ---------------------------------------


    POTLOK:  cpu time    0.0328: real time    0.0328
    SETDIJ:  cpu time    0.7788: real time    0.7788
atom =   1  type =  1  l = 2
 
 onsite density matrix
 
spin component  1
 
  0.0510  0.0000  0.0303  0.0000 -0.0000
  0.0000  0.0438  0.0000  0.0254  0.0000
  0.0303  0.0000  0.0369  0.0000 -0.0000
  0.0000  0.0254  0.0000  0.0438  0.0000
 -0.0000  0.0000 -0.0000  0.0000  0.0147
 
spin component  2
 
  0.9636  0.0000  0.0190  0.0000  0.0000
  0.0000  0.9591  0.0000  0.0168  0.0000
  0.0190  0.0000  0.9520  0.0000  0.0000
  0.0000  0.0168  0.0000  0.9591  0.0000
  0.0000  0.0000  0.0000  0.0000  0.9432
 
 occupancies and eigenvectors
 
  o =  0.0128  v = -0.6213  0.0000  0.7835  0.0000  0.0000  0.0000  0.0000  0.0000  0.0000  0.0000      0.0000  0.0000  0.0000  0.0000  0.0000  0.0000  0.0000  0.0000  0.0000  0.0000
  o =  0.0147  v = -0.0000 -0.0000  0.0000  0.0000 -1.0000  0.0000  0.0000  0.0000  0.0000  0.0000      0.0000  0.0000  0.0000  0.0000  0.0000  0.0000  0.0000  0.0000  0.0000  0.0000
  o =  0.0184  v =  0.0000  0.7071  0.0000 -0.7071 -0.0000  0.0000  0.0000  0.0000  0.0000  0.0000      0.0000  0.0000  0.0000  0.0000  0.0000  0.0000  0.0000  0.0000  0.0000  0.0000
  o =  0.0692  v =  0.0000  0.7071  0.0000  0.7071 -0.0000  0.0000  0.0000  0.0000  0.0000  0.0000      0.0000  0.0000  0.0000  0.0000  0.0000  0.0000  0.0000  0.0000  0.0000  0.0000
  o =  0.0751  v = -0.7835  0.0000 -0.6213  0.0000  0.0000  0.0000  0.0000  0.0000  0.0000  0.0000      0.0000  0.0000  0.0000  0.0000  0.0000  0.0000  0.0000  0.0000  0.0000  0.0000
  o =  0.9380  v =  0.0000  0.0000  0.0000  0.0000  0.0000 -0.5951  0.0000  0.8036  0.0000  0.0000      0.0000  0.0000  0.0000  0.0000  0.0000  0.0000  0.0000  0.0000  0.0000  0.0000
  o =  0.9424  v =  0.0000  0.0000  0.0000  0.0000  0.0000  0.0000 -0.7071  0.0000  0.7071 -0.0000      0.0000  0.0000  0.0000  0.0000  0.0000  0.0000  0.0000  0.0000  0.0000  0.0000
  o =  0.9432  v =  0.0000  0.0000  0.0000  0.0000  0.0000  0.0000 -0.0000 -0.0000  0.0000  1.0000      0.0000  0.0000  0.0000  0.0000  0.0000  0.0000  0.0000  0.0000  0.0000  0.0000
  o =  0.9759  v =  0.0000  0.0000  0.0000  0.0000  0.0000  0.0000 -0.7071  0.0000 -0.7071 -0.0000      0.0000  0.0000  0.0000  0.0000  0.0000  0.0000  0.0000  0.0000  0.0000  0.0000
  o =  0.9776  v =  0.0000  0.0000  0.0000  0.0000  0.0000 -0.8036  0.0000 -0.5951  0.0000 -0.0000      0.0000  0.0000  0.0000  0.0000  0.0000  0.0000  0.0000  0.0000  0.0000  0.0000
atom =   2  type =  1  l = 2
 
 onsite density matrix
 
spin component  1
 
  0.9636  0.0000 -0.0190  0.0000  0.0000
  0.0000  0.9591  0.0000 -0.0168  0.0000
 -0.0190  0.0000  0.9520  0.0000 -0.0000
  0.0000 -0.0168  0.0000  0.9591  0.0000
  0.0000  0.0000 -0.0000  0.0000  0.9432
 
spin component  2
 
  0.0510  0.0000 -0.0303  0.0000 -0.0000
  0.0000  0.0438  0.0000 -0.0254  0.0000
 -0.0303  0.0000  0.0369  0.0000  0.0000
  0.0000 -0.0254  0.0000  0.0438  0.0000
 -0.0000  0.0000  0.0000  0.0000  0.0147
 
 occupancies and eigenvectors
 
  o =  0.0128  v =  0.0000  0.0000  0.0000  0.0000  0.0000 -0.6213  0.0000 -0.7835  0.0000  0.0000      0.0000  0.0000  0.0000  0.0000  0.0000  0.0000  0.0000  0.0000  0.0000  0.0000
  o =  0.0147  v =  0.0000  0.0000  0.0000  0.0000  0.0000  0.0000  0.0000  0.0000 -0.0000  1.0000      0.0000  0.0000  0.0000  0.0000  0.0000  0.0000  0.0000  0.0000  0.0000  0.0000
  o =  0.0184  v =  0.0000  0.0000  0.0000  0.0000  0.0000 -0.0000 -0.7071 -0.0000 -0.7071  0.0000      0.0000  0.0000  0.0000  0.0000  0.0000  0.0000  0.0000  0.0000  0.0000  0.0000
  o =  0.0692  v =  0.0000  0.0000  0.0000  0.0000  0.0000  0.0000  0.7071 -0.0000 -0.7071 -0.0000      0.0000  0.0000  0.0000  0.0000  0.0000  0.0000  0.0000  0.0000  0.0000  0.0000
  o =  0.0751  v =  0.0000  0.0000  0.0000  0.0000  0.0000 -0.7835  0.0000  0.6213 -0.0000  0.0000      0.0000  0.0000  0.0000  0.0000  0.0000  0.0000  0.0000  0.0000  0.0000  0.0000
  o =  0.9380  v = -0.5951  0.0000 -0.8036  0.0000 -0.0000  0.0000  0.0000  0.0000  0.0000  0.0000      0.0000  0.0000  0.0000  0.0000  0.0000  0.0000  0.0000  0.0000  0.0000  0.0000
  o =  0.9424  v =  0.0000 -0.7071  0.0000 -0.7071 -0.0000  0.0000  0.0000  0.0000  0.0000  0.0000      0.0000  0.0000  0.0000  0.0000  0.0000  0.0000  0.0000  0.0000  0.0000  0.0000
  o =  0.9432  v = -0.0000 -0.0000 -0.0000  0.0000  1.0000  0.0000  0.0000  0.0000  0.0000  0.0000      0.0000  0.0000  0.0000  0.0000  0.0000  0.0000  0.0000  0.0000  0.0000  0.0000
[...]
     33       8.9774      0.00000
     34      10.4132      0.00000
     35      10.6671      0.00000
     36      11.9813      0.00000

 k-point     7 :       0.1250    0.1250    0.4167
  band No.  band energies     occupation 
      1     -49.2460      1.00000
      2     -49.2051      1.00000
      3     -49.1851      1.00000
      4     -42.7373      1.00000
      5     -42.6928      1.00000
      6     -42.6627      1.00000
      7     -22.6771      1.00000
      8     -22.5425      1.00000
      9     -22.5032      1.00000
     10     -22.4206      1.00000
     11      -4.4652      1.00000
     12      -4.2159      1.00000
     13      -4.0279      1.00000
     14      -3.8461      1.00000
     15      -3.6867      1.00000
     16      -3.4929      1.00000
     17      -3.1111      1.00000
     18      -2.9329      1.00000
     19      -2.8001      1.00000
     20      -2.3934      1.00000
     21      -2.3051      1.00000
     22      -2.2463      1.00000
     23       0.7863      1.00000
     24       0.8296      1.00000
     25       1.0735      1.00000
     26       1.6994      1.00000
     27       2.0485      1.00000
     28       6.3932      0.00000
     29       6.4227      0.00000
     30       6.5259      0.00000
     31       7.3766      0.00000
     32       7.6687      0.00000
     33       8.9818      0.00000
     34      11.2752      0.00000
     35      12.7397      0.00000
     36      13.1028      0.00000

 k-point     8 :       0.3750    0.1250    0.4167
  band No.  band energies     occupation 
      1     -49.2460      1.00000
      2     -49.2051      1.00000
      3     -49.1851      1.00000
      4     -42.7373      1.00000
      5     -42.6928      1.00000
      6     -42.6627      1.00000
      7     -22.6205      1.00000
      8     -22.5639      1.00000
      9     -22.5139      1.00000
     10     -22.4447      1.00000
     11      -4.5050      1.00000
     12      -4.2483      1.00000
     13      -4.1659      1.00000
     14      -3.9877      1.00000
     15      -3.6183      1.00000
     16      -3.3823      1.00000
     17      -3.2083      1.00000
     18      -3.1036      1.00000
     19      -2.5353      1.00000
     20      -2.3752      1.00000
     21      -2.1965      1.00000
     22      -2.0940      1.00000
     23       0.7733      1.00000
     24       0.8023      1.00000
     25       1.0127      1.00000
     26       1.6563      1.00000
     27       2.1772      1.00000
     28       6.3813      0.00000
     29       6.4157      0.00000
     30       6.5818      0.00000
     31       7.3314      0.00000
     32       7.8498      0.00000
     33       9.6068      0.00000
     34      11.1346      0.00000
     35      11.6525      0.00000
     36      12.9637      0.00000

 k-point     9 :       0.3750    0.3750    0.4167
  band No.  band energies     occupation 
      1     -49.2461      1.00000
      2     -49.2051      1.00000
      3     -49.1851      1.00000
      4     -42.7373      1.00000
      5     -42.6928      1.00000
      6     -42.6627      1.00000
      7     -22.6137      1.00000
      8     -22.5723      1.00000
      9     -22.5147      1.00000
     10     -22.4390      1.00000
     11      -4.7401      1.00000
     12      -4.5299      1.00000
     13      -4.1612      1.00000
     14      -4.0999      1.00000
     15      -3.5925      1.00000
     16      -3.3152      1.00000
     17      -3.1444      1.00000
     18      -2.9132      1.00000
     19      -2.3250      1.00000
     20      -2.2302      1.00000
     21      -2.1190      1.00000
     22      -2.0419      1.00000
     23       0.7710      1.00000
     24       0.7949      1.00000
     25       0.9984      1.00000
     26       1.6906      1.00000
     27       2.1527      1.00000
     28       6.3878      0.00000
     29       6.4131      0.00000
     30       6.5995      0.00000
     31       7.3075      0.00000
     32       7.7538      0.00000
     33      10.1001      0.00000
     34      11.6893      0.00000
     35      11.7176      0.00000
     36      11.9533      0.00000


--------------------------------------------------------------------------------------------------------


 soft charge-density along one line, spin component           1
         0         1         2         3         4         5         6         7         8         9
 total charge-density along one line
 
 soft charge-density along one line, spin component           2
         0         1         2         3         4         5         6         7         8         9
 total charge-density along one line
 
 pseudopotential strength for first ion, spin component:           1
-45.227  -0.000  -0.038   7.798   0.000   0.016  -0.000   0.000
 -0.000 -45.193  -0.000   0.000   7.784   0.000   0.000   0.000
 -0.038  -0.000 -45.227   0.016   0.000   7.798   0.000   0.000
  7.798   0.000   0.016   5.590  -0.000   0.004  -0.000  -0.000
  0.000   7.784   0.000  -0.000   5.585  -0.000  -0.000   0.000
  0.016   0.000   7.798   0.004  -0.000   5.590  -0.000  -0.000
 -0.000   0.000   0.000  -0.000  -0.000  -0.000  -2.984  -0.000
  0.000   0.000   0.000  -0.000   0.000  -0.000  -0.000  -2.966
 -0.000   0.000   0.000   0.000  -0.000   0.000   0.020  -0.000
  0.000   0.000   0.000  -0.000   0.000  -0.000  -0.000  -0.018
  0.000   0.000  -0.000  -0.000  -0.000  -0.000  -0.000   0.000
 -0.000   0.000   0.000  -0.000  -0.000  -0.000  -3.499  -0.000
  0.000   0.000   0.000  -0.000   0.000  -0.000  -0.000  -3.482
 -0.000   0.000   0.000   0.000  -0.000   0.000   0.018  -0.000
  0.000   0.000   0.000  -0.000   0.000  -0.000  -0.000  -0.018
  0.000   0.000  -0.000  -0.000  -0.000  -0.000  -0.000   0.000
  0.000  -0.000   0.000   0.000  -0.000  -0.000   0.011   0.000
  0.000  -0.000   0.000   0.000  -0.000  -0.000   0.022   0.000
 pseudopotential strength for first ion, spin component:           2
-50.980  -0.000  -0.005   9.797   0.000   0.016   0.000   0.000
 -0.000 -50.980  -0.000   0.000   9.783   0.000   0.000   0.000
 -0.005  -0.000 -50.980   0.016   0.000   9.797  -0.000   0.000
  9.797   0.000   0.016   4.707  -0.000   0.001  -0.000  -0.000
  0.000   9.783   0.000  -0.000   4.706  -0.000  -0.000  -0.000
  0.016   0.000   9.797   0.001  -0.000   4.707  -0.000  -0.000
  0.000   0.000  -0.000  -0.000  -0.000  -0.000  -7.337  -0.000
  0.000   0.000   0.000  -0.000  -0.000  -0.000  -0.000  -7.327
  0.000   0.000  -0.000  -0.000  -0.000   0.000  -0.009  -0.000
  0.000  -0.000   0.000  -0.000   0.000  -0.000  -0.000  -0.027
 -0.000   0.000   0.000  -0.000  -0.000  -0.000   0.000   0.000
  0.000   0.000  -0.000  -0.000  -0.000  -0.000  -7.808  -0.000
  0.000   0.000   0.000  -0.000  -0.000  -0.000  -0.000  -7.799
  0.000   0.000  -0.000  -0.000  -0.000   0.000  -0.008  -0.000
  0.000  -0.000   0.000  -0.000   0.000  -0.000  -0.000  -0.027
 -0.000   0.000   0.000  -0.000  -0.000  -0.000   0.000   0.000
  0.000  -0.000  -0.000  -0.000  -0.000   0.000   0.011   0.000
  0.000  -0.000  -0.000  -0.000  -0.000   0.000   0.023   0.000
 total augmentation occupancy for first ion, spin component:           1
  2.001   0.000   0.000  -0.013   0.000   0.001   0.000   0.000   0.000   0.000   0.000   0.000   0.000   0.000   0.000   0.000
  0.000   2.001   0.000   0.000  -0.013   0.000   0.000   0.000   0.000   0.000   0.000   0.000   0.000   0.000   0.000   0.000
  0.000   0.000   2.001   0.001   0.000  -0.013   0.000   0.000   0.000   0.000   0.000   0.000   0.000   0.000   0.000   0.000
 -0.013   0.000   0.001   0.081   0.000  -0.009   0.000   0.000   0.000   0.000   0.000   0.000   0.000   0.000   0.000   0.000
  0.000  -0.013   0.000   0.000   0.090   0.000   0.000   0.000   0.000   0.000   0.000   0.000   0.000   0.000   0.000   0.000
  0.001   0.000  -0.013  -0.009   0.000   0.081   0.000   0.000   0.000   0.000   0.000   0.000   0.000   0.000   0.000   0.000
  0.000   0.000   0.000   0.000   0.000   0.000   7.757   0.000   2.996   0.000   0.000  -5.784   0.000  -2.817   0.000   0.000
  0.000   0.000   0.000   0.000   0.000   0.000   0.000   6.565   0.000   2.534   0.000   0.000  -4.636   0.000  -2.380   0.000
  0.000   0.000   0.000   0.000   0.000   0.000   2.996   0.000   5.955   0.000   0.000  -2.818   0.000  -4.096   0.000  -0.000
  0.000   0.000   0.000   0.000   0.000   0.000   0.000   2.534   0.000   6.565   0.000   0.000  -2.380   0.000  -4.636   0.000
  0.000   0.000   0.000   0.000   0.000   0.000   0.000   0.000  -0.000   0.000   3.894   0.000   0.000   0.000   0.000  -2.113
  0.000   0.000   0.000   0.000   0.000   0.000  -5.784   0.000  -2.818   0.000  -0.000   4.984   0.000   2.683   0.000   0.000
  0.000   0.000   0.000   0.000   0.000   0.000   0.000  -4.636   0.000  -2.380   0.000   0.000   3.872   0.000   2.263   0.000
  0.000   0.000   0.000   0.000   0.000   0.000  -2.817   0.000  -4.096   0.000  -0.000   2.683   0.000   3.385   0.000   0.000
  0.000   0.000   0.000   0.000   0.000   0.000   0.000  -2.380   0.000  -4.636   0.000   0.000   2.263   0.000   3.872   0.000
  0.000   0.000   0.000   0.000   0.000   0.000   0.000   0.000  -0.000   0.000  -2.113   0.000   0.000   0.000   0.000   1.456
  0.000   0.000   0.000   0.000   0.000   0.000   0.440   0.000  -0.297   0.000  -0.000  -0.417   0.000   0.276   0.000   0.000
  0.000   0.000   0.000   0.000   0.000   0.000  -0.091   0.000   0.068   0.000   0.000   0.097   0.000  -0.068   0.000   0.000
 total augmentation occupancy for first ion, spin component:           2
  0.004   0.000  -0.000   0.017   0.000  -0.001   0.000   0.000   0.000   0.000   0.000   0.000   0.000   0.000   0.000   0.000
  0.000   0.004   0.000   0.000   0.018   0.000   0.000   0.000   0.000   0.000   0.000   0.000   0.000   0.000   0.000   0.000
 -0.000   0.000   0.004  -0.001   0.000   0.017   0.000   0.000   0.000   0.000   0.000   0.000   0.000   0.000   0.000   0.000
  0.017   0.000  -0.001  -0.011   0.000  -0.000   0.000   0.000   0.000   0.000   0.000   0.000   0.000   0.000   0.000   0.000
  0.000   0.018   0.000   0.000  -0.010   0.000   0.000   0.000   0.000   0.000   0.000   0.000   0.000   0.000   0.000   0.000
 -0.001   0.000   0.017  -0.000   0.000  -0.011   0.000   0.000   0.000   0.000   0.000   0.000   0.000   0.000   0.000   0.000
  0.000   0.000   0.000   0.000   0.000   0.000  -5.102   0.000  -1.493   0.000   0.000   2.727   0.000   1.097   0.000   0.000
  0.000   0.000   0.000   0.000   0.000   0.000   0.000  -4.548   0.000  -1.273   0.000   0.000   2.299   0.000   0.936   0.000
  0.000   0.000   0.000   0.000   0.000   0.000  -1.493   0.000  -4.149   0.000  -0.000   1.097   0.000   2.012   0.000   0.000
  0.000   0.000   0.000   0.000   0.000   0.000   0.000  -1.273   0.000  -4.548   0.000   0.000   0.936   0.000   2.299   0.000
  0.000   0.000   0.000   0.000   0.000   0.000   0.000   0.000  -0.000   0.000  -3.256   0.000   0.000  -0.000   0.000   1.355
  0.000   0.000   0.000   0.000   0.000   0.000   2.727   0.000   1.097   0.000  -0.000  -1.456   0.000  -0.706   0.000   0.000
  0.000   0.000   0.000   0.000   0.000   0.000   0.000   2.299   0.000   0.936   0.000   0.000  -1.155   0.000  -0.606   0.000
  0.000   0.000   0.000   0.000   0.000   0.000   1.097   0.000   2.012   0.000   0.000  -0.706   0.000  -0.974   0.000   0.000
  0.000   0.000   0.000   0.000   0.000   0.000   0.000   0.936   0.000   2.299   0.000   0.000  -0.606   0.000  -1.155   0.000
  0.000   0.000   0.000   0.000   0.000   0.000   0.000   0.000   0.000   0.000   1.355   0.000   0.000   0.000   0.000  -0.556
  0.000   0.000   0.000   0.000   0.000   0.000  -0.098   0.000   0.055   0.000  -0.000   0.022   0.000   0.001   0.000   0.000
  0.000   0.000   0.000   0.000   0.000   0.000  -0.000   0.000  -0.006   0.000   0.000   0.009   0.000  -0.004   0.000  -0.000


------------------------ aborting loop because EDIFF is reached ----------------------------------------


 


 total charge     
 
# of ion       s       p       d       tot
------------------------------------------
    1        0.168   6.149   4.965  11.281
    2        0.173   6.144   4.971  11.288
    3        1.731   4.401   0.000   6.132
    4        1.731   4.401   0.000   6.132
    5        1.730   4.398   0.000   6.128
    6        1.730   4.398   0.000   6.128
--------------------------------------------------
tot          7.262  29.891   9.936  47.090
 


 magnetization (x)
 
# of ion       s       p       d       tot
------------------------------------------
    1       -0.022  -0.018  -4.581  -4.621
    2        0.023   0.016   4.578   4.618
    3        0.003   0.025   0.000   0.027
    4        0.003   0.025   0.000   0.027
    5       -0.003  -0.021   0.000  -0.024
    6       -0.003  -0.021   0.000  -0.024
--------------------------------------------------
tot         -0.001   0.006  -0.003   0.003
 
    CHARGE:  cpu time    0.0315: real time    0.0315
    FORLOC:  cpu time    0.0011: real time    0.0011
    FORNL :  cpu time    0.1743: real time    0.1743
    STRESS:  cpu time    2.2351: real time    2.2351
    FORCOR:  cpu time    0.0295: real time    0.0295
    FORHAR:  cpu time    0.0021: real time    0.0021
    MIXING:  cpu time    0.0013: real time    0.0013
    OFIELD:  cpu time    0.0000: real time    0.0000

  FORCE on cell =-STRESS in cart. coord.  units (eV):
  Direction    XX          YY          ZZ          XY          YZ          ZX
  --------------------------------------------------------------------------------------
  Alpha Z   199.38839   199.38839   199.38839
  Ewald   -1586.09778 -1586.09778 -1030.87583    -0.00000     0.00000     0.00000
  Hartree   594.08627   594.08627   969.39783    -0.00000    -0.00000    -0.00000
  E(xc)    -150.54768  -150.52437  -150.66003    -0.01639    -0.02600    -0.02772
  Local     163.67462   163.67462  -759.97175    -0.00000     0.00000    -0.00000
  n-local  -310.03036  -310.30878  -309.26920     0.01879     0.11128     0.11138
  augment   158.51999   158.51999   158.02772     0.00000     0.00000    -0.00000
  Kinetic   930.85686   931.42790   923.95952    -0.43870    -0.81112    -0.84696
  Fock        0.00000     0.00000     0.00000     0.00000     0.00000     0.00000
  -------------------------------------------------------------------------------------
  Total       0.00826     0.00826    -0.00336     0.00000     0.00000     0.00000
  in kB       0.17097     0.17097    -0.06950     0.00000     0.00000     0.00000
  external pressure =        0.09 kB  Pullay stress =        0.00 kB


 VOLUME and BASIS-vectors are now :
 -----------------------------------------------------------------------------
  energy-cutoff  :      600.00
  volume of cell :       77.42
      direct lattice vectors                 reciprocal lattice vectors
     4.852568500  0.000000000  0.000000000     0.206076431  0.000000000  0.000000000
     0.000000000  4.852568500  0.000000000     0.000000000  0.206076431  0.000000000
     0.000000000  0.000000000  3.288011935     0.000000000  0.000000000  0.304135149

  length of vectors
     4.852568500  4.852568500  3.288011935     0.206076431  0.206076431  0.304135149


 FORCES acting on ions
    electron-ion (+dipol)            ewald-force                    non-local-force                 convergence-correction
 -----------------------------------------------------------------------------------------------
   -.180E-11 0.657E-11 -.500E-13   -.568E-13 -.568E-13 -.305E-14   0.000E+00 0.000E+00 0.000E+00   0.138E-13 0.335E-13 0.993E-13
   -.227E-13 -.348E-13 0.328E-13   0.171E-12 0.171E-12 -.494E-14   0.000E+00 0.000E+00 0.000E+00   -.109E-14 0.237E-13 -.145E-12
   -.325E+02 0.325E+02 0.100E-11   0.337E+02 -.337E+02 0.930E-15   -.120E+01 0.120E+01 0.000E+00   -.154E-04 0.154E-04 0.102E-12
   0.325E+02 -.325E+02 -.826E-11   -.337E+02 0.337E+02 0.116E-14   0.120E+01 -.120E+01 0.000E+00   0.154E-04 -.154E-04 0.607E-14
   0.325E+02 0.325E+02 0.515E-08   -.337E+02 -.337E+02 -.175E-14   0.120E+01 0.120E+01 0.271E-19   0.154E-04 0.154E-04 -.542E-11
   -.325E+02 -.325E+02 -.515E-08   0.337E+02 0.337E+02 -.154E-14   -.120E+01 -.120E+01 -.271E-19   -.154E-04 -.154E-04 0.532E-11
 -----------------------------------------------------------------------------------------------
   0.992E-12 0.744E-11 -.710E-11   0.000E+00 0.000E+00 -.918E-14   0.000E+00 0.000E+00 0.000E+00   0.205E-13 0.809E-13 -.433E-13
 
 
 POSITION                                       TOTAL-FORCE (eV/Angst)
 -----------------------------------------------------------------------------------
      2.42628      2.42628      1.64401         0.000000      0.000000     -0.000000
      0.00000      0.00000      0.00000         0.000000      0.000000     -0.000000
      0.95159      3.90098      1.64401         0.001594     -0.001594     -0.000000
      3.90098      0.95159      1.64401        -0.001594      0.001594     -0.000000
      1.47470      1.47470      0.00000        -0.001594     -0.001594      0.000000
      3.37787      3.37787      0.00000         0.001594      0.001594     -0.000000
 -----------------------------------------------------------------------------------
    total drift:                                0.000000      0.000000     -0.000000


--------------------------------------------------------------------------------------------------------



  FREE ENERGIE OF THE ION-ELECTRON SYSTEM (eV)
  ---------------------------------------------------
  free  energy   TOTEN  =       -68.02428401 eV

  energy  without entropy=      -68.02428401  energy(sigma->0) =      -68.02428401
 


--------------------------------------------------------------------------------------------------------


    POTLOK:  cpu time    0.8142: real time    0.8142


--------------------------------------------------------------------------------------------------------


 writing wavefunctions
     LOOP+:  cpu time   41.0329: real time   41.0528
    4ORBIT:  cpu time    0.0000: real time    0.0000
 


 total charge     
 
# of ion       s       p       d       tot
------------------------------------------
    1        0.168   6.149   4.965  11.281
    2        0.173   6.144   4.971  11.288
    3        1.731   4.401   0.000   6.132
    4        1.731   4.401   0.000   6.132
    5        1.730   4.398   0.000   6.128
    6        1.730   4.398   0.000   6.128
--------------------------------------------------
tot          7.262  29.891   9.936  47.090
 


 magnetization (x)
 
# of ion       s       p       d       tot
------------------------------------------
    1       -0.022  -0.018  -4.581  -4.621
    2        0.023   0.016   4.578   4.618
    3        0.003   0.025   0.000   0.027
    4        0.003   0.025   0.000   0.027
    5       -0.003  -0.021   0.000  -0.024
    6       -0.003  -0.021   0.000  -0.024
--------------------------------------------------
tot         -0.001   0.006  -0.003   0.003
 
 BZINTS: Fermi energy:  2.290683; 54.000000 electrons
         Band energy:-796.340290;  BLOECHL correction:  0.000000

 total amount of memory used by VASP MPI-rank0    45192. kBytes
=======================================================================

   base      :      30000. kBytes
   nonl-proj :       6999. kBytes
   fftplans  :       1875. kBytes
   grid      :       3820. kBytes
   one-center:        186. kBytes
   wavefun   :       2312. kBytes
 
  
  
 General timing and accounting informations for this job:
 ========================================================
  
                  Total CPU time used (sec):       42.301
                            User time (sec):       32.117
                          System time (sec):       10.183
                         Elapsed time (sec):       42.581
  
                   Maximum memory used (kb):       63068.
                   Average memory used (kb):           0.
  
                          Minor page faults:        11355
                          Major page faults:            7
                 Voluntary context switches:          150
