       N       E                     dE             d eps       ncg     rms          rms(c)
DAV:   1     0.701427871958E+03    0.70143E+03   -0.35647E+04  1296   0.198E+03
DAV:   2     0.109531536216E+02   -0.69047E+03   -0.66956E+03  1512   0.524E+02
DAV:   3    -0.393969338486E+02   -0.50350E+02   -0.50152E+02  1500   0.156E+02
DAV:   4    -0.400952144397E+02   -0.69828E+00   -0.69800E+00  1488   0.198E+01
DAV:   5    -0.401068135468E+02   -0.11599E-01   -0.11599E-01  1500   0.247E+00    0.226E+01
DAV:   6    -0.382231413006E+02    0.18837E+01   -0.15567E+01  1596   0.316E+01    0.143E+01
DAV:   7    -0.389414367290E+02   -0.71830E+00   -0.18330E+00  1548   0.108E+01    0.113E+01
DAV:   8    -0.390051576216E+02   -0.63721E-01   -0.41784E-01  1488   0.549E+00    0.523E+00
DAV:   9    -0.391645867214E+02   -0.15943E+00   -0.48282E-02  1332   0.217E+00    0.128E+00
DAV:  10    -0.391658435147E+02   -0.12568E-02   -0.20117E-02  1608   0.125E+00    0.284E-01
DAV:  11    -0.391660811739E+02   -0.23766E-03   -0.28040E-03  1368   0.354E-01    0.137E-01
DAV:  12    -0.391662349352E+02   -0.15376E-03   -0.10374E-04  1572   0.123E-01    0.550E-02
DAV:  13    -0.391662895920E+02   -0.54657E-04   -0.89960E-05  1356   0.549E-02    0.210E-02
DAV:  14    -0.391662985068E+02   -0.89149E-05   -0.83100E-06  1536   0.214E-02    0.893E-03
DAV:  15    -0.391662983230E+02    0.18380E-06   -0.14186E-06  1428   0.730E-03    0.264E-03
DAV:  16    -0.391662985960E+02   -0.27300E-06   -0.22629E-07  1428   0.279E-03    0.182E-03
DAV:  17    -0.391662985570E+02    0.39008E-07   -0.17270E-08   948   0.105E-03
   1 F= -.39166299E+02 E0= -.39166299E+02  d E =-.391663E+02  mag=    -0.0000
