       N       E                     dE             d eps       ncg     rms          rms(c)
DAV:   1     0.911096068094E+03    0.91110E+03   -0.34025E+04  1332   0.177E+03
DAV:   2     0.396788151905E+03   -0.51431E+03   -0.49205E+03  1488   0.466E+02
DAV:   3     0.365772133482E+03   -0.31016E+02   -0.30789E+02  1476   0.125E+02
DAV:   4     0.365418651102E+03   -0.35348E+00   -0.35318E+00  1560   0.146E+01
DAV:   5     0.365412637477E+03   -0.60136E-02   -0.60134E-02  1500   0.173E+00    0.587E+01
DAV:   6    -0.691617123783E+02   -0.43457E+03   -0.26632E+02  1584   0.208E+02    0.625E+01
DAV:   7    -0.715249240072E+02   -0.23632E+01   -0.47236E+01  1356   0.435E+01    0.171E+01
DAV:   8    -0.686292491407E+02    0.28957E+01   -0.69503E+00  1548   0.216E+01    0.655E+00
DAV:   9    -0.681638025513E+02    0.46545E+00   -0.49760E+00  1488   0.190E+01    0.811E+00
DAV:  10    -0.681156540651E+02    0.48148E-01   -0.43280E-01  1404   0.547E+00    0.599E+00
DAV:  11    -0.680753945184E+02    0.40260E-01   -0.11519E+00  1548   0.792E+00    0.197E+00
DAV:  12    -0.680377843054E+02    0.37610E-01   -0.10506E-01  1584   0.325E+00    0.123E+00
DAV:  13    -0.680305260948E+02    0.72582E-02   -0.69523E-02  1500   0.153E+00    0.106E+00
DAV:  14    -0.680260492966E+02    0.44768E-02   -0.49823E-02  1296   0.240E+00    0.403E-01
DAV:  15    -0.680267145321E+02   -0.66524E-03   -0.37751E-03  1488   0.458E-01    0.388E-01
DAV:  16    -0.680259393251E+02    0.77521E-03   -0.34034E-03  1404   0.379E-01    0.131E-01
DAV:  17    -0.680259251592E+02    0.14166E-04   -0.25854E-03  1404   0.365E-01    0.951E-02
DAV:  18    -0.680257075872E+02    0.21757E-03   -0.16237E-04  1356   0.935E-02    0.297E-02
DAV:  19    -0.680256953851E+02    0.12202E-04   -0.97301E-05  1464   0.652E-02    0.588E-03
DAV:  20    -0.680257167434E+02   -0.21358E-04   -0.68630E-06  1524   0.157E-02    0.861E-03
DAV:  21    -0.680257190494E+02   -0.23060E-05   -0.20690E-06  1320   0.100E-02    0.381E-03
DAV:  22    -0.680257171240E+02    0.19253E-05   -0.10761E-06  1464   0.622E-03    0.162E-03
DAV:  23    -0.680257192409E+02   -0.21168E-05   -0.83146E-08   684   0.218E-03    0.877E-04
DAV:  24    -0.680257197789E+02   -0.53809E-06   -0.12287E-08   648   0.102E-03    0.281E-04
DAV:  25    -0.680257201630E+02   -0.38405E-06   -0.64512E-09   648   0.598E-04    0.159E-04
DAV:  26    -0.680257202899E+02   -0.12692E-06   -0.10773E-09   648   0.219E-04    0.758E-05
DAV:  27    -0.680257202364E+02    0.53537E-07   -0.18053E-10   648   0.109E-04
   1 F= -.68025720E+02 E0= -.68025720E+02  d E =-.680257E+02  mag=    -0.0000
       N       E                     dE             d eps       ncg     rms          rms(c)
DAV:   1    -0.680302331686E+02   -0.45129E-02   -0.94944E-02  1296   0.278E+00    0.582E-01
DAV:   2    -0.680263016491E+02    0.39315E-02   -0.84420E-03  1296   0.751E-01    0.348E-01
DAV:   3    -0.680259463283E+02    0.35532E-03   -0.31610E-03  1332   0.392E-01    0.125E-01
DAV:   4    -0.680257792360E+02    0.16709E-03   -0.15728E-04  1500   0.115E-01    0.104E-01
DAV:   5    -0.680257904841E+02   -0.11248E-04   -0.38463E-04  1572   0.124E-01    0.670E-02
DAV:   6    -0.680257570206E+02    0.33463E-04   -0.77011E-05  1464   0.648E-02    0.215E-02
DAV:   7    -0.680257669364E+02   -0.99158E-05   -0.11825E-04  1524   0.647E-02    0.274E-02
DAV:   8    -0.680257624342E+02    0.45022E-05   -0.17020E-05  1392   0.313E-02    0.858E-03
DAV:   9    -0.680257638114E+02   -0.13772E-05   -0.74883E-06  1572   0.152E-02    0.106E-03
DAV:  10    -0.680257651095E+02   -0.12981E-05   -0.12687E-06  1380   0.596E-03    0.261E-03
DAV:  11    -0.680257647545E+02    0.35499E-06   -0.42095E-08   732   0.160E-03    0.231E-03
DAV:  12    -0.680257648705E+02   -0.11599E-06   -0.62496E-08   648   0.160E-03    0.142E-03
DAV:  13    -0.680257648517E+02    0.18762E-07   -0.10196E-07   648   0.183E-03
   2 F= -.68025765E+02 E0= -.68025765E+02  d E =-.446153E-04  mag=    -0.0000
       N       E                     dE             d eps       ncg     rms          rms(c)
DAV:   1    -0.680266241775E+02   -0.85931E-03   -0.18162E-02  1296   0.122E+00    0.255E-01
DAV:   2    -0.680256123154E+02    0.10119E-02   -0.16068E-03  1296   0.328E-01    0.153E-01
DAV:   3    -0.680257123310E+02   -0.10002E-03   -0.59968E-04  1332   0.171E-01    0.548E-02
DAV:   4    -0.680257999463E+02   -0.87615E-04   -0.30529E-05  1512   0.507E-02    0.455E-02
DAV:   5    -0.680257987351E+02    0.12112E-05   -0.72406E-05  1572   0.538E-02    0.291E-02
DAV:   6    -0.680257888739E+02    0.98612E-05   -0.14927E-05  1464   0.284E-02    0.924E-03
DAV:   7    -0.680257927968E+02   -0.39229E-05   -0.21512E-05  1512   0.276E-02    0.118E-02
DAV:   8    -0.680257881688E+02    0.46281E-05   -0.31457E-06  1392   0.134E-02    0.367E-03
DAV:   9    -0.680257875598E+02    0.60891E-06   -0.14028E-06  1572   0.660E-03    0.448E-04
DAV:  10    -0.680257872407E+02    0.31919E-06   -0.22600E-07   924   0.255E-03    0.113E-03
DAV:  11    -0.680257873690E+02   -0.12837E-06   -0.13910E-08   648   0.723E-04    0.105E-03
DAV:  12    -0.680257873163E+02    0.52705E-07   -0.11655E-08   648   0.769E-04
   3 F= -.68025787E+02 E0= -.68025787E+02  d E =-.670799E-04  mag=    -0.0000
