 vasp.5.4.4.18Apr17-6-g9f103f2a35 (build Apr 27 2017 11:13:10) complex          
  
 executed on           IFC91_ompi date 2020.05.13  11:36:52
 running on   12 total cores
 distrk:  each k-point on   12 cores,    1 groups
 distr:  one band on NCORES_PER_BAND=   1 cores,   12 groups


--------------------------------------------------------------------------------------------------------


 INCAR:
 POTCAR:    PAW_PBE Mn_pv 02Aug2007               
 POTCAR:    PAW_PBE F 08Apr2002                   

 ----------------------------------------------------------------------------- 
|                                                                             |
|           W    W    AA    RRRRR   N    N  II  N    N   GGGG   !!!           |
|           W    W   A  A   R    R  NN   N  II  NN   N  G    G  !!!           |
|           W    W  A    A  R    R  N N  N  II  N N  N  G       !!!           |
|           W WW W  AAAAAA  RRRRR   N  N N  II  N  N N  G  GGG   !            |
|           WW  WW  A    A  R   R   N   NN  II  N   NN  G    G                |
|           W    W  A    A  R    R  N    N  II  N    N   GGGG   !!!           |
|                                                                             |
|      For optimal performance we recommend to set                            |
|        NCORE= 4 - approx SQRT( number of cores)                             |
|      NCORE specifies how many cores store one orbital (NPAR=cpu/NCORE).     |
|      This setting can  greatly improve the performance of VASP for DFT.     |
|      The default,   NCORE=1            might be grossly inefficient         |
|      on modern multi-core architectures or massively parallel machines.     |
|      Do your own testing !!!!                                               |
|      Unfortunately you need to use the default for GW and RPA calculations. |
|      (for HF NCORE is supported but not extensively tested yet)             |
|                                                                             |
 ----------------------------------------------------------------------------- 

 POTCAR:    PAW_PBE Mn_pv 02Aug2007               
   VRHFIN =Mn: 3p4s3d                                                           
   LEXCH  = PE                                                                  
   EATOM  =  2025.2664 eV,  148.8529 Ry                                         
                                                                                
   TITEL  = PAW_PBE Mn_pv 02Aug2007                                             
   LULTRA =        F    use ultrasoft PP ?                                      
   IUNSCR =        1    unscreen: 0-lin 1-nonlin 2-no                           
   RPACOR =    2.080    partial core radius                                     
   POMASS =   54.938; ZVAL   =   13.000    mass and valenz                      
   RCORE  =    2.300    outmost cutoff radius                                   
   RWIGS  =    2.500; RWIGS  =    1.323    wigner-seitz radius (au A)           
   ENMAX  =  269.864; ENMIN  =  202.398 eV                                      
   ICORE  =        3    local potential                                         
   LCOR   =        T    correct aug charges                                     
   LPAW   =        T    paw PP                                                  
   EAUG   =  569.085                                                            
   DEXC   =    0.000                                                            
   RMAX   =    2.343    core radius for proj-oper                               
   RAUG   =    1.300    factor for augmentation sphere                          
   RDEP   =    2.338    radius for radial grids                                 
   RDEPT  =    1.798    core radius for aug-charge                              
                                                                                
   Atomic configuration                                                         
    8 entries                                                                   
     n  l   j            E        occ.                                          
     1  0  0.50     -6424.8287   2.0000                                         
     2  0  0.50      -739.1154   2.0000                                         
     2  1  1.50      -625.3949   6.0000                                         
     3  0  0.50       -81.6100   2.0000                                         
     3  1  1.50       -50.4667   6.0000                                         
     3  2  2.50        -3.3745   6.0000                                         
     4  0  0.50        -4.1331   1.0000                                         
     4  3  2.50        -1.3606   0.0000                                         
   Description                                                                  
     l       E           TYP  RCUT    TYP  RCUT                                 
     1    -50.4666628     23  2.000                                             
     1     -1.3605826     23  2.000                                             
     2     -3.3744729     23  2.300                                             
     2     -4.7350555     23  2.300                                             
     0     -4.1331431     23  2.300                                             
     0      7.6656591     23  2.300                                             
     3      9.5240782     23  2.300                                             
  local pseudopotential read in
  partial core-charges read in
  partial kinetic energy density read in
  atomic valenz-charges read in
  non local Contribution for L=           1  read in
    real space projection operators read in
  non local Contribution for L=           1  read in
    real space projection operators read in
  non local Contribution for L=           2  read in
    real space projection operators read in
  non local Contribution for L=           2  read in
    real space projection operators read in
  non local Contribution for L=           0  read in
    real space projection operators read in
  non local Contribution for L=           0  read in
    real space projection operators read in
    PAW grid and wavefunctions read in
 
   number of l-projection  operators is LMAX  =           6
   number of lm-projection operators is LMMAX =          18
 
 POTCAR:    PAW_PBE F 08Apr2002                   
   VRHFIN =F: s2p5                                                              
   LEXCH  = PE                                                                  
   EATOM  =   659.6475 eV,   48.4827 Ry                                         
                                                                                
   TITEL  = PAW_PBE F 08Apr2002                                                 
   LULTRA =        F    use ultrasoft PP ?                                      
   IUNSCR =        1    unscreen: 0-lin 1-nonlin 2-no                           
   RPACOR =    1.200    partial core radius                                     
   POMASS =   18.998; ZVAL   =    7.000    mass and valenz                      
   RCORE  =    1.520    outmost cutoff radius                                   
   RWIGS  =    1.500; RWIGS  =    0.794    wigner-seitz radius (au A)           
   ENMAX  =  400.000; ENMIN  =  300.000 eV                                      
   ICORE  =        2    local potential                                         
   LCOR   =        T    correct aug charges                                     
   LPAW   =        T    paw PP                                                  
   EAUG   =  613.614                                                            
   RMAX   =    1.555    core radius for proj-oper                               
   RAUG   =    1.300    factor for augmentation sphere                          
   RDEP   =    1.539    radius for radial grids                                 
   RDEPT  =    1.299    core radius for aug-charge                              
                                                                                
   Atomic configuration                                                         
    4 entries                                                                   
     n  l   j            E        occ.                                          
     1  0  0.50      -663.3661   2.0000                                         
     2  0  0.50       -29.8995   2.0000                                         
     2  1  0.50       -11.1114   5.0000                                         
     3  2  1.50       -10.8847   0.0000                                         
   Description                                                                  
     l       E           TYP  RCUT    TYP  RCUT                                 
     0    -29.8995018     23  1.200                                             
     0     -9.5240782     23  1.200                                             
     1    -11.1113914     23  1.520                                             
     1      1.3605826     23  1.520                                             
     2    -10.8846608      7  1.500                                             
  local pseudopotential read in
  partial core-charges read in
  partial kinetic energy density read in
  atomic valenz-charges read in
  non local Contribution for L=           0  read in
    real space projection operators read in
  non local Contribution for L=           0  read in
    real space projection operators read in
  non local Contribution for L=           1  read in
    real space projection operators read in
  non local Contribution for L=           1  read in
    real space projection operators read in
    PAW grid and wavefunctions read in
 
   number of l-projection  operators is LMAX  =           4
   number of lm-projection operators is LMMAX =           8
 
  PAW_PBE Mn_pv 02Aug2007               :
 energy of atom  1       EATOM=-2025.2664
 kinetic energy error for atom=    0.0062 (will be added to EATOM!!)
  PAW_PBE F 08Apr2002                   :
 energy of atom  2       EATOM= -659.6475
 kinetic energy error for atom=    0.0354 (will be added to EATOM!!)
 
 
 POSCAR: Mn  F                                   
  positions in cartesian coordinates
  No initial velocities read in

 METAGGA = SCAN     LMAXTAU =  6    LMIXTAU =  F

 exchange correlation table for  LEXCH =        8
   RHO(1)=    0.500       N(1)  =     2000
   RHO(2)=  100.500       N(2)  =     4000
 


--------------------------------------------------------------------------------------------------------


 ion  position               nearest neighbor table
   1  0.500  0.500  0.500-   3 2.09   4 2.09   5 2.12   6 2.12   5 2.12   6 2.12
   2  0.000  0.000  0.000-   5 2.09   6 2.09   3 2.12   4 2.12   3 2.12   4 2.12
   3  0.196  0.804  0.500-   1 2.09   2 2.12   2 2.12
   4  0.804  0.196  0.500-   1 2.09   2 2.12   2 2.12
   5  0.304  0.304  0.000-   2 2.09   1 2.12   1 2.12
   6  0.696  0.696  0.000-   2 2.09   1 2.12   1 2.12
 
  LATTYP: Found a simple tetragonal cell.
 ALAT       =     4.8525685001
 C/A-ratio  =     0.6775817662
  
  Lattice vectors:
  
 A1 = (   4.8525685001,   0.0000000000,   0.0000000000)
 A2 = (   0.0000000000,   4.8525685001,   0.0000000000)
 A3 = (   0.0000000000,   0.0000000000,   3.2880119349)


Analysis of symmetry for initial positions (statically):
=====================================================================
 Subroutine PRICEL returns:
 Original cell was already a primitive cell.
 

 Routine SETGRP: Setting up the symmetry group for a 
 simple tetragonal supercell.


 Subroutine GETGRP returns: Found 16 space group operations
 (whereof  8 operations were pure point group operations)
 out of a pool of 16 trial point group operations.


The static configuration has the point symmetry D_2h.
 The point group associated with its full space group is D_4h.


Analysis of symmetry for dynamics (positions and initial velocities):
=====================================================================
 Subroutine PRICEL returns:
 Original cell was already a primitive cell.
 

 Routine SETGRP: Setting up the symmetry group for a 
 simple tetragonal supercell.


 Subroutine GETGRP returns: Found 16 space group operations
 (whereof  8 operations were pure point group operations)
 out of a pool of 16 trial point group operations.


The dynamic configuration has the point symmetry D_2h.
 The point group associated with its full space group is D_4h.


Analysis of structural, dynamic, and magnetic symmetry:
=====================================================================
 Subroutine PRICEL returns:
 Original cell was already a primitive cell.
 

 Routine SETGRP: Setting up the symmetry group for a 
 simple tetragonal supercell.


 Subroutine GETGRP returns: Found 16 space group operations
 (whereof  8 operations were pure point group operations)
 out of a pool of 16 trial point group operations.


The magnetic configuration has the point symmetry D_2h.
 The point group associated with its full space group is D_4h.


 Subroutine INISYM returns: Found 16 space group operations
 (whereof  8 operations are pure point group operations),
 and found     1 'primitive' translations

 
 
 KPOINTS: KPOINTS created by Atomic Simulation Env

Automatic generation of k-mesh.
Space group operators:
 irot       det(A)        alpha          n_x          n_y          n_z        tau_x        tau_y        tau_z
    1     1.000000     0.000000     1.000000     0.000000     0.000000     0.000000     0.000000     0.000000
    2    -1.000000     0.000000     1.000000     0.000000     0.000000     0.000000     0.000000     0.000000
    3     1.000000   180.000000     0.000000     0.000000     1.000000     0.000000     0.000000     0.000000
    4    -1.000000   180.000000     0.000000     0.000000     1.000000     0.000000     0.000000     0.000000
    5     1.000000   180.000000     0.707107     0.707107     0.000000     0.000000     0.000000     0.000000
    6    -1.000000   180.000000     0.707107     0.707107     0.000000     0.000000     0.000000     0.000000
    7     1.000000   180.000000     0.707107    -0.707107     0.000000     0.000000     0.000000     0.000000
    8    -1.000000   180.000000     0.707107    -0.707107     0.000000     0.000000     0.000000     0.000000
    9     1.000000    90.000000     0.000000     0.000000    -1.000000     0.500000     0.500000     0.500000
   10    -1.000000    90.000000     0.000000     0.000000    -1.000000     0.500000     0.500000     0.500000
   11     1.000000    90.000000     0.000000     0.000000     1.000000     0.500000     0.500000     0.500000
   12    -1.000000    90.000000     0.000000     0.000000     1.000000     0.500000     0.500000     0.500000
   13     1.000000   180.000000     0.000000     1.000000     0.000000     0.500000     0.500000     0.500000
   14    -1.000000   180.000000     0.000000     1.000000     0.000000     0.500000     0.500000     0.500000
   15     1.000000   180.000000     1.000000     0.000000     0.000000     0.500000     0.500000     0.500000
   16    -1.000000   180.000000     1.000000     0.000000     0.000000     0.500000     0.500000     0.500000
 
 Subroutine IBZKPT returns following result:
 ===========================================
 
 Found      9 irreducible k-points:
 
 Following reciprocal coordinates:
            Coordinates               Weight
  0.125000  0.125000  0.083333      8.000000
  0.375000  0.125000  0.083333     16.000000
  0.375000  0.375000  0.083333      8.000000
  0.125000  0.125000  0.250000      8.000000
  0.375000  0.125000  0.250000     16.000000
  0.375000  0.375000  0.250000      8.000000
  0.125000  0.125000  0.416667      8.000000
  0.375000  0.125000  0.416667     16.000000
  0.375000  0.375000  0.416667      8.000000
 
 Following cartesian coordinates:
            Coordinates               Weight
  0.025760  0.025760  0.025345      8.000000
  0.077279  0.025760  0.025345     16.000000
  0.077279  0.077279  0.025345      8.000000
  0.025760  0.025760  0.076034      8.000000
  0.077279  0.025760  0.076034     16.000000
  0.077279  0.077279  0.076034      8.000000
  0.025760  0.025760  0.126723      8.000000
  0.077279  0.025760  0.126723     16.000000
  0.077279  0.077279  0.126723      8.000000
 


--------------------------------------------------------------------------------------------------------




 Dimension of arrays:
   k-points           NKPTS =      9   k-points in BZ     NKDIM =      9   number of bands    NBANDS=     36
   number of dos      NEDOS =    301   number of ions     NIONS =      6
   non local maximal  LDIM  =      6   non local SUM 2l+1 LMDIM =     18
   total plane-waves  NPLWV =  14112
   max r-space proj   IRMAX =      1   max aug-charges    IRDMAX=  44438
   dimension x,y,z NGX =    28 NGY =   28 NGZ =   18
   dimension x,y,z NGXF=    56 NGYF=   56 NGZF=   36
   support grid    NGXF=   112 NGYF=  112 NGZF=   72
   ions per type =               2   4
   NGX,Y,Z   is equivalent  to a cutoff of   9.59,  9.59,  9.10 a.u.
   NGXF,Y,Z  is equivalent  to a cutoff of  19.19, 19.19, 18.20 a.u.

 SYSTEM =  unknown system                          
 POSCAR =  Mn  F                                   

 Startparameter for this run:
   NWRITE =      2    write-flag & timer
   PREC   = normal    normal or accurate (medium, high low for compatibility)
   ISTART =      0    job   : 0-new  1-cont  2-samecut
   ICHARG =      2    charge: 1-file 2-atom 10-const
   ISPIN  =      2    spin polarized calculation?
   LNONCOLLINEAR =      F non collinear calculations
   LSORBIT =      F    spin-orbit coupling
   INIWAV =      1    electr: 0-lowe 1-rand  2-diag
   LASPH  =      T    aspherical Exc in radial PAW
   METAGGA=      F    non-selfconsistent MetaGGA calc.

 Electronic Relaxation 1
   ENCUT  =  500.0 eV  36.75 Ry    6.06 a.u.   8.85  8.85  5.99*2*pi/ulx,y,z
   ENINI  =  500.0     initial cutoff
   ENAUG  =  613.6 eV  augmentation charge cutoff
   NELM   =     60;   NELMIN=  2; NELMDL= -5     # of ELM steps 
   EDIFF  = 0.1E-06   stopping-criterion for ELM
   LREAL  =      F    real-space projection
   NLSPLINE    = F    spline interpolate recip. space projectors
   LCOMPAT=      F    compatible to vasp.4.4
   GGA_COMPAT  = T    GGA compatible to vasp.4.4-vasp.4.6
   LMAXPAW     = -100 max onsite density
   LMAXMIX     =    4 max onsite mixed and CHGCAR
   VOSKOWN=      0    Vosko Wilk Nusair interpolation
   ROPT   =    0.00000   0.00000
 Ionic relaxation
   EDIFFG = -.5E-02   stopping-criterion for IOM
   NSW    =     50    number of steps for IOM
   NBLOCK =      1;   KBLOCK =     50    inner block; outer block 
   IBRION =      2    ionic relax: 0-MD 1-quasi-New 2-CG
   NFREE  =      1    steps in history (QN), initial steepest desc. (CG)
   ISIF   =      3    stress and relaxation
   IWAVPR =     11    prediction:  0-non 1-charg 2-wave 3-comb
   ISYM   =      2    0-nonsym 1-usesym 2-fastsym
   LCORR  =      T    Harris-Foulkes like correction to forces

   POTIM  = 0.5000    time-step for ionic-motion
   TEIN   =    0.0    initial temperature
   TEBEG  =    0.0;   TEEND  =   0.0 temperature during run
   SMASS  =  -3.00    Nose mass-parameter (am)
   estimated Nose-frequenzy (Omega)   =  0.10E-29 period in steps =****** mass=  -0.538E-27a.u.
   SCALEE = 1.0000    scale energy and forces
   NPACO  =    256;   APACO  = 16.0  distance and # of slots for P.C.
   PSTRESS=    0.0 pullay stress

  Mass of Ions in am
   POMASS =  54.94 19.00
  Ionic Valenz
   ZVAL   =  13.00  7.00
  Atomic Wigner-Seitz radii
   RWIGS  =  -1.00 -1.00
  virtual crystal weights 
   VCA    =   1.00  1.00
   NELECT =      54.0000    total number of electrons
   NUPDOWN=      -1.0000    fix difference up-down

 DOS related values:
   EMIN   =  10.00;   EMAX   =-10.00  energy-range for DOS
   EFERMI =   0.00
   ISMEAR =     0;   SIGMA  =   0.02  broadening in eV -4-tet -1-fermi 0-gaus

 Electronic relaxation 2 (details)
   IALGO  =     38    algorithm
   LDIAG  =      T    sub-space diagonalisation (order eigenvalues)
   LSUBROT=      F    optimize rotation matrix (better conditioning)
   TURBO    =      0    0=normal 1=particle mesh
   IRESTART =      0    0=no restart 2=restart with 2 vectors
   NREBOOT  =      0    no. of reboots
   NMIN     =      0    reboot dimension
   EREF     =   0.00    reference energy to select bands
   IMIX   =      4    mixing-type and parameters
     AMIX     =   0.40;   BMIX     =  1.00
     AMIX_MAG =   1.60;   BMIX_MAG =  1.00
     AMIN     =   0.10
     WC   =   100.;   INIMIX=   1;  MIXPRE=   1;  MAXMIX= -45

 Intra band minimization:
   WEIMIN = 0.0010     energy-eigenvalue tresh-hold
   EBREAK =  0.69E-09  absolut break condition
   DEPER  =   0.30     relativ break condition  

   TIME   =   0.40     timestep for ELM

  volume/ion in A,a.u.               =      12.90        87.08
  Fermi-wavevector in a.u.,A,eV,Ry     =   1.451824  2.743549 28.678246  2.107792
  Thomas-Fermi vector in A             =   2.569276
 
 Write flags
   LWAVE        =      F    write WAVECAR
   LDOWNSAMPLE  =      F    k-point downsampling of WAVECAR
   LCHARG       =      F    write CHGCAR
   LVTOT        =      F    write LOCPOT, total local potential
   LVHAR        =      F    write LOCPOT, Hartree potential only
   LELF         =      F    write electronic localiz. function (ELF)
   LORBIT       =     11    0 simple, 1 ext, 2 COOP (PROOUT), +10 PAW based schemes


 Dipole corrections
   LMONO  =      F    monopole corrections only (constant potential shift)
   LDIPOL =      F    correct potential (dipole corrections)
   IDIPOL =      0    1-x, 2-y, 3-z, 4-all directions 
   EPSILON=  1.0000000 bulk dielectric constant

 LDA+U is selected, type is set to LDAUTYPE =  2
   angular momentum for each species LDAUL =     2   -1
   U (eV)           for each species LDAUU =   0.0  0.0
   J (eV)           for each species LDAUJ =   0.0  0.0
 Exchange correlation treatment:
   GGA     =    --    GGA type
   LEXCH   =     8    internal setting for exchange type
   VOSKOWN=      0    Vosko Wilk Nusair interpolation
   LHFCALC =     F    Hartree Fock is set to
   LHFONE  =     F    Hartree Fock one center treatment
   AEXX    =    0.0000 exact exchange contribution

 Linear response parameters
   LEPSILON=     F    determine dielectric tensor
   LRPA    =     F    only Hartree local field effects (RPA)
   LNABLA  =     F    use nabla operator in PAW spheres
   LVEL    =     F    velocity operator in full k-point grid
   LINTERFAST=   F  fast interpolation
   KINTER  =     0    interpolate to denser k-point grid
   CSHIFT  =0.1000    complex shift for real part using Kramers Kronig
   OMEGAMAX=  -1.0    maximum frequency
   DEG_THRESHOLD= 0.2000000E-02 threshold for treating states as degnerate
   RTIME   =   -0.100 relaxation time in fs
  (WPLASMAI=    0.000 imaginary part of plasma frequency in eV, 0.658/RTIME)
   DFIELD  = 0.0000000 0.0000000 0.0000000 field for delta impulse in time
 
 Orbital magnetization related:
   ORBITALMAG=     F  switch on orbital magnetization
   LCHIMAG   =     F  perturbation theory with respect to B field
   DQ        =  0.001000  dq finite difference perturbation B field
   LLRAUG    =     F  two centre corrections for induced B field



--------------------------------------------------------------------------------------------------------


 conjugate gradient relaxation of ions
 charge density and potential will be updated during run
 spin polarized calculation
 Variant of blocked Davidson
 Davidson routine will perform the subspace rotation
 perform sub-space diagonalisation
    after iterative eigenvector-optimisation
 modified Broyden-mixing scheme, WC =      100.0
 initial mixing is a Kerker type mixing with AMIX =  0.4000 and BMIX =      1.0000
 Hartree-type preconditioning will be used
 using additional bands            9
 reciprocal scheme for non local part
 use partial core corrections
 calculate Harris-corrections to forces 
   (improved forces if not selfconsistent)
 use gradient corrections 
 use of overlap-Matrix (Vanderbilt PP)
 Gauss-broadening in eV      SIGMA  =   0.02


--------------------------------------------------------------------------------------------------------


  energy-cutoff  :      500.00
  volume of cell :       77.42
      direct lattice vectors                 reciprocal lattice vectors
     4.852568500  0.000000000  0.000000000     0.206076431  0.000000000  0.000000000
     0.000000000  4.852568500  0.000000000     0.000000000  0.206076431  0.000000000
     0.000000000  0.000000000  3.288011935     0.000000000  0.000000000  0.304135149

  length of vectors
     4.852568500  4.852568500  3.288011935     0.206076431  0.206076431  0.304135149


 
 k-points in units of 2pi/SCALE and weight: KPOINTS created by Atomic Simulation Env
   0.02575955  0.02575955  0.02534460       0.083
   0.07727866  0.02575955  0.02534460       0.167
   0.07727866  0.07727866  0.02534460       0.083
   0.02575955  0.02575955  0.07603379       0.083
   0.07727866  0.02575955  0.07603379       0.167
   0.07727866  0.07727866  0.07603379       0.083
   0.02575955  0.02575955  0.12672298       0.083
   0.07727866  0.02575955  0.12672298       0.167
   0.07727866  0.07727866  0.12672298       0.083
 
 k-points in reciprocal lattice and weights: KPOINTS created by Atomic Simulation Env
   0.12500000  0.12500000  0.08333333       0.083
   0.37500000  0.12500000  0.08333333       0.167
   0.37500000  0.37500000  0.08333333       0.083
   0.12500000  0.12500000  0.25000000       0.083
   0.37500000  0.12500000  0.25000000       0.167
   0.37500000  0.37500000  0.25000000       0.083
   0.12500000  0.12500000  0.41666667       0.083
   0.37500000  0.12500000  0.41666667       0.167
   0.37500000  0.37500000  0.41666667       0.083
 
 position of ions in fractional coordinates (direct lattice) 
   0.50000000  0.50000000  0.50000000
   0.00000000  0.00000000  0.00000000
   0.19609954  0.80390046  0.50000000
   0.80390046  0.19609954  0.50000000
   0.30390046  0.30390046  0.00000000
   0.69609954  0.69609954  0.00000000
 
 position of ions in cartesian coordinates  (Angst):
   2.42628425  2.42628425  1.64400597
   0.00000000  0.00000000  0.00000000
   0.95158645  3.90098205  1.64400597
   3.90098205  0.95158645  1.64400597
   1.47469780  1.47469780  0.00000000
   3.37787070  3.37787070  0.00000000
 


--------------------------------------------------------------------------------------------------------


 k-point  1 :   0.1250 0.1250 0.0833  plane waves:    1952
 k-point  2 :   0.3750 0.1250 0.0833  plane waves:    1960
 k-point  3 :   0.3750 0.3750 0.0833  plane waves:    1955
 k-point  4 :   0.1250 0.1250 0.2500  plane waves:    1972
 k-point  5 :   0.3750 0.1250 0.2500  plane waves:    1960
 k-point  6 :   0.3750 0.3750 0.2500  plane waves:    1972
 k-point  7 :   0.1250 0.1250 0.4167  plane waves:    1972
 k-point  8 :   0.3750 0.1250 0.4167  plane waves:    1959
 k-point  9 :   0.3750 0.3750 0.4167  plane waves:    1994

 maximum and minimum number of plane-waves per node :      1994     1952

 maximum number of plane-waves:      1994
 maximum index in each direction: 
   IXMAX=    8   IYMAX=    8   IZMAX=    5
   IXMIN=   -9   IYMIN=   -9   IZMIN=   -6


 serial   3D FFT for wavefunctions
 parallel 3D FFT for charge:
    minimum data exchange during FFTs selected (reduces bandwidth)


 total amount of memory used by VASP MPI-rank0    41985. kBytes
=======================================================================

   base      :      30000. kBytes
   nonl-proj :       5386. kBytes
   fftplans  :       1551. kBytes
   grid      :       3069. kBytes
   one-center:        186. kBytes
   wavefun   :       1793. kBytes
 
     INWAV:  cpu time    0.0000: real time    0.0000
 Broyden mixing: mesh for mixing (old mesh)
   NGX = 17   NGY = 17   NGZ = 11
  (NGX  = 56   NGY  = 56   NGZ  = 36)
  gives a total of   3179 points

 initial charge density was supplied:
 charge density of overlapping atoms calculated
 number of electron      54.0000000 magnetization       0.0000000
 keeping initial charge density in first step


--------------------------------------------------------------------------------------------------------


 Maximum index for augmentation-charges         4578 (set IRDMAX)


--------------------------------------------------------------------------------------------------------


 First call to EWALD:  gamma=   0.416
 Maximum number of real-space cells 2x 2x 3
 Maximum number of reciprocal cells 3x 3x 2

    FEWALD:  cpu time    0.0010: real time    0.0010


--------------------------------------- Iteration      1(   1)  ---------------------------------------


    POTLOK:  cpu time    0.0305: real time    0.0305
    SETDIJ:  cpu time    0.7697: real time    0.7697
atom =   1  type =  1  l = 2
 
 onsite density matrix
 
spin component  1
 
  0.2835  0.0000  0.0000  0.0000  0.0000
  0.0000  0.2835  0.0000  0.0000  0.0000
  0.0000  0.0000  0.2835  0.0000  0.0000
  0.0000  0.0000  0.0000  0.2835  0.0000
  0.0000  0.0000  0.0000  0.0000  0.2835
 
spin component  2
 
  0.7694  0.0000  0.0000  0.0000  0.0000
  0.0000  0.7694  0.0000  0.0000  0.0000
  0.0000  0.0000  0.7694  0.0000  0.0000
  0.0000  0.0000  0.0000  0.7694  0.0000
  0.0000  0.0000  0.0000  0.0000  0.7694
 
 occupancies and eigenvectors
 
  o =  0.2835  v =  1.0000  0.0000  0.0000  0.0000  0.0000  0.0000  0.0000  0.0000  0.0000  0.0000      0.0000  0.0000  0.0000  0.0000  0.0000  0.0000  0.0000  0.0000  0.0000  0.0000
  o =  0.2835  v =  0.0000  1.0000  0.0000  0.0000  0.0000  0.0000  0.0000  0.0000  0.0000  0.0000      0.0000  0.0000  0.0000  0.0000  0.0000  0.0000  0.0000  0.0000  0.0000  0.0000
  o =  0.2835  v =  0.0000  0.0000  1.0000  0.0000  0.0000  0.0000  0.0000  0.0000  0.0000  0.0000      0.0000  0.0000  0.0000  0.0000  0.0000  0.0000  0.0000  0.0000  0.0000  0.0000
  o =  0.2835  v =  0.0000  0.0000  0.0000  1.0000  0.0000  0.0000  0.0000  0.0000  0.0000  0.0000      0.0000  0.0000  0.0000  0.0000  0.0000  0.0000  0.0000  0.0000  0.0000  0.0000
  o =  0.2835  v =  0.0000  0.0000  0.0000  0.0000  1.0000  0.0000  0.0000  0.0000  0.0000  0.0000      0.0000  0.0000  0.0000  0.0000  0.0000  0.0000  0.0000  0.0000  0.0000  0.0000
  o =  0.7694  v =  0.0000  0.0000  0.0000  0.0000  0.0000  1.0000  0.0000  0.0000  0.0000  0.0000      0.0000  0.0000  0.0000  0.0000  0.0000  0.0000  0.0000  0.0000  0.0000  0.0000
  o =  0.7694  v =  0.0000  0.0000  0.0000  0.0000  0.0000  0.0000  1.0000  0.0000  0.0000  0.0000      0.0000  0.0000  0.0000  0.0000  0.0000  0.0000  0.0000  0.0000  0.0000  0.0000
  o =  0.7694  v =  0.0000  0.0000  0.0000  0.0000  0.0000  0.0000  0.0000  1.0000  0.0000  0.0000      0.0000  0.0000  0.0000  0.0000  0.0000  0.0000  0.0000  0.0000  0.0000  0.0000
  o =  0.7694  v =  0.0000  0.0000  0.0000  0.0000  0.0000  0.0000  0.0000  0.0000  1.0000  0.0000      0.0000  0.0000  0.0000  0.0000  0.0000  0.0000  0.0000  0.0000  0.0000  0.0000
  o =  0.7694  v =  0.0000  0.0000  0.0000  0.0000  0.0000  0.0000  0.0000  0.0000  0.0000  1.0000      0.0000  0.0000  0.0000  0.0000  0.0000  0.0000  0.0000  0.0000  0.0000  0.0000
atom =   2  type =  1  l = 2
 
 onsite density matrix
 
spin component  1
 
  0.7694  0.0000  0.0000  0.0000  0.0000
  0.0000  0.7694  0.0000  0.0000  0.0000
  0.0000  0.0000  0.7694  0.0000  0.0000
  0.0000  0.0000  0.0000  0.7694  0.0000
  0.0000  0.0000  0.0000  0.0000  0.7694
 
spin component  2
 
  0.2835  0.0000  0.0000  0.0000  0.0000
  0.0000  0.2835  0.0000  0.0000  0.0000
  0.0000  0.0000  0.2835  0.0000  0.0000
  0.0000  0.0000  0.0000  0.2835  0.0000
  0.0000  0.0000  0.0000  0.0000  0.2835
 
 occupancies and eigenvectors
 
  o =  0.2835  v =  0.0000  0.0000  0.0000  0.0000  0.0000  1.0000  0.0000  0.0000  0.0000  0.0000      0.0000  0.0000  0.0000  0.0000  0.0000  0.0000  0.0000  0.0000  0.0000  0.0000
  o =  0.2835  v =  0.0000  0.0000  0.0000  0.0000  0.0000  0.0000  1.0000  0.0000  0.0000  0.0000      0.0000  0.0000  0.0000  0.0000  0.0000  0.0000  0.0000  0.0000  0.0000  0.0000
  o =  0.2835  v =  0.0000  0.0000  0.0000  0.0000  0.0000  0.0000  0.0000  1.0000  0.0000  0.0000      0.0000  0.0000  0.0000  0.0000  0.0000  0.0000  0.0000  0.0000  0.0000  0.0000
  o =  0.2835  v =  0.0000  0.0000  0.0000  0.0000  0.0000  0.0000  0.0000  0.0000  1.0000  0.0000      0.0000  0.0000  0.0000  0.0000  0.0000  0.0000  0.0000  0.0000  0.0000  0.0000
  o =  0.2835  v =  0.0000  0.0000  0.0000  0.0000  0.0000  0.0000  0.0000  0.0000  0.0000  1.0000      0.0000  0.0000  0.0000  0.0000  0.0000  0.0000  0.0000  0.0000  0.0000  0.0000
  o =  0.7694  v =  1.0000  0.0000  0.0000  0.0000  0.0000  0.0000  0.0000  0.0000  0.0000  0.0000      0.0000  0.0000  0.0000  0.0000  0.0000  0.0000  0.0000  0.0000  0.0000  0.0000
  o =  0.7694  v =  0.0000  1.0000  0.0000  0.0000  0.0000  0.0000  0.0000  0.0000  0.0000  0.0000      0.0000  0.0000  0.0000  0.0000  0.0000  0.0000  0.0000  0.0000  0.0000  0.0000
  o =  0.7694  v =  0.0000  0.0000  1.0000  0.0000  0.0000  0.0000  0.0000  0.0000  0.0000  0.0000      0.0000  0.0000  0.0000  0.0000  0.0000  0.0000  0.0000  0.0000  0.0000  0.0000
  o =  0.7694  v =  0.0000  0.0000  0.0000  1.0000  0.0000  0.0000  0.0000  0.0000  0.0000  0.0000      0.0000  0.0000  0.0000  0.0000  0.0000  0.0000  0.0000  0.0000  0.0000  0.0000
  o =  0.7694  v =  0.0000  0.0000  0.0000  0.0000  1.0000  0.0000  0.0000  0.0000  0.0000  0.0000      0.0000  0.0000  0.0000  0.0000  0.0000  0.0000  0.0000  0.0000  0.0000  0.0000
     EDDAV:  cpu time    0.5748: real time    0.5955
       DOS:  cpu time    0.0003: real time    0.0003
    --------------------------------------------
      LOOP:  cpu time    1.3753: real time    1.3960

 eigenvalue-minimisations  :  1332
 total energy-change (2. order) : 0.9110961E+03  (-0.3402484E+04)
 number of electron      54.0000000 magnetization       0.0000000
 augmentation part       54.0000000 magnetization       0.0000000

 Free energy of the ion-electron system (eV)
  ---------------------------------------------------
  alpha Z        PSCENC =       199.38838823
  Ewald energy   TEWEN  =     -4203.06823030
  -Hartree energ DENC   =     -2130.62061714
  -exchange      EXHF   =         0.00000000
  -V(xc)+E(xc)   XCENC  =        -3.96107991
  PAW double counting   =      5566.43601843    -5528.13058630
  entropy T*S    EENTRO =        -0.00000106
  eigenvalues    EBANDS =       322.08342304
  atomic energy  EATOM  =      6688.96875309
  Solvation  Ediel_sol  =         0.00000000
  ---------------------------------------------------
  free energy    TOTEN  =       911.09606809 eV

  energy without entropy =      911.09606915  energy(sigma->0) =      911.09606862


--------------------------------------------------------------------------------------------------------




--------------------------------------- Iteration      1(   2)  ---------------------------------------


     EDDAV:  cpu time    0.6109: real time    0.6109
       DOS:  cpu time    0.0002: real time    0.0002
    --------------------------------------------
      LOOP:  cpu time    0.6111: real time    0.6111

 eigenvalue-minimisations  :  1488
 total energy-change (2. order) :-0.5143079E+03  (-0.4920497E+03)
 number of electron      54.0000000 magnetization       0.0000000
 augmentation part       54.0000000 magnetization       0.0000000

 Free energy of the ion-electron system (eV)
  ---------------------------------------------------
  alpha Z        PSCENC =       199.38838823
  Ewald energy   TEWEN  =     -4203.06823030
  -Hartree energ DENC   =     -2130.62061714
  -exchange      EXHF   =         0.00000000
  -V(xc)+E(xc)   XCENC  =        -3.96107991
  PAW double counting   =      5566.43601843    -5528.13058630
  entropy T*S    EENTRO =        -0.00000000
  eigenvalues    EBANDS =      -192.22449421
  atomic energy  EATOM  =      6688.96875309
  Solvation  Ediel_sol  =         0.00000000
  ---------------------------------------------------
  free energy    TOTEN  =       396.78815191 eV

  energy without entropy =      396.78815191  energy(sigma->0) =      396.78815191


--------------------------------------------------------------------------------------------------------




--------------------------------------- Iteration      1(   3)  ---------------------------------------


     EDDAV:  cpu time    0.6155: real time    0.6155
       DOS:  cpu time    0.0002: real time    0.0002
    --------------------------------------------
      LOOP:  cpu time    0.6157: real time    0.6157

 eigenvalue-minimisations  :  1476
 total energy-change (2. order) :-0.3101602E+02  (-0.3078885E+02)
 number of electron      54.0000000 magnetization       0.0000000
 augmentation part       54.0000000 magnetization       0.0000000

 Free energy of the ion-electron system (eV)
  ---------------------------------------------------
  alpha Z        PSCENC =       199.38838823
  Ewald energy   TEWEN  =     -4203.06823030
  -Hartree energ DENC   =     -2130.62061714
  -exchange      EXHF   =         0.00000000
  -V(xc)+E(xc)   XCENC  =        -3.96107991
  PAW double counting   =      5566.43601843    -5528.13058630
  entropy T*S    EENTRO =        -0.00000000
  eigenvalues    EBANDS =      -223.24051263
  atomic energy  EATOM  =      6688.96875309
  Solvation  Ediel_sol  =         0.00000000
  ---------------------------------------------------
  free energy    TOTEN  =       365.77213348 eV

  energy without entropy =      365.77213348  energy(sigma->0) =      365.77213348


--------------------------------------------------------------------------------------------------------




--------------------------------------- Iteration      1(   4)  ---------------------------------------


     EDDAV:  cpu time    0.6455: real time    0.6455
       DOS:  cpu time    0.0002: real time    0.0002
    --------------------------------------------
      LOOP:  cpu time    0.6457: real time    0.6457

 eigenvalue-minimisations  :  1560
 total energy-change (2. order) :-0.3534824E+00  (-0.3531832E+00)
 number of electron      54.0000000 magnetization       0.0000000
 augmentation part       54.0000000 magnetization       0.0000000

 Free energy of the ion-electron system (eV)
  ---------------------------------------------------
  alpha Z        PSCENC =       199.38838823
  Ewald energy   TEWEN  =     -4203.06823030
  -Hartree energ DENC   =     -2130.62061714
  -exchange      EXHF   =         0.00000000
  -V(xc)+E(xc)   XCENC  =        -3.96107991
  PAW double counting   =      5566.43601843    -5528.13058630
  entropy T*S    EENTRO =        -0.00000000
  eigenvalues    EBANDS =      -223.59399501
  atomic energy  EATOM  =      6688.96875309
  Solvation  Ediel_sol  =         0.00000000
  ---------------------------------------------------
  free energy    TOTEN  =       365.41865110 eV

  energy without entropy =      365.41865110  energy(sigma->0) =      365.41865110


--------------------------------------------------------------------------------------------------------




--------------------------------------- Iteration      1(   5)  ---------------------------------------


     EDDAV:  cpu time    0.6290: real time    0.6290
       DOS:  cpu time    0.0002: real time    0.0002
    CHARGE:  cpu time    0.1187: real time    0.1187
    MIXING:  cpu time    0.0004: real time    0.0004
    --------------------------------------------
      LOOP:  cpu time    0.7484: real time    0.7484

 eigenvalue-minimisations  :  1500
 total energy-change (2. order) :-0.6013625E-02  (-0.6013371E-02)
 number of electron      53.9999996 magnetization      -0.0000000
 augmentation part       22.5994418 magnetization      -0.0000000

 Broyden mixing:
  rms(total) = 0.58750E+01    rms(broyden)= 0.58736E+01
  rms(prec ) = 0.60947E+01
  weight for this iteration     100.00

 Free energy of the ion-electron system (eV)
  ---------------------------------------------------
  alpha Z        PSCENC =       199.38838823
  Ewald energy   TEWEN  =     -4203.06823030
  -Hartree energ DENC   =     -2130.62061714
  -exchange      EXHF   =         0.00000000
  -V(xc)+E(xc)   XCENC  =        -3.96107991
  PAW double counting   =      5566.43601843    -5528.13058630
  entropy T*S    EENTRO =        -0.00000000
  eigenvalues    EBANDS =      -223.60000864
  atomic energy  EATOM  =      6688.96875309
  Solvation  Ediel_sol  =         0.00000000
  ---------------------------------------------------
  free energy    TOTEN  =       365.41263748 eV

  energy without entropy =      365.41263748  energy(sigma->0) =      365.41263748


--------------------------------------------------------------------------------------------------------




--------------------------------------- Iteration      1(   6)  ---------------------------------------


    POTLOK:  cpu time    0.0279: real time    0.0279
    SETDIJ:  cpu time    0.7861: real time    0.7861
atom =   1  type =  1  l = 2
 
 onsite density matrix
 
spin component  1
 
  0.0282  0.0000  0.0640  0.0000  0.0000
  0.0000  0.0023  0.0000  0.0592  0.0000
  0.0640  0.0000 -0.0083  0.0000 -0.0000
  0.0000  0.0592  0.0000  0.0023  0.0000
  0.0000  0.0000 -0.0000  0.0000 -0.0712
 
spin component  2
 
  1.0609  0.0000 -0.0302  0.0000 -0.0000
  0.0000  1.0741  0.0000 -0.0282  0.0000
 -0.0302  0.0000  1.0775  0.0000 -0.0000
  0.0000 -0.0282  0.0000  1.0741  0.0000
 -0.0000  0.0000 -0.0000  0.0000  1.1094
 
 occupancies and eigenvectors
 
  o = -0.0712  v =  0.0000  0.0000 -0.0000  0.0000 -1.0000  0.0000  0.0000  0.0000  0.0000  0.0000      0.0000  0.0000  0.0000  0.0000  0.0000  0.0000  0.0000  0.0000  0.0000  0.0000
  o = -0.0569  v =  0.0000 -0.7071  0.0000  0.7071 -0.0000  0.0000  0.0000  0.0000  0.0000  0.0000      0.0000  0.0000  0.0000  0.0000  0.0000  0.0000  0.0000  0.0000  0.0000  0.0000
  o = -0.0566  v = -0.6022  0.0000  0.7983  0.0000 -0.0000  0.0000  0.0000  0.0000  0.0000  0.0000      0.0000  0.0000  0.0000  0.0000  0.0000  0.0000  0.0000  0.0000  0.0000  0.0000
  o =  0.0614  v =  0.0000 -0.7071  0.0000 -0.7071 -0.0000  0.0000  0.0000  0.0000  0.0000  0.0000      0.0000  0.0000  0.0000  0.0000  0.0000  0.0000  0.0000  0.0000  0.0000  0.0000
  o =  0.0765  v =  0.7983  0.0000  0.6022  0.0000 -0.0000  0.0000  0.0000  0.0000  0.0000  0.0000      0.0000  0.0000  0.0000  0.0000  0.0000  0.0000  0.0000  0.0000  0.0000  0.0000
  o =  1.0379  v =  0.0000  0.0000  0.0000  0.0000  0.0000  0.7956 -0.0000  0.6058 -0.0000  0.0000      0.0000  0.0000  0.0000  0.0000  0.0000  0.0000  0.0000  0.0000  0.0000  0.0000
  o =  1.0459  v =  0.0000  0.0000  0.0000  0.0000  0.0000 -0.0000 -0.7071 -0.0000 -0.7071  0.0000      0.0000  0.0000  0.0000  0.0000  0.0000  0.0000  0.0000  0.0000  0.0000  0.0000
  o =  1.1005  v =  0.0000  0.0000  0.0000  0.0000  0.0000 -0.6058 -0.0000  0.7956  0.0000  0.0000      0.0000  0.0000  0.0000  0.0000  0.0000  0.0000  0.0000  0.0000  0.0000  0.0000
  o =  1.1023  v =  0.0000  0.0000  0.0000  0.0000  0.0000  0.0000 -0.7071 -0.0000  0.7071  0.0000      0.0000  0.0000  0.0000  0.0000  0.0000  0.0000  0.0000  0.0000  0.0000  0.0000
  o =  1.1094  v =  0.0000  0.0000  0.0000  0.0000  0.0000 -0.0000 -0.0000  0.0000  0.0000 -1.0000      0.0000  0.0000  0.0000  0.0000  0.0000  0.0000  0.0000  0.0000  0.0000  0.0000
atom =   2  type =  1  l = 2
 
 onsite density matrix
 
spin component  1
 
  1.0609  0.0000  0.0302  0.0000 -0.0000
  0.0000  1.0741  0.0000  0.0282  0.0000
  0.0302  0.0000  1.0775  0.0000 -0.0000
  0.0000  0.0282  0.0000  1.0741  0.0000
 -0.0000  0.0000 -0.0000  0.0000  1.1094
 
spin component  2
 
  0.0282  0.0000 -0.0640  0.0000  0.0000
  0.0000  0.0023  0.0000 -0.0592  0.0000
 -0.0640  0.0000 -0.0083  0.0000 -0.0000
  0.0000 -0.0592  0.0000  0.0023  0.0000
  0.0000  0.0000 -0.0000  0.0000 -0.0712
 
 occupancies and eigenvectors
 
  o = -0.0712  v =  0.0000  0.0000  0.0000  0.0000  0.0000  0.0000 -0.0000  0.0000  0.0000  1.0000      0.0000  0.0000  0.0000  0.0000  0.0000  0.0000  0.0000  0.0000  0.0000  0.0000
  o = -0.0569  v =  0.0000  0.0000  0.0000  0.0000  0.0000  0.0000 -0.7071  0.0000 -0.7071 -0.0000      0.0000  0.0000  0.0000  0.0000  0.0000  0.0000  0.0000  0.0000  0.0000  0.0000
  o = -0.0566  v =  0.0000  0.0000  0.0000  0.0000  0.0000 -0.6022  0.0000 -0.7983  0.0000  0.0000      0.0000  0.0000  0.0000  0.0000  0.0000  0.0000  0.0000  0.0000  0.0000  0.0000
  o =  0.0614  v =  0.0000  0.0000  0.0000  0.0000  0.0000  0.0000  0.7071  0.0000 -0.7071  0.0000      0.0000  0.0000  0.0000  0.0000  0.0000  0.0000  0.0000  0.0000  0.0000  0.0000
  o =  0.0765  v =  0.0000  0.0000  0.0000  0.0000  0.0000 -0.7983  0.0000  0.6022  0.0000 -0.0000      0.0000  0.0000  0.0000  0.0000  0.0000  0.0000  0.0000  0.0000  0.0000  0.0000
  o =  1.0379  v = -0.7956  0.0000  0.6058  0.0000 -0.0000  0.0000  0.0000  0.0000  0.0000  0.0000      0.0000  0.0000  0.0000  0.0000  0.0000  0.0000  0.0000  0.0000  0.0000  0.0000
  o =  1.0459  v =  0.0000  0.7071  0.0000 -0.7071 -0.0000  0.0000  0.0000  0.0000  0.0000  0.0000      0.0000  0.0000  0.0000  0.0000  0.0000  0.0000  0.0000  0.0000  0.0000  0.0000
  o =  1.1005  v = -0.6058  0.0000 -0.7956  0.0000  0.0000  0.0000  0.0000  0.0000  0.0000  0.0000      0.0000  0.0000  0.0000  0.0000  0.0000  0.0000  0.0000  0.0000  0.0000  0.0000
  o =  1.1023  v =  0.0000  0.7071  0.0000  0.7071 -0.0000  0.0000  0.0000  0.0000  0.0000  0.0000      0.0000  0.0000  0.0000  0.0000  0.0000  0.0000  0.0000  0.0000  0.0000  0.0000
  o =  1.1094  v =  0.0000 -0.0000 -0.0000  0.0000 -1.0000  0.0000  0.0000  0.0000  0.0000  0.0000      0.0000  0.0000  0.0000  0.0000  0.0000  0.0000  0.0000  0.0000  0.0000  0.0000
     EDDAV:  cpu time    0.6447: real time    0.6447
       DOS:  cpu time    0.0004: real time    0.0004
    CHARGE:  cpu time    0.1175: real time    0.1175
    MIXING:  cpu time    0.0004: real time    0.0004
    --------------------------------------------
      LOOP:  cpu time    1.5770: real time    1.5770

 eigenvalue-minimisations  :  1584
 total energy-change (2. order) :-0.4345743E+03  (-0.2663165E+02)
 number of electron      53.9999997 magnetization      -0.0000000
 augmentation part       19.7028450 magnetization      -0.0000000

 Broyden mixing:
  rms(total) = 0.62483E+01    rms(broyden)= 0.62481E+01
  rms(prec ) = 0.67280E+01
  weight for this iteration     100.00

 eigenvalues of (default mixing * dielectric matrix)
  average eigenvalue GAMMA=   0.4173
  0.4173

 Free energy of the ion-electron system (eV)
  ---------------------------------------------------
  alpha Z        PSCENC =       199.38838823
  Ewald energy   TEWEN  =     -4203.06823030
  -Hartree energ DENC   =     -2196.75678182
  -exchange      EXHF   =         0.00000000
  -V(xc)+E(xc)   XCENC  =       144.56925436
  PAW double counting   =      6430.22051255    -6396.66543952
  entropy T*S    EENTRO =        -0.00149834
  eigenvalues    EBANDS =      -735.81667064
  atomic energy  EATOM  =      6688.96875309
  Solvation  Ediel_sol  =         0.00000000
  ---------------------------------------------------
  free energy    TOTEN  =       -69.16171238 eV

  energy without entropy =      -69.16021404  energy(sigma->0) =      -69.16096321


--------------------------------------------------------------------------------------------------------




--------------------------------------- Iteration      1(   7)  ---------------------------------------


    POTLOK:  cpu time    0.0280: real time    0.0280
    SETDIJ:  cpu time    0.7709: real time    0.7709
atom =   1  type =  1  l = 2
 
 onsite density matrix
 
spin component  1
 
  0.0813  0.0000  0.0356  0.0000  0.0000
  0.0000  0.0526  0.0000  0.0239  0.0000
  0.0356  0.0000  0.0564  0.0000 -0.0000
  0.0000  0.0239  0.0000  0.0526  0.0000
  0.0000  0.0000 -0.0000  0.0000  0.0194
 
spin component  2
 
  0.9760  0.0000 -0.0058  0.0000 -0.0000
  0.0000  1.0032  0.0000  0.0085  0.0000
 -0.0058  0.0000  0.9880  0.0000 -0.0000
  0.0000  0.0085  0.0000  1.0032  0.0000
 -0.0000  0.0000 -0.0000  0.0000  0.9982
 
 occupancies and eigenvectors
 
  o =  0.0194  v =  0.0000  0.0000 -0.0000  0.0000 -1.0000  0.0000  0.0000  0.0000  0.0000  0.0000      0.0000  0.0000  0.0000  0.0000  0.0000  0.0000  0.0000  0.0000  0.0000  0.0000
  o =  0.0287  v =  0.0000 -0.7071  0.0000  0.7071 -0.0000  0.0000  0.0000  0.0000  0.0000  0.0000      0.0000  0.0000  0.0000  0.0000  0.0000  0.0000  0.0000  0.0000  0.0000  0.0000
  o =  0.0312  v = -0.5789  0.0000  0.8154  0.0000 -0.0000  0.0000  0.0000  0.0000  0.0000  0.0000      0.0000  0.0000  0.0000  0.0000  0.0000  0.0000  0.0000  0.0000  0.0000  0.0000
  o =  0.0765  v =  0.0000 -0.7071  0.0000 -0.7071 -0.0000  0.0000  0.0000  0.0000  0.0000  0.0000      0.0000  0.0000  0.0000  0.0000  0.0000  0.0000  0.0000  0.0000  0.0000  0.0000
  o =  0.1066  v = -0.8154 -0.0000 -0.5789  0.0000  0.0000  0.0000  0.0000  0.0000  0.0000  0.0000      0.0000  0.0000  0.0000  0.0000  0.0000  0.0000  0.0000  0.0000  0.0000  0.0000
  o =  0.9737  v =  0.0000  0.0000  0.0000  0.0000  0.0000  0.9268  0.0000  0.3755  0.0000  0.0000      0.0000  0.0000  0.0000  0.0000  0.0000  0.0000  0.0000  0.0000  0.0000  0.0000
  o =  0.9903  v =  0.0000  0.0000  0.0000  0.0000  0.0000 -0.3755  0.0000  0.9268  0.0000  0.0000      0.0000  0.0000  0.0000  0.0000  0.0000  0.0000  0.0000  0.0000  0.0000  0.0000
  o =  0.9947  v =  0.0000  0.0000  0.0000  0.0000  0.0000  0.0000  0.7071  0.0000 -0.7071 -0.0000      0.0000  0.0000  0.0000  0.0000  0.0000  0.0000  0.0000  0.0000  0.0000  0.0000
  o =  0.9982  v =  0.0000  0.0000  0.0000  0.0000  0.0000  0.0000  0.0000 -0.0000  0.0000  1.0000      0.0000  0.0000  0.0000  0.0000  0.0000  0.0000  0.0000  0.0000  0.0000  0.0000
  o =  1.0117  v =  0.0000  0.0000  0.0000  0.0000  0.0000  0.0000  0.7071  0.0000  0.7071 -0.0000      0.0000  0.0000  0.0000  0.0000  0.0000  0.0000  0.0000  0.0000  0.0000  0.0000
atom =   2  type =  1  l = 2
 
 onsite density matrix
 
spin component  1
 
  0.9760  0.0000  0.0058  0.0000 -0.0000
  0.0000  1.0032  0.0000 -0.0085  0.0000
  0.0058  0.0000  0.9880  0.0000 -0.0000
  0.0000 -0.0085  0.0000  1.0032  0.0000
 -0.0000  0.0000 -0.0000  0.0000  0.9982
 
spin component  2
 
  0.0813  0.0000 -0.0356  0.0000 -0.0000
  0.0000  0.0526  0.0000 -0.0239  0.0000
 -0.0356  0.0000  0.0564  0.0000 -0.0000
  0.0000 -0.0239  0.0000  0.0526  0.0000
 -0.0000  0.0000 -0.0000  0.0000  0.0194
 
 occupancies and eigenvectors
 
  o =  0.0194  v =  0.0000  0.0000  0.0000  0.0000  0.0000  0.0000  0.0000  0.0000  0.0000  1.0000      0.0000  0.0000  0.0000  0.0000  0.0000  0.0000  0.0000  0.0000  0.0000  0.0000
  o =  0.0287  v =  0.0000  0.0000  0.0000  0.0000  0.0000  0.0000 -0.7071  0.0000 -0.7071  0.0000      0.0000  0.0000  0.0000  0.0000  0.0000  0.0000  0.0000  0.0000  0.0000  0.0000
  o =  0.0312  v =  0.0000  0.0000  0.0000  0.0000  0.0000 -0.5789  0.0000 -0.8154  0.0000  0.0000      0.0000  0.0000  0.0000  0.0000  0.0000  0.0000  0.0000  0.0000  0.0000  0.0000
  o =  0.0765  v =  0.0000  0.0000  0.0000  0.0000  0.0000  0.0000  0.7071  0.0000 -0.7071 -0.0000      0.0000  0.0000  0.0000  0.0000  0.0000  0.0000  0.0000  0.0000  0.0000  0.0000
  o =  0.1066  v =  0.0000  0.0000  0.0000  0.0000  0.0000 -0.8154 -0.0000  0.5789  0.0000 -0.0000      0.0000  0.0000  0.0000  0.0000  0.0000  0.0000  0.0000  0.0000  0.0000  0.0000
  o =  0.9737  v =  0.9268 -0.0000 -0.3755 -0.0000 -0.0000  0.0000  0.0000  0.0000  0.0000  0.0000      0.0000  0.0000  0.0000  0.0000  0.0000  0.0000  0.0000  0.0000  0.0000  0.0000
  o =  0.9903  v = -0.3755 -0.0000 -0.9268 -0.0000 -0.0000  0.0000  0.0000  0.0000  0.0000  0.0000      0.0000  0.0000  0.0000  0.0000  0.0000  0.0000  0.0000  0.0000  0.0000  0.0000
  o =  0.9947  v = -0.0000  0.7071 -0.0000  0.7071  0.0000  0.0000  0.0000  0.0000  0.0000  0.0000      0.0000  0.0000  0.0000  0.0000  0.0000  0.0000  0.0000  0.0000  0.0000  0.0000
  o =  0.9982  v =  0.0000  0.0000  0.0000 -0.0000 -1.0000  0.0000  0.0000  0.0000  0.0000  0.0000      0.0000  0.0000  0.0000  0.0000  0.0000  0.0000  0.0000  0.0000  0.0000  0.0000
  o =  1.0117  v =  0.0000 -0.7071  0.0000  0.7071 -0.0000  0.0000  0.0000  0.0000  0.0000  0.0000      0.0000  0.0000  0.0000  0.0000  0.0000  0.0000  0.0000  0.0000  0.0000  0.0000
     EDDAV:  cpu time    0.5812: real time    0.5812
       DOS:  cpu time    0.0002: real time    0.0002
    CHARGE:  cpu time    0.1163: real time    0.1163
    MIXING:  cpu time    0.0005: real time    0.0005
    --------------------------------------------
      LOOP:  cpu time    1.4971: real time    1.4971

 eigenvalue-minimisations  :  1356
 total energy-change (2. order) :-0.2363212E+01  (-0.4723623E+01)
 number of electron      53.9999997 magnetization      -0.0000000
 augmentation part       19.7144810 magnetization      -0.0000000

 Broyden mixing:
  rms(total) = 0.17093E+01    rms(broyden)= 0.17086E+01
  rms(prec ) = 0.25113E+01
  weight for this iteration     100.00

 eigenvalues of (default mixing * dielectric matrix)
  average eigenvalue GAMMA=   0.6949
  0.6949  0.6949

 Free energy of the ion-electron system (eV)
  ---------------------------------------------------
  alpha Z        PSCENC =       199.38838823
  Ewald energy   TEWEN  =     -4203.06823030
  -Hartree energ DENC   =     -2178.77710114
  -exchange      EXHF   =         0.00000000
  -V(xc)+E(xc)   XCENC  =       167.71984704
  PAW double counting   =      6488.01809886    -6454.83219153
  entropy T*S    EENTRO =        -0.00000000
  eigenvalues    EBANDS =      -778.94248827
  atomic energy  EATOM  =      6688.96875309
  Solvation  Ediel_sol  =         0.00000000
  ---------------------------------------------------
  free energy    TOTEN  =       -71.52492401 eV

  energy without entropy =      -71.52492401  energy(sigma->0) =      -71.52492401


--------------------------------------------------------------------------------------------------------




--------------------------------------- Iteration      1(   8)  ---------------------------------------


    POTLOK:  cpu time    0.0279: real time    0.0279
    SETDIJ:  cpu time    0.7710: real time    0.7710
atom =   1  type =  1  l = 2
 
 onsite density matrix
 
spin component  1
 
  0.0453  0.0000  0.0138  0.0000  0.0000
  0.0000  0.0493  0.0000  0.0212  0.0000
  0.0138  0.0000  0.0412  0.0000 -0.0000
  0.0000  0.0212  0.0000  0.0493  0.0000
  0.0000  0.0000 -0.0000  0.0000  0.0240
 
spin component  2
 
  0.9920  0.0000  0.0229  0.0000  0.0000
  0.0000  0.9815  0.0000  0.0121  0.0000
  0.0229  0.0000  0.9793  0.0000 -0.0000
  0.0000  0.0121  0.0000  0.9815  0.0000
  0.0000  0.0000 -0.0000  0.0000  0.9685
 
 occupancies and eigenvectors
 
  o =  0.0240  v =  0.0000  0.0000 -0.0000  0.0000 -1.0000  0.0000  0.0000  0.0000  0.0000  0.0000      0.0000  0.0000  0.0000  0.0000  0.0000  0.0000  0.0000  0.0000  0.0000  0.0000
  o =  0.0280  v =  0.0000  0.7071  0.0000 -0.7071  0.0000  0.0000  0.0000  0.0000  0.0000  0.0000      0.0000  0.0000  0.0000  0.0000  0.0000  0.0000  0.0000  0.0000  0.0000  0.0000
  o =  0.0293  v = -0.6530  0.0000  0.7574  0.0000 -0.0000  0.0000  0.0000  0.0000  0.0000  0.0000      0.0000  0.0000  0.0000  0.0000  0.0000  0.0000  0.0000  0.0000  0.0000  0.0000
  o =  0.0572  v = -0.7574 -0.0000 -0.6530  0.0000  0.0000  0.0000  0.0000  0.0000  0.0000  0.0000      0.0000  0.0000  0.0000  0.0000  0.0000  0.0000  0.0000  0.0000  0.0000  0.0000
  o =  0.0705  v =  0.0000  0.7071  0.0000  0.7071  0.0000  0.0000  0.0000  0.0000  0.0000  0.0000      0.0000  0.0000  0.0000  0.0000  0.0000  0.0000  0.0000  0.0000  0.0000  0.0000
  o =  0.9619  v =  0.0000  0.0000  0.0000  0.0000  0.0000 -0.6057  0.0000  0.7957 -0.0000  0.0000      0.0000  0.0000  0.0000  0.0000  0.0000  0.0000  0.0000  0.0000  0.0000  0.0000
  o =  0.9685  v =  0.0000  0.0000  0.0000  0.0000  0.0000  0.0000 -0.0000 -0.0000  0.0000  1.0000      0.0000  0.0000  0.0000  0.0000  0.0000  0.0000  0.0000  0.0000  0.0000  0.0000
  o =  0.9694  v =  0.0000  0.0000  0.0000  0.0000  0.0000  0.0000  0.7071 -0.0000 -0.7071  0.0000      0.0000  0.0000  0.0000  0.0000  0.0000  0.0000  0.0000  0.0000  0.0000  0.0000
  o =  0.9937  v =  0.0000  0.0000  0.0000  0.0000  0.0000  0.0000  0.7071  0.0000  0.7071 -0.0000      0.0000  0.0000  0.0000  0.0000  0.0000  0.0000  0.0000  0.0000  0.0000  0.0000
  o =  1.0094  v =  0.0000  0.0000  0.0000  0.0000  0.0000 -0.7957  0.0000 -0.6057  0.0000  0.0000      0.0000  0.0000  0.0000  0.0000  0.0000  0.0000  0.0000  0.0000  0.0000  0.0000
atom =   2  type =  1  l = 2
 
 onsite density matrix
 
spin component  1
 
  0.9920  0.0000 -0.0229  0.0000  0.0000
  0.0000  0.9815  0.0000 -0.0121  0.0000
 -0.0229  0.0000  0.9793  0.0000 -0.0000
  0.0000 -0.0121  0.0000  0.9815  0.0000
  0.0000  0.0000 -0.0000  0.0000  0.9685
 
spin component  2
 
  0.0453  0.0000 -0.0138  0.0000  0.0000
  0.0000  0.0493  0.0000 -0.0212  0.0000
 -0.0138  0.0000  0.0412  0.0000  0.0000
  0.0000 -0.0212  0.0000  0.0493  0.0000
  0.0000  0.0000  0.0000  0.0000  0.0240
 
 occupancies and eigenvectors
 
  o =  0.0240  v =  0.0000  0.0000  0.0000  0.0000  0.0000 -0.0000 -0.0000 -0.0000 -0.0000  1.0000      0.0000  0.0000  0.0000  0.0000  0.0000  0.0000  0.0000  0.0000  0.0000  0.0000
  o =  0.0280  v =  0.0000  0.0000  0.0000  0.0000  0.0000  0.0000 -0.7071  0.0000 -0.7071 -0.0000      0.0000  0.0000  0.0000  0.0000  0.0000  0.0000  0.0000  0.0000  0.0000  0.0000
  o =  0.0293  v =  0.0000  0.0000  0.0000  0.0000  0.0000 -0.6530 -0.0000 -0.7574 -0.0000 -0.0000      0.0000  0.0000  0.0000  0.0000  0.0000  0.0000  0.0000  0.0000  0.0000  0.0000
  o =  0.0572  v =  0.0000  0.0000  0.0000  0.0000  0.0000 -0.7574 -0.0000  0.6530  0.0000  0.0000      0.0000  0.0000  0.0000  0.0000  0.0000  0.0000  0.0000  0.0000  0.0000  0.0000
  o =  0.0705  v =  0.0000  0.0000  0.0000  0.0000  0.0000 -0.0000  0.7071  0.0000 -0.7071  0.0000      0.0000  0.0000  0.0000  0.0000  0.0000  0.0000  0.0000  0.0000  0.0000  0.0000
  o =  0.9619  v = -0.6057  0.0000 -0.7957  0.0000 -0.0000  0.0000  0.0000  0.0000  0.0000  0.0000      0.0000  0.0000  0.0000  0.0000  0.0000  0.0000  0.0000  0.0000  0.0000  0.0000
  o =  0.9685  v = -0.0000 -0.0000 -0.0000  0.0000  1.0000  0.0000  0.0000  0.0000  0.0000  0.0000      0.0000  0.0000  0.0000  0.0000  0.0000  0.0000  0.0000  0.0000  0.0000  0.0000
  o =  0.9694  v =  0.0000 -0.7071  0.0000 -0.7071 -0.0000  0.0000  0.0000  0.0000  0.0000  0.0000      0.0000  0.0000  0.0000  0.0000  0.0000  0.0000  0.0000  0.0000  0.0000  0.0000
  o =  0.9937  v =  0.0000  0.7071  0.0000 -0.7071  0.0000  0.0000  0.0000  0.0000  0.0000  0.0000      0.0000  0.0000  0.0000  0.0000  0.0000  0.0000  0.0000  0.0000  0.0000  0.0000
  o =  1.0094  v = -0.7957  0.0000  0.6057  0.0000 -0.0000  0.0000  0.0000  0.0000  0.0000  0.0000      0.0000  0.0000  0.0000  0.0000  0.0000  0.0000  0.0000  0.0000  0.0000  0.0000
     EDDAV:  cpu time    0.6355: real time    0.6355
       DOS:  cpu time    0.0002: real time    0.0002
    CHARGE:  cpu time    0.1157: real time    0.1157
    MIXING:  cpu time    0.0005: real time    0.0005
    --------------------------------------------
      LOOP:  cpu time    1.5508: real time    1.5508

 eigenvalue-minimisations  :  1548
 total energy-change (2. order) : 0.2895675E+01  (-0.6950255E+00)
 number of electron      53.9999997 magnetization      -0.0000000
 augmentation part       19.8681969 magnetization      -0.0000000

 Broyden mixing:
  rms(total) = 0.65501E+00    rms(broyden)= 0.65446E+00
  rms(prec ) = 0.98550E+00
  weight for this iteration     100.00

 eigenvalues of (default mixing * dielectric matrix)
  average eigenvalue GAMMA=   0.7766
  1.0132  0.6583  0.6583

 Free energy of the ion-electron system (eV)
  ---------------------------------------------------
  alpha Z        PSCENC =       199.38838823
  Ewald energy   TEWEN  =     -4203.06823030
  -Hartree energ DENC   =     -2171.49881921
  -exchange      EXHF   =         0.00000000
  -V(xc)+E(xc)   XCENC  =       170.49930365
  PAW double counting   =      6418.43105435    -6383.38793930
  entropy T*S    EENTRO =        -0.00000000
  eigenvalues    EBANDS =      -787.96175967
  atomic energy  EATOM  =      6688.96875309
  Solvation  Ediel_sol  =         0.00000000
  ---------------------------------------------------
  free energy    TOTEN  =       -68.62924914 eV

  energy without entropy =      -68.62924914  energy(sigma->0) =      -68.62924914


--------------------------------------------------------------------------------------------------------




--------------------------------------- Iteration      1(   9)  ---------------------------------------


    POTLOK:  cpu time    0.0274: real time    0.0274
    SETDIJ:  cpu time    1.4373: real time    1.4374
atom =   1  type =  1  l = 2
 
 onsite density matrix
 
spin component  1
 
  0.0690  0.0000  0.0372  0.0000  0.0000
  0.0000  0.0475  0.0000  0.0198  0.0000
  0.0372  0.0000  0.0487  0.0000  0.0000
  0.0000  0.0198  0.0000  0.0475  0.0000
  0.0000  0.0000  0.0000  0.0000  0.0229
 
spin component  2
 
  0.9483  0.0000  0.0063  0.0000 -0.0000
  0.0000  0.9577  0.0000  0.0160  0.0000
  0.0063  0.0000  0.9462  0.0000 -0.0000
  0.0000  0.0160  0.0000  0.9577  0.0000
 -0.0000  0.0000 -0.0000  0.0000  0.9429
 
 occupancies and eigenvectors
 
  o =  0.0203  v = -0.6066  0.0000  0.7950  0.0000 -0.0000  0.0000  0.0000  0.0000  0.0000  0.0000      0.0000  0.0000  0.0000  0.0000  0.0000  0.0000  0.0000  0.0000  0.0000  0.0000
  o =  0.0229  v = -0.0000 -0.0000  0.0000  0.0000  1.0000  0.0000  0.0000  0.0000  0.0000  0.0000      0.0000  0.0000  0.0000  0.0000  0.0000  0.0000  0.0000  0.0000  0.0000  0.0000
  o =  0.0277  v =  0.0000  0.7071  0.0000 -0.7071  0.0000  0.0000  0.0000  0.0000  0.0000  0.0000      0.0000  0.0000  0.0000  0.0000  0.0000  0.0000  0.0000  0.0000  0.0000  0.0000
  o =  0.0673  v =  0.0000 -0.7071  0.0000 -0.7071 -0.0000  0.0000  0.0000  0.0000  0.0000  0.0000      0.0000  0.0000  0.0000  0.0000  0.0000  0.0000  0.0000  0.0000  0.0000  0.0000
  o =  0.0974  v = -0.7950  0.0000 -0.6066  0.0000 -0.0000  0.0000  0.0000  0.0000  0.0000  0.0000      0.0000  0.0000  0.0000  0.0000  0.0000  0.0000  0.0000  0.0000  0.0000  0.0000
  o =  0.9409  v =  0.0000  0.0000  0.0000  0.0000  0.0000 -0.6476  0.0000  0.7620 -0.0000  0.0000      0.0000  0.0000  0.0000  0.0000  0.0000  0.0000  0.0000  0.0000  0.0000  0.0000
  o =  0.9418  v =  0.0000  0.0000  0.0000  0.0000  0.0000  0.0000 -0.7071  0.0000  0.7071  0.0000      0.0000  0.0000  0.0000  0.0000  0.0000  0.0000  0.0000  0.0000  0.0000  0.0000
  o =  0.9429  v =  0.0000  0.0000  0.0000  0.0000  0.0000 -0.0000 -0.0000  0.0000  0.0000 -1.0000      0.0000  0.0000  0.0000  0.0000  0.0000  0.0000  0.0000  0.0000  0.0000  0.0000
  o =  0.9537  v =  0.0000  0.0000  0.0000  0.0000  0.0000  0.7620 -0.0000  0.6476  0.0000 -0.0000      0.0000  0.0000  0.0000  0.0000  0.0000  0.0000  0.0000  0.0000  0.0000  0.0000
  o =  0.9737  v =  0.0000  0.0000  0.0000  0.0000  0.0000  0.0000  0.7071  0.0000  0.7071  0.0000      0.0000  0.0000  0.0000  0.0000  0.0000  0.0000  0.0000  0.0000  0.0000  0.0000
atom =   2  type =  1  l = 2
 
 onsite density matrix
 
spin component  1
 
  0.9483  0.0000 -0.0063  0.0000 -0.0000
  0.0000  0.9577  0.0000 -0.0160  0.0000
 -0.0063  0.0000  0.9462  0.0000  0.0000
  0.0000 -0.0160  0.0000  0.9577  0.0000
 -0.0000  0.0000  0.0000  0.0000  0.9429
 
spin component  2
 
  0.0690  0.0000 -0.0372  0.0000  0.0000
  0.0000  0.0475  0.0000 -0.0198  0.0000
 -0.0372  0.0000  0.0487  0.0000 -0.0000
  0.0000 -0.0198  0.0000  0.0475  0.0000
  0.0000  0.0000 -0.0000  0.0000  0.0229
 
 occupancies and eigenvectors
 
  o =  0.0203  v =  0.0000  0.0000  0.0000  0.0000  0.0000 -0.6066  0.0000 -0.7950  0.0000 -0.0000      0.0000  0.0000  0.0000  0.0000  0.0000  0.0000  0.0000  0.0000  0.0000  0.0000
  o =  0.0229  v =  0.0000  0.0000  0.0000  0.0000  0.0000 -0.0000 -0.0000 -0.0000  0.0000  1.0000      0.0000  0.0000  0.0000  0.0000  0.0000  0.0000  0.0000  0.0000  0.0000  0.0000
  o =  0.0277  v =  0.0000  0.0000  0.0000  0.0000  0.0000  0.0000 -0.7071  0.0000 -0.7071 -0.0000      0.0000  0.0000  0.0000  0.0000  0.0000  0.0000  0.0000  0.0000  0.0000  0.0000
  o =  0.0673  v =  0.0000  0.0000  0.0000  0.0000  0.0000  0.0000  0.7071  0.0000 -0.7071  0.0000      0.0000  0.0000  0.0000  0.0000  0.0000  0.0000  0.0000  0.0000  0.0000  0.0000
  o =  0.0974  v =  0.0000  0.0000  0.0000  0.0000  0.0000 -0.7950  0.0000  0.6066  0.0000 -0.0000      0.0000  0.0000  0.0000  0.0000  0.0000  0.0000  0.0000  0.0000  0.0000  0.0000
  o =  0.9409  v = -0.6476  0.0000 -0.7620  0.0000  0.0000  0.0000  0.0000  0.0000  0.0000  0.0000      0.0000  0.0000  0.0000  0.0000  0.0000  0.0000  0.0000  0.0000  0.0000  0.0000
  o =  0.9418  v =  0.0000  0.7071  0.0000  0.7071 -0.0000  0.0000  0.0000  0.0000  0.0000  0.0000      0.0000  0.0000  0.0000  0.0000  0.0000  0.0000  0.0000  0.0000  0.0000  0.0000
  o =  0.9429  v = -0.0000 -0.0000 -0.0000  0.0000 -1.0000  0.0000  0.0000  0.0000  0.0000  0.0000      0.0000  0.0000  0.0000  0.0000  0.0000  0.0000  0.0000  0.0000  0.0000  0.0000
  o =  0.9537  v = -0.7620  0.0000  0.6476  0.0000  0.0000  0.0000  0.0000  0.0000  0.0000  0.0000      0.0000  0.0000  0.0000  0.0000  0.0000  0.0000  0.0000  0.0000  0.0000  0.0000
  o =  0.9737  v =  0.0000 -0.7071  0.0000  0.7071  0.0000  0.0000  0.0000  0.0000  0.0000  0.0000      0.0000  0.0000  0.0000  0.0000  0.0000  0.0000  0.0000  0.0000  0.0000  0.0000
     EDDAV:  cpu time    0.5816: real time    0.5816
       DOS:  cpu time    0.0002: real time    0.0002
    CHARGE:  cpu time    0.1162: real time    0.1162
    MIXING:  cpu time    0.0005: real time    0.0005
    --------------------------------------------
      LOOP:  cpu time    2.1633: real time    2.1633

 eigenvalue-minimisations  :  1488
 total energy-change (2. order) : 0.4654466E+00  (-0.4976005E+00)
 number of electron      53.9999998 magnetization       0.0000000
 augmentation part       19.9973493 magnetization       0.0000000

 Broyden mixing:
  rms(total) = 0.81129E+00    rms(broyden)= 0.81118E+00
  rms(prec ) = 0.89402E+00
  weight for this iteration     100.00

 eigenvalues of (default mixing * dielectric matrix)
  average eigenvalue GAMMA=   0.9437
  1.7138  0.5728  0.7441  0.7441

 Free energy of the ion-electron system (eV)
  ---------------------------------------------------
  alpha Z        PSCENC =       199.38838823
  Ewald energy   TEWEN  =     -4203.06823030
  -Hartree energ DENC   =     -2163.45486637
  -exchange      EXHF   =         0.00000000
  -V(xc)+E(xc)   XCENC  =       168.52109896
  PAW double counting   =      6441.01486153    -6404.79159880
  entropy T*S    EENTRO =        -0.00000000
  eigenvalues    EBANDS =      -794.74220890
  atomic energy  EATOM  =      6688.96875309
  Solvation  Ediel_sol  =         0.00000000
  ---------------------------------------------------
  free energy    TOTEN  =       -68.16380255 eV

  energy without entropy =      -68.16380255  energy(sigma->0) =      -68.16380255


--------------------------------------------------------------------------------------------------------




--------------------------------------- Iteration      1(  10)  ---------------------------------------


    POTLOK:  cpu time    0.0271: real time    0.0271
    SETDIJ:  cpu time    1.4363: real time    1.4363
atom =   1  type =  1  l = 2
 
 onsite density matrix
 
spin component  1
 
  0.0470  0.0000  0.0156  0.0000 -0.0000
  0.0000  0.0511  0.0000  0.0208  0.0000
  0.0156  0.0000  0.0410  0.0000 -0.0000
  0.0000  0.0208  0.0000  0.0511  0.0000
 -0.0000  0.0000 -0.0000  0.0000  0.0288
 
spin component  2
 
  0.9674  0.0000  0.0298  0.0000  0.0000
  0.0000  0.9515  0.0000  0.0168  0.0000
  0.0298  0.0000  0.9503  0.0000  0.0000
  0.0000  0.0168  0.0000  0.9515  0.0000
  0.0000  0.0000  0.0000  0.0000  0.9327
 
 occupancies and eigenvectors
 
  o =  0.0282  v = -0.6360  0.0000  0.7717  0.0000  0.0000  0.0000  0.0000  0.0000  0.0000  0.0000      0.0000  0.0000  0.0000  0.0000  0.0000  0.0000  0.0000  0.0000  0.0000  0.0000
  o =  0.0288  v = -0.0000 -0.0000  0.0000  0.0000 -1.0000  0.0000  0.0000  0.0000  0.0000  0.0000      0.0000  0.0000  0.0000  0.0000  0.0000  0.0000  0.0000  0.0000  0.0000  0.0000
  o =  0.0303  v =  0.0000  0.7071  0.0000 -0.7071 -0.0000  0.0000  0.0000  0.0000  0.0000  0.0000      0.0000  0.0000  0.0000  0.0000  0.0000  0.0000  0.0000  0.0000  0.0000  0.0000
  o =  0.0598  v = -0.7717  0.0000 -0.6360  0.0000  0.0000  0.0000  0.0000  0.0000  0.0000  0.0000      0.0000  0.0000  0.0000  0.0000  0.0000  0.0000  0.0000  0.0000  0.0000  0.0000
  o =  0.0719  v =  0.0000  0.7071  0.0000  0.7071 -0.0000  0.0000  0.0000  0.0000  0.0000  0.0000      0.0000  0.0000  0.0000  0.0000  0.0000  0.0000  0.0000  0.0000  0.0000  0.0000
  o =  0.9279  v =  0.0000  0.0000  0.0000  0.0000  0.0000 -0.6019  0.0000  0.7985  0.0000  0.0000      0.0000  0.0000  0.0000  0.0000  0.0000  0.0000  0.0000  0.0000  0.0000  0.0000
  o =  0.9327  v =  0.0000  0.0000  0.0000  0.0000  0.0000  0.0000 -0.0000 -0.0000  0.0000  1.0000      0.0000  0.0000  0.0000  0.0000  0.0000  0.0000  0.0000  0.0000  0.0000  0.0000
  o =  0.9347  v =  0.0000  0.0000  0.0000  0.0000  0.0000  0.0000 -0.7071  0.0000  0.7071  0.0000      0.0000  0.0000  0.0000  0.0000  0.0000  0.0000  0.0000  0.0000  0.0000  0.0000
  o =  0.9683  v =  0.0000  0.0000  0.0000  0.0000  0.0000  0.0000 -0.7071  0.0000 -0.7071  0.0000      0.0000  0.0000  0.0000  0.0000  0.0000  0.0000  0.0000  0.0000  0.0000  0.0000
  o =  0.9899  v =  0.0000  0.0000  0.0000  0.0000  0.0000 -0.7985  0.0000 -0.6019  0.0000 -0.0000      0.0000  0.0000  0.0000  0.0000  0.0000  0.0000  0.0000  0.0000  0.0000  0.0000
atom =   2  type =  1  l = 2
 
 onsite density matrix
 
spin component  1
 
  0.9674  0.0000 -0.0298  0.0000  0.0000
  0.0000  0.9515  0.0000 -0.0168  0.0000
 -0.0298  0.0000  0.9503  0.0000 -0.0000
  0.0000 -0.0168  0.0000  0.9515  0.0000
  0.0000  0.0000 -0.0000  0.0000  0.9327
 
spin component  2
 
  0.0470  0.0000 -0.0156  0.0000 -0.0000
  0.0000  0.0511  0.0000 -0.0208  0.0000
 -0.0156  0.0000  0.0410  0.0000  0.0000
  0.0000 -0.0208  0.0000  0.0511  0.0000
 -0.0000  0.0000  0.0000  0.0000  0.0288
 
 occupancies and eigenvectors
 
  o =  0.0282  v =  0.0000  0.0000  0.0000  0.0000  0.0000 -0.6360  0.0000 -0.7717  0.0000  0.0000      0.0000  0.0000  0.0000  0.0000  0.0000  0.0000  0.0000  0.0000  0.0000  0.0000
  o =  0.0288  v =  0.0000  0.0000  0.0000  0.0000  0.0000  0.0000  0.0000  0.0000  0.0000  1.0000      0.0000  0.0000  0.0000  0.0000  0.0000  0.0000  0.0000  0.0000  0.0000  0.0000
  o =  0.0303  v =  0.0000  0.0000  0.0000  0.0000  0.0000 -0.0000 -0.7071 -0.0000 -0.7071  0.0000      0.0000  0.0000  0.0000  0.0000  0.0000  0.0000  0.0000  0.0000  0.0000  0.0000
  o =  0.0598  v =  0.0000  0.0000  0.0000  0.0000  0.0000 -0.7717 -0.0000  0.6360  0.0000  0.0000      0.0000  0.0000  0.0000  0.0000  0.0000  0.0000  0.0000  0.0000  0.0000  0.0000
  o =  0.0719  v =  0.0000  0.0000  0.0000  0.0000  0.0000 -0.0000  0.7071  0.0000 -0.7071 -0.0000      0.0000  0.0000  0.0000  0.0000  0.0000  0.0000  0.0000  0.0000  0.0000  0.0000
  o =  0.9279  v = -0.6019  0.0000 -0.7985  0.0000 -0.0000  0.0000  0.0000  0.0000  0.0000  0.0000      0.0000  0.0000  0.0000  0.0000  0.0000  0.0000  0.0000  0.0000  0.0000  0.0000
  o =  0.9327  v = -0.0000 -0.0000 -0.0000  0.0000  1.0000  0.0000  0.0000  0.0000  0.0000  0.0000      0.0000  0.0000  0.0000  0.0000  0.0000  0.0000  0.0000  0.0000  0.0000  0.0000
  o =  0.9347  v =  0.0000 -0.7071  0.0000 -0.7071 -0.0000  0.0000  0.0000  0.0000  0.0000  0.0000      0.0000  0.0000  0.0000  0.0000  0.0000  0.0000  0.0000  0.0000  0.0000  0.0000
  o =  0.9683  v =  0.0000  0.7071  0.0000 -0.7071  0.0000  0.0000  0.0000  0.0000  0.0000  0.0000      0.0000  0.0000  0.0000  0.0000  0.0000  0.0000  0.0000  0.0000  0.0000  0.0000
  o =  0.9899  v = -0.7985  0.0000  0.6019  0.0000 -0.0000  0.0000  0.0000  0.0000  0.0000  0.0000      0.0000  0.0000  0.0000  0.0000  0.0000  0.0000  0.0000  0.0000  0.0000  0.0000
     EDDAV:  cpu time    0.5617: real time    0.5617
       DOS:  cpu time    0.0002: real time    0.0002
    CHARGE:  cpu time    0.1162: real time    0.1162
    MIXING:  cpu time    0.0006: real time    0.0006
    --------------------------------------------
      LOOP:  cpu time    2.1421: real time    2.1421

 eigenvalue-minimisations  :  1404
 total energy-change (2. order) : 0.4814849E-01  (-0.4328006E-01)
 number of electron      53.9999998 magnetization       0.0000000
 augmentation part       19.9916193 magnetization       0.0000000

 Broyden mixing:
  rms(total) = 0.59908E+00    rms(broyden)= 0.59908E+00
  rms(prec ) = 0.67111E+00
  weight for this iteration     100.00

 eigenvalues of (default mixing * dielectric matrix)
  average eigenvalue GAMMA=   1.2084
  2.8490  0.9942  0.9942  0.6024  0.6024

 Free energy of the ion-electron system (eV)
  ---------------------------------------------------
  alpha Z        PSCENC =       199.38838823
  Ewald energy   TEWEN  =     -4203.06823030
  -Hartree energ DENC   =     -2157.13356932
  -exchange      EXHF   =         0.00000000
  -V(xc)+E(xc)   XCENC  =       165.72410917
  PAW double counting   =      6505.35167647    -6470.31245768
  entropy T*S    EENTRO =        -0.00000000
  eigenvalues    EBANDS =      -797.03432374
  atomic energy  EATOM  =      6688.96875309
  Solvation  Ediel_sol  =         0.00000000
  ---------------------------------------------------
  free energy    TOTEN  =       -68.11565407 eV

  energy without entropy =      -68.11565407  energy(sigma->0) =      -68.11565407


--------------------------------------------------------------------------------------------------------




--------------------------------------- Iteration      1(  11)  ---------------------------------------


    POTLOK:  cpu time    0.0269: real time    0.0269
    SETDIJ:  cpu time    1.4363: real time    1.4363
atom =   1  type =  1  l = 2
 
 onsite density matrix
 
spin component  1
 
  0.0514  0.0000  0.0304  0.0000  0.0000
  0.0000  0.0438  0.0000  0.0254  0.0000
  0.0304  0.0000  0.0372  0.0000 -0.0000
  0.0000  0.0254  0.0000  0.0438  0.0000
  0.0000  0.0000 -0.0000  0.0000  0.0146
 
spin component  2
 
  0.9637  0.0000  0.0190  0.0000 -0.0000
  0.0000  0.9593  0.0000  0.0169  0.0000
  0.0190  0.0000  0.9520  0.0000  0.0000
  0.0000  0.0169  0.0000  0.9593  0.0000
 -0.0000  0.0000  0.0000  0.0000  0.9432
 
 occupancies and eigenvectors
 
  o =  0.0130  v = -0.6214 -0.0000  0.7835  0.0000  0.0000  0.0000  0.0000  0.0000  0.0000  0.0000      0.0000  0.0000  0.0000  0.0000  0.0000  0.0000  0.0000  0.0000  0.0000  0.0000
  o =  0.0146  v = -0.0000  0.0000  0.0000  0.0000 -1.0000  0.0000  0.0000  0.0000  0.0000  0.0000      0.0000  0.0000  0.0000  0.0000  0.0000  0.0000  0.0000  0.0000  0.0000  0.0000
  o =  0.0185  v =  0.0000 -0.7071  0.0000  0.7071 -0.0000  0.0000  0.0000  0.0000  0.0000  0.0000      0.0000  0.0000  0.0000  0.0000  0.0000  0.0000  0.0000  0.0000  0.0000  0.0000
  o =  0.0692  v =  0.0000 -0.7071  0.0000 -0.7071 -0.0000  0.0000  0.0000  0.0000  0.0000  0.0000      0.0000  0.0000  0.0000  0.0000  0.0000  0.0000  0.0000  0.0000  0.0000  0.0000
  o =  0.0755  v = -0.7835 -0.0000 -0.6214  0.0000  0.0000  0.0000  0.0000  0.0000  0.0000  0.0000      0.0000  0.0000  0.0000  0.0000  0.0000  0.0000  0.0000  0.0000  0.0000  0.0000
  o =  0.9380  v =  0.0000  0.0000  0.0000  0.0000  0.0000 -0.5948  0.0000  0.8039 -0.0000 -0.0000      0.0000  0.0000  0.0000  0.0000  0.0000  0.0000  0.0000  0.0000  0.0000  0.0000
  o =  0.9424  v =  0.0000  0.0000  0.0000  0.0000  0.0000 -0.0000 -0.7071  0.0000  0.7071  0.0000      0.0000  0.0000  0.0000  0.0000  0.0000  0.0000  0.0000  0.0000  0.0000  0.0000
  o =  0.9432  v =  0.0000  0.0000  0.0000  0.0000  0.0000 -0.0000  0.0000  0.0000 -0.0000  1.0000      0.0000  0.0000  0.0000  0.0000  0.0000  0.0000  0.0000  0.0000  0.0000  0.0000
  o =  0.9761  v =  0.0000  0.0000  0.0000  0.0000  0.0000 -0.0000 -0.7071 -0.0000 -0.7071 -0.0000      0.0000  0.0000  0.0000  0.0000  0.0000  0.0000  0.0000  0.0000  0.0000  0.0000
  o =  0.9777  v =  0.0000  0.0000  0.0000  0.0000  0.0000 -0.8039  0.0000 -0.5948  0.0000 -0.0000      0.0000  0.0000  0.0000  0.0000  0.0000  0.0000  0.0000  0.0000  0.0000  0.0000
atom =   2  type =  1  l = 2
 
 onsite density matrix
 
spin component  1
 
  0.9637  0.0000 -0.0190  0.0000  0.0000
  0.0000  0.9593  0.0000 -0.0169  0.0000
 -0.0190  0.0000  0.9520  0.0000  0.0000
  0.0000 -0.0169  0.0000  0.9593  0.0000
  0.0000  0.0000  0.0000  0.0000  0.9432
 
spin component  2
 
  0.0514  0.0000 -0.0304  0.0000  0.0000
  0.0000  0.0438  0.0000 -0.0254  0.0000
 -0.0304  0.0000  0.0372  0.0000  0.0000
  0.0000 -0.0254  0.0000  0.0438  0.0000
  0.0000  0.0000  0.0000  0.0000  0.0146
 
 occupancies and eigenvectors
 
  o =  0.0130  v =  0.0000  0.0000  0.0000  0.0000  0.0000 -0.6214 -0.0000 -0.7835  0.0000  0.0000      0.0000  0.0000  0.0000  0.0000  0.0000  0.0000  0.0000  0.0000  0.0000  0.0000
  o =  0.0146  v =  0.0000  0.0000  0.0000  0.0000  0.0000 -0.0000  0.0000 -0.0000  0.0000 -1.0000      0.0000  0.0000  0.0000  0.0000  0.0000  0.0000  0.0000  0.0000  0.0000  0.0000
  o =  0.0185  v =  0.0000  0.0000  0.0000  0.0000  0.0000  0.0000 -0.7071  0.0000 -0.7071 -0.0000      0.0000  0.0000  0.0000  0.0000  0.0000  0.0000  0.0000  0.0000  0.0000  0.0000
  o =  0.0692  v =  0.0000  0.0000  0.0000  0.0000  0.0000  0.0000 -0.7071  0.0000  0.7071 -0.0000      0.0000  0.0000  0.0000  0.0000  0.0000  0.0000  0.0000  0.0000  0.0000  0.0000
  o =  0.0755  v =  0.0000  0.0000  0.0000  0.0000  0.0000 -0.7835 -0.0000  0.6214  0.0000  0.0000      0.0000  0.0000  0.0000  0.0000  0.0000  0.0000  0.0000  0.0000  0.0000  0.0000
  o =  0.9380  v = -0.5948  0.0000 -0.8039  0.0000  0.0000  0.0000  0.0000  0.0000  0.0000  0.0000      0.0000  0.0000  0.0000  0.0000  0.0000  0.0000  0.0000  0.0000  0.0000  0.0000
  o =  0.9424  v =  0.0000  0.7071  0.0000  0.7071  0.0000  0.0000  0.0000  0.0000  0.0000  0.0000      0.0000  0.0000  0.0000  0.0000  0.0000  0.0000  0.0000  0.0000  0.0000  0.0000
  o =  0.9432  v =  0.0000  0.0000 -0.0000  0.0000 -1.0000  0.0000  0.0000  0.0000  0.0000  0.0000      0.0000  0.0000  0.0000  0.0000  0.0000  0.0000  0.0000  0.0000  0.0000  0.0000
  o =  0.9761  v =  0.0000 -0.7071  0.0000  0.7071  0.0000  0.0000  0.0000  0.0000  0.0000  0.0000      0.0000  0.0000  0.0000  0.0000  0.0000  0.0000  0.0000  0.0000  0.0000  0.0000
  o =  0.9777  v = -0.8039  0.0000  0.5948  0.0000 -0.0000  0.0000  0.0000  0.0000  0.0000  0.0000      0.0000  0.0000  0.0000  0.0000  0.0000  0.0000  0.0000  0.0000  0.0000  0.0000
     EDDAV:  cpu time    0.5999: real time    0.5999
       DOS:  cpu time    0.0002: real time    0.0002
    CHARGE:  cpu time    0.1169: real time    0.1169
    MIXING:  cpu time    0.0006: real time    0.0006
    --------------------------------------------
      LOOP:  cpu time    2.1808: real time    2.1809

 eigenvalue-minimisations  :  1548
 total energy-change (2. order) : 0.4025955E-01  (-0.1151908E+00)
 number of electron      53.9999997 magnetization      -0.0000000
 augmentation part       20.0810913 magnetization      -0.0000000

 Broyden mixing:
  rms(total) = 0.19749E+00    rms(broyden)= 0.19729E+00
  rms(prec ) = 0.29904E+00
  weight for this iteration     100.00

 eigenvalues of (default mixing * dielectric matrix)
  average eigenvalue GAMMA=   1.1437
  3.1376  0.9803  0.9803  0.5930  0.5854  0.5854

 Free energy of the ion-electron system (eV)
  ---------------------------------------------------
[...]
      1     -49.2277      1.00000
      2     -49.1880      1.00000
      3     -49.1676      1.00000
      4     -42.7196      1.00000
      5     -42.6757      1.00000
      6     -42.6465      1.00000
      7     -22.6605      1.00000
      8     -22.5250      1.00000
      9     -22.4856      1.00000
     10     -22.4030      1.00000
     11      -4.4576      1.00000
     12      -4.2090      1.00000
     13      -4.0211      1.00000
     14      -3.8416      1.00000
     15      -3.6826      1.00000
     16      -3.4854      1.00000
     17      -3.1032      1.00000
     18      -2.9232      1.00000
     19      -2.7923      1.00000
     20      -2.3856      1.00000
     21      -2.2955      1.00000
     22      -2.2376      1.00000
     23       0.8032      1.00000
     24       0.8468      1.00000
     25       1.0910      1.00000
     26       1.7198      1.00000
     27       2.0685      1.00000
     28       6.4101      0.00000
     29       6.4382      0.00000
     30       6.5464      0.00000
     31       7.3979      0.00000
     32       7.6890      0.00000
     33       9.0078      0.00000
     34      11.3052      0.00000
     35      12.7636      0.00000
     36      13.1359      0.00000

 k-point     8 :       0.3750    0.1250    0.4167
  band No.  band energies     occupation 
      1     -49.2276      1.00000
      2     -49.1879      1.00000
      3     -49.1676      1.00000
      4     -42.7196      1.00000
      5     -42.6757      1.00000
      6     -42.6464      1.00000
      7     -22.6033      1.00000
      8     -22.5465      1.00000
      9     -22.4963      1.00000
     10     -22.4270      1.00000
     11      -4.4977      1.00000
     12      -4.2440      1.00000
     13      -4.1589      1.00000
     14      -3.9822      1.00000
     15      -3.6113      1.00000
     16      -3.3749      1.00000
     17      -3.2009      1.00000
     18      -3.0954      1.00000
     19      -2.5266      1.00000
     20      -2.3674      1.00000
     21      -2.1871      1.00000
     22      -2.0849      1.00000
     23       0.7903      1.00000
     24       0.8194      1.00000
     25       1.0300      1.00000
     26       1.6767      1.00000
     27       2.1974      1.00000
     28       6.3980      0.00000
     29       6.4312      0.00000
     30       6.6023      0.00000
     31       7.3529      0.00000
     32       7.8703      0.00000
     33       9.6338      0.00000
     34      11.1603      0.00000
     35      11.6830      0.00000
     36      12.9955      0.00000

 k-point     9 :       0.3750    0.3750    0.4167
  band No.  band energies     occupation 
      1     -49.2277      1.00000
      2     -49.1880      1.00000
      3     -49.1679      1.00000
      4     -42.7198      1.00000
      5     -42.6757      1.00000
      6     -42.6466      1.00000
      7     -22.5967      1.00000
      8     -22.5554      1.00000
      9     -22.4973      1.00000
     10     -22.4218      1.00000
     11      -4.7329      1.00000
     12      -4.5250      1.00000
     13      -4.1544      1.00000
     14      -4.0964      1.00000
     15      -3.5843      1.00000
     16      -3.3075      1.00000
     17      -3.1388      1.00000
     18      -2.9033      1.00000
     19      -2.3157      1.00000
     20      -2.2220      1.00000
     21      -2.1087      1.00000
     22      -2.0334      1.00000
     23       0.7880      1.00000
     24       0.8119      1.00000
     25       1.0157      1.00000
     26       1.7110      1.00000
     27       2.1728      1.00000
     28       6.4045      0.00000
     29       6.4285      0.00000
     30       6.6201      0.00000
     31       7.3288      0.00000
     32       7.7740      0.00000
     33      10.1277      0.00000
     34      11.7147      0.00000
     35      11.7445      0.00000
     36      11.9796      0.00000


--------------------------------------------------------------------------------------------------------


 soft charge-density along one line, spin component           1
         0         1         2         3         4         5         6         7         8         9
 total charge-density along one line
 
 soft charge-density along one line, spin component           2
         0         1         2         3         4         5         6         7         8         9
 total charge-density along one line
 
 pseudopotential strength for first ion, spin component:           1
-45.215   0.000  -0.038   7.793  -0.000   0.016  -0.000   0.000
  0.000 -45.181   0.000  -0.000   7.778  -0.000  -0.000   0.000
 -0.038   0.000 -45.215   0.016  -0.000   7.793   0.000  -0.000
  7.793  -0.000   0.016   5.591   0.000   0.004  -0.000  -0.000
 -0.000   7.778  -0.000   0.000   5.586   0.000   0.000   0.000
  0.016  -0.000   7.793   0.004   0.000   5.591  -0.000   0.000
 -0.000  -0.000   0.000  -0.000   0.000  -0.000  -2.974   0.000
  0.000   0.000  -0.000  -0.000   0.000   0.000   0.000  -2.956
 -0.000   0.000   0.000   0.000  -0.000   0.000   0.020   0.000
 -0.000   0.000   0.000   0.000   0.000  -0.000   0.000  -0.018
  0.000  -0.000  -0.000  -0.000   0.000  -0.000  -0.000  -0.000
 -0.000  -0.000   0.000  -0.000   0.000  -0.000  -3.490   0.000
  0.000   0.000  -0.000  -0.000   0.000   0.000   0.000  -3.472
 -0.000   0.000   0.000   0.000  -0.000   0.000   0.018   0.000
 -0.000   0.000   0.000   0.000   0.000  -0.000   0.000  -0.018
  0.000  -0.000  -0.000  -0.000   0.000  -0.000  -0.000  -0.000
  0.000  -0.000   0.000   0.000  -0.000  -0.000   0.011  -0.000
  0.000  -0.000   0.000   0.000  -0.000  -0.000   0.022  -0.000
 pseudopotential strength for first ion, spin component:           2
-50.968   0.000  -0.005   9.792  -0.000   0.016   0.000   0.000
  0.000 -50.968   0.000  -0.000   9.778  -0.000  -0.000   0.000
 -0.005   0.000 -50.968   0.016  -0.000   9.792  -0.000  -0.000
  9.792  -0.000   0.016   4.708   0.000   0.001  -0.000  -0.000
 -0.000   9.778  -0.000   0.000   4.707   0.000   0.000  -0.000
  0.016  -0.000   9.792   0.001   0.000   4.708  -0.000   0.000
  0.000  -0.000  -0.000  -0.000   0.000  -0.000  -7.326   0.000
  0.000   0.000  -0.000  -0.000  -0.000   0.000   0.000  -7.317
  0.000   0.000  -0.000  -0.000  -0.000   0.000  -0.009   0.000
 -0.000  -0.000   0.000   0.000   0.000  -0.000   0.000  -0.028
 -0.000  -0.000   0.000  -0.000   0.000  -0.000   0.000  -0.000
  0.000  -0.000  -0.000  -0.000   0.000  -0.000  -7.797   0.000
  0.000   0.000  -0.000  -0.000  -0.000   0.000   0.000  -7.788
  0.000   0.000  -0.000  -0.000  -0.000   0.000  -0.009   0.000
 -0.000  -0.000   0.000   0.000   0.000  -0.000   0.000  -0.027
 -0.000  -0.000   0.000  -0.000   0.000  -0.000   0.000  -0.000
  0.000  -0.000  -0.000  -0.000  -0.000   0.000   0.011  -0.000
  0.000  -0.000  -0.000  -0.000  -0.000   0.000   0.023  -0.000
 total augmentation occupancy for first ion, spin component:           1
  2.001   0.000   0.000  -0.012   0.000   0.001   0.000   0.000   0.000   0.000   0.000   0.000   0.000   0.000   0.000   0.000
  0.000   2.001   0.000   0.000  -0.012   0.000   0.000   0.000   0.000   0.000   0.000   0.000   0.000   0.000   0.000   0.000
  0.000   0.000   2.001   0.001   0.000  -0.012   0.000   0.000   0.000   0.000   0.000   0.000   0.000   0.000   0.000   0.000
 -0.012   0.000   0.001   0.081   0.000  -0.009   0.000   0.000   0.000   0.000   0.000   0.000   0.000   0.000   0.000   0.000
  0.000  -0.012   0.000   0.000   0.090   0.000   0.000   0.000   0.000   0.000   0.000   0.000   0.000   0.000   0.000   0.000
  0.001   0.000  -0.012  -0.009   0.000   0.081   0.000   0.000   0.000   0.000   0.000   0.000   0.000   0.000   0.000   0.000
  0.000   0.000   0.000   0.000   0.000   0.000   7.768   0.000   3.007   0.000  -0.000  -5.796   0.000  -2.828   0.000   0.000
  0.000   0.000   0.000   0.000   0.000   0.000   0.000   6.573   0.000   2.543   0.000   0.000  -4.647   0.000  -2.389   0.000
  0.000   0.000   0.000   0.000   0.000   0.000   3.007   0.000   5.962   0.000   0.000  -2.829   0.000  -4.104   0.000   0.000
  0.000   0.000   0.000   0.000   0.000   0.000   0.000   2.543   0.000   6.573   0.000   0.000  -2.389   0.000  -4.647   0.000
  0.000   0.000   0.000   0.000   0.000   0.000  -0.000   0.000   0.000   0.000   3.893   0.000   0.000   0.000   0.000  -2.113
  0.000   0.000   0.000   0.000   0.000   0.000  -5.796   0.000  -2.829   0.000  -0.000   4.999   0.000   2.694   0.000   0.000
  0.000   0.000   0.000   0.000   0.000   0.000   0.000  -4.647   0.000  -2.389   0.000   0.000   3.883   0.000   2.272   0.000
  0.000   0.000   0.000   0.000   0.000   0.000  -2.828   0.000  -4.104   0.000  -0.000   2.694   0.000   3.395   0.000   0.000
  0.000   0.000   0.000   0.000   0.000   0.000   0.000  -2.389   0.000  -4.647   0.000   0.000   2.272   0.000   3.883   0.000
  0.000   0.000   0.000   0.000   0.000   0.000  -0.000   0.000   0.000   0.000  -2.113  -0.000   0.000   0.000   0.000   1.458
  0.000   0.000   0.000   0.000   0.000   0.000   0.442   0.000  -0.299   0.000  -0.000  -0.419   0.000   0.278   0.000  -0.000
  0.000   0.000   0.000   0.000   0.000   0.000  -0.092   0.000   0.069   0.000   0.000   0.097   0.000  -0.068   0.000   0.000
 total augmentation occupancy for first ion, spin component:           2
  0.004   0.000  -0.000   0.017   0.000  -0.001   0.000   0.000   0.000   0.000   0.000   0.000   0.000   0.000   0.000   0.000
  0.000   0.004   0.000   0.000   0.018   0.000   0.000   0.000   0.000   0.000   0.000   0.000   0.000   0.000   0.000   0.000
 -0.000   0.000   0.004  -0.001   0.000   0.017   0.000   0.000   0.000   0.000   0.000   0.000   0.000   0.000   0.000   0.000
  0.017   0.000  -0.001  -0.011   0.000  -0.000   0.000   0.000   0.000   0.000   0.000   0.000   0.000   0.000   0.000   0.000
  0.000   0.018   0.000   0.000  -0.010   0.000   0.000   0.000   0.000   0.000   0.000   0.000   0.000   0.000   0.000   0.000
 -0.001   0.000   0.017  -0.000   0.000  -0.011   0.000   0.000   0.000   0.000   0.000   0.000   0.000   0.000   0.000   0.000
  0.000   0.000   0.000   0.000   0.000   0.000  -5.100   0.000  -1.498   0.000  -0.000   2.726   0.000   1.100   0.000   0.000
  0.000   0.000   0.000   0.000   0.000   0.000   0.000  -4.547   0.000  -1.275   0.000   0.000   2.298   0.000   0.938   0.000
  0.000   0.000   0.000   0.000   0.000   0.000  -1.498   0.000  -4.147   0.000   0.000   1.100   0.000   2.011   0.000   0.000
  0.000   0.000   0.000   0.000   0.000   0.000   0.000  -1.275   0.000  -4.547   0.000   0.000   0.938   0.000   2.298   0.000
  0.000   0.000   0.000   0.000   0.000   0.000   0.000   0.000  -0.000   0.000  -3.252  -0.000   0.000   0.000   0.000   1.353
  0.000   0.000   0.000   0.000   0.000   0.000   2.726   0.000   1.100   0.000   0.000  -1.455   0.000  -0.708   0.000  -0.000
  0.000   0.000   0.000   0.000   0.000   0.000   0.000   2.298   0.000   0.938   0.000   0.000  -1.154   0.000  -0.607   0.000
  0.000   0.000   0.000   0.000   0.000   0.000   1.100   0.000   2.011   0.000   0.000  -0.708   0.000  -0.974   0.000  -0.000
  0.000   0.000   0.000   0.000   0.000   0.000   0.000   0.938   0.000   2.298   0.000   0.000  -0.607   0.000  -1.154   0.000
  0.000   0.000   0.000   0.000   0.000   0.000  -0.000   0.000   0.000   0.000   1.353   0.000   0.000  -0.000   0.000  -0.555
  0.000   0.000   0.000   0.000   0.000   0.000  -0.100   0.000   0.057   0.000  -0.000   0.023   0.000   0.001   0.000  -0.000
  0.000   0.000   0.000   0.000   0.000   0.000   0.001   0.000  -0.006   0.000  -0.000   0.008   0.000  -0.003   0.000   0.000


------------------------ aborting loop because EDIFF is reached ----------------------------------------


 


 total charge     
 
# of ion       s       p       d       tot
------------------------------------------
    1        0.168   6.150   4.966  11.283
    2        0.173   6.145   4.972  11.290
    3        1.735   4.400   0.000   6.135
    4        1.735   4.400   0.000   6.135
    5        1.735   4.396   0.000   6.131
    6        1.735   4.396   0.000   6.131
--------------------------------------------------
tot          7.282  29.886   9.938  47.106
 


 magnetization (x)
 
# of ion       s       p       d       tot
------------------------------------------
    1       -0.022  -0.018  -4.581  -4.621
    2        0.023   0.016   4.578   4.617
    3        0.003   0.025   0.000   0.027
    4        0.003   0.025   0.000   0.027
    5       -0.003  -0.021   0.000  -0.024
    6       -0.003  -0.021   0.000  -0.024
--------------------------------------------------
tot         -0.001   0.006  -0.003   0.003
 
    CHARGE:  cpu time    0.0272: real time    0.0272
    FORLOC:  cpu time    0.0008: real time    0.0008
    FORNL :  cpu time    0.1312: real time    0.1312
    STRESS:  cpu time    1.7258: real time    1.7258
    FORCOR:  cpu time    0.0254: real time    0.0254
    FORHAR:  cpu time    0.0018: real time    0.0018
    MIXING:  cpu time    0.0007: real time    0.0007
    OFIELD:  cpu time    0.0000: real time    0.0000

  FORCE on cell =-STRESS in cart. coord.  units (eV):
  Direction    XX          YY          ZZ          XY          YZ          ZX
  --------------------------------------------------------------------------------------
  Alpha Z   199.67022   199.67022   199.67022
  Ewald   -1586.83844 -1586.83844 -1031.38252    -0.00000    -0.00000    -0.00000
  Hartree   593.69364   593.69364   969.07058    -0.00000    -0.00000    -0.00000
  E(xc)    -150.53518  -150.51250  -150.64908    -0.01640    -0.02596    -0.02761
  Local     164.70906   164.70906  -759.20759    -0.00000     0.00000     0.00000
  n-local  -310.14367  -310.42717  -309.36668     0.01501     0.10884     0.11124
  augment   158.50614   158.50614   158.01299     0.00000    -0.00000     0.00000
  Kinetic   930.75474   931.32298   923.84141    -0.43933    -0.81242    -0.84791
  Fock        0.00000     0.00000     0.00000     0.00000     0.00000     0.00000
  -------------------------------------------------------------------------------------
  Total      -0.02978    -0.02978    -0.01067    -0.00000     0.00000     0.00000
  in kB      -0.61708    -0.61708    -0.22108    -0.00000     0.00000     0.00000
  external pressure =       -0.49 kB  Pullay stress =        0.00 kB


 VOLUME and BASIS-vectors are now :
 -----------------------------------------------------------------------------
  energy-cutoff  :      500.00
  volume of cell :       77.31
      direct lattice vectors                 reciprocal lattice vectors
     4.850244589  0.000000000  0.000000000     0.206175169  0.000000000  0.000000000
    -0.000000000  4.850244589  0.000000000    -0.000000000  0.206175169  0.000000000
     0.000000000  0.000000000  3.286518025     0.000000000  0.000000000  0.304273396

  length of vectors
     4.850244589  4.850244589  3.286518025     0.206175169  0.206175169  0.304273396


 FORCES acting on ions
    electron-ion (+dipol)            ewald-force                    non-local-force                 convergence-correction
 -----------------------------------------------------------------------------------------------
   0.218E-11 0.523E-11 0.452E-11   -.568E-13 -.853E-13 0.130E-13   0.913E-26 0.000E+00 0.000E+00   -.449E-13 -.291E-13 0.950E-13
   -.378E-13 -.596E-13 0.443E-13   0.171E-12 0.853E-13 0.105E-13   -.887E-26 0.000E+00 0.000E+00   0.253E-13 0.109E-14 -.618E-13
   -.325E+02 0.325E+02 0.342E-11   0.337E+02 -.337E+02 -.762E-15   -.120E+01 0.120E+01 0.000E+00   0.253E-05 -.253E-05 0.255E-13
   0.325E+02 -.325E+02 0.547E-11   -.337E+02 0.337E+02 -.401E-15   0.120E+01 -.120E+01 0.000E+00   -.253E-05 0.253E-05 0.510E-13
   0.325E+02 0.325E+02 -.173E-07   -.337E+02 -.337E+02 -.662E-14   0.120E+01 0.120E+01 -.271E-19   -.253E-05 -.253E-05 -.145E-11
   -.325E+02 -.325E+02 0.173E-07   0.337E+02 0.337E+02 -.606E-14   -.120E+01 -.120E+01 0.271E-19   0.253E-05 0.253E-05 0.135E-11
 -----------------------------------------------------------------------------------------------
   0.506E-11 0.143E-10 0.122E-10   0.000E+00 -.711E-14 0.961E-14   0.222E-15 0.222E-15 0.000E+00   -.367E-13 -.222E-13 0.167E-13
 
 
 POSITION                                       TOTAL-FORCE (eV/Angst)
 -----------------------------------------------------------------------------------
      2.42512      2.42512      1.64326         0.000000     -0.000000      0.000000
     -0.00000      0.00000      0.00000         0.000000     -0.000000      0.000000
      0.95113      3.89912      1.64326         0.001110     -0.001110      0.000000
      3.89912      0.95113      1.64326        -0.001110      0.001110      0.000000
      1.47399      1.47399     -0.00000        -0.001110     -0.001110      0.000000
      3.37625      3.37625      0.00000         0.001110      0.001110      0.000000
 -----------------------------------------------------------------------------------
    total drift:                                0.000000      0.000000      0.000000


--------------------------------------------------------------------------------------------------------



  FREE ENERGIE OF THE ION-ELECTRON SYSTEM (eV)
  ---------------------------------------------------
  free  energy   TOTEN  =       -68.02578732 eV

  energy  without entropy=      -68.02578732  energy(sigma->0) =      -68.02578732
 
 d Force = 0.1737016E-07[ 0.123E-07, 0.225E-07]  d Energy = 0.2246460E-04-0.224E-04
 d Force = 0.3731556E-03[ 0.373E-03, 0.373E-03]  d Ewald  =-0.1541670E+01 0.154E+01


--------------------------------------------------------------------------------------------------------


    POTLOK:  cpu time    1.5277: real time    1.5277


--------------------------------------------------------------------------------------------------------




--------------------------------------------------------------------------------------------------------


  
 reached required accuracy - stopping structural energy minimisation
     LOOP+:  cpu time   23.8678: real time   23.8680
    4ORBIT:  cpu time    0.0000: real time    0.0000
 


 total charge     
 
# of ion       s       p       d       tot
------------------------------------------
    1        0.168   6.150   4.966  11.283
    2        0.173   6.145   4.972  11.290
    3        1.735   4.400   0.000   6.135
    4        1.735   4.400   0.000   6.135
    5        1.735   4.396   0.000   6.131
    6        1.735   4.396   0.000   6.131
--------------------------------------------------
tot          7.282  29.886   9.938  47.106
 


 magnetization (x)
 
# of ion       s       p       d       tot
------------------------------------------
    1       -0.022  -0.018  -4.581  -4.621
    2        0.023   0.016   4.578   4.617
    3        0.003   0.025   0.000   0.027
    4        0.003   0.025   0.000   0.027
    5       -0.003  -0.021   0.000  -0.024
    6       -0.003  -0.021   0.000  -0.024
--------------------------------------------------
tot         -0.001   0.006  -0.003   0.003
 

 total amount of memory used by VASP MPI-rank0    41985. kBytes
=======================================================================

   base      :      30000. kBytes
   nonl-proj :       5386. kBytes
   fftplans  :       1551. kBytes
   grid      :       3069. kBytes
   one-center:        186. kBytes
   wavefun   :       1793. kBytes
 
  
  
 General timing and accounting informations for this job:
 ========================================================
  
                  Total CPU time used (sec):      104.176
                            User time (sec):       67.605
                          System time (sec):       36.571
                         Elapsed time (sec):      104.247
  
                   Maximum memory used (kb):       59184.
                   Average memory used (kb):           0.
  
                          Minor page faults:        12833
                          Major page faults:            7
                 Voluntary context switches:          319
