       N       E                     dE             d eps       ncg     rms          rms(c)
DAV:   1     0.671724031255E+03    0.67172E+03   -0.33931E+04  1296   0.187E+03
DAV:   2     0.943654083437E+01   -0.66229E+03   -0.64230E+03  1452   0.506E+02
DAV:   3    -0.394260144742E+02   -0.48863E+02   -0.48631E+02  1560   0.150E+02
DAV:   4    -0.400984627815E+02   -0.67245E+00   -0.67231E+00  1368   0.194E+01
DAV:   5    -0.401091473848E+02   -0.10685E-01   -0.10684E-01  1584   0.238E+00    0.225E+01
DAV:   6    -0.382180427439E+02    0.18911E+01   -0.15632E+01  1608   0.317E+01    0.143E+01
DAV:   7    -0.389383060027E+02   -0.72026E+00   -0.18248E+00  1548   0.108E+01    0.113E+01
DAV:   8    -0.390001150075E+02   -0.61809E-01   -0.41772E-01  1488   0.548E+00    0.522E+00
DAV:   9    -0.391606429417E+02   -0.16053E+00   -0.48237E-02  1332   0.217E+00    0.128E+00
DAV:  10    -0.391617511105E+02   -0.11082E-02   -0.19924E-02  1596   0.124E+00    0.283E-01
DAV:  11    -0.391619985575E+02   -0.24745E-03   -0.28108E-03  1380   0.352E-01    0.135E-01
DAV:  12    -0.391621513295E+02   -0.15277E-03   -0.10308E-04  1596   0.122E-01    0.543E-02
DAV:  13    -0.391622063942E+02   -0.55065E-04   -0.88864E-05  1368   0.544E-02    0.211E-02
DAV:  14    -0.391622154766E+02   -0.90824E-05   -0.83451E-06  1536   0.212E-02    0.896E-03
DAV:  15    -0.391622152888E+02    0.18778E-06   -0.14162E-06  1416   0.726E-03    0.265E-03
DAV:  16    -0.391622155534E+02   -0.26461E-06   -0.22338E-07  1428   0.275E-03    0.181E-03
DAV:  17    -0.391622155148E+02    0.38590E-07   -0.17006E-08   936   0.105E-03
   1 F= -.39162216E+02 E0= -.39162216E+02  d E =-.391622E+02  mag=     0.0000
