 vasp.5.4.4.18Apr17-6-g9f103f2a35 (build Apr 27 2017 11:13:10) complex          
  
 executed on           IFC91_ompi date 2021.06.08  16:44:06
 running on   12 total cores
 distrk:  each k-point on   12 cores,    1 groups
 distr:  one band on NCORES_PER_BAND=   1 cores,   12 groups


--------------------------------------------------------------------------------------------------------


 INCAR:
 POTCAR:    PAW_PBE Mn_pv 02Aug2007               
 POTCAR:    PAW_PBE F 08Apr2002                   

 ----------------------------------------------------------------------------- 
|                                                                             |
|           W    W    AA    RRRRR   N    N  II  N    N   GGGG   !!!           |
|           W    W   A  A   R    R  NN   N  II  NN   N  G    G  !!!           |
|           W    W  A    A  R    R  N N  N  II  N N  N  G       !!!           |
|           W WW W  AAAAAA  RRRRR   N  N N  II  N  N N  G  GGG   !            |
|           WW  WW  A    A  R   R   N   NN  II  N   NN  G    G                |
|           W    W  A    A  R    R  N    N  II  N    N   GGGG   !!!           |
|                                                                             |
|      For optimal performance we recommend to set                            |
|        NCORE= 4 - approx SQRT( number of cores)                             |
|      NCORE specifies how many cores store one orbital (NPAR=cpu/NCORE).     |
|      This setting can  greatly improve the performance of VASP for DFT.     |
|      The default,   NCORE=1            might be grossly inefficient         |
|      on modern multi-core architectures or massively parallel machines.     |
|      Do your own testing !!!!                                               |
|      Unfortunately you need to use the default for GW and RPA calculations. |
|      (for HF NCORE is supported but not extensively tested yet)             |
|                                                                             |
 ----------------------------------------------------------------------------- 

 POTCAR:    PAW_PBE Mn_pv 02Aug2007               
   VRHFIN =Mn: 3p4s3d                                                           
   LEXCH  = PE                                                                  
   EATOM  =  2025.2664 eV,  148.8529 Ry                                         
                                                                                
   TITEL  = PAW_PBE Mn_pv 02Aug2007                                             
   LULTRA =        F    use ultrasoft PP ?                                      
   IUNSCR =        1    unscreen: 0-lin 1-nonlin 2-no                           
   RPACOR =    2.080    partial core radius                                     
   POMASS =   54.938; ZVAL   =   13.000    mass and valenz                      
   RCORE  =    2.300    outmost cutoff radius                                   
   RWIGS  =    2.500; RWIGS  =    1.323    wigner-seitz radius (au A)           
   ENMAX  =  269.864; ENMIN  =  202.398 eV                                      
   ICORE  =        3    local potential                                         
   LCOR   =        T    correct aug charges                                     
   LPAW   =        T    paw PP                                                  
   EAUG   =  569.085                                                            
   DEXC   =    0.000                                                            
   RMAX   =    2.343    core radius for proj-oper                               
   RAUG   =    1.300    factor for augmentation sphere                          
   RDEP   =    2.338    radius for radial grids                                 
   RDEPT  =    1.798    core radius for aug-charge                              
                                                                                
   Atomic configuration                                                         
    8 entries                                                                   
     n  l   j            E        occ.                                          
     1  0  0.50     -6424.8287   2.0000                                         
     2  0  0.50      -739.1154   2.0000                                         
     2  1  1.50      -625.3949   6.0000                                         
     3  0  0.50       -81.6100   2.0000                                         
     3  1  1.50       -50.4667   6.0000                                         
     3  2  2.50        -3.3745   6.0000                                         
     4  0  0.50        -4.1331   1.0000                                         
     4  3  2.50        -1.3606   0.0000                                         
   Description                                                                  
     l       E           TYP  RCUT    TYP  RCUT                                 
     1    -50.4666628     23  2.000                                             
     1     -1.3605826     23  2.000                                             
     2     -3.3744729     23  2.300                                             
     2     -4.7350555     23  2.300                                             
     0     -4.1331431     23  2.300                                             
     0      7.6656591     23  2.300                                             
     3      9.5240782     23  2.300                                             
  local pseudopotential read in
  partial core-charges read in
  partial kinetic energy density read in
  atomic valenz-charges read in
  non local Contribution for L=           1  read in
    real space projection operators read in
  non local Contribution for L=           1  read in
    real space projection operators read in
  non local Contribution for L=           2  read in
    real space projection operators read in
  non local Contribution for L=           2  read in
    real space projection operators read in
  non local Contribution for L=           0  read in
    real space projection operators read in
  non local Contribution for L=           0  read in
    real space projection operators read in
    PAW grid and wavefunctions read in
 
   number of l-projection  operators is LMAX  =           6
   number of lm-projection operators is LMMAX =          18
 
 POTCAR:    PAW_PBE F 08Apr2002                   
   VRHFIN =F: s2p5                                                              
   LEXCH  = PE                                                                  
   EATOM  =   659.6475 eV,   48.4827 Ry                                         
                                                                                
   TITEL  = PAW_PBE F 08Apr2002                                                 
   LULTRA =        F    use ultrasoft PP ?                                      
   IUNSCR =        1    unscreen: 0-lin 1-nonlin 2-no                           
   RPACOR =    1.200    partial core radius                                     
   POMASS =   18.998; ZVAL   =    7.000    mass and valenz                      
   RCORE  =    1.520    outmost cutoff radius                                   
   RWIGS  =    1.500; RWIGS  =    0.794    wigner-seitz radius (au A)           
   ENMAX  =  400.000; ENMIN  =  300.000 eV                                      
   ICORE  =        2    local potential                                         
   LCOR   =        T    correct aug charges                                     
   LPAW   =        T    paw PP                                                  
   EAUG   =  613.614                                                            
   RMAX   =    1.555    core radius for proj-oper                               
   RAUG   =    1.300    factor for augmentation sphere                          
   RDEP   =    1.539    radius for radial grids                                 
   RDEPT  =    1.299    core radius for aug-charge                              
                                                                                
   Atomic configuration                                                         
    4 entries                                                                   
     n  l   j            E        occ.                                          
     1  0  0.50      -663.3661   2.0000                                         
     2  0  0.50       -29.8995   2.0000                                         
     2  1  0.50       -11.1114   5.0000                                         
     3  2  1.50       -10.8847   0.0000                                         
   Description                                                                  
     l       E           TYP  RCUT    TYP  RCUT                                 
     0    -29.8995018     23  1.200                                             
     0     -9.5240782     23  1.200                                             
     1    -11.1113914     23  1.520                                             
     1      1.3605826     23  1.520                                             
     2    -10.8846608      7  1.500                                             
  local pseudopotential read in
  partial core-charges read in
  partial kinetic energy density read in
  atomic valenz-charges read in
  non local Contribution for L=           0  read in
    real space projection operators read in
  non local Contribution for L=           0  read in
    real space projection operators read in
  non local Contribution for L=           1  read in
    real space projection operators read in
  non local Contribution for L=           1  read in
    real space projection operators read in
    PAW grid and wavefunctions read in
 
   number of l-projection  operators is LMAX  =           4
   number of lm-projection operators is LMMAX =           8
 
  PAW_PBE Mn_pv 02Aug2007               :
 energy of atom  1       EATOM=-2025.2664
 kinetic energy error for atom=    0.0047 (will be added to EATOM!!)
  PAW_PBE F 08Apr2002                   :
 energy of atom  2       EATOM= -659.6475
 kinetic energy error for atom=    0.0256 (will be added to EATOM!!)
 
 
 POSCAR: Mn  F                                   
  positions in cartesian coordinates
  No initial velocities read in

 METAGGA = SCAN     LMAXTAU =  6    LMIXTAU =  F

 exchange correlation table for  LEXCH =        8
   RHO(1)=    0.500       N(1)  =     2000
   RHO(2)=  100.500       N(2)  =     4000
 


--------------------------------------------------------------------------------------------------------


 ion  position               nearest neighbor table
   1  0.500  0.500  0.500-   3 2.10   4 2.10   5 2.13   6 2.13   5 2.13   6 2.13
   2  0.000  0.000  0.000-   5 2.10   6 2.10   3 2.13   4 2.13   3 2.13   4 2.13
   3  0.195  0.805  0.500-   1 2.10   2 2.13   2 2.13
   4  0.805  0.195  0.500-   1 2.10   2 2.13   2 2.13
   5  0.305  0.305  0.000-   2 2.10   1 2.13   1 2.13
   6  0.695  0.695  0.000-   2 2.10   1 2.13   1 2.13
 

IMPORTANT INFORMATION: All symmetrisations will be switched off!
NOSYMM: (Re-)initialisation of all symmetry stuff for point group C_1.

 
 
 KPOINTS: KPOINTS created by Atomic Simulation Env

Automatic generation of k-mesh.
Space group operators:
 irot       det(A)        alpha          n_x          n_y          n_z        tau_x        tau_y        tau_z
    1     1.000000     0.000000     1.000000     0.000000     0.000000     0.000000     0.000000     0.000000
 
 Subroutine IBZKPT returns following result:
 ===========================================
 
 Found     48 irreducible k-points:
 
 Following reciprocal coordinates:
            Coordinates               Weight
  0.125000  0.125000  0.083333      2.000000
  0.375000  0.125000  0.083333      2.000000
 -0.375000  0.125000  0.083333      2.000000
 -0.125000  0.125000  0.083333      2.000000
  0.125000  0.375000  0.083333      2.000000
  0.375000  0.375000  0.083333      2.000000
 -0.375000  0.375000  0.083333      2.000000
 -0.125000  0.375000  0.083333      2.000000
  0.125000 -0.375000  0.083333      2.000000
  0.375000 -0.375000  0.083333      2.000000
 -0.375000 -0.375000  0.083333      2.000000
 -0.125000 -0.375000  0.083333      2.000000
  0.125000 -0.125000  0.083333      2.000000
  0.375000 -0.125000  0.083333      2.000000
 -0.375000 -0.125000  0.083333      2.000000
 -0.125000 -0.125000  0.083333      2.000000
  0.125000  0.125000  0.250000      2.000000
  0.375000  0.125000  0.250000      2.000000
 -0.375000  0.125000  0.250000      2.000000
 -0.125000  0.125000  0.250000      2.000000
  0.125000  0.375000  0.250000      2.000000
  0.375000  0.375000  0.250000      2.000000
 -0.375000  0.375000  0.250000      2.000000
 -0.125000  0.375000  0.250000      2.000000
  0.125000 -0.375000  0.250000      2.000000
  0.375000 -0.375000  0.250000      2.000000
 -0.375000 -0.375000  0.250000      2.000000
 -0.125000 -0.375000  0.250000      2.000000
  0.125000 -0.125000  0.250000      2.000000
  0.375000 -0.125000  0.250000      2.000000
 -0.375000 -0.125000  0.250000      2.000000
 -0.125000 -0.125000  0.250000      2.000000
  0.125000  0.125000  0.416667      2.000000
  0.375000  0.125000  0.416667      2.000000
 -0.375000  0.125000  0.416667      2.000000
 -0.125000  0.125000  0.416667      2.000000
  0.125000  0.375000  0.416667      2.000000
  0.375000  0.375000  0.416667      2.000000
 -0.375000  0.375000  0.416667      2.000000
 -0.125000  0.375000  0.416667      2.000000
  0.125000 -0.375000  0.416667      2.000000
  0.375000 -0.375000  0.416667      2.000000
 -0.375000 -0.375000  0.416667      2.000000
 -0.125000 -0.375000  0.416667      2.000000
  0.125000 -0.125000  0.416667      2.000000
  0.375000 -0.125000  0.416667      2.000000
 -0.375000 -0.125000  0.416667      2.000000
 -0.125000 -0.125000  0.416667      2.000000
 
 Following cartesian coordinates:
            Coordinates               Weight
  0.025627  0.025627  0.025211      2.000000
  0.076882  0.025627  0.025211      2.000000
 -0.076882  0.025627  0.025211      2.000000
 -0.025627  0.025627  0.025211      2.000000
  0.025627  0.076882  0.025211      2.000000
  0.076882  0.076882  0.025211      2.000000
 -0.076882  0.076882  0.025211      2.000000
 -0.025627  0.076882  0.025211      2.000000
  0.025627 -0.076882  0.025211      2.000000
  0.076882 -0.076882  0.025211      2.000000
 -0.076882 -0.076882  0.025211      2.000000
 -0.025627 -0.076882  0.025211      2.000000
  0.025627 -0.025627  0.025211      2.000000
  0.076882 -0.025627  0.025211      2.000000
 -0.076882 -0.025627  0.025211      2.000000
 -0.025627 -0.025627  0.025211      2.000000
  0.025627  0.025627  0.075633      2.000000
  0.076882  0.025627  0.075633      2.000000
 -0.076882  0.025627  0.075633      2.000000
 -0.025627  0.025627  0.075633      2.000000
  0.025627  0.076882  0.075633      2.000000
  0.076882  0.076882  0.075633      2.000000
 -0.076882  0.076882  0.075633      2.000000
 -0.025627  0.076882  0.075633      2.000000
  0.025627 -0.076882  0.075633      2.000000
  0.076882 -0.076882  0.075633      2.000000
 -0.076882 -0.076882  0.075633      2.000000
 -0.025627 -0.076882  0.075633      2.000000
  0.025627 -0.025627  0.075633      2.000000
  0.076882 -0.025627  0.075633      2.000000
 -0.076882 -0.025627  0.075633      2.000000
 -0.025627 -0.025627  0.075633      2.000000
  0.025627  0.025627  0.126054      2.000000
  0.076882  0.025627  0.126054      2.000000
 -0.076882  0.025627  0.126054      2.000000
 -0.025627  0.025627  0.126054      2.000000
  0.025627  0.076882  0.126054      2.000000
  0.076882  0.076882  0.126054      2.000000
 -0.076882  0.076882  0.126054      2.000000
 -0.025627  0.076882  0.126054      2.000000
  0.025627 -0.076882  0.126054      2.000000
  0.076882 -0.076882  0.126054      2.000000
 -0.076882 -0.076882  0.126054      2.000000
 -0.025627 -0.076882  0.126054      2.000000
  0.025627 -0.025627  0.126054      2.000000
  0.076882 -0.025627  0.126054      2.000000
 -0.076882 -0.025627  0.126054      2.000000
 -0.025627 -0.025627  0.126054      2.000000
 
 TETIRR: Found    288 inequivalent tetrahedra from      576


--------------------------------------------------------------------------------------------------------




 Dimension of arrays:
   k-points           NKPTS =     48   k-points in BZ     NKDIM =     48   number of bands    NBANDS=     36
   number of dos      NEDOS =    301   number of ions     NIONS =      6
   non local maximal  LDIM  =      6   non local SUM 2l+1 LMDIM =     18
   total plane-waves  NPLWV =  18000
   max r-space proj   IRMAX =      1   max aug-charges    IRDMAX=  55754
   dimension x,y,z NGX =    30 NGY =   30 NGZ =   20
   dimension x,y,z NGXF=    60 NGYF=   60 NGZF=   40
   support grid    NGXF=   120 NGYF=  120 NGZF=   80
   ions per type =               2   4
   NGX,Y,Z   is equivalent  to a cutoff of  10.23, 10.23, 10.06 a.u.
   NGXF,Y,Z  is equivalent  to a cutoff of  20.45, 20.45, 20.12 a.u.

 SYSTEM =  unknown system                          
 POSCAR =  Mn  F                                   

 Startparameter for this run:
   NWRITE =      2    write-flag & timer
   PREC   = normal    normal or accurate (medium, high low for compatibility)
   ISTART =      1    job   : 0-new  1-cont  2-samecut
   ICHARG =      0    charge: 1-file 2-atom 10-const
   ISPIN  =      2    spin polarized calculation?
   LNONCOLLINEAR =      F non collinear calculations
   LSORBIT =      F    spin-orbit coupling
   INIWAV =      1    electr: 0-lowe 1-rand  2-diag
   LASPH  =      T    aspherical Exc in radial PAW
   METAGGA=      F    non-selfconsistent MetaGGA calc.

 Electronic Relaxation 1
   ENCUT  =  600.0 eV  44.10 Ry    6.64 a.u.   9.74  9.74  6.60*2*pi/ulx,y,z
   ENINI  =  600.0     initial cutoff
   ENAUG  =  613.6 eV  augmentation charge cutoff
   NELM   =     60;   NELMIN=  2; NELMDL=  0     # of ELM steps 
   EDIFF  = 0.1E-07   stopping-criterion for ELM
   LREAL  =      F    real-space projection
   NLSPLINE    = F    spline interpolate recip. space projectors
   LCOMPAT=      F    compatible to vasp.4.4
   GGA_COMPAT  = T    GGA compatible to vasp.4.4-vasp.4.6
   LMAXPAW     = -100 max onsite density
   LMAXMIX     =    4 max onsite mixed and CHGCAR
   VOSKOWN=      0    Vosko Wilk Nusair interpolation
   ROPT   =    0.00000   0.00000
 Ionic relaxation
   EDIFFG = 0.1E-06   stopping-criterion for IOM
   NSW    =      0    number of steps for IOM
   NBLOCK =      1;   KBLOCK =      1    inner block; outer block 
   IBRION =     -1    ionic relax: 0-MD 1-quasi-New 2-CG
   NFREE  =      0    steps in history (QN), initial steepest desc. (CG)
   ISIF   =      2    stress and relaxation
   IWAVPR =     10    prediction:  0-non 1-charg 2-wave 3-comb
   ISYM   =      0    0-nonsym 1-usesym 2-fastsym
   LCORR  =      T    Harris-Foulkes like correction to forces

   POTIM  = 0.5000    time-step for ionic-motion
   TEIN   =    0.0    initial temperature
   TEBEG  =    0.0;   TEEND  =   0.0 temperature during run
   SMASS  =  -3.00    Nose mass-parameter (am)
   estimated Nose-frequenzy (Omega)   =  0.10E-29 period in steps =****** mass=  -0.544E-27a.u.
   SCALEE = 1.0000    scale energy and forces
   NPACO  =    256;   APACO  = 16.0  distance and # of slots for P.C.
   PSTRESS=    0.0 pullay stress

  Mass of Ions in am
   POMASS =  54.94 19.00
  Ionic Valenz
   ZVAL   =  13.00  7.00
  Atomic Wigner-Seitz radii
   RWIGS  =  -1.00 -1.00
  virtual crystal weights 
   VCA    =   1.00  1.00
   NELECT =      54.0000    total number of electrons
   NUPDOWN=      -1.0000    fix difference up-down

 DOS related values:
   EMIN   =  10.00;   EMAX   =-10.00  energy-range for DOS
   EFERMI =   0.00
   ISMEAR =    -5;   SIGMA  =   0.20  broadening in eV -4-tet -1-fermi 0-gaus

 Electronic relaxation 2 (details)
   IALGO  =     38    algorithm
   LDIAG  =      T    sub-space diagonalisation (order eigenvalues)
   LSUBROT=      F    optimize rotation matrix (better conditioning)
   TURBO    =      0    0=normal 1=particle mesh
   IRESTART =      0    0=no restart 2=restart with 2 vectors
   NREBOOT  =      0    no. of reboots
   NMIN     =      0    reboot dimension
   EREF     =   0.00    reference energy to select bands
   IMIX   =      4    mixing-type and parameters
     AMIX     =   0.40;   BMIX     =  1.00
     AMIX_MAG =   1.60;   BMIX_MAG =  1.00
     AMIN     =   0.10
     WC   =   100.;   INIMIX=   1;  MIXPRE=   1;  MAXMIX= -45

 Intra band minimization:
   WEIMIN = 0.0000     energy-eigenvalue tresh-hold
   EBREAK =  0.69E-10  absolut break condition
   DEPER  =   0.30     relativ break condition  

   TIME   =   0.40     timestep for ELM

  volume/ion in A,a.u.               =      13.11        88.45
  Fermi-wavevector in a.u.,A,eV,Ry     =   1.444299  2.729329 28.381733  2.085999
  Thomas-Fermi vector in A             =   2.562609
 
 Write flags
   LWAVE        =      T    write WAVECAR
   LDOWNSAMPLE  =      F    k-point downsampling of WAVECAR
   LCHARG       =      T    write CHGCAR
   LVTOT        =      F    write LOCPOT, total local potential
   LVHAR        =      F    write LOCPOT, Hartree potential only
   LELF         =      F    write electronic localiz. function (ELF)
   LORBIT       =     11    0 simple, 1 ext, 2 COOP (PROOUT), +10 PAW based schemes


 Dipole corrections
   LMONO  =      F    monopole corrections only (constant potential shift)
   LDIPOL =      F    correct potential (dipole corrections)
   IDIPOL =      0    1-x, 2-y, 3-z, 4-all directions 
   EPSILON=  1.0000000 bulk dielectric constant

 LDA+U is selected, type is set to LDAUTYPE =  2
   angular momentum for each species LDAUL =     2   -1
   U (eV)           for each species LDAUU =   4.0  0.0
   J (eV)           for each species LDAUJ =   0.0  0.0
 Exchange correlation treatment:
   GGA     =    --    GGA type
   LEXCH   =     8    internal setting for exchange type
   VOSKOWN=      0    Vosko Wilk Nusair interpolation
   LHFCALC =     F    Hartree Fock is set to
   LHFONE  =     F    Hartree Fock one center treatment
   AEXX    =    0.0000 exact exchange contribution

 Linear response parameters
   LEPSILON=     F    determine dielectric tensor
   LRPA    =     F    only Hartree local field effects (RPA)
   LNABLA  =     F    use nabla operator in PAW spheres
   LVEL    =     F    velocity operator in full k-point grid
   LINTERFAST=   F  fast interpolation
   KINTER  =     0    interpolate to denser k-point grid
   CSHIFT  =0.1000    complex shift for real part using Kramers Kronig
   OMEGAMAX=  -1.0    maximum frequency
   DEG_THRESHOLD= 0.2000000E-02 threshold for treating states as degnerate
   RTIME   =   -0.100 relaxation time in fs
  (WPLASMAI=    0.000 imaginary part of plasma frequency in eV, 0.658/RTIME)
   DFIELD  = 0.0000000 0.0000000 0.0000000 field for delta impulse in time
 
 Orbital magnetization related:
   ORBITALMAG=     F  switch on orbital magnetization
   LCHIMAG   =     F  perturbation theory with respect to B field
   DQ        =  0.001000  dq finite difference perturbation B field
   LLRAUG    =     F  two centre corrections for induced B field



--------------------------------------------------------------------------------------------------------


 Static calculation
 charge density and potential will be updated during run
 spin polarized calculation
 Variant of blocked Davidson
 Davidson routine will perform the subspace rotation
 perform sub-space diagonalisation
    after iterative eigenvector-optimisation
 modified Broyden-mixing scheme, WC =      100.0
 initial mixing is a Kerker type mixing with AMIX =  0.4000 and BMIX =      1.0000
 Hartree-type preconditioning will be used
 using additional bands            9
 reciprocal scheme for non local part
 use partial core corrections
 calculate Harris-corrections to forces 
   (improved forces if not selfconsistent)
 use gradient corrections 
 use of overlap-Matrix (Vanderbilt PP)
 Fermi weights with tetrahedron method with Bloechl corrections


--------------------------------------------------------------------------------------------------------


  energy-cutoff  :      600.00
  volume of cell :       78.64
      direct lattice vectors                 reciprocal lattice vectors
     4.877619957  0.000000000  0.000000000     0.205018023  0.000000000  0.000000000
     0.000000000  4.877619957  0.000000000     0.000000000  0.205018023  0.000000000
     0.000000000  0.000000000  3.305455729     0.000000000  0.000000000  0.302530145

  length of vectors
     4.877619957  4.877619957  3.305455729     0.205018023  0.205018023  0.302530145


 
 old parameters found on file WAVECAR:
  energy-cutoff  :      600.00
  volume of cell :       78.64
      direct lattice vectors                 reciprocal lattice vectors
     4.877619957  0.000000000  0.000000000     0.205018023  0.000000000  0.000000000
     0.000000000  4.877619957  0.000000000     0.000000000  0.205018023  0.000000000
     0.000000000  0.000000000  3.305455729     0.000000000  0.000000000  0.302530145

  length of vectors

 
 k-points in units of 2pi/SCALE and weight: KPOINTS created by Atomic Simulation Env
   0.02562725  0.02562725  0.02521085       0.021
   0.07688176  0.02562725  0.02521085       0.021
  -0.07688176  0.02562725  0.02521085       0.021
  -0.02562725  0.02562725  0.02521085       0.021
   0.02562725  0.07688176  0.02521085       0.021
   0.07688176  0.07688176  0.02521085       0.021
  -0.07688176  0.07688176  0.02521085       0.021
  -0.02562725  0.07688176  0.02521085       0.021
   0.02562725 -0.07688176  0.02521085       0.021
   0.07688176 -0.07688176  0.02521085       0.021
  -0.07688176 -0.07688176  0.02521085       0.021
  -0.02562725 -0.07688176  0.02521085       0.021
   0.02562725 -0.02562725  0.02521085       0.021
   0.07688176 -0.02562725  0.02521085       0.021
  -0.07688176 -0.02562725  0.02521085       0.021
  -0.02562725 -0.02562725  0.02521085       0.021
   0.02562725  0.02562725  0.07563254       0.021
   0.07688176  0.02562725  0.07563254       0.021
  -0.07688176  0.02562725  0.07563254       0.021
  -0.02562725  0.02562725  0.07563254       0.021
   0.02562725  0.07688176  0.07563254       0.021
   0.07688176  0.07688176  0.07563254       0.021
  -0.07688176  0.07688176  0.07563254       0.021
  -0.02562725  0.07688176  0.07563254       0.021
   0.02562725 -0.07688176  0.07563254       0.021
   0.07688176 -0.07688176  0.07563254       0.021
  -0.07688176 -0.07688176  0.07563254       0.021
  -0.02562725 -0.07688176  0.07563254       0.021
   0.02562725 -0.02562725  0.07563254       0.021
   0.07688176 -0.02562725  0.07563254       0.021
  -0.07688176 -0.02562725  0.07563254       0.021
  -0.02562725 -0.02562725  0.07563254       0.021
   0.02562725  0.02562725  0.12605423       0.021
   0.07688176  0.02562725  0.12605423       0.021
  -0.07688176  0.02562725  0.12605423       0.021
  -0.02562725  0.02562725  0.12605423       0.021
   0.02562725  0.07688176  0.12605423       0.021
   0.07688176  0.07688176  0.12605423       0.021
  -0.07688176  0.07688176  0.12605423       0.021
  -0.02562725  0.07688176  0.12605423       0.021
   0.02562725 -0.07688176  0.12605423       0.021
   0.07688176 -0.07688176  0.12605423       0.021
  -0.07688176 -0.07688176  0.12605423       0.021
  -0.02562725 -0.07688176  0.12605423       0.021
   0.02562725 -0.02562725  0.12605423       0.021
   0.07688176 -0.02562725  0.12605423       0.021
  -0.07688176 -0.02562725  0.12605423       0.021
  -0.02562725 -0.02562725  0.12605423       0.021
 
 k-points in reciprocal lattice and weights: KPOINTS created by Atomic Simulation Env
   0.12500000  0.12500000  0.08333333       0.021
   0.37500000  0.12500000  0.08333333       0.021
  -0.37500000  0.12500000  0.08333333       0.021
  -0.12500000  0.12500000  0.08333333       0.021
   0.12500000  0.37500000  0.08333333       0.021
   0.37500000  0.37500000  0.08333333       0.021
  -0.37500000  0.37500000  0.08333333       0.021
  -0.12500000  0.37500000  0.08333333       0.021
   0.12500000 -0.37500000  0.08333333       0.021
   0.37500000 -0.37500000  0.08333333       0.021
  -0.37500000 -0.37500000  0.08333333       0.021
  -0.12500000 -0.37500000  0.08333333       0.021
   0.12500000 -0.12500000  0.08333333       0.021
   0.37500000 -0.12500000  0.08333333       0.021
  -0.37500000 -0.12500000  0.08333333       0.021
  -0.12500000 -0.12500000  0.08333333       0.021
   0.12500000  0.12500000  0.25000000       0.021
   0.37500000  0.12500000  0.25000000       0.021
  -0.37500000  0.12500000  0.25000000       0.021
  -0.12500000  0.12500000  0.25000000       0.021
   0.12500000  0.37500000  0.25000000       0.021
   0.37500000  0.37500000  0.25000000       0.021
  -0.37500000  0.37500000  0.25000000       0.021
  -0.12500000  0.37500000  0.25000000       0.021
   0.12500000 -0.37500000  0.25000000       0.021
   0.37500000 -0.37500000  0.25000000       0.021
  -0.37500000 -0.37500000  0.25000000       0.021
  -0.12500000 -0.37500000  0.25000000       0.021
   0.12500000 -0.12500000  0.25000000       0.021
   0.37500000 -0.12500000  0.25000000       0.021
  -0.37500000 -0.12500000  0.25000000       0.021
  -0.12500000 -0.12500000  0.25000000       0.021
   0.12500000  0.12500000  0.41666667       0.021
   0.37500000  0.12500000  0.41666667       0.021
  -0.37500000  0.12500000  0.41666667       0.021
  -0.12500000  0.12500000  0.41666667       0.021
   0.12500000  0.37500000  0.41666667       0.021
   0.37500000  0.37500000  0.41666667       0.021
  -0.37500000  0.37500000  0.41666667       0.021
  -0.12500000  0.37500000  0.41666667       0.021
   0.12500000 -0.37500000  0.41666667       0.021
   0.37500000 -0.37500000  0.41666667       0.021
  -0.37500000 -0.37500000  0.41666667       0.021
  -0.12500000 -0.37500000  0.41666667       0.021
   0.12500000 -0.12500000  0.41666667       0.021
   0.37500000 -0.12500000  0.41666667       0.021
  -0.37500000 -0.12500000  0.41666667       0.021
  -0.12500000 -0.12500000  0.41666667       0.021
 
 position of ions in fractional coordinates (direct lattice) 
   0.50000000  0.50000000  0.50000000
   0.00000000  0.00000000  0.00000000
   0.19538542  0.80461458  0.50000000
   0.80461458  0.19538542  0.50000000
   0.30461458  0.30461458  0.00000000
   0.69538542  0.69538542  0.00000000
 
 position of ions in cartesian coordinates  (Angst):
   2.43880998  2.43880998  1.65272786
   0.00000000  0.00000000  0.00000000
   0.95301584  3.92460412  1.65272786
   3.92460412  0.95301584  1.65272786
   1.48579414  1.48579414  0.00000000
   3.39182582  3.39182582  0.00000000
 


--------------------------------------------------------------------------------------------------------


 k-point  1 :   0.1250 0.1250 0.0833  plane waves:    2634
 k-point  2 :   0.3750 0.1250 0.0833  plane waves:    2629
 k-point  3 :  -0.3750 0.1250 0.0833  plane waves:    2629
 k-point  4 :  -0.1250 0.1250 0.0833  plane waves:    2634
 k-point  5 :   0.1250 0.3750 0.0833  plane waves:    2629
 k-point  6 :   0.3750 0.3750 0.0833  plane waves:    2628
 k-point  7 :  -0.3750 0.3750 0.0833  plane waves:    2628
 k-point  8 :  -0.1250 0.3750 0.0833  plane waves:    2629
 k-point  9 :   0.1250-0.3750 0.0833  plane waves:    2629
 k-point 10 :   0.3750-0.3750 0.0833  plane waves:    2628
 k-point 11 :  -0.3750-0.3750 0.0833  plane waves:    2628
 k-point 12 :  -0.1250-0.3750 0.0833  plane waves:    2629
 k-point 13 :   0.1250-0.1250 0.0833  plane waves:    2634
 k-point 14 :   0.3750-0.1250 0.0833  plane waves:    2629
 k-point 15 :  -0.3750-0.1250 0.0833  plane waves:    2629
 k-point 16 :  -0.1250-0.1250 0.0833  plane waves:    2634
 k-point 17 :   0.1250 0.1250 0.2500  plane waves:    2623
 k-point 18 :   0.3750 0.1250 0.2500  plane waves:    2626
 k-point 19 :  -0.3750 0.1250 0.2500  plane waves:    2626
 k-point 20 :  -0.1250 0.1250 0.2500  plane waves:    2623
 k-point 21 :   0.1250 0.3750 0.2500  plane waves:    2626
 k-point 22 :   0.3750 0.3750 0.2500  plane waves:    2632
 k-point 23 :  -0.3750 0.3750 0.2500  plane waves:    2632
 k-point 24 :  -0.1250 0.3750 0.2500  plane waves:    2626
 k-point 25 :   0.1250-0.3750 0.2500  plane waves:    2626
 k-point 26 :   0.3750-0.3750 0.2500  plane waves:    2632
 k-point 27 :  -0.3750-0.3750 0.2500  plane waves:    2632
 k-point 28 :  -0.1250-0.3750 0.2500  plane waves:    2626
 k-point 29 :   0.1250-0.1250 0.2500  plane waves:    2623
 k-point 30 :   0.3750-0.1250 0.2500  plane waves:    2626
 k-point 31 :  -0.3750-0.1250 0.2500  plane waves:    2626
 k-point 32 :  -0.1250-0.1250 0.2500  plane waves:    2623
 k-point 33 :   0.1250 0.1250 0.4167  plane waves:    2620
 k-point 34 :   0.3750 0.1250 0.4167  plane waves:    2622
 k-point 35 :  -0.3750 0.1250 0.4167  plane waves:    2622
 k-point 36 :  -0.1250 0.1250 0.4167  plane waves:    2620
 k-point 37 :   0.1250 0.3750 0.4167  plane waves:    2622
 k-point 38 :   0.3750 0.3750 0.4167  plane waves:    2607
 k-point 39 :  -0.3750 0.3750 0.4167  plane waves:    2607
 k-point 40 :  -0.1250 0.3750 0.4167  plane waves:    2622
 k-point 41 :   0.1250-0.3750 0.4167  plane waves:    2622
 k-point 42 :   0.3750-0.3750 0.4167  plane waves:    2607
 k-point 43 :  -0.3750-0.3750 0.4167  plane waves:    2607
 k-point 44 :  -0.1250-0.3750 0.4167  plane waves:    2622
 k-point 45 :   0.1250-0.1250 0.4167  plane waves:    2620
 k-point 46 :   0.3750-0.1250 0.4167  plane waves:    2622
 k-point 47 :  -0.3750-0.1250 0.4167  plane waves:    2622
 k-point 48 :  -0.1250-0.1250 0.4167  plane waves:    2620

 maximum and minimum number of plane-waves per node :      2634     2607

 maximum number of plane-waves:      2634
 maximum index in each direction: 
   IXMAX=   10   IYMAX=   10   IZMAX=    6
   IXMIN=  -10   IYMIN=  -10   IZMIN=   -7


 serial   3D FFT for wavefunctions
 parallel 3D FFT for charge:
    minimum data exchange during FFTs selected (reduces bandwidth)


 total amount of memory used by VASP MPI-rank0    85125. kBytes
=======================================================================

   base      :      30000. kBytes
   nonl-proj :      36748. kBytes
   fftplans  :       1875. kBytes
   grid      :       3820. kBytes
   one-center:        186. kBytes
   wavefun   :      12496. kBytes
 
     INWAV:  cpu time    0.4603: real time    0.4603
 Broyden mixing: mesh for mixing (old mesh)
   NGX = 19   NGY = 19   NGZ = 13
  (NGX  = 60   NGY  = 60   NGZ  = 40)
  gives a total of   4693 points

 charge density for first step will be calculated from the start-wavefunctions


--------------------------------------------------------------------------------------------------------


 Maximum index for augmentation-charges         4259 (set IRDMAX)


--------------------------------------------------------------------------------------------------------


 initial charge from wavefunction
 First call to EWALD:  gamma=   0.414
 Maximum number of real-space cells 2x 2x 3
 Maximum number of reciprocal cells 3x 3x 2

    FEWALD:  cpu time    0.0011: real time    0.0011


--------------------------------------- Iteration      1(   1)  ---------------------------------------


    POTLOK:  cpu time    0.0349: real time    0.0350
    SETDIJ:  cpu time    5.0566: real time    5.0566
atom =   1  type =  1  l = 2
 
 onsite density matrix
 
spin component  1
 
  0.1203  0.0122 -0.0088  0.0125  0.0000
  0.0122  0.0836  0.0088  0.0363 -0.0140
 -0.0088  0.0088  0.0652  0.0088  0.0013
  0.0125  0.0363  0.0088  0.0820  0.0144
  0.0000 -0.0140  0.0013  0.0144  0.0912
 
spin component  2
 
  0.9261 -0.0045  0.0261 -0.0046 -0.0001
 -0.0045  0.9207 -0.0032  0.0090  0.0053
  0.0261 -0.0032  0.9276 -0.0031 -0.0005
 -0.0046  0.0090 -0.0031  0.9213 -0.0055
 -0.0001  0.0053 -0.0005 -0.0055  0.8937
 
 occupancies and eigenvectors
 
  o =  0.0387  v =  0.0026  0.6536 -0.0133 -0.6666  0.3582  0.0000  0.0000  0.0000  0.0000  0.0000      0.0000  0.0000  0.0000  0.0000  0.0000  0.0000  0.0000  0.0000  0.0000  0.0000
  o =  0.0598  v = -0.2116  0.1697 -0.9416  0.1977  0.0249  0.0000  0.0000  0.0000  0.0000  0.0000      0.0000  0.0000  0.0000  0.0000  0.0000  0.0000  0.0000  0.0000  0.0000  0.0000
  o =  0.0990  v = -0.0298  0.2774 -0.0161 -0.2289 -0.9325  0.0000  0.0000  0.0000  0.0000  0.0000      0.0000  0.0000  0.0000  0.0000  0.0000  0.0000  0.0000  0.0000  0.0000  0.0000
  o =  0.1075  v =  0.6729 -0.4645 -0.3341 -0.4672 -0.0392  0.0000  0.0000  0.0000  0.0000  0.0000      0.0000  0.0000  0.0000  0.0000  0.0000  0.0000  0.0000  0.0000  0.0000  0.0000
  o =  0.1373  v = -0.7082 -0.5014 -0.0354 -0.4959 -0.0042  0.0000  0.0000  0.0000  0.0000  0.0000      0.0000  0.0000  0.0000  0.0000  0.0000  0.0000  0.0000  0.0000  0.0000  0.0000
  o =  0.8910  v =  0.0000  0.0000  0.0000  0.0000  0.0000 -0.0102 -0.2396  0.0185  0.2405  0.9404      0.0000  0.0000  0.0000  0.0000  0.0000  0.0000  0.0000  0.0000  0.0000  0.0000
  o =  0.9006  v =  0.0000  0.0000  0.0000  0.0000  0.0000 -0.7216 -0.0250  0.6898 -0.0499 -0.0150      0.0000  0.0000  0.0000  0.0000  0.0000  0.0000  0.0000  0.0000  0.0000  0.0000
  o =  0.9147  v =  0.0000  0.0000  0.0000  0.0000  0.0000 -0.0134 -0.6835  0.0006  0.6460 -0.3395      0.0000  0.0000  0.0000  0.0000  0.0000  0.0000  0.0000  0.0000  0.0000  0.0000
  o =  0.9277  v =  0.0000  0.0000  0.0000  0.0000  0.0000 -0.1641 -0.6579 -0.2453 -0.6927  0.0126      0.0000  0.0000  0.0000  0.0000  0.0000  0.0000  0.0000  0.0000  0.0000  0.0000
  o =  0.9554  v =  0.0000  0.0000  0.0000  0.0000  0.0000 -0.6723  0.2047 -0.6809  0.2061  0.0055      0.0000  0.0000  0.0000  0.0000  0.0000  0.0000  0.0000  0.0000  0.0000  0.0000
atom =   2  type =  1  l = 2
 
 onsite density matrix
 
spin component  1
 
  0.9287 -0.0043 -0.0084 -0.0044  0.0001
 -0.0043  0.9201 -0.0027 -0.0262  0.0048
 -0.0084 -0.0027  0.9290 -0.0026 -0.0005
 -0.0044 -0.0262 -0.0026  0.9207 -0.0050
  0.0001  0.0048 -0.0005 -0.0050  0.8938
 
spin component  2
 
  0.1231  0.0135 -0.0470  0.0138  0.0001
  0.0135  0.0833  0.0096  0.0117 -0.0143
 -0.0470  0.0096  0.0650  0.0094  0.0013
  0.0138  0.0117  0.0094  0.0817  0.0146
  0.0001 -0.0143  0.0013  0.0146  0.0915
 
 occupancies and eigenvectors
 
  o =  0.0316  v =  0.0000  0.0000  0.0000  0.0000  0.0000 -0.4851  0.2302 -0.8123  0.2272  0.0177      0.0000  0.0000  0.0000  0.0000  0.0000  0.0000  0.0000  0.0000  0.0000  0.0000
  o =  0.0582  v =  0.0000  0.0000  0.0000  0.0000  0.0000  0.0085  0.5835 -0.0019 -0.6207  0.5236      0.0000  0.0000  0.0000  0.0000  0.0000  0.0000  0.0000  0.0000  0.0000  0.0000
  o =  0.0995  v =  0.0000  0.0000  0.0000  0.0000  0.0000 -0.0103  0.6834  0.3746  0.6263 -0.0176      0.0000  0.0000  0.0000  0.0000  0.0000  0.0000  0.0000  0.0000  0.0000  0.0000
  o =  0.1042  v =  0.0000  0.0000  0.0000  0.0000  0.0000 -0.0137  0.3480 -0.0212 -0.3912 -0.8516      0.0000  0.0000  0.0000  0.0000  0.0000  0.0000  0.0000  0.0000  0.0000  0.0000
  o =  0.1513  v =  0.0000  0.0000  0.0000  0.0000  0.0000 -0.8743 -0.1356  0.4465 -0.1333  0.0087      0.0000  0.0000  0.0000  0.0000  0.0000  0.0000  0.0000  0.0000  0.0000  0.0000
  o =  0.8923  v = -0.1916 -0.6431 -0.1431 -0.6818 -0.2538  0.0000  0.0000  0.0000  0.0000  0.0000      0.0000  0.0000  0.0000  0.0000  0.0000  0.0000  0.0000  0.0000  0.0000  0.0000
  o =  0.8929  v = -0.0500 -0.2644 -0.0254 -0.0881  0.9587  0.0000  0.0000  0.0000  0.0000  0.0000      0.0000  0.0000  0.0000  0.0000  0.0000  0.0000  0.0000  0.0000  0.0000  0.0000
  o =  0.9222  v = -0.6753  0.1723 -0.6966  0.1699  0.0095  0.0000  0.0000  0.0000  0.0000  0.0000      0.0000  0.0000  0.0000  0.0000  0.0000  0.0000  0.0000  0.0000  0.0000  0.0000
  o =  0.9373  v =  0.7103 -0.0410 -0.7025 -0.0157  0.0057  0.0000  0.0000  0.0000  0.0000  0.0000      0.0000  0.0000  0.0000  0.0000  0.0000  0.0000  0.0000  0.0000  0.0000  0.0000
  o =  0.9475  v =  0.0130  0.6965 -0.0107 -0.7059  0.1276  0.0000  0.0000  0.0000  0.0000  0.0000      0.0000  0.0000  0.0000  0.0000  0.0000  0.0000  0.0000  0.0000  0.0000  0.0000
     EDDAV:  cpu time    4.2797: real time    4.3004
 BZINTS: Fermi energy:  3.702427; 54.000000 electrons
         Band energy:-818.486178;  BLOECHL correction:  0.000000
       DOS:  cpu time    0.0053: real time    0.0053
    CHARGE:  cpu time    0.5666: real time    0.5666
    MIXING:  cpu time    0.0005: real time    0.0005
    --------------------------------------------
      LOOP:  cpu time    9.9435: real time    9.9644

 eigenvalue-minimisations  :  8736
 total energy-change (2. order) :-0.4670976E+02  (-0.1098361E+03)
 number of electron      54.0000009 magnetization       0.0000000
 augmentation part       20.6490506 magnetization       0.0003019

 Broyden mixing:
  rms(total) = 0.19245E+01    rms(broyden)= 0.19245E+01
  rms(prec ) = 0.20794E+01
  weight for this iteration     100.00

 Free energy of the ion-electron system (eV)
  ---------------------------------------------------
  alpha Z        PSCENC =       196.30408385
  Ewald energy   TEWEN  =     -4180.38209777
  -Hartree energ DENC   =     -2141.59500018
  -exchange      EXHF   =         0.00000000
  -V(xc)+E(xc)   XCENC  =       166.40845581
  PAW double counting   =      7641.31428914    -7599.28407040
  entropy T*S    EENTRO =         0.00000000
  eigenvalues    EBANDS =      -818.48617828
  atomic energy  EATOM  =      6689.01075358
  Solvation  Ediel_sol  =         0.00000000
  ---------------------------------------------------
  free energy    TOTEN  =       -46.70976424 eV

  energy without entropy =      -46.70976424  energy(sigma->0) =      -46.70976424


--------------------------------------------------------------------------------------------------------




--------------------------------------- Iteration      1(   2)  ---------------------------------------


    POTLOK:  cpu time    0.0331: real time    0.0331
    SETDIJ:  cpu time    5.1082: real time    5.1083
atom =   1  type =  1  l = 2
 
 onsite density matrix
 
spin component  1
 
  0.0174 -0.0020  0.0270 -0.0021 -0.0001
 -0.0020  0.0105 -0.0014  0.0179  0.0016
  0.0270 -0.0014  0.0097 -0.0015 -0.0002
 -0.0021  0.0179 -0.0015  0.0106 -0.0021
 -0.0001  0.0016 -0.0002 -0.0021 -0.0239
 
spin component  2
 
  1.0160  0.0070 -0.0011  0.0072  0.0001
  0.0070  0.9929  0.0054  0.0233 -0.0061
 -0.0011  0.0054  0.9834  0.0055  0.0006
  0.0072  0.0233  0.0055  0.9922  0.0068
  0.0001 -0.0061  0.0006  0.0068  1.0026
 
 occupancies and eigenvectors
 
  o = -0.0243  v =  0.0029  0.1019 -0.0082 -0.1112 -0.9885  0.0000  0.0000  0.0000  0.0000  0.0000      0.0000  0.0000  0.0000  0.0000  0.0000  0.0000  0.0000  0.0000  0.0000  0.0000
  o = -0.0137  v =  0.6562  0.0064 -0.7545  0.0062  0.0081  0.0000  0.0000  0.0000  0.0000  0.0000      0.0000  0.0000  0.0000  0.0000  0.0000  0.0000  0.0000  0.0000  0.0000  0.0000
  o = -0.0070  v = -0.0018  0.7012  0.0003 -0.6968  0.1506  0.0000  0.0000  0.0000  0.0000  0.0000      0.0000  0.0000  0.0000  0.0000  0.0000  0.0000  0.0000  0.0000  0.0000  0.0000
  o =  0.0276  v =  0.1856  0.6829  0.1727  0.6851 -0.0075  0.0000  0.0000  0.0000  0.0000  0.0000      0.0000  0.0000  0.0000  0.0000  0.0000  0.0000  0.0000  0.0000  0.0000  0.0000
  o =  0.0418  v = -0.7314  0.1777 -0.6331  0.1807  0.0011  0.0000  0.0000  0.0000  0.0000  0.0000      0.0000  0.0000  0.0000  0.0000  0.0000  0.0000  0.0000  0.0000  0.0000  0.0000
  o =  0.9670  v =  0.0000  0.0000  0.0000  0.0000  0.0000 -0.0058 -0.6771 -0.0012  0.6930 -0.2477      0.0000  0.0000  0.0000  0.0000  0.0000  0.0000  0.0000  0.0000  0.0000  0.0000
  o =  0.9813  v =  0.0000  0.0000  0.0000  0.0000  0.0000 -0.1030  0.1732 -0.9637  0.1740  0.0207      0.0000  0.0000  0.0000  0.0000  0.0000  0.0000  0.0000  0.0000  0.0000  0.0000
  o =  1.0048  v =  0.0000  0.0000  0.0000  0.0000  0.0000  0.0753 -0.2443 -0.0123  0.1054  0.9609      0.0000  0.0000  0.0000  0.0000  0.0000  0.0000  0.0000  0.0000  0.0000  0.0000
  o =  1.0075  v =  0.0000  0.0000  0.0000  0.0000  0.0000  0.7208 -0.4375 -0.2421 -0.4648 -0.1198      0.0000  0.0000  0.0000  0.0000  0.0000  0.0000  0.0000  0.0000  0.0000  0.0000
  o =  1.0265  v =  0.0000  0.0000  0.0000  0.0000  0.0000 -0.6813 -0.5104 -0.1119 -0.5122 -0.0216      0.0000  0.0000  0.0000  0.0000  0.0000  0.0000  0.0000  0.0000  0.0000  0.0000
atom =   2  type =  1  l = 2
 
 onsite density matrix
 
spin component  1
 
  1.0116  0.0061 -0.0275  0.0062 -0.0000
  0.0061  0.9961  0.0079  0.0034 -0.0081
 -0.0275  0.0079  0.9848  0.0079  0.0008
  0.0062  0.0034  0.0079  0.9946  0.0086
 -0.0000 -0.0081  0.0008  0.0086  0.9984
 
spin component  2
 
  0.0237 -0.0017 -0.0210 -0.0016  0.0001
 -0.0017  0.0069 -0.0020 -0.0253  0.0025
 -0.0210 -0.0020  0.0097 -0.0021 -0.0004
 -0.0016 -0.0253 -0.0021  0.0077 -0.0030
  0.0001  0.0025 -0.0004 -0.0030 -0.0210
 
 occupancies and eigenvectors
 
  o = -0.0213  v =  0.0000  0.0000  0.0000  0.0000  0.0000  0.0256  0.0621  0.0435  0.1596  0.9839      0.0000  0.0000  0.0000  0.0000  0.0000  0.0000  0.0000  0.0000  0.0000  0.0000
  o = -0.0190  v =  0.0000  0.0000  0.0000  0.0000  0.0000  0.1537  0.6870  0.2060  0.6597 -0.1634      0.0000  0.0000  0.0000  0.0000  0.0000  0.0000  0.0000  0.0000  0.0000  0.0000
  o = -0.0044  v =  0.0000  0.0000  0.0000  0.0000  0.0000  0.5626 -0.1866  0.7842 -0.1836 -0.0077      0.0000  0.0000  0.0000  0.0000  0.0000  0.0000  0.0000  0.0000  0.0000  0.0000
  o =  0.0329  v =  0.0000  0.0000  0.0000  0.0000  0.0000  0.0106  0.6994 -0.0069 -0.7111  0.0713      0.0000  0.0000  0.0000  0.0000  0.0000  0.0000  0.0000  0.0000  0.0000  0.0000
  o =  0.0388  v =  0.0000  0.0000  0.0000  0.0000  0.0000 -0.8118  0.0118  0.5837 -0.0065 -0.0044      0.0000  0.0000  0.0000  0.0000  0.0000  0.0000  0.0000  0.0000  0.0000  0.0000
  o =  0.9621  v =  0.5008 -0.2508  0.7875 -0.2568 -0.0120  0.0000  0.0000  0.0000  0.0000  0.0000      0.0000  0.0000  0.0000  0.0000  0.0000  0.0000  0.0000  0.0000  0.0000  0.0000
  o =  0.9829  v =  0.0006  0.5312 -0.0143 -0.5899  0.6080  0.0000  0.0000  0.0000  0.0000  0.0000      0.0000  0.0000  0.0000  0.0000  0.0000  0.0000  0.0000  0.0000  0.0000  0.0000
  o =  1.0041  v = -0.1446 -0.6922 -0.3322 -0.6241 -0.0085  0.0000  0.0000  0.0000  0.0000  0.0000      0.0000  0.0000  0.0000  0.0000  0.0000  0.0000  0.0000  0.0000  0.0000  0.0000
  o =  1.0075  v = -0.0214  0.4174 -0.0096 -0.4420 -0.7937  0.0000  0.0000  0.0000  0.0000  0.0000      0.0000  0.0000  0.0000  0.0000  0.0000  0.0000  0.0000  0.0000  0.0000  0.0000
  o =  1.0289  v =  0.8531  0.0400 -0.5188  0.0343 -0.0148  0.0000  0.0000  0.0000  0.0000  0.0000      0.0000  0.0000  0.0000  0.0000  0.0000  0.0000  0.0000  0.0000  0.0000  0.0000
     EDDAV:  cpu time    3.8630: real time    3.8631
 BZINTS: Fermi energy:  1.152678; 54.000000 electrons
         Band energy:-807.261879;  BLOECHL correction:  0.000000
       DOS:  cpu time    0.0037: real time    0.0037
    CHARGE:  cpu time    0.5653: real time    0.5653
    MIXING:  cpu time    0.0005: real time    0.0005
    --------------------------------------------
      LOOP:  cpu time    9.5739: real time    9.5740

 eigenvalue-minimisations  :  7464
 total energy-change (2. order) :-0.1955575E+02  (-0.2016150E+02)
 number of electron      54.0000009 magnetization       0.0000000
 augmentation part       20.0256700 magnetization       0.0017711

 Broyden mixing:
  rms(total) = 0.20119E+01    rms(broyden)= 0.20119E+01
  rms(prec ) = 0.20321E+01
  weight for this iteration     100.00

 eigenvalues of (default mixing * dielectric matrix)
  average eigenvalue GAMMA=   0.3060
  0.3060

 Free energy of the ion-electron system (eV)
  ---------------------------------------------------
  alpha Z        PSCENC =       196.30408385
  Ewald energy   TEWEN  =     -4180.38209777
  -Hartree energ DENC   =     -2172.41009971
  -exchange      EXHF   =         0.00000000
  -V(xc)+E(xc)   XCENC  =       161.84215187
  PAW double counting   =      7487.70022740    -7441.06865637
  entropy T*S    EENTRO =         0.00000000
  eigenvalues    EBANDS =      -807.26187944
  atomic energy  EATOM  =      6689.01075358
  Solvation  Ediel_sol  =         0.00000000
  ---------------------------------------------------
  free energy    TOTEN  =       -66.26551659 eV

  energy without entropy =      -66.26551659  energy(sigma->0) =      -66.26551659


--------------------------------------------------------------------------------------------------------




--------------------------------------- Iteration      1(   3)  ---------------------------------------


    POTLOK:  cpu time    0.0327: real time    0.0327
    SETDIJ:  cpu time    5.1213: real time    5.1213
atom =   1  type =  1  l = 2
 
 onsite density matrix
 
spin component  1
 
  0.0406  0.0011  0.0169  0.0012 -0.0000
  0.0011  0.0277  0.0010  0.0198 -0.0013
  0.0169  0.0010  0.0241  0.0010  0.0001
  0.0012  0.0198  0.0010  0.0276  0.0013
 -0.0000 -0.0013  0.0001  0.0013  0.0098
 
spin component  2
 
  0.9882  0.0028  0.0120  0.0029  0.0000
  0.0028  0.9747  0.0021  0.0199 -0.0022
  0.0120  0.0021  0.9682  0.0021  0.0002
  0.0029  0.0199  0.0021  0.9744  0.0023
  0.0000 -0.0022  0.0002  0.0023  0.9654
 
 occupancies and eigenvectors
 
  o =  0.0068  v =  0.0057  0.6076 -0.0096 -0.6100  0.5085  0.0000  0.0000  0.0000  0.0000  0.0000      0.0000  0.0000  0.0000  0.0000  0.0000  0.0000  0.0000  0.0000  0.0000  0.0000
  o =  0.0109  v =  0.0133 -0.3589 -0.0242  0.3604  0.8605  0.0000  0.0000  0.0000  0.0000  0.0000      0.0000  0.0000  0.0000  0.0000  0.0000  0.0000  0.0000  0.0000  0.0000  0.0000
  o =  0.0135  v = -0.5294 -0.0107  0.8478 -0.0044  0.0294  0.0000  0.0000  0.0000  0.0000  0.0000      0.0000  0.0000  0.0000  0.0000  0.0000  0.0000  0.0000  0.0000  0.0000  0.0000
  o =  0.0465  v =  0.3593 -0.6439  0.2129 -0.6411  0.0004  0.0000  0.0000  0.0000  0.0000  0.0000      0.0000  0.0000  0.0000  0.0000  0.0000  0.0000  0.0000  0.0000  0.0000  0.0000
  o =  0.0522  v = -0.7684 -0.2954 -0.4850 -0.2950 -0.0014  0.0000  0.0000  0.0000  0.0000  0.0000      0.0000  0.0000  0.0000  0.0000  0.0000  0.0000  0.0000  0.0000  0.0000  0.0000
  o =  0.9537  v =  0.0000  0.0000  0.0000  0.0000  0.0000  0.0046  0.6786 -0.0054 -0.6850  0.2650      0.0000  0.0000  0.0000  0.0000  0.0000  0.0000  0.0000  0.0000  0.0000  0.0000
  o =  0.9625  v =  0.0000  0.0000  0.0000  0.0000  0.0000 -0.4199 -0.0090  0.9060 -0.0344 -0.0400      0.0000  0.0000  0.0000  0.0000  0.0000  0.0000  0.0000  0.0000  0.0000  0.0000
  o =  0.9663  v =  0.0000  0.0000  0.0000  0.0000  0.0000 -0.0215 -0.1893  0.0377  0.1847  0.9634      0.0000  0.0000  0.0000  0.0000  0.0000  0.0000  0.0000  0.0000  0.0000  0.0000
  o =  0.9893  v =  0.0000  0.0000  0.0000  0.0000  0.0000  0.6705 -0.4869  0.2877 -0.4801  0.0001      0.0000  0.0000  0.0000  0.0000  0.0000  0.0000  0.0000  0.0000  0.0000  0.0000
  o =  0.9991  v =  0.0000  0.0000  0.0000  0.0000  0.0000 -0.6112 -0.5162 -0.3081 -0.5148 -0.0043      0.0000  0.0000  0.0000  0.0000  0.0000  0.0000  0.0000  0.0000  0.0000  0.0000
atom =   2  type =  1  l = 2
 
 onsite density matrix
 
spin component  1
 
  0.9879  0.0021 -0.0233  0.0022  0.0000
  0.0021  0.9748  0.0031 -0.0098 -0.0031
 -0.0233  0.0031  0.9692  0.0030  0.0002
  0.0022 -0.0098  0.0030  0.9744  0.0032
  0.0000 -0.0031  0.0002  0.0032  0.9642
 
spin component  2
 
  0.0423  0.0013 -0.0233  0.0013  0.0001
  0.0013  0.0272  0.0016 -0.0148 -0.0014
 -0.0233  0.0016  0.0243  0.0015  0.0001
  0.0013 -0.0148  0.0015  0.0271  0.0013
  0.0001 -0.0014  0.0001  0.0013  0.0100
 
 occupancies and eigenvectors
 
  o =  0.0068  v =  0.0000  0.0000  0.0000  0.0000  0.0000 -0.5037  0.3263 -0.7304  0.3237  0.0392      0.0000  0.0000  0.0000  0.0000  0.0000  0.0000  0.0000  0.0000  0.0000  0.0000
  o =  0.0099  v =  0.0000  0.0000  0.0000  0.0000  0.0000  0.0189  0.0268  0.0273 -0.0568  0.9975      0.0000  0.0000  0.0000  0.0000  0.0000  0.0000  0.0000  0.0000  0.0000  0.0000
  o =  0.0138  v =  0.0000  0.0000  0.0000  0.0000  0.0000  0.2558  0.6267  0.3825  0.6289  0.0036      0.0000  0.0000  0.0000  0.0000  0.0000  0.0000  0.0000  0.0000  0.0000  0.0000
  o =  0.0421  v =  0.0000  0.0000  0.0000  0.0000  0.0000  0.0041  0.7072 -0.0023 -0.7045 -0.0591      0.0000  0.0000  0.0000  0.0000  0.0000  0.0000  0.0000  0.0000  0.0000  0.0000
  o =  0.0582  v =  0.0000  0.0000  0.0000  0.0000  0.0000 -0.8249 -0.0008  0.5652 -0.0074 -0.0002      0.0000  0.0000  0.0000  0.0000  0.0000  0.0000  0.0000  0.0000  0.0000  0.0000
  o =  0.9514  v = -0.5217  0.2571 -0.7712  0.2587  0.0130  0.0000  0.0000  0.0000  0.0000  0.0000      0.0000  0.0000  0.0000  0.0000  0.0000  0.0000  0.0000  0.0000  0.0000  0.0000
  o =  0.9633  v = -0.0005  0.1099 -0.0066 -0.1792  0.9776  0.0000  0.0000  0.0000  0.0000  0.0000      0.0000  0.0000  0.0000  0.0000  0.0000  0.0000  0.0000  0.0000  0.0000  0.0000
  o =  0.9669  v = -0.2026 -0.6583 -0.3035 -0.6566 -0.0485  0.0000  0.0000  0.0000  0.0000  0.0000      0.0000  0.0000  0.0000  0.0000  0.0000  0.0000  0.0000  0.0000  0.0000  0.0000
  o =  0.9854  v =  0.0010  0.6989 -0.0010 -0.6855 -0.2042  0.0000  0.0000  0.0000  0.0000  0.0000      0.0000  0.0000  0.0000  0.0000  0.0000  0.0000  0.0000  0.0000  0.0000  0.0000
  o =  1.0036  v = -0.8287 -0.0001  0.5596 -0.0030  0.0028  0.0000  0.0000  0.0000  0.0000  0.0000      0.0000  0.0000  0.0000  0.0000  0.0000  0.0000  0.0000  0.0000  0.0000  0.0000
     EDDAV:  cpu time    4.1358: real time    4.1359
 BZINTS: Fermi energy:  1.040265; 54.000000 electrons
         Band energy:-811.908766;  BLOECHL correction:  0.000000
       DOS:  cpu time    0.0031: real time    0.0031
    CHARGE:  cpu time    0.5651: real time    0.5651
    MIXING:  cpu time    0.0006: real time    0.0006
    --------------------------------------------
      LOOP:  cpu time    9.8586: real time    9.8587

 eigenvalue-minimisations  :  8316
 total energy-change (2. order) :-0.5310090E+00  (-0.3121196E+00)
 number of electron      54.0000009 magnetization      -0.0000000
 augmentation part       19.9676901 magnetization       0.0022085

 Broyden mixing:
  rms(total) = 0.15952E+01    rms(broyden)= 0.15952E+01
  rms(prec ) = 0.16157E+01
  weight for this iteration     100.00

 eigenvalues of (default mixing * dielectric matrix)
  average eigenvalue GAMMA=   1.1792
  1.7445  0.6138

 Free energy of the ion-electron system (eV)
  ---------------------------------------------------
  alpha Z        PSCENC =       196.30408385
  Ewald energy   TEWEN  =     -4180.38209777
  -Hartree energ DENC   =     -2173.36947277
  -exchange      EXHF   =         0.00000000
  -V(xc)+E(xc)   XCENC  =       166.72070321
  PAW double counting   =      7290.49860623    -7243.67033574
  entropy T*S    EENTRO =         0.00000000
  eigenvalues    EBANDS =      -811.90876615
  atomic energy  EATOM  =      6689.01075358
  Solvation  Ediel_sol  =         0.00000000
  ---------------------------------------------------
  free energy    TOTEN  =       -66.79652555 eV

  energy without entropy =      -66.79652555  energy(sigma->0) =      -66.79652555


--------------------------------------------------------------------------------------------------------




--------------------------------------- Iteration      1(   4)  ---------------------------------------


    POTLOK:  cpu time    0.0328: real time    0.0328
    SETDIJ:  cpu time    5.0873: real time    5.0875
atom =   1  type =  1  l = 2
 
 onsite density matrix
 
spin component  1
 
  0.0319 -0.0005  0.0266 -0.0006 -0.0000
 -0.0005  0.0258 -0.0007  0.0194  0.0011
  0.0266 -0.0007  0.0219 -0.0007 -0.0001
 -0.0006  0.0194 -0.0007  0.0259 -0.0014
 -0.0000  0.0011 -0.0001 -0.0014 -0.0022
 
spin component  2
 
  0.9866  0.0020  0.0088  0.0021  0.0000
  0.0020  0.9747  0.0019  0.0169 -0.0025
  0.0088  0.0019  0.9691  0.0019  0.0003
  0.0021  0.0169  0.0019  0.9745  0.0029
  0.0000 -0.0025  0.0003  0.0029  0.9702
 
 occupancies and eigenvectors
 
  o = -0.0026  v =  0.0206  0.1352 -0.0285 -0.1411 -0.9801  0.0000  0.0000  0.0000  0.0000  0.0000      0.0000  0.0000  0.0000  0.0000  0.0000  0.0000  0.0000  0.0000  0.0000  0.0000
  o = -0.0002  v =  0.6382 -0.0103 -0.7691  0.0028  0.0339  0.0000  0.0000  0.0000  0.0000  0.0000      0.0000  0.0000  0.0000  0.0000  0.0000  0.0000  0.0000  0.0000  0.0000  0.0000
  o =  0.0069  v =  0.0016  0.6946 -0.0019 -0.6923  0.1956  0.0000  0.0000  0.0000  0.0000  0.0000      0.0000  0.0000  0.0000  0.0000  0.0000  0.0000  0.0000  0.0000  0.0000  0.0000
  o =  0.0451  v =  0.1062  0.7002  0.0811  0.7013 -0.0045  0.0000  0.0000  0.0000  0.0000  0.0000      0.0000  0.0000  0.0000  0.0000  0.0000  0.0000  0.0000  0.0000  0.0000  0.0000
  o =  0.0542  v = -0.7623  0.0941 -0.6333  0.0948  0.0017  0.0000  0.0000  0.0000  0.0000  0.0000      0.0000  0.0000  0.0000  0.0000  0.0000  0.0000  0.0000  0.0000  0.0000  0.0000
  o =  0.9567  v =  0.0000  0.0000  0.0000  0.0000  0.0000  0.0041  0.6772 -0.0069 -0.6843  0.2703      0.0000  0.0000  0.0000  0.0000  0.0000  0.0000  0.0000  0.0000  0.0000  0.0000
  o =  0.9654  v =  0.0000  0.0000  0.0000  0.0000  0.0000 -0.3756 -0.0256  0.9245 -0.0495 -0.0318      0.0000  0.0000  0.0000  0.0000  0.0000  0.0000  0.0000  0.0000  0.0000  0.0000
  o =  0.9713  v =  0.0000  0.0000  0.0000  0.0000  0.0000 -0.0188 -0.1996  0.0297  0.1821  0.9622      0.0000  0.0000  0.0000  0.0000  0.0000  0.0000  0.0000  0.0000  0.0000  0.0000
  o =  0.9872  v =  0.0000  0.0000  0.0000  0.0000  0.0000  0.7224 -0.4567  0.2565 -0.4514 -0.0031      0.0000  0.0000  0.0000  0.0000  0.0000  0.0000  0.0000  0.0000  0.0000  0.0000
  o =  0.9946  v =  0.0000  0.0000  0.0000  0.0000  0.0000 -0.5802 -0.5407 -0.2801 -0.5407 -0.0125      0.0000  0.0000  0.0000  0.0000  0.0000  0.0000  0.0000  0.0000  0.0000  0.0000
atom =   2  type =  1  l = 2
 
 onsite density matrix
 
spin component  1
 
  0.9848  0.0027 -0.0196  0.0027  0.0000
  0.0027  0.9768  0.0030 -0.0074 -0.0027
 -0.0196  0.0030  0.9686  0.0029  0.0003
  0.0027 -0.0074  0.0029  0.9762  0.0030
  0.0000 -0.0027  0.0003  0.0030  0.9691
 
spin component  2
 
  0.0342 -0.0014 -0.0228 -0.0013 -0.0000
 -0.0014  0.0235 -0.0011 -0.0229  0.0010
 -0.0228 -0.0011  0.0226 -0.0011 -0.0002
 -0.0013 -0.0229 -0.0011  0.0239 -0.0012
 -0.0000  0.0010 -0.0002 -0.0012 -0.0014
 
 occupancies and eigenvectors
 
  o = -0.0014  v =  0.0000  0.0000  0.0000  0.0000  0.0000  0.0493  0.0808  0.0648  0.1262  0.9854      0.0000  0.0000  0.0000  0.0000  0.0000  0.0000  0.0000  0.0000  0.0000  0.0000
  o = -0.0003  v =  0.0000  0.0000  0.0000  0.0000  0.0000 -0.2630 -0.6385 -0.3232 -0.6252  0.1668      0.0000  0.0000  0.0000  0.0000  0.0000  0.0000  0.0000  0.0000  0.0000  0.0000
  o =  0.0060  v =  0.0000  0.0000  0.0000  0.0000  0.0000 -0.5518  0.3006 -0.7179  0.2995  0.0119      0.0000  0.0000  0.0000  0.0000  0.0000  0.0000  0.0000  0.0000  0.0000  0.0000
  o =  0.0466  v =  0.0000  0.0000  0.0000  0.0000  0.0000  0.0005 -0.7038  0.0004  0.7096 -0.0332      0.0000  0.0000  0.0000  0.0000  0.0000  0.0000  0.0000  0.0000  0.0000  0.0000
  o =  0.0519  v =  0.0000  0.0000  0.0000  0.0000  0.0000  0.7899 -0.0072 -0.6131 -0.0073  0.0023      0.0000  0.0000  0.0000  0.0000  0.0000  0.0000  0.0000  0.0000  0.0000  0.0000
  o =  0.9535  v =  0.5288 -0.2375  0.7792 -0.2378 -0.0149  0.0000  0.0000  0.0000  0.0000  0.0000      0.0000  0.0000  0.0000  0.0000  0.0000  0.0000  0.0000  0.0000  0.0000  0.0000
  o =  0.9680  v = -0.0050  0.1020 -0.0227 -0.2481  0.9631  0.0000  0.0000  0.0000  0.0000  0.0000      0.0000  0.0000  0.0000  0.0000  0.0000  0.0000  0.0000  0.0000  0.0000  0.0000
  o =  0.9712  v = -0.1609 -0.6692 -0.2963 -0.6537 -0.1053  0.0000  0.0000  0.0000  0.0000  0.0000      0.0000  0.0000  0.0000  0.0000  0.0000  0.0000  0.0000  0.0000  0.0000  0.0000
  o =  0.9850  v = -0.0004 -0.6963 -0.0016  0.6738  0.2473  0.0000  0.0000  0.0000  0.0000  0.0000      0.0000  0.0000  0.0000  0.0000  0.0000  0.0000  0.0000  0.0000  0.0000  0.0000
  o =  0.9979  v =  0.8333  0.0218 -0.5519  0.0235 -0.0050  0.0000  0.0000  0.0000  0.0000  0.0000      0.0000  0.0000  0.0000  0.0000  0.0000  0.0000  0.0000  0.0000  0.0000  0.0000
     EDDAV:  cpu time    4.0726: real time    4.0727
 BZINTS: Fermi energy:  0.717287; 54.000000 electrons
         Band energy:-817.603180;  BLOECHL correction:  0.000000
       DOS:  cpu time    0.0032: real time    0.0032
    CHARGE:  cpu time    0.5591: real time    0.5591
    MIXING:  cpu time    0.0006: real time    0.0006
    --------------------------------------------
      LOOP:  cpu time    9.7555: real time    9.7558

 eigenvalue-minimisations  :  8172
 total energy-change (2. order) : 0.1008834E+00  (-0.9093718E-01)
 number of electron      54.0000009 magnetization      -0.0000000
 augmentation part       20.0226818 magnetization       0.0006111

 Broyden mixing:
  rms(total) = 0.44711E+00    rms(broyden)= 0.44710E+00
  rms(prec ) = 0.47371E+00
  weight for this iteration     100.00

 eigenvalues of (default mixing * dielectric matrix)
  average eigenvalue GAMMA=   1.1374
  1.7486  0.8318  0.8318

 Free energy of the ion-electron system (eV)
  ---------------------------------------------------
  alpha Z        PSCENC =       196.30408385
  Ewald energy   TEWEN  =     -4180.38209777
  -Hartree energ DENC   =     -2173.09363517
  -exchange      EXHF   =         0.00000000
  -V(xc)+E(xc)   XCENC  =       167.24197592
  PAW double counting   =      6779.57367443    -6727.74721706
  entropy T*S    EENTRO =         0.00000000
  eigenvalues    EBANDS =      -817.60317993
  atomic energy  EATOM  =      6689.01075358
  Solvation  Ediel_sol  =         0.00000000
  ---------------------------------------------------
  free energy    TOTEN  =       -66.69564215 eV

  energy without entropy =      -66.69564215  energy(sigma->0) =      -66.69564215


--------------------------------------------------------------------------------------------------------




--------------------------------------- Iteration      1(   5)  ---------------------------------------


    POTLOK:  cpu time    0.0330: real time    0.0330
    SETDIJ:  cpu time    5.0381: real time    5.0381
atom =   1  type =  1  l = 2
 
 onsite density matrix
 
spin component  1
 
  0.0550  0.0020  0.0152  0.0020  0.0000
  0.0020  0.0411  0.0017  0.0212 -0.0023
  0.0152  0.0017  0.0351  0.0018  0.0002
  0.0020  0.0212  0.0018  0.0409  0.0027
  0.0000 -0.0023  0.0002  0.0027  0.0311
 
spin component  2
 
  0.9612 -0.0017  0.0241 -0.0017 -0.0001
 -0.0017  0.9609 -0.0015  0.0138  0.0020
  0.0241 -0.0015  0.9573 -0.0015 -0.0002
 -0.0017  0.0138 -0.0015  0.9611 -0.0024
 -0.0001  0.0020 -0.0002 -0.0024  0.9352
 
 occupancies and eigenvectors
 
  o =  0.0188  v = -0.0040 -0.6767  0.0059  0.6822 -0.2769  0.0000  0.0000  0.0000  0.0000  0.0000      0.0000  0.0000  0.0000  0.0000  0.0000  0.0000  0.0000  0.0000  0.0000  0.0000
  o =  0.0269  v =  0.4728  0.0048 -0.8802  0.0279  0.0314  0.0000  0.0000  0.0000  0.0000  0.0000      0.0000  0.0000  0.0000  0.0000  0.0000  0.0000  0.0000  0.0000  0.0000  0.0000
  o =  0.0321  v = -0.0205 -0.2012  0.0281  0.1898  0.9603  0.0000  0.0000  0.0000  0.0000  0.0000      0.0000  0.0000  0.0000  0.0000  0.0000  0.0000  0.0000  0.0000  0.0000  0.0000
  o =  0.0590  v = -0.5873  0.5347 -0.2956  0.5309  0.0032  0.0000  0.0000  0.0000  0.0000  0.0000      0.0000  0.0000  0.0000  0.0000  0.0000  0.0000  0.0000  0.0000  0.0000  0.0000
  o =  0.0664  v = -0.6566 -0.4644 -0.3703 -0.4648 -0.0085  0.0000  0.0000  0.0000  0.0000  0.0000      0.0000  0.0000  0.0000  0.0000  0.0000  0.0000  0.0000  0.0000  0.0000  0.0000
  o =  0.9345  v =  0.0000  0.0000  0.0000  0.0000  0.0000  0.1334  0.1590 -0.1508 -0.1666 -0.9521      0.0000  0.0000  0.0000  0.0000  0.0000  0.0000  0.0000  0.0000  0.0000  0.0000
  o =  0.9351  v =  0.0000  0.0000  0.0000  0.0000  0.0000  0.6649 -0.0337 -0.7193  0.0378  0.1948      0.0000  0.0000  0.0000  0.0000  0.0000  0.0000  0.0000  0.0000  0.0000  0.0000
  o =  0.9479  v =  0.0000  0.0000  0.0000  0.0000  0.0000  0.0024  0.6908 -0.0023 -0.6835  0.2356      0.0000  0.0000  0.0000  0.0000  0.0000  0.0000  0.0000  0.0000  0.0000  0.0000
  o =  0.9738  v =  0.0000  0.0000  0.0000  0.0000  0.0000  0.2277  0.6697  0.2124  0.6742 -0.0079      0.0000  0.0000  0.0000  0.0000  0.0000  0.0000  0.0000  0.0000  0.0000  0.0000
  o =  0.9846  v =  0.0000  0.0000  0.0000  0.0000  0.0000 -0.6988  0.2189 -0.6440  0.2215  0.0019      0.0000  0.0000  0.0000  0.0000  0.0000  0.0000  0.0000  0.0000  0.0000  0.0000
atom =   2  type =  1  l = 2
 
 onsite density matrix
 
spin component  1
 
  0.9640 -0.0022 -0.0161 -0.0022 -0.0000
 -0.0022  0.9584 -0.0023 -0.0212  0.0023
 -0.0161 -0.0023  0.9577 -0.0023 -0.0003
 -0.0022 -0.0212 -0.0023  0.9590 -0.0025
 -0.0000  0.0023 -0.0003 -0.0025  0.9366
 
spin component  2
 
  0.0522  0.0025 -0.0248  0.0025  0.0000
  0.0025  0.0437  0.0028 -0.0124 -0.0027
 -0.0248  0.0028  0.0347  0.0027  0.0003
  0.0025 -0.0124  0.0027  0.0431  0.0029
  0.0000 -0.0027  0.0003  0.0029  0.0297
 
 occupancies and eigenvectors
 
  o =  0.0154  v =  0.0000  0.0000  0.0000  0.0000  0.0000 -0.5506  0.2250 -0.7715  0.2254  0.0146      0.0000  0.0000  0.0000  0.0000  0.0000  0.0000  0.0000  0.0000  0.0000  0.0000
  o =  0.0290  v =  0.0000  0.0000  0.0000  0.0000  0.0000  0.0033 -0.0429  0.0148  0.1653 -0.9852      0.0000  0.0000  0.0000  0.0000  0.0000  0.0000  0.0000  0.0000  0.0000  0.0000
  o =  0.0327  v =  0.0000  0.0000  0.0000  0.0000  0.0000 -0.1709 -0.6690 -0.2693 -0.6657 -0.0872      0.0000  0.0000  0.0000  0.0000  0.0000  0.0000  0.0000  0.0000  0.0000  0.0000
  o =  0.0564  v =  0.0000  0.0000  0.0000  0.0000  0.0000 -0.0003  0.7070  0.0015 -0.6918 -0.1468      0.0000  0.0000  0.0000  0.0000  0.0000  0.0000  0.0000  0.0000  0.0000  0.0000
  o =  0.0698  v =  0.0000  0.0000  0.0000  0.0000  0.0000 -0.8171 -0.0121  0.5762 -0.0117  0.0045      0.0000  0.0000  0.0000  0.0000  0.0000  0.0000  0.0000  0.0000  0.0000  0.0000
  o =  0.9352  v =  0.2790  0.6137  0.3300  0.6277  0.2064  0.0000  0.0000  0.0000  0.0000  0.0000      0.0000  0.0000  0.0000  0.0000  0.0000  0.0000  0.0000  0.0000  0.0000  0.0000
  o =  0.9364  v =  0.0547  0.1898  0.0569  0.0810 -0.9753  0.0000  0.0000  0.0000  0.0000  0.0000      0.0000  0.0000  0.0000  0.0000  0.0000  0.0000  0.0000  0.0000  0.0000  0.0000
  o =  0.9467  v = -0.5674  0.3114 -0.6965  0.3094  0.0139  0.0000  0.0000  0.0000  0.0000  0.0000      0.0000  0.0000  0.0000  0.0000  0.0000  0.0000  0.0000  0.0000  0.0000  0.0000
  o =  0.9772  v =  0.7728 -0.0114 -0.6346  0.0000  0.0041  0.0000  0.0000  0.0000  0.0000  0.0000      0.0000  0.0000  0.0000  0.0000  0.0000  0.0000  0.0000  0.0000  0.0000  0.0000
  o =  0.9802  v =  0.0057  0.7002 -0.0052 -0.7097  0.0773  0.0000  0.0000  0.0000  0.0000  0.0000      0.0000  0.0000  0.0000  0.0000  0.0000  0.0000  0.0000  0.0000  0.0000  0.0000
     EDDAV:  cpu time    3.9170: real time    3.9172
 BZINTS: Fermi energy:  0.728012; 54.000000 electrons
         Band energy:-816.699458;  BLOECHL correction:  0.000000
       DOS:  cpu time    0.0032: real time    0.0032
    CHARGE:  cpu time    0.5642: real time    0.5642
    MIXING:  cpu time    0.0006: real time    0.0006
    --------------------------------------------
      LOOP:  cpu time    9.5559: real time    9.5562

 eigenvalue-minimisations  :  7644
 total energy-change (2. order) : 0.1171408E-01  (-0.9448151E-02)
 number of electron      54.0000009 magnetization      -0.0000000
 augmentation part       20.0193923 magnetization      -0.0000524

 Broyden mixing:
  rms(total) = 0.19258E+00    rms(broyden)= 0.19258E+00
  rms(prec ) = 0.21711E+00
  weight for this iteration     100.00

 eigenvalues of (default mixing * dielectric matrix)
  average eigenvalue GAMMA=   1.1334
  2.3156  0.8074  0.8074  0.6031

 Free energy of the ion-electron system (eV)
  ---------------------------------------------------
  alpha Z        PSCENC =       196.30408385
  Ewald energy   TEWEN  =     -4180.38209777
  -Hartree energ DENC   =     -2173.22760266
  -exchange      EXHF   =         0.00000000
  -V(xc)+E(xc)   XCENC  =       166.12331885
  PAW double counting   =      6619.15399570    -6566.96692172
  entropy T*S    EENTRO =         0.00000000
  eigenvalues    EBANDS =      -816.69945789
  atomic energy  EATOM  =      6689.01075358
  Solvation  Ediel_sol  =         0.00000000
  ---------------------------------------------------
  free energy    TOTEN  =       -66.68392806 eV

  energy without entropy =      -66.68392806  energy(sigma->0) =      -66.68392806


--------------------------------------------------------------------------------------------------------




--------------------------------------- Iteration      1(   6)  ---------------------------------------


    POTLOK:  cpu time    0.0329: real time    0.0329
    SETDIJ:  cpu time    5.0861: real time    5.0862
atom =   1  type =  1  l = 2
 
 onsite density matrix
 
spin component  1
 
  0.0405  0.0001  0.0226  0.0001 -0.0000
  0.0001  0.0325  0.0000  0.0195  0.0000
  0.0226  0.0000  0.0276  0.0000 -0.0000
  0.0001  0.0195  0.0000  0.0325 -0.0000
 -0.0000  0.0000 -0.0000 -0.0000  0.0113
 
spin component  2
 
  0.9756 -0.0000  0.0176 -0.0000 -0.0000
 -0.0000  0.9701  0.0000  0.0155 -0.0001
  0.0176  0.0000  0.9652  0.0000  0.0000
 -0.0000  0.0155  0.0000  0.9701  0.0001
 -0.0000 -0.0001  0.0000  0.0001  0.9548
 
 occupancies and eigenvectors
 
  o =  0.0105  v = -0.6031  0.0002  0.7977  0.0010  0.0017  0.0000  0.0000  0.0000  0.0000  0.0000      0.0000  0.0000  0.0000  0.0000  0.0000  0.0000  0.0000  0.0000  0.0000  0.0000
  o =  0.0113  v = -0.0010  0.0067  0.0013 -0.0067 -1.0000  0.0000  0.0000  0.0000  0.0000  0.0000      0.0000  0.0000  0.0000  0.0000  0.0000  0.0000  0.0000  0.0000  0.0000  0.0000
  o =  0.0130  v = -0.0003  0.7070  0.0006 -0.7071  0.0095  0.0000  0.0000  0.0000  0.0000  0.0000      0.0000  0.0000  0.0000  0.0000  0.0000  0.0000  0.0000  0.0000  0.0000  0.0000
  o =  0.0520  v =  0.0215 -0.7069  0.0173 -0.7068 -0.0000  0.0000  0.0000  0.0000  0.0000  0.0000      0.0000  0.0000  0.0000  0.0000  0.0000  0.0000  0.0000  0.0000  0.0000  0.0000
  o =  0.0576  v = -0.7974 -0.0195 -0.6029 -0.0196  0.0000  0.0000  0.0000  0.0000  0.0000  0.0000      0.0000  0.0000  0.0000  0.0000  0.0000  0.0000  0.0000  0.0000  0.0000  0.0000
  o =  0.9520  v =  0.0000  0.0000  0.0000  0.0000  0.0000 -0.5994 -0.0011  0.8004 -0.0005 -0.0034      0.0000  0.0000  0.0000  0.0000  0.0000  0.0000  0.0000  0.0000  0.0000  0.0000
  o =  0.9546  v =  0.0000  0.0000  0.0000  0.0000  0.0000  0.0015 -0.5913 -0.0017  0.5915 -0.5482      0.0000  0.0000  0.0000  0.0000  0.0000  0.0000  0.0000  0.0000  0.0000  0.0000
  o =  0.9549  v =  0.0000  0.0000  0.0000  0.0000  0.0000 -0.0017 -0.3877  0.0020  0.3875  0.8364      0.0000  0.0000  0.0000  0.0000  0.0000  0.0000  0.0000  0.0000  0.0000  0.0000
  o =  0.9856  v =  0.0000  0.0000  0.0000  0.0000  0.0000  0.0019 -0.7072  0.0000 -0.7071 -0.0003      0.0000  0.0000  0.0000  0.0000  0.0000  0.0000  0.0000  0.0000  0.0000  0.0000
  o =  0.9888  v =  0.0000  0.0000  0.0000  0.0000  0.0000 -0.8004 -0.0011 -0.5994 -0.0010 -0.0002      0.0000  0.0000  0.0000  0.0000  0.0000  0.0000  0.0000  0.0000  0.0000  0.0000
atom =   2  type =  1  l = 2
 
 onsite density matrix
 
spin component  1
 
  0.9755  0.0001 -0.0179  0.0001  0.0000
  0.0001  0.9702  0.0001 -0.0152 -0.0001
 -0.0179  0.0001  0.9651  0.0001  0.0000
  0.0001 -0.0152  0.0001  0.9702  0.0001
  0.0000 -0.0001  0.0000  0.0001  0.9548
 
spin component  2
 
  0.0405 -0.0000 -0.0228 -0.0000 -0.0000
 -0.0000  0.0324  0.0000 -0.0193 -0.0001
 -0.0228  0.0000  0.0278  0.0000 -0.0000
 -0.0000 -0.0193  0.0000  0.0324  0.0001
 -0.0000 -0.0001 -0.0000  0.0001  0.0113
 
 occupancies and eigenvectors
 
  o =  0.0105  v =  0.0000  0.0000  0.0000  0.0000  0.0000 -0.6050  0.0010 -0.7962  0.0012 -0.0041      0.0000  0.0000  0.0000  0.0000  0.0000  0.0000  0.0000  0.0000  0.0000  0.0000
  o =  0.0113  v =  0.0000  0.0000  0.0000  0.0000  0.0000 -0.0024  0.0018 -0.0033 -0.0027  1.0000      0.0000  0.0000  0.0000  0.0000  0.0000  0.0000  0.0000  0.0000  0.0000  0.0000
  o =  0.0131  v =  0.0000  0.0000  0.0000  0.0000  0.0000 -0.0021 -0.7070 -0.0004 -0.7072 -0.0006      0.0000  0.0000  0.0000  0.0000  0.0000  0.0000  0.0000  0.0000  0.0000  0.0000
  o =  0.0517  v =  0.0000  0.0000  0.0000  0.0000  0.0000  0.0001  0.7072 -0.0002 -0.7070 -0.0032      0.0000  0.0000  0.0000  0.0000  0.0000  0.0000  0.0000  0.0000  0.0000  0.0000
  o =  0.0578  v =  0.0000  0.0000  0.0000  0.0000  0.0000 -0.7962  0.0011  0.6050  0.0009  0.0001      0.0000  0.0000  0.0000  0.0000  0.0000  0.0000  0.0000  0.0000  0.0000  0.0000
  o =  0.9516  v = -0.5989  0.0484 -0.7979  0.0483  0.0043  0.0000  0.0000  0.0000  0.0000  0.0000      0.0000  0.0000  0.0000  0.0000  0.0000  0.0000  0.0000  0.0000  0.0000  0.0000
  o =  0.9548  v =  0.0018 -0.0131  0.0023 -0.0167  0.9998  0.0000  0.0000  0.0000  0.0000  0.0000      0.0000  0.0000  0.0000  0.0000  0.0000  0.0000  0.0000  0.0000  0.0000  0.0000
  o =  0.9550  v = -0.0399 -0.7052 -0.0556 -0.7054 -0.0208  0.0000  0.0000  0.0000  0.0000  0.0000      0.0000  0.0000  0.0000  0.0000  0.0000  0.0000  0.0000  0.0000  0.0000  0.0000
  o =  0.9855  v =  0.0014  0.7073 -0.0009 -0.7069 -0.0026  0.0000  0.0000  0.0000  0.0000  0.0000      0.0000  0.0000  0.0000  0.0000  0.0000  0.0000  0.0000  0.0000  0.0000  0.0000
  o =  0.9890  v = -0.7998  0.0001  0.6002 -0.0022  0.0000  0.0000  0.0000  0.0000  0.0000  0.0000      0.0000  0.0000  0.0000  0.0000  0.0000  0.0000  0.0000  0.0000  0.0000  0.0000
     EDDAV:  cpu time    4.0257: real time    4.0258
 BZINTS: Fermi energy:  0.736734; 54.000000 electrons
         Band energy:-817.915280;  BLOECHL correction:  0.000000
       DOS:  cpu time    0.0031: real time    0.0031
    CHARGE:  cpu time    0.5637: real time    0.5637
    MIXING:  cpu time    0.0007: real time    0.0007
    --------------------------------------------
      LOOP:  cpu time    9.7122: real time    9.7124

 eigenvalue-minimisations  :  8016
 total energy-change (2. order) : 0.4335913E-02  (-0.2802736E-02)
 number of electron      54.0000009 magnetization      -0.0000000
 augmentation part       20.0326824 magnetization      -0.0002774

 Broyden mixing:
  rms(total) = 0.76387E-01    rms(broyden)= 0.76382E-01
  rms(prec ) = 0.88775E-01
  weight for this iteration     100.00

 eigenvalues of (default mixing * dielectric matrix)
  average eigenvalue GAMMA=   1.1473
  2.4282  0.9431  0.9431  0.7900  0.6322

 Free energy of the ion-electron system (eV)
  ---------------------------------------------------
  alpha Z        PSCENC =       196.30408385
  Ewald energy   TEWEN  =     -4180.38209777
  -Hartree energ DENC   =     -2172.89763265
  -exchange      EXHF   =         0.00000000
  -V(xc)+E(xc)   XCENC  =       166.07106637
  PAW double counting   =      6589.11018748    -6535.98067327
  entropy T*S    EENTRO =         0.00000000
  eigenvalues    EBANDS =      -817.91527974
  atomic energy  EATOM  =      6689.01075358
  Solvation  Ediel_sol  =         0.00000000
  ---------------------------------------------------
  free energy    TOTEN  =       -66.67959215 eV

  energy without entropy =      -66.67959215  energy(sigma->0) =      -66.67959215


--------------------------------------------------------------------------------------------------------




--------------------------------------- Iteration      1(   7)  ---------------------------------------


    POTLOK:  cpu time    0.0329: real time    0.0329
    SETDIJ:  cpu time    5.0839: real time    5.0839
atom =   1  type =  1  l = 2
 
 onsite density matrix
 
spin component  1
 
  0.0403  0.0000  0.0223  0.0000 -0.0000
  0.0000  0.0323  0.0000  0.0192 -0.0000
  0.0223  0.0000  0.0277  0.0000  0.0000
  0.0000  0.0192  0.0000  0.0323  0.0000
 -0.0000 -0.0000  0.0000  0.0000  0.0116
 
spin component  2
 
  0.9759  0.0000  0.0184  0.0000  0.0000
  0.0000  0.9706 -0.0000  0.0158  0.0000
  0.0184 -0.0000  0.9654 -0.0000  0.0000
  0.0000  0.0158 -0.0000  0.9706 -0.0000
  0.0000  0.0000  0.0000 -0.0000  0.9546
 
 occupancies and eigenvectors
 
  o =  0.0108  v = -0.6033 -0.0001  0.7975  0.0002 -0.0031  0.0000  0.0000  0.0000  0.0000  0.0000      0.0000  0.0000  0.0000  0.0000  0.0000  0.0000  0.0000  0.0000  0.0000  0.0000
  o =  0.0116  v = -0.0018  0.0158  0.0024 -0.0159  0.9997  0.0000  0.0000  0.0000  0.0000  0.0000      0.0000  0.0000  0.0000  0.0000  0.0000  0.0000  0.0000  0.0000  0.0000  0.0000
  o =  0.0132  v =  0.0000 -0.7069 -0.0001  0.7070  0.0224  0.0000  0.0000  0.0000  0.0000  0.0000      0.0000  0.0000  0.0000  0.0000  0.0000  0.0000  0.0000  0.0000  0.0000  0.0000
  o =  0.0515  v =  0.0075 -0.7071  0.0058 -0.7070 -0.0000  0.0000  0.0000  0.0000  0.0000  0.0000      0.0000  0.0000  0.0000  0.0000  0.0000  0.0000  0.0000  0.0000  0.0000  0.0000
  o =  0.0572  v = -0.7975 -0.0067 -0.6033 -0.0067  0.0000  0.0000  0.0000  0.0000  0.0000  0.0000      0.0000  0.0000  0.0000  0.0000  0.0000  0.0000  0.0000  0.0000  0.0000  0.0000
  o =  0.9516  v =  0.0000  0.0000  0.0000  0.0000  0.0000 -0.6022  0.0004  0.7984  0.0000  0.0000      0.0000  0.0000  0.0000  0.0000  0.0000  0.0000  0.0000  0.0000  0.0000  0.0000
  o =  0.9546  v =  0.0000  0.0000  0.0000  0.0000  0.0000 -0.0000 -0.0068 -0.0000  0.0068  1.0000      0.0000  0.0000  0.0000  0.0000  0.0000  0.0000  0.0000  0.0000  0.0000  0.0000
  o =  0.9548  v =  0.0000  0.0000  0.0000  0.0000  0.0000  0.0001  0.7071 -0.0002 -0.7071  0.0096      0.0000  0.0000  0.0000  0.0000  0.0000  0.0000  0.0000  0.0000  0.0000  0.0000
  o =  0.9865  v =  0.0000  0.0000  0.0000  0.0000  0.0000 -0.0006  0.7071 -0.0008  0.7071 -0.0000      0.0000  0.0000  0.0000  0.0000  0.0000  0.0000  0.0000  0.0000  0.0000  0.0000
  o =  0.9898  v =  0.0000  0.0000  0.0000  0.0000  0.0000 -0.7984 -0.0007 -0.6022 -0.0006 -0.0000      0.0000  0.0000  0.0000  0.0000  0.0000  0.0000  0.0000  0.0000  0.0000  0.0000
atom =   2  type =  1  l = 2
 
 onsite density matrix
 
spin component  1
 
  0.9759 -0.0000 -0.0184 -0.0000  0.0000
 -0.0000  0.9706 -0.0000 -0.0158 -0.0000
 -0.0184 -0.0000  0.9654 -0.0000 -0.0000
 -0.0000 -0.0158 -0.0000  0.9706  0.0000
  0.0000 -0.0000 -0.0000  0.0000  0.9546
 
spin component  2
 
  0.0403  0.0000 -0.0224  0.0000  0.0000
  0.0000  0.0324  0.0001 -0.0190 -0.0000
 -0.0224  0.0001  0.0277  0.0001  0.0000
  0.0000 -0.0190  0.0001  0.0323  0.0000
  0.0000 -0.0000  0.0000  0.0000  0.0115
 
 occupancies and eigenvectors
 
  o =  0.0107  v =  0.0000  0.0000  0.0000  0.0000  0.0000  0.6039 -0.0231  0.7964 -0.0232 -0.0030      0.0000  0.0000  0.0000  0.0000  0.0000  0.0000  0.0000  0.0000  0.0000  0.0000
  o =  0.0115  v =  0.0000  0.0000  0.0000  0.0000  0.0000  0.0018  0.0001  0.0024 -0.0021  1.0000      0.0000  0.0000  0.0000  0.0000  0.0000  0.0000  0.0000  0.0000  0.0000  0.0000
  o =  0.0133  v =  0.0000  0.0000  0.0000  0.0000  0.0000  0.0201  0.7067  0.0259  0.7068  0.0013      0.0000  0.0000  0.0000  0.0000  0.0000  0.0000  0.0000  0.0000  0.0000  0.0000
  o =  0.0514  v =  0.0000  0.0000  0.0000  0.0000  0.0000  0.0002  0.7071 -0.0002 -0.7071 -0.0015      0.0000  0.0000  0.0000  0.0000  0.0000  0.0000  0.0000  0.0000  0.0000  0.0000
  o =  0.0573  v =  0.0000  0.0000  0.0000  0.0000  0.0000 -0.7968  0.0005  0.6042  0.0001  0.0000      0.0000  0.0000  0.0000  0.0000  0.0000  0.0000  0.0000  0.0000  0.0000  0.0000
  o =  0.9516  v =  0.6022  0.0032  0.7983  0.0032  0.0000  0.0000  0.0000  0.0000  0.0000  0.0000      0.0000  0.0000  0.0000  0.0000  0.0000  0.0000  0.0000  0.0000  0.0000  0.0000
  o =  0.9546  v = -0.0001  0.0033 -0.0000  0.0026  1.0000  0.0000  0.0000  0.0000  0.0000  0.0000      0.0000  0.0000  0.0000  0.0000  0.0000  0.0000  0.0000  0.0000  0.0000  0.0000
[...]
     18      -3.0943      1.00000
     19      -2.7529      1.00000
     20      -2.4396      1.00000
     21      -2.2113      1.00000
     22      -2.1079      1.00000
     23      -1.0710      1.00000
     24      -0.8854      1.00000
     25      -0.5884      1.00000
     26      -0.0155      1.00000
     27       0.5817      1.00000
     28       7.9464      0.00000
     29       7.9694      0.00000
     30       8.1776      0.00000
     31       8.7344      0.00000
     32       9.3423      0.00000
     33       9.5371      0.00000
     34      11.0010      0.00000
     35      11.5043      0.00000
     36      12.7974      0.00000

 k-point    48 :      -0.1250   -0.1250    0.4167
  band No.  band energies     occupation 
      1     -49.4063      1.00000
      2     -49.3676      1.00000
      3     -49.3509      1.00000
      4     -42.7908      1.00000
      5     -42.7442      1.00000
      6     -42.7208      1.00000
      7     -22.6571      1.00000
      8     -22.5388      1.00000
      9     -22.4950      1.00000
     10     -22.4052      1.00000
     11      -4.7133      1.00000
     12      -4.3539      1.00000
     13      -4.0205      1.00000
     14      -3.9703      1.00000
     15      -3.8803      1.00000
     16      -3.6103      1.00000
     17      -3.1406      1.00000
     18      -2.9932      1.00000
     19      -2.8823      1.00000
     20      -2.4907      1.00000
     21      -2.3148      1.00000
     22      -2.2748      1.00000
     23      -1.0791      1.00000
     24      -0.8291      1.00000
     25      -0.4879      1.00000
     26       0.0267      1.00000
     27       0.3685      1.00000
     28       7.9377      0.00000
     29       7.9612      0.00000
     30       7.9685      0.00000
     31       8.7891      0.00000
     32       8.9083      0.00000
     33       9.2965      0.00000
     34      11.2627      0.00000
     35      12.5631      0.00000
     36      12.9030      0.00000


--------------------------------------------------------------------------------------------------------


 soft charge-density along one line, spin component           1
         0         1         2         3         4         5         6         7         8         9
 total charge-density along one line
 
 soft charge-density along one line, spin component           2
         0         1         2         3         4         5         6         7         8         9
 total charge-density along one line
 
 pseudopotential strength for first ion, spin component:           1
-45.247  -0.000  -0.033   7.822   0.000   0.013  -0.000  -0.000
 -0.000 -45.212  -0.000   0.000   7.808   0.000   0.000   0.000
 -0.033  -0.000 -45.247   0.013   0.000   7.822   0.000   0.000
  7.822   0.000   0.013   5.610  -0.000   0.008   0.000   0.000
  0.000   7.808   0.000  -0.000   5.600  -0.000  -0.000   0.000
  0.013   0.000   7.822   0.008  -0.000   5.610   0.000  -0.000
 -0.000   0.000   0.000   0.000  -0.000   0.000  -1.390   0.000
 -0.000   0.000   0.000   0.000   0.000  -0.000   0.000  -1.346
 -0.000   0.000   0.000   0.000   0.000   0.000  -0.056  -0.000
  0.000   0.000  -0.000  -0.000   0.000  -0.000   0.000  -0.078
 -0.000  -0.000  -0.000   0.000  -0.000  -0.000  -0.000   0.000
 -0.000   0.000   0.000   0.000  -0.000   0.000  -1.856   0.000
 -0.000   0.000   0.000   0.000   0.000  -0.000   0.000  -1.812
 -0.000   0.000   0.000   0.000   0.000  -0.000  -0.060  -0.000
  0.000   0.000  -0.000  -0.000   0.000  -0.000   0.000  -0.080
 -0.000  -0.000  -0.000   0.000  -0.000  -0.000  -0.000   0.000
  0.000   0.000  -0.000  -0.000   0.000   0.000   0.010   0.000
  0.000   0.000  -0.000   0.000   0.000   0.000   0.019   0.000
 pseudopotential strength for first ion, spin component:           2
-51.093   0.000  -0.006   9.846   0.000   0.013   0.000   0.000
  0.000 -51.092   0.000   0.000   9.833   0.000   0.000   0.000
 -0.006   0.000 -51.093   0.013   0.000   9.846  -0.000   0.000
  9.846   0.000   0.013   4.695   0.000   0.000  -0.000   0.000
  0.000   9.833   0.000   0.000   4.694   0.000  -0.000  -0.000
  0.013   0.000   9.846   0.000   0.000   4.695  -0.000  -0.000
  0.000   0.000  -0.000  -0.000  -0.000  -0.000  -9.105  -0.000
  0.000   0.000   0.000   0.000  -0.000  -0.000  -0.000  -9.075
  0.000  -0.000  -0.000  -0.000  -0.000   0.000  -0.073  -0.000
  0.000  -0.000  -0.000  -0.000  -0.000  -0.000  -0.000  -0.083
 -0.000  -0.000  -0.000  -0.000  -0.000  -0.000   0.000  -0.000
  0.000   0.000  -0.000  -0.000  -0.000  -0.000  -9.625  -0.000
  0.000   0.000   0.000   0.000  -0.000  -0.000  -0.000  -9.594
  0.000  -0.000  -0.000  -0.000  -0.000   0.000  -0.075  -0.000
  0.000  -0.000  -0.000  -0.000  -0.000  -0.000  -0.000  -0.084
 -0.000  -0.000  -0.000  -0.000  -0.000  -0.000   0.000  -0.000
  0.000   0.000  -0.000  -0.000  -0.000   0.000   0.008   0.000
  0.000   0.000  -0.000  -0.000  -0.000  -0.000   0.018   0.000
 total augmentation occupancy for first ion, spin component:           1
  2.001   0.000   0.000  -0.012  -0.000   0.001   0.000   0.000   0.000  -0.000  -0.000   0.000  -0.000  -0.000   0.000   0.000
  0.000   2.001   0.000  -0.000  -0.013  -0.000  -0.000   0.000   0.000   0.000  -0.000   0.000  -0.000  -0.000  -0.000   0.000
  0.000   0.000   2.001   0.001  -0.000  -0.012   0.000  -0.000   0.000  -0.000  -0.000  -0.000   0.000  -0.000   0.000   0.000
 -0.012  -0.000   0.001   0.078  -0.000  -0.008   0.000  -0.000   0.000  -0.000   0.000  -0.000  -0.000  -0.000   0.000  -0.000
 -0.000  -0.013  -0.000  -0.000   0.089  -0.000   0.000  -0.000   0.000  -0.000   0.000  -0.000   0.000  -0.000   0.000  -0.000
  0.001  -0.000  -0.012  -0.008  -0.000   0.078   0.000  -0.000  -0.000  -0.000   0.000   0.000   0.000   0.000   0.000  -0.000
  0.000  -0.000   0.000   0.000   0.000   0.000   7.796   0.000   2.996   0.000   0.000  -5.775  -0.000  -2.810  -0.000  -0.000
  0.000   0.000  -0.000  -0.000  -0.000  -0.000   0.000   6.662   0.000   2.579   0.000  -0.000  -4.693  -0.000  -2.420  -0.000
  0.000   0.000   0.000   0.000   0.000  -0.000   2.996   0.000   6.057   0.000   0.000  -2.811  -0.000  -4.150  -0.000  -0.000
 -0.000   0.000  -0.000  -0.000  -0.000  -0.000   0.000   2.579   0.000   6.662  -0.000  -0.000  -2.420  -0.000  -4.693   0.000
 -0.000  -0.000  -0.000   0.000   0.000   0.000   0.000   0.000   0.000  -0.000   3.932  -0.000  -0.000  -0.000   0.000  -2.119
  0.000   0.000  -0.000  -0.000  -0.000   0.000  -5.775  -0.000  -2.811  -0.000  -0.000   4.926  -0.000   2.661  -0.000   0.000
 -0.000  -0.000   0.000  -0.000   0.000   0.000  -0.000  -4.693  -0.000  -2.420  -0.000  -0.000   3.887   0.000   2.292   0.000
 -0.000  -0.000  -0.000  -0.000  -0.000   0.000  -2.810  -0.000  -4.150  -0.000  -0.000   2.661   0.000   3.394   0.000   0.000
  0.000  -0.000   0.000   0.000   0.000   0.000  -0.000  -2.420  -0.000  -4.693   0.000  -0.000   2.292   0.000   3.887  -0.000
  0.000   0.000   0.000  -0.000  -0.000  -0.000  -0.000  -0.000  -0.000   0.000  -2.119   0.000   0.000   0.000  -0.000   1.438
  0.000   0.000  -0.000   0.000  -0.000  -0.000   0.381   0.000  -0.322   0.000  -0.000  -0.364  -0.000   0.303  -0.000   0.000
 -0.000  -0.000   0.000  -0.000   0.000   0.000  -0.081  -0.000   0.074  -0.000   0.000   0.085   0.000  -0.074   0.000  -0.000
 total augmentation occupancy for first ion, spin component:           2
  0.004   0.000  -0.000   0.017  -0.000  -0.000   0.000   0.000   0.000  -0.000   0.000  -0.000  -0.000  -0.000   0.000  -0.000
  0.000   0.004   0.000  -0.000   0.017  -0.000  -0.000   0.000   0.000   0.000  -0.000   0.000  -0.000  -0.000  -0.000   0.000
 -0.000   0.000   0.004  -0.000  -0.000   0.017   0.000  -0.000  -0.000  -0.000   0.000  -0.000   0.000   0.000   0.000  -0.000
  0.017  -0.000  -0.000  -0.011   0.000   0.000   0.000   0.000   0.000  -0.000  -0.000  -0.000  -0.000  -0.000   0.000   0.000
 -0.000   0.017  -0.000   0.000  -0.012   0.000  -0.000  -0.000   0.000  -0.000  -0.000   0.000   0.000  -0.000   0.000  -0.000
 -0.000  -0.000   0.017   0.000   0.000  -0.011  -0.000  -0.000  -0.000  -0.000  -0.000   0.000   0.000   0.000   0.000   0.000
  0.000  -0.000   0.000   0.000  -0.000  -0.000  -5.420  -0.000  -1.641  -0.000   0.000   3.081   0.000   1.279   0.000  -0.000
  0.000   0.000  -0.000   0.000  -0.000  -0.000  -0.000  -4.822   0.000  -1.412  -0.000   0.000   2.598  -0.000   1.101   0.000
  0.000   0.000  -0.000   0.000   0.000  -0.000  -1.641   0.000  -4.421   0.000   0.000   1.279  -0.000   2.294  -0.000  -0.000
 -0.000   0.000  -0.000  -0.000  -0.000  -0.000  -0.000  -1.412   0.000  -4.822   0.000   0.000   1.101  -0.000   2.598  -0.000
  0.000  -0.000   0.000  -0.000  -0.000  -0.000   0.000  -0.000   0.000   0.000  -3.367  -0.000   0.000  -0.000  -0.000   1.465
 -0.000   0.000  -0.000  -0.000   0.000   0.000   3.081   0.000   1.279   0.000  -0.000  -1.866  -0.000  -0.925  -0.000   0.000
 -0.000  -0.000   0.000  -0.000   0.000   0.000   0.000   2.598  -0.000   1.101   0.000  -0.000  -1.498   0.000  -0.798  -0.000
 -0.000  -0.000   0.000  -0.000  -0.000   0.000   1.279  -0.000   2.294  -0.000  -0.000  -0.925   0.000  -1.286   0.000   0.000
  0.000  -0.000   0.000   0.000   0.000   0.000   0.000   1.101  -0.000   2.598  -0.000  -0.000  -0.798   0.000  -1.498   0.000
 -0.000   0.000  -0.000   0.000  -0.000   0.000  -0.000   0.000  -0.000  -0.000   1.465   0.000  -0.000   0.000   0.000  -0.681
 -0.000  -0.000  -0.000   0.000  -0.000  -0.000  -0.088  -0.000   0.074  -0.000  -0.000   0.034   0.000  -0.025   0.000   0.000
  0.000   0.000   0.000  -0.000   0.000   0.000   0.002   0.000  -0.009   0.000   0.000   0.003  -0.000   0.001  -0.000  -0.000


------------------------ aborting loop because EDIFF is reached ----------------------------------------


 


 total charge     
 
# of ion       s       p       d       tot
------------------------------------------
    1        0.168   6.143   4.962  11.273
    2        0.168   6.143   4.962  11.273
    3        1.729   4.407   0.000   6.136
    4        1.729   4.407   0.000   6.136
    5        1.729   4.407   0.000   6.136
    6        1.729   4.407   0.000   6.136
--------------------------------------------------
tot          7.252  29.914   9.924  47.091
 


 magnetization (x)
 
# of ion       s       p       d       tot
------------------------------------------
    1       -0.024  -0.019  -4.683  -4.726
    2        0.024   0.019   4.683   4.726
    3        0.002   0.014   0.000   0.016
    4        0.002   0.014   0.000   0.016
    5       -0.002  -0.014   0.000  -0.016
    6       -0.002  -0.014   0.000  -0.016
--------------------------------------------------
tot          0.000   0.000   0.000   0.000
 
    CHARGE:  cpu time    0.0968: real time    0.0968
    FORLOC:  cpu time    0.0011: real time    0.0011
    FORNL :  cpu time    0.5506: real time    0.5507
    STRESS:  cpu time   10.2501: real time   10.2502
    FORCOR:  cpu time    0.0294: real time    0.0294
    FORHAR:  cpu time    0.0021: real time    0.0021
    MIXING:  cpu time    0.0014: real time    0.0014
    OFIELD:  cpu time    0.0000: real time    0.0000

  FORCE on cell =-STRESS in cart. coord.  units (eV):
  Direction    XX          YY          ZZ          XY          YZ          ZX
  --------------------------------------------------------------------------------------
  Alpha Z   196.30408   196.30408   196.30408
  Ewald   -1582.23025 -1582.23025 -1015.92474    -0.00000    -0.00000    -0.00000
  Hartree   597.28406   597.28406   979.93815    -0.00006     0.00009     0.00009
  E(xc)    -150.51675  -150.51675  -150.65245     0.00000    -0.00002    -0.00002
  Local     160.24884   160.24884  -781.71902     0.00007    -0.00001    -0.00001
  n-local  -310.95784  -310.95784  -309.76992     0.00000     0.00003     0.00003
  augment   158.39367   158.39367   157.85450     0.00000    -0.00005    -0.00005
  Kinetic   931.48234   931.48234   923.96968    -0.00000    -0.00010    -0.00010
  Fock        0.00000     0.00000     0.00000     0.00000     0.00000     0.00000
  -------------------------------------------------------------------------------------
  Total       0.00815     0.00815     0.00030     0.00001    -0.00006    -0.00006
  in kB       0.16610     0.16609     0.00605     0.00019    -0.00113    -0.00113
  external pressure =        0.11 kB  Pullay stress =        0.00 kB


 VOLUME and BASIS-vectors are now :
 -----------------------------------------------------------------------------
  energy-cutoff  :      600.00
  volume of cell :       78.64
      direct lattice vectors                 reciprocal lattice vectors
     4.877619957  0.000000000  0.000000000     0.205018023  0.000000000  0.000000000
     0.000000000  4.877619957  0.000000000     0.000000000  0.205018023  0.000000000
     0.000000000  0.000000000  3.305455729     0.000000000  0.000000000  0.302530145

  length of vectors
     4.877619957  4.877619957  3.305455729     0.205018023  0.205018023  0.302530145


 FORCES acting on ions
    electron-ion (+dipol)            ewald-force                    non-local-force                 convergence-correction
 -----------------------------------------------------------------------------------------------
   0.636E-05 -.891E-05 -.530E-09   0.000E+00 0.568E-13 -.268E-13   -.742E-05 0.939E-05 0.106E-08   -.689E-09 -.812E-09 -.416E-09
   0.636E-05 0.891E-05 -.256E-09   0.114E-12 0.000E+00 -.265E-13   -.742E-05 -.939E-05 -.169E-08   0.149E-08 0.227E-08 0.454E-09
   -.338E+02 0.338E+02 -.212E-07   0.351E+02 -.351E+02 0.996E-14   -.132E+01 0.132E+01 -.195E-08   -.870E-06 0.951E-06 0.270E-07
   0.338E+02 -.338E+02 0.200E-07   -.351E+02 0.351E+02 0.970E-14   0.132E+01 -.132E+01 0.489E-08   0.870E-06 -.950E-06 -.274E-07
   0.338E+02 0.338E+02 -.154E-03   -.351E+02 -.351E+02 0.134E-13   0.132E+01 0.132E+01 0.273E-03   -.126E-05 -.135E-05 -.689E-06
   -.338E+02 -.338E+02 0.154E-03   0.351E+02 0.351E+02 0.134E-13   -.132E+01 -.132E+01 -.273E-03   0.126E-05 0.135E-05 0.689E-06
 -----------------------------------------------------------------------------------------------
   0.102E-04 -.112E-08 -.256E-08   -.711E-14 0.000E+00 -.672E-14   -.102E-04 0.371E-08 0.313E-08   0.494E-09 0.136E-08 -.635E-10
 
 
 POSITION                                       TOTAL-FORCE (eV/Angst)
 -----------------------------------------------------------------------------------
      2.43881      2.43881      1.65273        -0.000001      0.000001      0.000000
      0.00000      0.00000      0.00000        -0.000001     -0.000001     -0.000000
      0.95302      3.92460      1.65273        -0.001876      0.001876      0.000000
      3.92460      0.95302      1.65273         0.001877     -0.001877     -0.000000
      1.48579      1.48579      0.00000         0.001877      0.001877      0.000118
      3.39183      3.39183      0.00000        -0.001876     -0.001876     -0.000118
 -----------------------------------------------------------------------------------
    total drift:                                0.000000      0.000000      0.000000


--------------------------------------------------------------------------------------------------------



  FREE ENERGIE OF THE ION-ELECTRON SYSTEM (eV)
  ---------------------------------------------------
  free  energy   TOTEN  =       -66.67939804 eV

  energy  without entropy=      -66.67939804  energy(sigma->0) =      -66.67939804
 


--------------------------------------------------------------------------------------------------------


    POTLOK:  cpu time    5.1078: real time    5.1078

 Total magnetic moment S=     1.0000000

 Fermi contact (isotropic) hyperfine coupling parameter (MHz) 
 -------------------------------------------------------------
  ion      A_pw      A_1PS     A_1AE     A_1c      A_tot
 -------------------------------------------------------------
   1   -1307.490 -1307.630  -399.743  1238.703  -399.603
   2    1307.490  1307.630   399.743 -1238.703   399.603
   3      33.456    33.461   240.881   -22.372   240.876
   4      33.456    33.461   240.881   -22.372   240.876
   5     -33.456   -33.461  -240.884    22.372  -240.880
   6     -33.456   -33.461  -240.884    22.372  -240.880
 -------------------------------------------------------------


 Dipolar hyperfine coupling parameters (MHz)
 ---------------------------------------------------------------------
  ion      A_xx      A_yy      A_zz      A_xy      A_xz      A_yz
 ---------------------------------------------------------------------
   1       8.025     8.025   -16.049     5.307     0.002     0.002
   2      -8.025    -8.025    16.049     5.307     0.001     0.001
   3     -56.453   -56.450   112.903    10.442    -0.002    -0.002
   4     -56.450   -56.453   112.903    10.444    -0.002    -0.002
   5      56.450    56.453  -112.903    10.444    -0.005    -0.005
   6      56.453    56.450  -112.903    10.442    -0.005    -0.005
 ---------------------------------------------------------------------


 Total hyperfine coupling parameters after diagonalization (MHz)
 (convention: |A_zz| > |A_xx| > |A_yy|)
 ----------------------------------------------------------------------
  ion      A_xx      A_yy      A_zz     asymmetry (A_yy - A_xx)/ A_zz 
 ----------------------------------------------------------------------
   1    -396.885  -386.272  -415.653      -0.026
   2     396.885   386.272   415.652      -0.026
   3     194.866   173.983   353.779      -0.059
   4     194.868   173.981   353.780      -0.059
   5    -194.872  -173.984  -353.783      -0.059
   6    -194.870  -173.986  -353.783      -0.059
 ---------------------------------------------------------------------



--------------------------------------------------------------------------------------------------------


 writing wavefunctions
     LOOP+:  cpu time  220.4996: real time  220.5249
    4ORBIT:  cpu time    0.0000: real time    0.0000
 


 total charge     
 
# of ion       s       p       d       tot
------------------------------------------
    1        0.168   6.143   4.962  11.273
    2        0.168   6.143   4.962  11.273
    3        1.729   4.407   0.000   6.136
    4        1.729   4.407   0.000   6.136
    5        1.729   4.407   0.000   6.136
    6        1.729   4.407   0.000   6.136
--------------------------------------------------
tot          7.252  29.914   9.924  47.091
 


 magnetization (x)
 
# of ion       s       p       d       tot
------------------------------------------
    1       -0.024  -0.019  -4.683  -4.726
    2        0.024   0.019   4.683   4.726
    3        0.002   0.014   0.000   0.016
    4        0.002   0.014   0.000   0.016
    5       -0.002  -0.014   0.000  -0.016
    6       -0.002  -0.014   0.000  -0.016
--------------------------------------------------
tot          0.000   0.000   0.000   0.000
 
 BZINTS: Fermi energy:  0.764212; 54.000000 electrons
         Band energy:-816.600605;  BLOECHL correction:  0.000000

 total amount of memory used by VASP MPI-rank0    85125. kBytes
=======================================================================

   base      :      30000. kBytes
   nonl-proj :      36748. kBytes
   fftplans  :       1875. kBytes
   grid      :       3820. kBytes
   one-center:        186. kBytes
   wavefun   :      12496. kBytes
 
  
  
 General timing and accounting informations for this job:
 ========================================================
  
                  Total CPU time used (sec):      223.017
                            User time (sec):      150.765
                          System time (sec):       72.253
                         Elapsed time (sec):      223.089
  
                   Maximum memory used (kb):       96760.
                   Average memory used (kb):           0.
  
                          Minor page faults:        25938
                          Major page faults:            7
                 Voluntary context switches:          326
