       N       E                     dE             d eps       ncg     rms          rms(c)
DAV:   1     0.960929012926E+03    0.96093E+03   -0.37423E+04  3468   0.200E+03
DAV:   2     0.403906302632E+03   -0.55702E+03   -0.53300E+03  3996   0.511E+02
DAV:   3     0.369551898197E+03   -0.34354E+02   -0.33844E+02  3924   0.135E+02
DAV:   4     0.369126485390E+03   -0.42541E+00   -0.42511E+00  4044   0.165E+01
DAV:   5     0.369119437767E+03   -0.70476E-02   -0.70469E-02  4020   0.197E+00    0.588E+01
DAV:   6    -0.688141731534E+02   -0.43793E+03   -0.28335E+02  4320   0.212E+02    0.629E+01
DAV:   7    -0.714471964155E+02   -0.26330E+01   -0.50480E+01  3528   0.454E+01    0.172E+01
DAV:   8    -0.686347637534E+02    0.28124E+01   -0.71443E+00  4284   0.219E+01    0.648E+00
DAV:   9    -0.681680902856E+02    0.46667E+00   -0.48489E+00  4068   0.188E+01    0.812E+00
DAV:  10    -0.680972720366E+02    0.70818E-01   -0.42844E-01  3720   0.573E+00    0.581E+00
DAV:  11    -0.680726564850E+02    0.24616E-01   -0.10303E+00  4080   0.735E+00    0.191E+00
DAV:  12    -0.680369752050E+02    0.35681E-01   -0.97203E-02  4428   0.314E+00    0.128E+00
DAV:  13    -0.680293200506E+02    0.76552E-02   -0.72594E-02  4008   0.159E+00    0.109E+00
DAV:  14    -0.680242655858E+02    0.50545E-02   -0.50038E-02  3480   0.254E+00    0.410E-01
DAV:  15    -0.680250667975E+02   -0.80121E-03   -0.39732E-03  3876   0.421E-01    0.387E-01
DAV:  16    -0.680244954281E+02    0.57137E-03   -0.25444E-03  3600   0.374E-01    0.143E-01
DAV:  17    -0.680243683546E+02    0.12707E-03   -0.25495E-03  3888   0.363E-01    0.100E-01
DAV:  18    -0.680241924569E+02    0.17590E-03   -0.10828E-04  3588   0.787E-02    0.343E-02
DAV:  19    -0.680242012801E+02   -0.88231E-05   -0.83007E-05  4212   0.553E-02    0.558E-03
DAV:  20    -0.680242105478E+02   -0.92678E-05   -0.55861E-06  3612   0.158E-02    0.568E-03
DAV:  21    -0.680242145692E+02   -0.40214E-05   -0.72790E-07  2208   0.675E-03    0.285E-03
DAV:  22    -0.680242160316E+02   -0.14623E-05   -0.55983E-07  1812   0.473E-03    0.163E-03
DAV:  23    -0.680242160884E+02   -0.56880E-07   -0.20864E-07  1752   0.355E-03
   1 F= -.68024216E+02 E0= -.68024216E+02  d E =-.173652E-11  mag=    -0.0000
