       N       E                     dE             d eps       ncg     rms          rms(c)
DAV:   1     0.961075718721E+03    0.96108E+03   -0.37329E+04   144   0.200E+03
DAV:   2     0.408251978004E+03   -0.55282E+03   -0.53195E+03   156   0.503E+02
DAV:   3     0.369643214848E+03   -0.38609E+02   -0.37586E+02   168   0.138E+02
DAV:   4     0.369095026622E+03   -0.54819E+00   -0.54775E+00   168   0.187E+01
DAV:   5     0.369087352099E+03   -0.76745E-02   -0.76745E-02   168   0.211E+00    0.585E+01
DAV:   6    -0.686943910641E+02   -0.43778E+03   -0.28022E+02   168   0.216E+02    0.621E+01
DAV:   7    -0.716993607415E+02   -0.30050E+01   -0.51010E+01   168   0.454E+01    0.174E+01
DAV:   8    -0.686828294042E+02    0.30165E+01   -0.65088E+00   216   0.213E+01    0.725E+00
DAV:   9    -0.682285518836E+02    0.45428E+00   -0.73455E+00   192   0.209E+01    0.872E+00
DAV:  10    -0.681743008776E+02    0.54251E-01   -0.51536E-01   168   0.615E+00    0.645E+00
DAV:  11    -0.681239557651E+02    0.50345E-01   -0.14029E+00   168   0.894E+00    0.200E+00
DAV:  12    -0.680737330256E+02    0.50223E-01   -0.14128E-01   168   0.360E+00    0.133E+00
DAV:  13    -0.680605158652E+02    0.13217E-01   -0.97737E-02   192   0.182E+00    0.107E+00
DAV:  14    -0.680562921435E+02    0.42237E-02   -0.58863E-02   144   0.240E+00    0.471E-01
DAV:  15    -0.680564002403E+02   -0.10810E-03   -0.40819E-03   168   0.524E-01    0.404E-01
DAV:  16    -0.680556981838E+02    0.70206E-03   -0.26439E-03   168   0.312E-01    0.203E-01
DAV:  17    -0.680555250028E+02    0.17318E-03   -0.50520E-03   144   0.461E-01    0.115E-01
DAV:  18    -0.680553842950E+02    0.14071E-03   -0.15703E-04   144   0.993E-02    0.426E-02
DAV:  19    -0.680553939296E+02   -0.96346E-05   -0.14633E-04   192   0.731E-02    0.552E-03
DAV:  20    -0.680554192452E+02   -0.25316E-04   -0.20266E-05   144   0.242E-02    0.133E-02
DAV:  21    -0.680554137183E+02    0.55269E-05   -0.43485E-06   144   0.149E-02    0.515E-03
DAV:  22    -0.680554145317E+02   -0.81340E-06   -0.22759E-06   168   0.814E-03    0.156E-03
DAV:  23    -0.680554172144E+02   -0.26826E-05   -0.40678E-07   144   0.347E-03    0.163E-03
DAV:  24    -0.680554187922E+02   -0.15778E-05   -0.13312E-08    72   0.103E-03    0.124E-03
DAV:  25    -0.680554193614E+02   -0.56926E-06   -0.57659E-08    72   0.149E-03    0.458E-04
DAV:  26    -0.680554191682E+02    0.19325E-06   -0.13725E-08    72   0.662E-04    0.320E-04
DAV:  27    -0.680554190729E+02    0.95339E-07   -0.88329E-09    72   0.581E-04
   1 F= -.68055419E+02 E0= -.68055419E+02  d E =-.680554E+02  mag=    -0.0000
       N       E                     dE             d eps       ncg     rms          rms(c)
DAV:   1    -0.682059596232E+02   -0.15054E+00   -0.54151E+00   144   0.181E+01    0.305E+00
DAV:   2    -0.681118702530E+02    0.94089E-01   -0.20884E-01   192   0.399E+00    0.186E+00
DAV:   3    -0.680817039772E+02    0.30166E-01   -0.83742E-02   144   0.199E+00    0.889E-01
DAV:   4    -0.680739375111E+02    0.77665E-02   -0.11036E-02   144   0.817E-01    0.524E-01
DAV:   5    -0.680720816226E+02    0.18559E-02   -0.12479E-02   144   0.743E-01    0.282E-01
DAV:   6    -0.680716325342E+02    0.44909E-03   -0.14765E-03   144   0.293E-01    0.118E-01
DAV:   7    -0.680717031228E+02   -0.70589E-04   -0.18019E-03   168   0.249E-01    0.919E-02
DAV:   8    -0.680716946234E+02    0.84994E-05   -0.89574E-05   168   0.847E-02    0.494E-02
DAV:   9    -0.680717079837E+02   -0.13360E-04   -0.46945E-04   168   0.127E-01    0.391E-02
DAV:  10    -0.680716814114E+02    0.26572E-04   -0.31409E-05   168   0.492E-02    0.152E-02
DAV:  11    -0.680716814211E+02   -0.96743E-08   -0.10323E-05   168   0.180E-02    0.599E-03
DAV:  12    -0.680716826628E+02   -0.12417E-05   -0.15085E-06   192   0.652E-03    0.264E-03
DAV:  13    -0.680716834640E+02   -0.80125E-06   -0.14382E-06   168   0.690E-03    0.155E-03
DAV:  14    -0.680716839173E+02   -0.45327E-06   -0.10275E-07    96   0.225E-03    0.193E-03
DAV:  15    -0.680716840457E+02   -0.12847E-06   -0.20328E-08    72   0.110E-03    0.127E-03
DAV:  16    -0.680716838447E+02    0.20105E-06   -0.13123E-07    72   0.212E-03    0.267E-04
DAV:  17    -0.680716838410E+02    0.36680E-08   -0.20788E-08    72   0.852E-04
   2 F= -.68071684E+02 E0= -.68071684E+02  d E =-.162648E-01  mag=     0.0000
       N       E                     dE             d eps       ncg     rms          rms(c)
DAV:   1    -0.681370211332E+02   -0.65337E-01   -0.25960E+00   144   0.126E+01    0.211E+00
DAV:   2    -0.680922376029E+02    0.44784E-01   -0.99994E-02   192   0.278E+00    0.130E+00
DAV:   3    -0.680773894563E+02    0.14848E-01   -0.40013E-02   168   0.138E+00    0.624E-01
DAV:   4    -0.680734910059E+02    0.38985E-02   -0.53073E-03   144   0.570E-01    0.366E-01
DAV:   5    -0.680726137070E+02    0.87730E-03   -0.59183E-03   144   0.513E-01    0.190E-01
DAV:   6    -0.680724401361E+02    0.17357E-03   -0.64887E-04   144   0.198E-01    0.837E-02
DAV:   7    -0.680724726017E+02   -0.32466E-04   -0.95606E-04   144   0.183E-01    0.664E-02
DAV:   8    -0.680724805969E+02   -0.79953E-05   -0.48784E-05   168   0.632E-02    0.343E-02
DAV:   9    -0.680724849074E+02   -0.43105E-05   -0.21014E-04   168   0.853E-02    0.246E-02
DAV:  10    -0.680724744927E+02    0.10415E-04   -0.12564E-05   168   0.316E-02    0.978E-03
DAV:  11    -0.680724742029E+02    0.28985E-06   -0.39406E-06   168   0.113E-02    0.397E-03
DAV:  12    -0.680724749990E+02   -0.79611E-06   -0.63785E-07   192   0.427E-03    0.173E-03
DAV:  13    -0.680724754470E+02   -0.44799E-06   -0.62982E-07   144   0.458E-03    0.108E-03
DAV:  14    -0.680724757533E+02   -0.30629E-06   -0.43052E-08    72   0.148E-03    0.132E-03
DAV:  15    -0.680724758437E+02   -0.90476E-07   -0.13352E-08    72   0.859E-04
   3 F= -.68072476E+02 E0= -.68072476E+02  d E =-.170568E-01  mag=    -0.0000
       N       E                     dE             d eps       ncg     rms          rms(c)
DAV:   1    -0.680814866703E+02   -0.90109E-02   -0.34204E-01   144   0.459E+00    0.771E-01
DAV:   2    -0.680751985348E+02    0.62881E-02   -0.13226E-02   192   0.102E+00    0.480E-01
DAV:   3    -0.680737200404E+02    0.14785E-02   -0.51559E-03   168   0.495E-01    0.229E-01
DAV:   4    -0.680734298644E+02    0.29018E-03   -0.73520E-04   144   0.212E-01    0.135E-01
DAV:   5    -0.680732961605E+02    0.13370E-03   -0.77743E-04   144   0.186E-01    0.685E-02
DAV:   6    -0.680732275333E+02    0.68627E-04   -0.83948E-05   144   0.711E-02    0.311E-02
DAV:   7    -0.680732324869E+02   -0.49536E-05   -0.13075E-04   144   0.676E-02    0.241E-02
DAV:   8    -0.680732116158E+02    0.20871E-04   -0.61438E-06   144   0.229E-02    0.128E-02
DAV:   9    -0.680732101868E+02    0.14290E-05   -0.28074E-05   168   0.310E-02    0.863E-03
DAV:  10    -0.680732108539E+02   -0.66713E-06   -0.15043E-06   168   0.111E-02    0.367E-03
DAV:  11    -0.680732107404E+02    0.11357E-06   -0.55787E-07   168   0.428E-03    0.142E-03
DAV:  12    -0.680732104012E+02    0.33913E-06   -0.73776E-08    72   0.151E-03    0.740E-04
DAV:  13    -0.680732101086E+02    0.29267E-06   -0.11731E-07    72   0.201E-03    0.482E-04
DAV:  14    -0.680732102075E+02   -0.98953E-07   -0.10407E-08    72   0.807E-04
   4 F= -.68073210E+02 E0= -.68073210E+02  d E =-.177911E-01  mag=     0.0000
       N       E                     dE             d eps       ncg     rms          rms(c)
DAV:   1    -0.681677019926E+02   -0.94492E-01   -0.28776E+00   144   0.138E+01    0.248E+00
DAV:   2    -0.680960944147E+02    0.71608E-01   -0.13611E-01   192   0.332E+00    0.156E+00
DAV:   3    -0.680839366063E+02    0.12158E-01   -0.50596E-02   144   0.158E+00    0.644E-01
DAV:   4    -0.680812925321E+02    0.26441E-02   -0.58350E-03   192   0.622E-01    0.423E-01
DAV:   5    -0.680802094736E+02    0.10831E-02   -0.84262E-03   192   0.613E-01    0.240E-01
DAV:   6    -0.680797676348E+02    0.44184E-03   -0.10227E-03   144   0.246E-01    0.983E-02
DAV:   7    -0.680798789937E+02   -0.11136E-03   -0.17042E-03   168   0.245E-01    0.947E-02
DAV:   8    -0.680797557539E+02    0.12324E-03   -0.15772E-04   168   0.104E-01    0.385E-02
DAV:   9    -0.680797475392E+02    0.82146E-05   -0.28836E-04   192   0.978E-02    0.280E-02
DAV:  10    -0.680797500598E+02   -0.25206E-05   -0.14209E-05   144   0.342E-02    0.150E-02
DAV:  11    -0.680797475226E+02    0.25373E-05   -0.62958E-06   168   0.144E-02    0.724E-03
DAV:  12    -0.680797464331E+02    0.10895E-05   -0.12156E-06   144   0.583E-03    0.412E-03
DAV:  13    -0.680797469014E+02   -0.46835E-06   -0.19251E-06   192   0.783E-03    0.754E-04
DAV:  14    -0.680797462977E+02    0.60370E-06   -0.24315E-07   144   0.286E-03    0.143E-03
DAV:  15    -0.680797462586E+02    0.39067E-07   -0.81092E-09    72   0.739E-04
   5 F= -.68079746E+02 E0= -.68079746E+02  d E =-.653605E-02  mag=     0.0000
       N       E                     dE             d eps       ncg     rms          rms(c)
DAV:   1    -0.680972672422E+02   -0.17521E-01   -0.53906E-01   144   0.596E+00    0.107E+00
DAV:   2    -0.680833946181E+02    0.13873E-01   -0.25382E-02   192   0.143E+00    0.667E-01
DAV:   3    -0.680813635836E+02    0.20310E-02   -0.96189E-03   144   0.685E-01    0.277E-01
DAV:   4    -0.680810514976E+02    0.31209E-03   -0.10821E-03   192   0.266E-01    0.182E-01
DAV:   5    -0.680808484418E+02    0.20306E-03   -0.16176E-03   192   0.268E-01    0.106E-01
DAV:   6    -0.680807664124E+02    0.82029E-04   -0.19862E-04   144   0.108E-01    0.424E-02
DAV:   7    -0.680807904795E+02   -0.24067E-04   -0.31824E-04   168   0.106E-01    0.412E-02
DAV:   8    -0.680807611973E+02    0.29282E-04   -0.29574E-05   168   0.448E-02    0.167E-02
DAV:   9    -0.680807558662E+02    0.53311E-05   -0.56737E-05   192   0.434E-02    0.127E-02
DAV:  10    -0.680807586794E+02   -0.28132E-05   -0.27591E-06   144   0.152E-02    0.669E-03
DAV:  11    -0.680807579240E+02    0.75540E-06   -0.13045E-06   168   0.646E-03    0.318E-03
DAV:  12    -0.680807575062E+02    0.41780E-06   -0.24002E-07   120   0.259E-03    0.181E-03
DAV:  13    -0.680807577534E+02   -0.24720E-06   -0.34814E-07   168   0.332E-03    0.405E-04
DAV:  14    -0.680807574768E+02    0.27654E-06   -0.48813E-08    72   0.132E-03    0.656E-04
DAV:  15    -0.680807574194E+02    0.57431E-07   -0.47116E-09    72   0.445E-04
   6 F= -.68080757E+02 E0= -.68080757E+02  d E =-.754721E-02  mag=     0.0000
       N       E                     dE             d eps       ncg     rms          rms(c)
DAV:   1    -0.680827271077E+02   -0.19696E-02   -0.60558E-02   192   0.199E+00    0.359E-01
DAV:   2    -0.680809813443E+02    0.17458E-02   -0.28546E-03   144   0.476E-01    0.223E-01
DAV:   3    -0.680808585264E+02    0.12282E-03   -0.10820E-03   168   0.230E-01    0.928E-02
DAV:   4    -0.680808922556E+02   -0.33729E-04   -0.11890E-04   168   0.886E-02    0.607E-02
DAV:   5    -0.680808682641E+02    0.23992E-04   -0.18001E-04   192   0.891E-02    0.351E-02
DAV:   6    -0.680808606874E+02    0.75766E-05   -0.21458E-05   144   0.356E-02    0.143E-02
DAV:   7    -0.680808649599E+02   -0.42725E-05   -0.39791E-05   168   0.374E-02    0.148E-02
DAV:   8    -0.680808584749E+02    0.64850E-05   -0.42452E-06   168   0.167E-02    0.561E-03
DAV:   9    -0.680808567422E+02    0.17328E-05   -0.64612E-06   192   0.145E-02    0.416E-03
DAV:  10    -0.680808579536E+02   -0.12115E-05   -0.31563E-07   144   0.509E-03    0.216E-03
DAV:  11    -0.680808578424E+02    0.11119E-06   -0.11984E-07    72   0.201E-03    0.113E-03
DAV:  12    -0.680808577872E+02    0.55201E-07   -0.30255E-08    72   0.966E-04
   7 F= -.68080858E+02 E0= -.68080858E+02  d E =-.764758E-02  mag=     0.0000
       N       E                     dE             d eps       ncg     rms          rms(c)
DAV:   1    -0.680752705233E+02    0.55873E-02   -0.51722E-01   144   0.498E+00    0.418E-01
DAV:   2    -0.680824492065E+02   -0.71787E-02   -0.22419E-02   192   0.112E+00    0.248E-01
DAV:   3    -0.680822433071E+02    0.20590E-03   -0.30737E-03   144   0.374E-01    0.125E-01
DAV:   4    -0.680819703996E+02    0.27291E-03   -0.18529E-04   192   0.113E-01    0.800E-02
DAV:   5    -0.680818902960E+02    0.80104E-04   -0.19966E-04   192   0.111E-01    0.351E-02
DAV:   6    -0.680818905544E+02   -0.25836E-06   -0.42543E-05   192   0.467E-02    0.156E-02
DAV:   7    -0.680818997257E+02   -0.91714E-05   -0.17517E-05   168   0.264E-02    0.912E-03
DAV:   8    -0.680819019684E+02   -0.22426E-05   -0.25304E-06   144   0.111E-02    0.632E-03
DAV:   9    -0.680819048692E+02   -0.29009E-05   -0.63041E-06   192   0.153E-02    0.487E-03
DAV:  10    -0.680819021753E+02    0.26940E-05   -0.66560E-07   144   0.625E-03    0.310E-03
DAV:  11    -0.680819028245E+02   -0.64919E-06   -0.52549E-07   144   0.450E-03    0.928E-04
DAV:  12    -0.680819031569E+02   -0.33244E-06   -0.86318E-08    72   0.175E-03    0.438E-04
DAV:  13    -0.680819034554E+02   -0.29851E-06   -0.26906E-08    72   0.100E-03    0.409E-04
DAV:  14    -0.680819033625E+02    0.92877E-07   -0.35334E-09    72   0.564E-04
   8 F= -.68081903E+02 E0= -.68081903E+02  d E =-.104558E-02  mag=     0.0000
       N       E                     dE             d eps       ncg     rms          rms(c)
DAV:   1    -0.680624710226E+02    0.19432E-01   -0.15661E+00   144   0.866E+00    0.731E-01
DAV:   2    -0.680839290640E+02   -0.21458E-01   -0.68102E-02   192   0.195E+00    0.432E-01
DAV:   3    -0.680834782602E+02    0.45080E-03   -0.92530E-03   144   0.651E-01    0.218E-01
DAV:   4    -0.680827479052E+02    0.73036E-03   -0.55846E-04   192   0.197E-01    0.140E-01
DAV:   5    -0.680825173815E+02    0.23052E-03   -0.61570E-04   192   0.195E-01    0.619E-02
DAV:   6    -0.680825098119E+02    0.75695E-05   -0.12958E-04   192   0.815E-02    0.272E-02
DAV:   7    -0.680825248334E+02   -0.15021E-04   -0.53361E-05   168   0.460E-02    0.159E-02
DAV:   8    -0.680825279288E+02   -0.30954E-05   -0.74987E-06   144   0.194E-02    0.110E-02
DAV:   9    -0.680825331529E+02   -0.52241E-05   -0.19323E-05   192   0.267E-02    0.851E-03
DAV:  10    -0.680825278797E+02    0.52733E-05   -0.20543E-06   144   0.110E-02    0.539E-03
DAV:  11    -0.680825289173E+02   -0.10377E-05   -0.15766E-06   168   0.780E-03    0.160E-03
DAV:  12    -0.680825295071E+02   -0.58976E-06   -0.27744E-07   120   0.304E-03    0.615E-04
DAV:  13    -0.680825298219E+02   -0.31482E-06   -0.39807E-08    72   0.119E-03    0.476E-04
DAV:  14    -0.680825298636E+02   -0.41716E-07   -0.98813E-09    72   0.649E-04
   9 F= -.68082530E+02 E0= -.68082530E+02  d E =-.167208E-02  mag=    -0.0000
       N       E                     dE             d eps       ncg     rms          rms(c)
DAV:   1    -0.680824991372E+02    0.30685E-04   -0.25743E-03   144   0.352E-01    0.297E-02
DAV:   2    -0.680825231192E+02   -0.23982E-04   -0.11167E-04   192   0.796E-02    0.178E-02
DAV:   3    -0.680825316079E+02   -0.84886E-05   -0.15409E-05   144   0.264E-02    0.887E-03
DAV:   4    -0.680825363911E+02   -0.47832E-05   -0.94057E-07   192   0.801E-03    0.569E-03
DAV:   5    -0.680825366672E+02   -0.27608E-06   -0.10003E-06   192   0.790E-03    0.250E-03
DAV:   6    -0.680825363288E+02    0.33836E-06   -0.20333E-07    96   0.330E-03    0.114E-03
DAV:   7    -0.680825357321E+02    0.59674E-06   -0.12107E-07    72   0.221E-03    0.677E-04
DAV:   8    -0.680825354419E+02    0.29015E-06   -0.14381E-08    72   0.843E-04    0.507E-04
DAV:   9    -0.680825353152E+02    0.12675E-06   -0.27920E-08    72   0.107E-03    0.350E-04
DAV:  10    -0.680825354127E+02   -0.97575E-07   -0.47671E-09    72   0.472E-04
  10 F= -.68082535E+02 E0= -.68082535E+02  d E =-.167763E-02  mag=     0.0000
       N       E                     dE             d eps       ncg     rms          rms(c)
DAV:   1    -0.680827998555E+02   -0.26454E-03   -0.11385E-02   144   0.902E-01    0.157E-01
DAV:   2    -0.680824624701E+02    0.33739E-03   -0.69664E-04   144   0.225E-01    0.958E-02
DAV:   3    -0.680825207916E+02   -0.58322E-04   -0.24989E-04   192   0.108E-01    0.386E-02
DAV:   4    -0.680825609376E+02   -0.40146E-04   -0.15158E-05   144   0.336E-02    0.293E-02
DAV:   5    -0.680825583056E+02    0.26320E-05   -0.34150E-05   168   0.376E-02    0.181E-02
DAV:   6    -0.680825545565E+02    0.37490E-05   -0.44940E-06   192   0.169E-02    0.742E-03
DAV:   7    -0.680825547445E+02   -0.18793E-06   -0.10911E-05   168   0.195E-02    0.690E-03
DAV:   8    -0.680825511583E+02    0.35862E-05   -0.70281E-07   168   0.729E-03    0.324E-03
DAV:   9    -0.680825510309E+02    0.12740E-06   -0.13904E-06   168   0.685E-03    0.114E-03
DAV:  10    -0.680825510518E+02   -0.20871E-07   -0.51856E-08    72   0.180E-03
  11 F= -.68082551E+02 E0= -.68082551E+02  d E =-.156390E-04  mag=    -0.0000
