 vasp.5.4.4.18Apr17-6-g9f103f2a35 (build Apr 27 2017 11:13:10) complex          
  
 executed on           IFC91_ompi date 2020.05.13  12:27:48
 running on   12 total cores
 distrk:  each k-point on   12 cores,    1 groups
 distr:  one band on NCORES_PER_BAND=   1 cores,   12 groups


--------------------------------------------------------------------------------------------------------


 INCAR:
 POTCAR:    PAW_PBE Mn_pv 02Aug2007               
 POTCAR:    PAW_PBE F 08Apr2002                   

 ----------------------------------------------------------------------------- 
|                                                                             |
|           W    W    AA    RRRRR   N    N  II  N    N   GGGG   !!!           |
|           W    W   A  A   R    R  NN   N  II  NN   N  G    G  !!!           |
|           W    W  A    A  R    R  N N  N  II  N N  N  G       !!!           |
|           W WW W  AAAAAA  RRRRR   N  N N  II  N  N N  G  GGG   !            |
|           WW  WW  A    A  R   R   N   NN  II  N   NN  G    G                |
|           W    W  A    A  R    R  N    N  II  N    N   GGGG   !!!           |
|                                                                             |
|      For optimal performance we recommend to set                            |
|        NCORE= 4 - approx SQRT( number of cores)                             |
|      NCORE specifies how many cores store one orbital (NPAR=cpu/NCORE).     |
|      This setting can  greatly improve the performance of VASP for DFT.     |
|      The default,   NCORE=1            might be grossly inefficient         |
|      on modern multi-core architectures or massively parallel machines.     |
|      Do your own testing !!!!                                               |
|      Unfortunately you need to use the default for GW and RPA calculations. |
|      (for HF NCORE is supported but not extensively tested yet)             |
|                                                                             |
 ----------------------------------------------------------------------------- 

 POTCAR:    PAW_PBE Mn_pv 02Aug2007               
   VRHFIN =Mn: 3p4s3d                                                           
   LEXCH  = PE                                                                  
   EATOM  =  2025.2664 eV,  148.8529 Ry                                         
                                                                                
   TITEL  = PAW_PBE Mn_pv 02Aug2007                                             
   LULTRA =        F    use ultrasoft PP ?                                      
   IUNSCR =        1    unscreen: 0-lin 1-nonlin 2-no                           
   RPACOR =    2.080    partial core radius                                     
   POMASS =   54.938; ZVAL   =   13.000    mass and valenz                      
   RCORE  =    2.300    outmost cutoff radius                                   
   RWIGS  =    2.500; RWIGS  =    1.323    wigner-seitz radius (au A)           
   ENMAX  =  269.864; ENMIN  =  202.398 eV                                      
   ICORE  =        3    local potential                                         
   LCOR   =        T    correct aug charges                                     
   LPAW   =        T    paw PP                                                  
   EAUG   =  569.085                                                            
   DEXC   =    0.000                                                            
   RMAX   =    2.343    core radius for proj-oper                               
   RAUG   =    1.300    factor for augmentation sphere                          
   RDEP   =    2.338    radius for radial grids                                 
   RDEPT  =    1.798    core radius for aug-charge                              
                                                                                
   Atomic configuration                                                         
    8 entries                                                                   
     n  l   j            E        occ.                                          
     1  0  0.50     -6424.8287   2.0000                                         
     2  0  0.50      -739.1154   2.0000                                         
     2  1  1.50      -625.3949   6.0000                                         
     3  0  0.50       -81.6100   2.0000                                         
     3  1  1.50       -50.4667   6.0000                                         
     3  2  2.50        -3.3745   6.0000                                         
     4  0  0.50        -4.1331   1.0000                                         
     4  3  2.50        -1.3606   0.0000                                         
   Description                                                                  
     l       E           TYP  RCUT    TYP  RCUT                                 
     1    -50.4666628     23  2.000                                             
     1     -1.3605826     23  2.000                                             
     2     -3.3744729     23  2.300                                             
     2     -4.7350555     23  2.300                                             
     0     -4.1331431     23  2.300                                             
     0      7.6656591     23  2.300                                             
     3      9.5240782     23  2.300                                             
  local pseudopotential read in
  partial core-charges read in
  partial kinetic energy density read in
  atomic valenz-charges read in
  non local Contribution for L=           1  read in
    real space projection operators read in
  non local Contribution for L=           1  read in
    real space projection operators read in
  non local Contribution for L=           2  read in
    real space projection operators read in
  non local Contribution for L=           2  read in
    real space projection operators read in
  non local Contribution for L=           0  read in
    real space projection operators read in
  non local Contribution for L=           0  read in
    real space projection operators read in
    PAW grid and wavefunctions read in
 
   number of l-projection  operators is LMAX  =           6
   number of lm-projection operators is LMMAX =          18
 
 POTCAR:    PAW_PBE F 08Apr2002                   
   VRHFIN =F: s2p5                                                              
   LEXCH  = PE                                                                  
   EATOM  =   659.6475 eV,   48.4827 Ry                                         
                                                                                
   TITEL  = PAW_PBE F 08Apr2002                                                 
   LULTRA =        F    use ultrasoft PP ?                                      
   IUNSCR =        1    unscreen: 0-lin 1-nonlin 2-no                           
   RPACOR =    1.200    partial core radius                                     
   POMASS =   18.998; ZVAL   =    7.000    mass and valenz                      
   RCORE  =    1.520    outmost cutoff radius                                   
   RWIGS  =    1.500; RWIGS  =    0.794    wigner-seitz radius (au A)           
   ENMAX  =  400.000; ENMIN  =  300.000 eV                                      
   ICORE  =        2    local potential                                         
   LCOR   =        T    correct aug charges                                     
   LPAW   =        T    paw PP                                                  
   EAUG   =  613.614                                                            
   RMAX   =    1.555    core radius for proj-oper                               
   RAUG   =    1.300    factor for augmentation sphere                          
   RDEP   =    1.539    radius for radial grids                                 
   RDEPT  =    1.299    core radius for aug-charge                              
                                                                                
   Atomic configuration                                                         
    4 entries                                                                   
     n  l   j            E        occ.                                          
     1  0  0.50      -663.3661   2.0000                                         
     2  0  0.50       -29.8995   2.0000                                         
     2  1  0.50       -11.1114   5.0000                                         
     3  2  1.50       -10.8847   0.0000                                         
   Description                                                                  
     l       E           TYP  RCUT    TYP  RCUT                                 
     0    -29.8995018     23  1.200                                             
     0     -9.5240782     23  1.200                                             
     1    -11.1113914     23  1.520                                             
     1      1.3605826     23  1.520                                             
     2    -10.8846608      7  1.500                                             
  local pseudopotential read in
  partial core-charges read in
  partial kinetic energy density read in
  atomic valenz-charges read in
  non local Contribution for L=           0  read in
    real space projection operators read in
  non local Contribution for L=           0  read in
    real space projection operators read in
  non local Contribution for L=           1  read in
    real space projection operators read in
  non local Contribution for L=           1  read in
    real space projection operators read in
    PAW grid and wavefunctions read in
 
   number of l-projection  operators is LMAX  =           4
   number of lm-projection operators is LMMAX =           8
 
  PAW_PBE Mn_pv 02Aug2007               :
 energy of atom  1       EATOM=-2025.2664
 kinetic energy error for atom=    0.0047 (will be added to EATOM!!)
  PAW_PBE F 08Apr2002                   :
 energy of atom  2       EATOM= -659.6475
 kinetic energy error for atom=    0.0256 (will be added to EATOM!!)
 
 
 POSCAR: Mn  F                                   
  positions in cartesian coordinates
  No initial velocities read in

 METAGGA = SCAN     LMAXTAU =  6    LMIXTAU =  F

 exchange correlation table for  LEXCH =        8
   RHO(1)=    0.500       N(1)  =     2000
   RHO(2)=  100.500       N(2)  =     4000
 


--------------------------------------------------------------------------------------------------------


 ion  position               nearest neighbor table
   1  0.500  0.500  0.500-   3 2.09   4 2.09   5 2.12   6 2.12   5 2.12   6 2.12
   2  0.000  0.000  0.000-   5 2.09   6 2.09   3 2.12   4 2.12   3 2.12   4 2.12
   3  0.196  0.804  0.500-   1 2.09   2 2.12   2 2.12
   4  0.804  0.196  0.500-   1 2.09   2 2.12   2 2.12
   5  0.304  0.304  0.000-   2 2.09   1 2.12   1 2.12
   6  0.696  0.696  0.000-   2 2.09   1 2.12   1 2.12
 
  LATTYP: Found a simple tetragonal cell.
 ALAT       =     4.8525685001
 C/A-ratio  =     0.6775817662
  
  Lattice vectors:
  
 A1 = (   4.8525685001,   0.0000000000,   0.0000000000)
 A2 = (   0.0000000000,   4.8525685001,   0.0000000000)
 A3 = (   0.0000000000,   0.0000000000,   3.2880119349)


Analysis of symmetry for initial positions (statically):
=====================================================================
 Subroutine PRICEL returns:
 Original cell was already a primitive cell.
 

 Routine SETGRP: Setting up the symmetry group for a 
 simple tetragonal supercell.


 Subroutine GETGRP returns: Found 16 space group operations
 (whereof  8 operations were pure point group operations)
 out of a pool of 16 trial point group operations.


The static configuration has the point symmetry D_2h.
 The point group associated with its full space group is D_4h.


Analysis of symmetry for dynamics (positions and initial velocities):
=====================================================================
 Subroutine PRICEL returns:
 Original cell was already a primitive cell.
 

 Routine SETGRP: Setting up the symmetry group for a 
 simple tetragonal supercell.


 Subroutine GETGRP returns: Found 16 space group operations
 (whereof  8 operations were pure point group operations)
 out of a pool of 16 trial point group operations.


The dynamic configuration has the point symmetry D_2h.
 The point group associated with its full space group is D_4h.


Analysis of structural, dynamic, and magnetic symmetry:
=====================================================================
 Subroutine PRICEL returns:
 Original cell was already a primitive cell.
 

 Routine SETGRP: Setting up the symmetry group for a 
 simple tetragonal supercell.


 Subroutine GETGRP returns: Found 16 space group operations
 (whereof  8 operations were pure point group operations)
 out of a pool of 16 trial point group operations.


The magnetic configuration has the point symmetry D_2h.
 The point group associated with its full space group is D_4h.


 Subroutine INISYM returns: Found 16 space group operations
 (whereof  8 operations are pure point group operations),
 and found     1 'primitive' translations

 
 
 KPOINTS: KPOINTS created by Atomic Simulation Env

Automatic generation of k-mesh.
Space group operators:
 irot       det(A)        alpha          n_x          n_y          n_z        tau_x        tau_y        tau_z
    1     1.000000     0.000000     1.000000     0.000000     0.000000     0.000000     0.000000     0.000000
    2    -1.000000     0.000000     1.000000     0.000000     0.000000     0.000000     0.000000     0.000000
    3     1.000000   180.000000     0.000000     0.000000     1.000000     0.000000     0.000000     0.000000
    4    -1.000000   180.000000     0.000000     0.000000     1.000000     0.000000     0.000000     0.000000
    5     1.000000   180.000000     0.707107     0.707107     0.000000     0.000000     0.000000     0.000000
    6    -1.000000   180.000000     0.707107     0.707107     0.000000     0.000000     0.000000     0.000000
    7     1.000000   180.000000     0.707107    -0.707107     0.000000     0.000000     0.000000     0.000000
    8    -1.000000   180.000000     0.707107    -0.707107     0.000000     0.000000     0.000000     0.000000
    9     1.000000    90.000000     0.000000     0.000000    -1.000000     0.500000     0.500000     0.500000
   10    -1.000000    90.000000     0.000000     0.000000    -1.000000     0.500000     0.500000     0.500000
   11     1.000000    90.000000     0.000000     0.000000     1.000000     0.500000     0.500000     0.500000
   12    -1.000000    90.000000     0.000000     0.000000     1.000000     0.500000     0.500000     0.500000
   13     1.000000   180.000000     0.000000     1.000000     0.000000     0.500000     0.500000     0.500000
   14    -1.000000   180.000000     0.000000     1.000000     0.000000     0.500000     0.500000     0.500000
   15     1.000000   180.000000     1.000000     0.000000     0.000000     0.500000     0.500000     0.500000
   16    -1.000000   180.000000     1.000000     0.000000     0.000000     0.500000     0.500000     0.500000
 
 Subroutine IBZKPT returns following result:
 ===========================================
 
 Found      1 irreducible k-points:
 
 Following reciprocal coordinates:
            Coordinates               Weight
  0.000000  0.000000  0.250000      2.000000
 
 Following cartesian coordinates:
            Coordinates               Weight
  0.000000  0.000000  0.076034      2.000000
 


--------------------------------------------------------------------------------------------------------




 Dimension of arrays:
   k-points           NKPTS =      1   k-points in BZ     NKDIM =      1   number of bands    NBANDS=     36
   number of dos      NEDOS =    301   number of ions     NIONS =      6
   non local maximal  LDIM  =      6   non local SUM 2l+1 LMDIM =     18
   total plane-waves  NPLWV =  18000
   max r-space proj   IRMAX =      1   max aug-charges    IRDMAX=  56627
   dimension x,y,z NGX =    30 NGY =   30 NGZ =   20
   dimension x,y,z NGXF=    60 NGYF=   60 NGZF=   40
   support grid    NGXF=   120 NGYF=  120 NGZF=   80
   ions per type =               2   4
   NGX,Y,Z   is equivalent  to a cutoff of  10.28, 10.28, 10.11 a.u.
   NGXF,Y,Z  is equivalent  to a cutoff of  20.56, 20.56, 20.22 a.u.

 SYSTEM =  unknown system                          
 POSCAR =  Mn  F                                   

 Startparameter for this run:
   NWRITE =      2    write-flag & timer
   PREC   = normal    normal or accurate (medium, high low for compatibility)
   ISTART =      0    job   : 0-new  1-cont  2-samecut
   ICHARG =      2    charge: 1-file 2-atom 10-const
   ISPIN  =      2    spin polarized calculation?
   LNONCOLLINEAR =      F non collinear calculations
   LSORBIT =      F    spin-orbit coupling
   INIWAV =      1    electr: 0-lowe 1-rand  2-diag
   LASPH  =      T    aspherical Exc in radial PAW
   METAGGA=      F    non-selfconsistent MetaGGA calc.

 Electronic Relaxation 1
   ENCUT  =  600.0 eV  44.10 Ry    6.64 a.u.   9.69  9.69  6.57*2*pi/ulx,y,z
   ENINI  =  600.0     initial cutoff
   ENAUG  =  613.6 eV  augmentation charge cutoff
   NELM   =     60;   NELMIN=  2; NELMDL= -5     # of ELM steps 
   EDIFF  = 0.1E-06   stopping-criterion for ELM
   LREAL  =      F    real-space projection
   NLSPLINE    = F    spline interpolate recip. space projectors
   LCOMPAT=      F    compatible to vasp.4.4
   GGA_COMPAT  = T    GGA compatible to vasp.4.4-vasp.4.6
   LMAXPAW     = -100 max onsite density
   LMAXMIX     =    4 max onsite mixed and CHGCAR
   VOSKOWN=      0    Vosko Wilk Nusair interpolation
   ROPT   =    0.00000   0.00000
 Ionic relaxation
   EDIFFG = -.5E-02   stopping-criterion for IOM
   NSW    =     50    number of steps for IOM
   NBLOCK =      1;   KBLOCK =     50    inner block; outer block 
   IBRION =      2    ionic relax: 0-MD 1-quasi-New 2-CG
   NFREE  =      1    steps in history (QN), initial steepest desc. (CG)
   ISIF   =      3    stress and relaxation
   IWAVPR =     11    prediction:  0-non 1-charg 2-wave 3-comb
   ISYM   =      2    0-nonsym 1-usesym 2-fastsym
   LCORR  =      T    Harris-Foulkes like correction to forces

   POTIM  = 0.5000    time-step for ionic-motion
   TEIN   =    0.0    initial temperature
   TEBEG  =    0.0;   TEEND  =   0.0 temperature during run
   SMASS  =  -3.00    Nose mass-parameter (am)
   estimated Nose-frequenzy (Omega)   =  0.10E-29 period in steps =****** mass=  -0.538E-27a.u.
   SCALEE = 1.0000    scale energy and forces
   NPACO  =    256;   APACO  = 16.0  distance and # of slots for P.C.
   PSTRESS=    0.0 pullay stress

  Mass of Ions in am
   POMASS =  54.94 19.00
  Ionic Valenz
   ZVAL   =  13.00  7.00
  Atomic Wigner-Seitz radii
   RWIGS  =  -1.00 -1.00
  virtual crystal weights 
   VCA    =   1.00  1.00
   NELECT =      54.0000    total number of electrons
   NUPDOWN=      -1.0000    fix difference up-down

 DOS related values:
   EMIN   =  10.00;   EMAX   =-10.00  energy-range for DOS
   EFERMI =   0.00
   ISMEAR =     0;   SIGMA  =   0.02  broadening in eV -4-tet -1-fermi 0-gaus

 Electronic relaxation 2 (details)
   IALGO  =     38    algorithm
   LDIAG  =      T    sub-space diagonalisation (order eigenvalues)
   LSUBROT=      F    optimize rotation matrix (better conditioning)
   TURBO    =      0    0=normal 1=particle mesh
   IRESTART =      0    0=no restart 2=restart with 2 vectors
   NREBOOT  =      0    no. of reboots
   NMIN     =      0    reboot dimension
   EREF     =   0.00    reference energy to select bands
   IMIX   =      4    mixing-type and parameters
     AMIX     =   0.40;   BMIX     =  1.00
     AMIX_MAG =   1.60;   BMIX_MAG =  1.00
     AMIN     =   0.10
     WC   =   100.;   INIMIX=   1;  MIXPRE=   1;  MAXMIX= -45

 Intra band minimization:
   WEIMIN = 0.0010     energy-eigenvalue tresh-hold
   EBREAK =  0.69E-09  absolut break condition
   DEPER  =   0.30     relativ break condition  

   TIME   =   0.40     timestep for ELM

  volume/ion in A,a.u.               =      12.90        87.08
  Fermi-wavevector in a.u.,A,eV,Ry     =   1.451824  2.743549 28.678246  2.107792
  Thomas-Fermi vector in A             =   2.569276
 
 Write flags
   LWAVE        =      F    write WAVECAR
   LDOWNSAMPLE  =      F    k-point downsampling of WAVECAR
   LCHARG       =      F    write CHGCAR
   LVTOT        =      F    write LOCPOT, total local potential
   LVHAR        =      F    write LOCPOT, Hartree potential only
   LELF         =      F    write electronic localiz. function (ELF)
   LORBIT       =     11    0 simple, 1 ext, 2 COOP (PROOUT), +10 PAW based schemes


 Dipole corrections
   LMONO  =      F    monopole corrections only (constant potential shift)
   LDIPOL =      F    correct potential (dipole corrections)
   IDIPOL =      0    1-x, 2-y, 3-z, 4-all directions 
   EPSILON=  1.0000000 bulk dielectric constant

 LDA+U is selected, type is set to LDAUTYPE =  2
   angular momentum for each species LDAUL =     2   -1
   U (eV)           for each species LDAUU =   0.0  0.0
   J (eV)           for each species LDAUJ =   0.0  0.0
 Exchange correlation treatment:
   GGA     =    --    GGA type
   LEXCH   =     8    internal setting for exchange type
   VOSKOWN=      0    Vosko Wilk Nusair interpolation
   LHFCALC =     F    Hartree Fock is set to
   LHFONE  =     F    Hartree Fock one center treatment
   AEXX    =    0.0000 exact exchange contribution

 Linear response parameters
   LEPSILON=     F    determine dielectric tensor
   LRPA    =     F    only Hartree local field effects (RPA)
   LNABLA  =     F    use nabla operator in PAW spheres
   LVEL    =     F    velocity operator in full k-point grid
   LINTERFAST=   F  fast interpolation
   KINTER  =     0    interpolate to denser k-point grid
   CSHIFT  =0.1000    complex shift for real part using Kramers Kronig
   OMEGAMAX=  -1.0    maximum frequency
   DEG_THRESHOLD= 0.2000000E-02 threshold for treating states as degnerate
   RTIME   =   -0.100 relaxation time in fs
  (WPLASMAI=    0.000 imaginary part of plasma frequency in eV, 0.658/RTIME)
   DFIELD  = 0.0000000 0.0000000 0.0000000 field for delta impulse in time
 
 Orbital magnetization related:
   ORBITALMAG=     F  switch on orbital magnetization
   LCHIMAG   =     F  perturbation theory with respect to B field
   DQ        =  0.001000  dq finite difference perturbation B field
   LLRAUG    =     F  two centre corrections for induced B field



--------------------------------------------------------------------------------------------------------


 conjugate gradient relaxation of ions
 charge density and potential will be updated during run
 spin polarized calculation
 Variant of blocked Davidson
 Davidson routine will perform the subspace rotation
 perform sub-space diagonalisation
    after iterative eigenvector-optimisation
 modified Broyden-mixing scheme, WC =      100.0
 initial mixing is a Kerker type mixing with AMIX =  0.4000 and BMIX =      1.0000
 Hartree-type preconditioning will be used
 using additional bands            9
 reciprocal scheme for non local part
 use partial core corrections
 calculate Harris-corrections to forces 
   (improved forces if not selfconsistent)
 use gradient corrections 
 use of overlap-Matrix (Vanderbilt PP)
 Gauss-broadening in eV      SIGMA  =   0.02


--------------------------------------------------------------------------------------------------------


  energy-cutoff  :      600.00
  volume of cell :       77.42
      direct lattice vectors                 reciprocal lattice vectors
     4.852568500  0.000000000  0.000000000     0.206076431  0.000000000  0.000000000
     0.000000000  4.852568500  0.000000000     0.000000000  0.206076431  0.000000000
     0.000000000  0.000000000  3.288011935     0.000000000  0.000000000  0.304135149

  length of vectors
     4.852568500  4.852568500  3.288011935     0.206076431  0.206076431  0.304135149


 
 k-points in units of 2pi/SCALE and weight: KPOINTS created by Atomic Simulation Env
   0.00000000  0.00000000  0.07603379       1.000
 
 k-points in reciprocal lattice and weights: KPOINTS created by Atomic Simulation Env
   0.00000000  0.00000000  0.25000000       1.000
 
 position of ions in fractional coordinates (direct lattice) 
   0.50000000  0.50000000  0.50000000
   0.00000000  0.00000000  0.00000000
   0.19609954  0.80390046  0.50000000
   0.80390046  0.19609954  0.50000000
   0.30390046  0.30390046  0.00000000
   0.69609954  0.69609954  0.00000000
 
 position of ions in cartesian coordinates  (Angst):
   2.42628425  2.42628425  1.64400597
   0.00000000  0.00000000  0.00000000
   0.95158645  3.90098205  1.64400597
   3.90098205  0.95158645  1.64400597
   1.47469780  1.47469780  0.00000000
   3.37787070  3.37787070  0.00000000
 


--------------------------------------------------------------------------------------------------------


 k-point  1 :   0.0000 0.0000 0.2500  plane waves:    2581

 maximum and minimum number of plane-waves per node :      2581     2581

 maximum number of plane-waves:      2581
 maximum index in each direction: 
   IXMAX=    9   IYMAX=    9   IZMAX=    6
   IXMIN=   -9   IYMIN=   -9   IZMIN=   -6


 serial   3D FFT for wavefunctions
 parallel 3D FFT for charge:
    minimum data exchange during FFTs selected (reduces bandwidth)


 total amount of memory used by VASP MPI-rank0    37131. kBytes
=======================================================================

   base      :      30000. kBytes
   nonl-proj :        995. kBytes
   fftplans  :       1875. kBytes
   grid      :       3820. kBytes
   one-center:        186. kBytes
   wavefun   :        255. kBytes
 
     INWAV:  cpu time    0.0000: real time    0.0000
 Broyden mixing: mesh for mixing (old mesh)
   NGX = 19   NGY = 19   NGZ = 13
  (NGX  = 60   NGY  = 60   NGZ  = 40)
  gives a total of   4693 points

 initial charge density was supplied:
 charge density of overlapping atoms calculated
 number of electron      54.0000000 magnetization       0.0000000
 keeping initial charge density in first step


--------------------------------------------------------------------------------------------------------


 Maximum index for augmentation-charges         4323 (set IRDMAX)


--------------------------------------------------------------------------------------------------------


 First call to EWALD:  gamma=   0.416
 Maximum number of real-space cells 2x 2x 3
 Maximum number of reciprocal cells 3x 3x 2

    FEWALD:  cpu time    0.0010: real time    0.0010


--------------------------------------- Iteration      1(   1)  ---------------------------------------


    POTLOK:  cpu time    0.0356: real time    0.0356
    SETDIJ:  cpu time    0.7803: real time    0.7803
atom =   1  type =  1  l = 2
 
 onsite density matrix
 
spin component  1
 
  0.2835  0.0000  0.0000  0.0000  0.0000
  0.0000  0.2835  0.0000  0.0000  0.0000
  0.0000  0.0000  0.2835  0.0000  0.0000
  0.0000  0.0000  0.0000  0.2835  0.0000
  0.0000  0.0000  0.0000  0.0000  0.2835
 
spin component  2
 
  0.7694  0.0000  0.0000  0.0000  0.0000
  0.0000  0.7694  0.0000  0.0000  0.0000
  0.0000  0.0000  0.7694  0.0000  0.0000
  0.0000  0.0000  0.0000  0.7694  0.0000
  0.0000  0.0000  0.0000  0.0000  0.7694
 
 occupancies and eigenvectors
 
  o =  0.2835  v =  1.0000  0.0000  0.0000  0.0000  0.0000  0.0000  0.0000  0.0000  0.0000  0.0000      0.0000  0.0000  0.0000  0.0000  0.0000  0.0000  0.0000  0.0000  0.0000  0.0000
  o =  0.2835  v =  0.0000  1.0000  0.0000  0.0000  0.0000  0.0000  0.0000  0.0000  0.0000  0.0000      0.0000  0.0000  0.0000  0.0000  0.0000  0.0000  0.0000  0.0000  0.0000  0.0000
  o =  0.2835  v =  0.0000  0.0000  1.0000  0.0000  0.0000  0.0000  0.0000  0.0000  0.0000  0.0000      0.0000  0.0000  0.0000  0.0000  0.0000  0.0000  0.0000  0.0000  0.0000  0.0000
  o =  0.2835  v =  0.0000  0.0000  0.0000  1.0000  0.0000  0.0000  0.0000  0.0000  0.0000  0.0000      0.0000  0.0000  0.0000  0.0000  0.0000  0.0000  0.0000  0.0000  0.0000  0.0000
  o =  0.2835  v =  0.0000  0.0000  0.0000  0.0000  1.0000  0.0000  0.0000  0.0000  0.0000  0.0000      0.0000  0.0000  0.0000  0.0000  0.0000  0.0000  0.0000  0.0000  0.0000  0.0000
  o =  0.7694  v =  0.0000  0.0000  0.0000  0.0000  0.0000  1.0000  0.0000  0.0000  0.0000  0.0000      0.0000  0.0000  0.0000  0.0000  0.0000  0.0000  0.0000  0.0000  0.0000  0.0000
  o =  0.7694  v =  0.0000  0.0000  0.0000  0.0000  0.0000  0.0000  1.0000  0.0000  0.0000  0.0000      0.0000  0.0000  0.0000  0.0000  0.0000  0.0000  0.0000  0.0000  0.0000  0.0000
  o =  0.7694  v =  0.0000  0.0000  0.0000  0.0000  0.0000  0.0000  0.0000  1.0000  0.0000  0.0000      0.0000  0.0000  0.0000  0.0000  0.0000  0.0000  0.0000  0.0000  0.0000  0.0000
  o =  0.7694  v =  0.0000  0.0000  0.0000  0.0000  0.0000  0.0000  0.0000  0.0000  1.0000  0.0000      0.0000  0.0000  0.0000  0.0000  0.0000  0.0000  0.0000  0.0000  0.0000  0.0000
  o =  0.7694  v =  0.0000  0.0000  0.0000  0.0000  0.0000  0.0000  0.0000  0.0000  0.0000  1.0000      0.0000  0.0000  0.0000  0.0000  0.0000  0.0000  0.0000  0.0000  0.0000  0.0000
atom =   2  type =  1  l = 2
 
 onsite density matrix
 
spin component  1
 
  0.7694  0.0000  0.0000  0.0000  0.0000
  0.0000  0.7694  0.0000  0.0000  0.0000
  0.0000  0.0000  0.7694  0.0000  0.0000
  0.0000  0.0000  0.0000  0.7694  0.0000
  0.0000  0.0000  0.0000  0.0000  0.7694
 
spin component  2
 
  0.2835  0.0000  0.0000  0.0000  0.0000
  0.0000  0.2835  0.0000  0.0000  0.0000
  0.0000  0.0000  0.2835  0.0000  0.0000
  0.0000  0.0000  0.0000  0.2835  0.0000
  0.0000  0.0000  0.0000  0.0000  0.2835
 
 occupancies and eigenvectors
 
  o =  0.2835  v =  0.0000  0.0000  0.0000  0.0000  0.0000  1.0000  0.0000  0.0000  0.0000  0.0000      0.0000  0.0000  0.0000  0.0000  0.0000  0.0000  0.0000  0.0000  0.0000  0.0000
  o =  0.2835  v =  0.0000  0.0000  0.0000  0.0000  0.0000  0.0000  1.0000  0.0000  0.0000  0.0000      0.0000  0.0000  0.0000  0.0000  0.0000  0.0000  0.0000  0.0000  0.0000  0.0000
  o =  0.2835  v =  0.0000  0.0000  0.0000  0.0000  0.0000  0.0000  0.0000  1.0000  0.0000  0.0000      0.0000  0.0000  0.0000  0.0000  0.0000  0.0000  0.0000  0.0000  0.0000  0.0000
  o =  0.2835  v =  0.0000  0.0000  0.0000  0.0000  0.0000  0.0000  0.0000  0.0000  1.0000  0.0000      0.0000  0.0000  0.0000  0.0000  0.0000  0.0000  0.0000  0.0000  0.0000  0.0000
  o =  0.2835  v =  0.0000  0.0000  0.0000  0.0000  0.0000  0.0000  0.0000  0.0000  0.0000  1.0000      0.0000  0.0000  0.0000  0.0000  0.0000  0.0000  0.0000  0.0000  0.0000  0.0000
  o =  0.7694  v =  1.0000  0.0000  0.0000  0.0000  0.0000  0.0000  0.0000  0.0000  0.0000  0.0000      0.0000  0.0000  0.0000  0.0000  0.0000  0.0000  0.0000  0.0000  0.0000  0.0000
  o =  0.7694  v =  0.0000  1.0000  0.0000  0.0000  0.0000  0.0000  0.0000  0.0000  0.0000  0.0000      0.0000  0.0000  0.0000  0.0000  0.0000  0.0000  0.0000  0.0000  0.0000  0.0000
  o =  0.7694  v =  0.0000  0.0000  1.0000  0.0000  0.0000  0.0000  0.0000  0.0000  0.0000  0.0000      0.0000  0.0000  0.0000  0.0000  0.0000  0.0000  0.0000  0.0000  0.0000  0.0000
  o =  0.7694  v =  0.0000  0.0000  0.0000  1.0000  0.0000  0.0000  0.0000  0.0000  0.0000  0.0000      0.0000  0.0000  0.0000  0.0000  0.0000  0.0000  0.0000  0.0000  0.0000  0.0000
  o =  0.7694  v =  0.0000  0.0000  0.0000  0.0000  1.0000  0.0000  0.0000  0.0000  0.0000  0.0000      0.0000  0.0000  0.0000  0.0000  0.0000  0.0000  0.0000  0.0000  0.0000  0.0000
     EDDAV:  cpu time    0.0767: real time    0.0974
       DOS:  cpu time    0.0002: real time    0.0002
    --------------------------------------------
      LOOP:  cpu time    0.8928: real time    0.9136

 eigenvalue-minimisations  :   144
 total energy-change (2. order) : 0.9610757E+03  (-0.3732949E+04)
 number of electron      54.0000000 magnetization       0.0000000
 augmentation part       54.0000000 magnetization       0.0000000

 Free energy of the ion-electron system (eV)
  ---------------------------------------------------
  alpha Z        PSCENC =       199.38838823
  Ewald energy   TEWEN  =     -4203.06823030
  -Hartree energ DENC   =     -2130.62061717
  -exchange      EXHF   =         0.00000000
  -V(xc)+E(xc)   XCENC  =        -3.96110837
  PAW double counting   =      5566.43601843    -5528.13058630
  entropy T*S    EENTRO =        -0.00000239
  eigenvalues    EBANDS =       372.02110300
  atomic energy  EATOM  =      6689.01075358
  Solvation  Ediel_sol  =         0.00000000
  ---------------------------------------------------
  free energy    TOTEN  =       961.07571872 eV

  energy without entropy =      961.07572111  energy(sigma->0) =      961.07571991


--------------------------------------------------------------------------------------------------------




--------------------------------------- Iteration      1(   2)  ---------------------------------------


     EDDAV:  cpu time    0.0791: real time    0.0791
       DOS:  cpu time    0.0002: real time    0.0002
    --------------------------------------------
      LOOP:  cpu time    0.0793: real time    0.0793

 eigenvalue-minimisations  :   156
 total energy-change (2. order) :-0.5528237E+03  (-0.5319462E+03)
 number of electron      54.0000000 magnetization       0.0000000
 augmentation part       54.0000000 magnetization       0.0000000

 Free energy of the ion-electron system (eV)
  ---------------------------------------------------
  alpha Z        PSCENC =       199.38838823
  Ewald energy   TEWEN  =     -4203.06823030
  -Hartree energ DENC   =     -2130.62061717
  -exchange      EXHF   =         0.00000000
  -V(xc)+E(xc)   XCENC  =        -3.96110837
  PAW double counting   =      5566.43601843    -5528.13058630
  entropy T*S    EENTRO =        -0.00871292
  eigenvalues    EBANDS =      -180.79392719
  atomic energy  EATOM  =      6689.01075358
  Solvation  Ediel_sol  =         0.00000000
  ---------------------------------------------------
  free energy    TOTEN  =       408.25197800 eV

  energy without entropy =      408.26069092  energy(sigma->0) =      408.25633446


--------------------------------------------------------------------------------------------------------




--------------------------------------- Iteration      1(   3)  ---------------------------------------


     EDDAV:  cpu time    0.0827: real time    0.0827
       DOS:  cpu time    0.0001: real time    0.0001
    --------------------------------------------
      LOOP:  cpu time    0.0828: real time    0.0828

 eigenvalue-minimisations  :   168
 total energy-change (2. order) :-0.3860876E+02  (-0.3758624E+02)
 number of electron      54.0000000 magnetization       0.0000000
 augmentation part       54.0000000 magnetization       0.0000000

 Free energy of the ion-electron system (eV)
  ---------------------------------------------------
  alpha Z        PSCENC =       199.38838823
  Ewald energy   TEWEN  =     -4203.06823030
  -Hartree energ DENC   =     -2130.62061717
  -exchange      EXHF   =         0.00000000
  -V(xc)+E(xc)   XCENC  =        -3.96110837
  PAW double counting   =      5566.43601843    -5528.13058630
  entropy T*S    EENTRO =        -0.00000000
  eigenvalues    EBANDS =      -219.41140326
  atomic energy  EATOM  =      6689.01075358
  Solvation  Ediel_sol  =         0.00000000
  ---------------------------------------------------
  free energy    TOTEN  =       369.64321485 eV

  energy without entropy =      369.64321485  energy(sigma->0) =      369.64321485


--------------------------------------------------------------------------------------------------------




--------------------------------------- Iteration      1(   4)  ---------------------------------------


     EDDAV:  cpu time    0.0829: real time    0.0829
       DOS:  cpu time    0.0001: real time    0.0001
    --------------------------------------------
      LOOP:  cpu time    0.0830: real time    0.0830

 eigenvalue-minimisations  :   168
 total energy-change (2. order) :-0.5481882E+00  (-0.5477516E+00)
 number of electron      54.0000000 magnetization       0.0000000
 augmentation part       54.0000000 magnetization       0.0000000

 Free energy of the ion-electron system (eV)
  ---------------------------------------------------
  alpha Z        PSCENC =       199.38838823
  Ewald energy   TEWEN  =     -4203.06823030
  -Hartree energ DENC   =     -2130.62061717
  -exchange      EXHF   =         0.00000000
  -V(xc)+E(xc)   XCENC  =        -3.96110837
  PAW double counting   =      5566.43601843    -5528.13058630
  entropy T*S    EENTRO =        -0.00000000
  eigenvalues    EBANDS =      -219.95959149
  atomic energy  EATOM  =      6689.01075358
  Solvation  Ediel_sol  =         0.00000000
  ---------------------------------------------------
  free energy    TOTEN  =       369.09502662 eV

  energy without entropy =      369.09502662  energy(sigma->0) =      369.09502662


--------------------------------------------------------------------------------------------------------




--------------------------------------- Iteration      1(   5)  ---------------------------------------


     EDDAV:  cpu time    0.0827: real time    0.0827
       DOS:  cpu time    0.0001: real time    0.0001
    CHARGE:  cpu time    0.0599: real time    0.0599
    MIXING:  cpu time    0.0005: real time    0.0005
    --------------------------------------------
      LOOP:  cpu time    0.1432: real time    0.1432

 eigenvalue-minimisations  :   168
 total energy-change (2. order) :-0.7674523E-02  (-0.7674472E-02)
 number of electron      54.0000009 magnetization      -0.0000000
 augmentation part       22.6467962 magnetization      -0.0000000

 Broyden mixing:
  rms(total) = 0.58517E+01    rms(broyden)= 0.58513E+01
  rms(prec ) = 0.60876E+01
  weight for this iteration     100.00

 Free energy of the ion-electron system (eV)
  ---------------------------------------------------
  alpha Z        PSCENC =       199.38838823
  Ewald energy   TEWEN  =     -4203.06823030
  -Hartree energ DENC   =     -2130.62061717
  -exchange      EXHF   =         0.00000000
  -V(xc)+E(xc)   XCENC  =        -3.96110837
  PAW double counting   =      5566.43601843    -5528.13058630
  entropy T*S    EENTRO =        -0.00000000
  eigenvalues    EBANDS =      -219.96726601
  atomic energy  EATOM  =      6689.01075358
  Solvation  Ediel_sol  =         0.00000000
  ---------------------------------------------------
  free energy    TOTEN  =       369.08735210 eV

  energy without entropy =      369.08735210  energy(sigma->0) =      369.08735210


--------------------------------------------------------------------------------------------------------




--------------------------------------- Iteration      1(   6)  ---------------------------------------


    POTLOK:  cpu time    0.0325: real time    0.0325
    SETDIJ:  cpu time    0.7940: real time    0.7940
atom =   1  type =  1  l = 2
 
 onsite density matrix
 
spin component  1
 
  0.0226  0.0000  0.0627  0.0000  0.0000
  0.0000  0.0103  0.0000  0.0535  0.0000
  0.0627  0.0000  0.0185  0.0000 -0.0000
  0.0000  0.0535  0.0000  0.0103  0.0000
  0.0000  0.0000 -0.0000  0.0000 -0.0744
 
spin component  2
 
  1.0636  0.0000 -0.0305  0.0000 -0.0000
  0.0000  1.0688  0.0000 -0.0253  0.0000
 -0.0305  0.0000  1.0600  0.0000  0.0000
  0.0000 -0.0253  0.0000  1.0688  0.0000
 -0.0000  0.0000  0.0000  0.0000  1.1115
 
 occupancies and eigenvectors
 
  o = -0.0744  v =  0.0000  0.0000 -0.0000  0.0000 -1.0000  0.0000  0.0000  0.0000  0.0000  0.0000      0.0000  0.0000  0.0000  0.0000  0.0000  0.0000  0.0000  0.0000  0.0000  0.0000
  o = -0.0432  v =  0.0000  0.7071  0.0000 -0.7071  0.0000  0.0000  0.0000  0.0000  0.0000  0.0000      0.0000  0.0000  0.0000  0.0000  0.0000  0.0000  0.0000  0.0000  0.0000  0.0000
  o = -0.0422  v = -0.6954  0.0000  0.7186  0.0000 -0.0000  0.0000  0.0000  0.0000  0.0000  0.0000      0.0000  0.0000  0.0000  0.0000  0.0000  0.0000  0.0000  0.0000  0.0000  0.0000
  o =  0.0639  v =  0.0000  0.7071  0.0000  0.7071  0.0000  0.0000  0.0000  0.0000  0.0000  0.0000      0.0000  0.0000  0.0000  0.0000  0.0000  0.0000  0.0000  0.0000  0.0000  0.0000
  o =  0.0833  v =  0.7186  0.0000  0.6954  0.0000 -0.0000  0.0000  0.0000  0.0000  0.0000  0.0000      0.0000  0.0000  0.0000  0.0000  0.0000  0.0000  0.0000  0.0000  0.0000  0.0000
  o =  1.0313  v =  0.0000  0.0000  0.0000  0.0000  0.0000 -0.6859  0.0000 -0.7277  0.0000  0.0000      0.0000  0.0000  0.0000  0.0000  0.0000  0.0000  0.0000  0.0000  0.0000  0.0000
  o =  1.0435  v =  0.0000  0.0000  0.0000  0.0000  0.0000  0.0000 -0.7071  0.0000 -0.7071  0.0000      0.0000  0.0000  0.0000  0.0000  0.0000  0.0000  0.0000  0.0000  0.0000  0.0000
  o =  1.0924  v =  0.0000  0.0000  0.0000  0.0000  0.0000  0.7277  0.0000 -0.6859  0.0000  0.0000      0.0000  0.0000  0.0000  0.0000  0.0000  0.0000  0.0000  0.0000  0.0000  0.0000
  o =  1.0941  v =  0.0000  0.0000  0.0000  0.0000  0.0000  0.0000 -0.7071  0.0000  0.7071  0.0000      0.0000  0.0000  0.0000  0.0000  0.0000  0.0000  0.0000  0.0000  0.0000  0.0000
  o =  1.1115  v =  0.0000  0.0000  0.0000  0.0000  0.0000  0.0000 -0.0000 -0.0000  0.0000 -1.0000      0.0000  0.0000  0.0000  0.0000  0.0000  0.0000  0.0000  0.0000  0.0000  0.0000
atom =   2  type =  1  l = 2
 
 onsite density matrix
 
spin component  1
 
  1.0636  0.0000  0.0305  0.0000 -0.0000
  0.0000  1.0688  0.0000  0.0253  0.0000
  0.0305  0.0000  1.0600  0.0000 -0.0000
  0.0000  0.0253  0.0000  1.0688  0.0000
 -0.0000  0.0000 -0.0000  0.0000  1.1115
 
spin component  2
 
  0.0226  0.0000 -0.0627  0.0000  0.0000
  0.0000  0.0103  0.0000 -0.0535  0.0000
 -0.0627  0.0000  0.0185  0.0000  0.0000
  0.0000 -0.0535  0.0000  0.0103  0.0000
  0.0000  0.0000  0.0000  0.0000 -0.0744
 
 occupancies and eigenvectors
 
  o = -0.0744  v =  0.0000  0.0000  0.0000  0.0000  0.0000  0.0000  0.0000  0.0000  0.0000 -1.0000      0.0000  0.0000  0.0000  0.0000  0.0000  0.0000  0.0000  0.0000  0.0000  0.0000
  o = -0.0432  v =  0.0000  0.0000  0.0000  0.0000  0.0000  0.0000  0.7071  0.0000  0.7071  0.0000      0.0000  0.0000  0.0000  0.0000  0.0000  0.0000  0.0000  0.0000  0.0000  0.0000
  o = -0.0422  v =  0.0000  0.0000  0.0000  0.0000  0.0000 -0.6954  0.0000 -0.7186  0.0000 -0.0000      0.0000  0.0000  0.0000  0.0000  0.0000  0.0000  0.0000  0.0000  0.0000  0.0000
  o =  0.0639  v =  0.0000  0.0000  0.0000  0.0000  0.0000  0.0000  0.7071  0.0000 -0.7071  0.0000      0.0000  0.0000  0.0000  0.0000  0.0000  0.0000  0.0000  0.0000  0.0000  0.0000
  o =  0.0833  v =  0.0000  0.0000  0.0000  0.0000  0.0000  0.7186  0.0000 -0.6954  0.0000 -0.0000      0.0000  0.0000  0.0000  0.0000  0.0000  0.0000  0.0000  0.0000  0.0000  0.0000
  o =  1.0313  v =  0.6859 -0.0000 -0.7277  0.0000 -0.0000  0.0000  0.0000  0.0000  0.0000  0.0000      0.0000  0.0000  0.0000  0.0000  0.0000  0.0000  0.0000  0.0000  0.0000  0.0000
  o =  1.0435  v =  0.0000  0.7071 -0.0000 -0.7071  0.0000  0.0000  0.0000  0.0000  0.0000  0.0000      0.0000  0.0000  0.0000  0.0000  0.0000  0.0000  0.0000  0.0000  0.0000  0.0000
  o =  1.0924  v =  0.7277  0.0000  0.6859  0.0000  0.0000  0.0000  0.0000  0.0000  0.0000  0.0000      0.0000  0.0000  0.0000  0.0000  0.0000  0.0000  0.0000  0.0000  0.0000  0.0000
  o =  1.0941  v = -0.0000  0.7071 -0.0000  0.7071  0.0000  0.0000  0.0000  0.0000  0.0000  0.0000      0.0000  0.0000  0.0000  0.0000  0.0000  0.0000  0.0000  0.0000  0.0000  0.0000
  o =  1.1115  v =  0.0000  0.0000  0.0000  0.0000 -1.0000  0.0000  0.0000  0.0000  0.0000  0.0000      0.0000  0.0000  0.0000  0.0000  0.0000  0.0000  0.0000  0.0000  0.0000  0.0000
     EDDAV:  cpu time    0.0826: real time    0.0826
       DOS:  cpu time    0.0001: real time    0.0001
    CHARGE:  cpu time    0.0602: real time    0.0602
    MIXING:  cpu time    0.0005: real time    0.0005
    --------------------------------------------
      LOOP:  cpu time    0.9699: real time    0.9699

 eigenvalue-minimisations  :   168
 total energy-change (2. order) :-0.4377817E+03  (-0.2802237E+02)
 number of electron      54.0000008 magnetization      -0.0000000
 augmentation part       19.7281968 magnetization      -0.0000000

 Broyden mixing:
  rms(total) = 0.62140E+01    rms(broyden)= 0.62139E+01
  rms(prec ) = 0.66869E+01
  weight for this iteration     100.00

 eigenvalues of (default mixing * dielectric matrix)
  average eigenvalue GAMMA=   0.4178
  0.4178

 Free energy of the ion-electron system (eV)
  ---------------------------------------------------
  alpha Z        PSCENC =       199.38838823
  Ewald energy   TEWEN  =     -4203.06823030
  -Hartree energ DENC   =     -2199.05898491
  -exchange      EXHF   =         0.00000000
  -V(xc)+E(xc)   XCENC  =       144.25779568
  PAW double counting   =      6424.80313901    -6391.33309975
  entropy T*S    EENTRO =        -0.00000000
  eigenvalues    EBANDS =      -732.69415261
  atomic energy  EATOM  =      6689.01075358
  Solvation  Ediel_sol  =         0.00000000
  ---------------------------------------------------
  free energy    TOTEN  =       -68.69439106 eV

  energy without entropy =      -68.69439106  energy(sigma->0) =      -68.69439106


--------------------------------------------------------------------------------------------------------




--------------------------------------- Iteration      1(   7)  ---------------------------------------


    POTLOK:  cpu time    0.0324: real time    0.0324
    SETDIJ:  cpu time    0.7802: real time    0.7802
atom =   1  type =  1  l = 2
 
 onsite density matrix
 
spin component  1
 
  0.0557  0.0000  0.0275  0.0000  0.0000
  0.0000  0.0562  0.0000  0.0157  0.0000
  0.0275  0.0000  0.0839  0.0000  0.0000
  0.0000  0.0157  0.0000  0.0562  0.0000
  0.0000  0.0000  0.0000  0.0000  0.0235
 
spin component  2
 
  1.0136  0.0000  0.0073  0.0000 -0.0000
  0.0000  1.0039  0.0000  0.0171  0.0000
  0.0073  0.0000  0.9578  0.0000  0.0000
  0.0000  0.0171  0.0000  1.0039  0.0000
 -0.0000  0.0000  0.0000  0.0000  0.9902
 
 occupancies and eigenvectors
 
  o =  0.0235  v = -0.0000  0.0000  0.0000 -0.0000 -1.0000  0.0000  0.0000  0.0000  0.0000  0.0000      0.0000  0.0000  0.0000  0.0000  0.0000  0.0000  0.0000  0.0000  0.0000  0.0000
  o =  0.0389  v = -0.8534  0.0000  0.5213 -0.0000  0.0000  0.0000  0.0000  0.0000  0.0000  0.0000      0.0000  0.0000  0.0000  0.0000  0.0000  0.0000  0.0000  0.0000  0.0000  0.0000
  o =  0.0405  v =  0.0000  0.7071 -0.0000 -0.7071  0.0000  0.0000  0.0000  0.0000  0.0000  0.0000      0.0000  0.0000  0.0000  0.0000  0.0000  0.0000  0.0000  0.0000  0.0000  0.0000
  o =  0.0718  v =  0.0000  0.7071  0.0000  0.7071  0.0000  0.0000  0.0000  0.0000  0.0000  0.0000      0.0000  0.0000  0.0000  0.0000  0.0000  0.0000  0.0000  0.0000  0.0000  0.0000
  o =  0.1007  v = -0.5213  0.0000 -0.8534  0.0000 -0.0000  0.0000  0.0000  0.0000  0.0000  0.0000      0.0000  0.0000  0.0000  0.0000  0.0000  0.0000  0.0000  0.0000  0.0000  0.0000
  o =  0.9569  v =  0.0000  0.0000  0.0000  0.0000  0.0000 -0.1278  0.0000  0.9918  0.0000 -0.0000      0.0000  0.0000  0.0000  0.0000  0.0000  0.0000  0.0000  0.0000  0.0000  0.0000
  o =  0.9867  v =  0.0000  0.0000  0.0000  0.0000  0.0000  0.0000  0.7071  0.0000 -0.7071 -0.0000      0.0000  0.0000  0.0000  0.0000  0.0000  0.0000  0.0000  0.0000  0.0000  0.0000
  o =  0.9902  v =  0.0000  0.0000  0.0000  0.0000  0.0000  0.0000  0.0000  0.0000  0.0000  1.0000      0.0000  0.0000  0.0000  0.0000  0.0000  0.0000  0.0000  0.0000  0.0000  0.0000
  o =  1.0145  v =  0.0000  0.0000  0.0000  0.0000  0.0000 -0.9918  0.0000 -0.1278  0.0000  0.0000      0.0000  0.0000  0.0000  0.0000  0.0000  0.0000  0.0000  0.0000  0.0000  0.0000
  o =  1.0210  v =  0.0000  0.0000  0.0000  0.0000  0.0000  0.0000 -0.7071  0.0000 -0.7071  0.0000      0.0000  0.0000  0.0000  0.0000  0.0000  0.0000  0.0000  0.0000  0.0000  0.0000
atom =   2  type =  1  l = 2
 
 onsite density matrix
 
spin component  1
 
  1.0136  0.0000 -0.0073  0.0000 -0.0000
  0.0000  1.0039  0.0000 -0.0171  0.0000
 -0.0073  0.0000  0.9578  0.0000 -0.0000
  0.0000 -0.0171  0.0000  1.0039  0.0000
 -0.0000  0.0000 -0.0000  0.0000  0.9902
 
spin component  2
 
  0.0557  0.0000 -0.0275  0.0000  0.0000
  0.0000  0.0562  0.0000 -0.0157  0.0000
 -0.0275  0.0000  0.0839  0.0000  0.0000
  0.0000 -0.0157  0.0000  0.0562  0.0000
  0.0000  0.0000  0.0000  0.0000  0.0235
 
 occupancies and eigenvectors
 
  o =  0.0235  v =  0.0000  0.0000  0.0000  0.0000  0.0000  0.0000  0.0000  0.0000  0.0000 -1.0000      0.0000  0.0000  0.0000  0.0000  0.0000  0.0000  0.0000  0.0000  0.0000  0.0000
  o =  0.0389  v =  0.0000  0.0000  0.0000  0.0000  0.0000 -0.8534  0.0000 -0.5213  0.0000 -0.0000      0.0000  0.0000  0.0000  0.0000  0.0000  0.0000  0.0000  0.0000  0.0000  0.0000
  o =  0.0405  v =  0.0000  0.0000  0.0000  0.0000  0.0000  0.0000  0.7071  0.0000  0.7071  0.0000      0.0000  0.0000  0.0000  0.0000  0.0000  0.0000  0.0000  0.0000  0.0000  0.0000
  o =  0.0718  v =  0.0000  0.0000  0.0000  0.0000  0.0000  0.0000  0.7071  0.0000 -0.7071  0.0000      0.0000  0.0000  0.0000  0.0000  0.0000  0.0000  0.0000  0.0000  0.0000  0.0000
  o =  0.1007  v =  0.0000  0.0000  0.0000  0.0000  0.0000 -0.5213 -0.0000  0.8534  0.0000  0.0000      0.0000  0.0000  0.0000  0.0000  0.0000  0.0000  0.0000  0.0000  0.0000  0.0000
  o =  0.9569  v = -0.1278  0.0000 -0.9918  0.0000 -0.0000  0.0000  0.0000  0.0000  0.0000  0.0000      0.0000  0.0000  0.0000  0.0000  0.0000  0.0000  0.0000  0.0000  0.0000  0.0000
  o =  0.9867  v = -0.0000 -0.7071 -0.0000 -0.7071 -0.0000  0.0000  0.0000  0.0000  0.0000  0.0000      0.0000  0.0000  0.0000  0.0000  0.0000  0.0000  0.0000  0.0000  0.0000  0.0000
  o =  0.9902  v = -0.0000 -0.0000 -0.0000 -0.0000  1.0000  0.0000  0.0000  0.0000  0.0000  0.0000      0.0000  0.0000  0.0000  0.0000  0.0000  0.0000  0.0000  0.0000  0.0000  0.0000
  o =  1.0145  v = -0.9918 -0.0000  0.1278  0.0000 -0.0000  0.0000  0.0000  0.0000  0.0000  0.0000      0.0000  0.0000  0.0000  0.0000  0.0000  0.0000  0.0000  0.0000  0.0000  0.0000
  o =  1.0210  v =  0.0000 -0.7071 -0.0000  0.7071 -0.0000  0.0000  0.0000  0.0000  0.0000  0.0000      0.0000  0.0000  0.0000  0.0000  0.0000  0.0000  0.0000  0.0000  0.0000  0.0000
     EDDAV:  cpu time    0.0839: real time    0.0839
       DOS:  cpu time    0.0001: real time    0.0001
    CHARGE:  cpu time    0.0591: real time    0.0591
    MIXING:  cpu time    0.0006: real time    0.0006
    --------------------------------------------
      LOOP:  cpu time    0.9564: real time    0.9564

 eigenvalue-minimisations  :   168
 total energy-change (2. order) :-0.3004970E+01  (-0.5101034E+01)
 number of electron      54.0000008 magnetization      -0.0000000
 augmentation part       19.6715190 magnetization      -0.0000000

 Broyden mixing:
  rms(total) = 0.17417E+01    rms(broyden)= 0.17414E+01
  rms(prec ) = 0.25710E+01
  weight for this iteration     100.00

 eigenvalues of (default mixing * dielectric matrix)
  average eigenvalue GAMMA=   0.6943
  0.6943  0.6943

 Free energy of the ion-electron system (eV)
  ---------------------------------------------------
  alpha Z        PSCENC =       199.38838823
  Ewald energy   TEWEN  =     -4203.06823030
  -Hartree energ DENC   =     -2180.23884938
  -exchange      EXHF   =         0.00000000
  -V(xc)+E(xc)   XCENC  =       167.41855497
  PAW double counting   =      6476.57502663    -6443.25402876
  entropy T*S    EENTRO =        -0.00000000
  eigenvalues    EBANDS =      -777.53097571
  atomic energy  EATOM  =      6689.01075358
  Solvation  Ediel_sol  =         0.00000000
  ---------------------------------------------------
  free energy    TOTEN  =       -71.69936074 eV

  energy without entropy =      -71.69936074  energy(sigma->0) =      -71.69936074


--------------------------------------------------------------------------------------------------------




--------------------------------------- Iteration      1(   8)  ---------------------------------------


    POTLOK:  cpu time    0.0322: real time    0.0322
    SETDIJ:  cpu time    0.7794: real time    0.7794
atom =   1  type =  1  l = 2
 
 onsite density matrix
 
spin component  1
 
  0.0578  0.0000  0.0219  0.0000 -0.0000
  0.0000  0.0534  0.0000  0.0237  0.0000
  0.0219  0.0000  0.0511  0.0000  0.0000
  0.0000  0.0237  0.0000  0.0534  0.0000
 -0.0000  0.0000  0.0000  0.0000  0.0204
 
spin component  2
 
  0.9874  0.0000  0.0174  0.0000  0.0000
  0.0000  0.9804  0.0000  0.0087  0.0000
  0.0174  0.0000  0.9637  0.0000  0.0000
  0.0000  0.0087  0.0000  0.9804  0.0000
  0.0000  0.0000  0.0000  0.0000  0.9701
 
 occupancies and eigenvectors
 
  o =  0.0204  v =  0.0000  0.0000 -0.0000  0.0000  1.0000  0.0000  0.0000  0.0000  0.0000  0.0000      0.0000  0.0000  0.0000  0.0000  0.0000  0.0000  0.0000  0.0000  0.0000  0.0000
  o =  0.0298  v =  0.0000  0.7071  0.0000 -0.7071 -0.0000  0.0000  0.0000  0.0000  0.0000  0.0000      0.0000  0.0000  0.0000  0.0000  0.0000  0.0000  0.0000  0.0000  0.0000  0.0000
  o =  0.0323  v = -0.6515  0.0000  0.7586  0.0000  0.0000  0.0000  0.0000  0.0000  0.0000  0.0000      0.0000  0.0000  0.0000  0.0000  0.0000  0.0000  0.0000  0.0000  0.0000  0.0000
  o =  0.0767  v = -0.7586 -0.0000 -0.6515  0.0000 -0.0000  0.0000  0.0000  0.0000  0.0000  0.0000      0.0000  0.0000  0.0000  0.0000  0.0000  0.0000  0.0000  0.0000  0.0000  0.0000
  o =  0.0771  v =  0.0000 -0.7071  0.0000 -0.7071  0.0000  0.0000  0.0000  0.0000  0.0000  0.0000      0.0000  0.0000  0.0000  0.0000  0.0000  0.0000  0.0000  0.0000  0.0000  0.0000
  o =  0.9544  v =  0.0000  0.0000  0.0000  0.0000  0.0000 -0.4678  0.0000  0.8838  0.0000  0.0000      0.0000  0.0000  0.0000  0.0000  0.0000  0.0000  0.0000  0.0000  0.0000  0.0000
  o =  0.9701  v =  0.0000  0.0000  0.0000  0.0000  0.0000  0.0000 -0.0000 -0.0000  0.0000  1.0000      0.0000  0.0000  0.0000  0.0000  0.0000  0.0000  0.0000  0.0000  0.0000  0.0000
  o =  0.9716  v =  0.0000  0.0000  0.0000  0.0000  0.0000  0.0000  0.7071  0.0000 -0.7071  0.0000      0.0000  0.0000  0.0000  0.0000  0.0000  0.0000  0.0000  0.0000  0.0000  0.0000
  o =  0.9891  v =  0.0000  0.0000  0.0000  0.0000  0.0000  0.0000 -0.7071  0.0000 -0.7071 -0.0000      0.0000  0.0000  0.0000  0.0000  0.0000  0.0000  0.0000  0.0000  0.0000  0.0000
  o =  0.9966  v =  0.0000  0.0000  0.0000  0.0000  0.0000 -0.8838  0.0000 -0.4678  0.0000 -0.0000      0.0000  0.0000  0.0000  0.0000  0.0000  0.0000  0.0000  0.0000  0.0000  0.0000
atom =   2  type =  1  l = 2
 
 onsite density matrix
 
spin component  1
 
  0.9874  0.0000 -0.0174  0.0000  0.0000
  0.0000  0.9804  0.0000 -0.0087  0.0000
 -0.0174  0.0000  0.9637  0.0000 -0.0000
  0.0000 -0.0087  0.0000  0.9804  0.0000
  0.0000  0.0000 -0.0000  0.0000  0.9701
 
spin component  2
 
  0.0578  0.0000 -0.0219  0.0000 -0.0000
  0.0000  0.0534  0.0000 -0.0237  0.0000
 -0.0219  0.0000  0.0511  0.0000 -0.0000
  0.0000 -0.0237  0.0000  0.0534  0.0000
 -0.0000  0.0000 -0.0000  0.0000  0.0204
 
 occupancies and eigenvectors
 
  o =  0.0204  v =  0.0000  0.0000  0.0000  0.0000  0.0000  0.0000  0.0000  0.0000  0.0000  1.0000      0.0000  0.0000  0.0000  0.0000  0.0000  0.0000  0.0000  0.0000  0.0000  0.0000
  o =  0.0298  v =  0.0000  0.0000  0.0000  0.0000  0.0000  0.0000 -0.7071  0.0000 -0.7071 -0.0000      0.0000  0.0000  0.0000  0.0000  0.0000  0.0000  0.0000  0.0000  0.0000  0.0000
  o =  0.0323  v =  0.0000  0.0000  0.0000  0.0000  0.0000 -0.6515  0.0000 -0.7586  0.0000  0.0000      0.0000  0.0000  0.0000  0.0000  0.0000  0.0000  0.0000  0.0000  0.0000  0.0000
  o =  0.0767  v =  0.0000  0.0000  0.0000  0.0000  0.0000 -0.7586 -0.0000  0.6515  0.0000 -0.0000      0.0000  0.0000  0.0000  0.0000  0.0000  0.0000  0.0000  0.0000  0.0000  0.0000
  o =  0.0771  v =  0.0000  0.0000  0.0000  0.0000  0.0000  0.0000 -0.7071  0.0000  0.7071 -0.0000      0.0000  0.0000  0.0000  0.0000  0.0000  0.0000  0.0000  0.0000  0.0000  0.0000
  o =  0.9544  v = -0.4678  0.0000 -0.8838  0.0000  0.0000  0.0000  0.0000  0.0000  0.0000  0.0000      0.0000  0.0000  0.0000  0.0000  0.0000  0.0000  0.0000  0.0000  0.0000  0.0000
  o =  0.9701  v =  0.0000 -0.0000  0.0000 -0.0000  1.0000  0.0000  0.0000  0.0000  0.0000  0.0000      0.0000  0.0000  0.0000  0.0000  0.0000  0.0000  0.0000  0.0000  0.0000  0.0000
  o =  0.9716  v =  0.0000  0.7071  0.0000  0.7071  0.0000  0.0000  0.0000  0.0000  0.0000  0.0000      0.0000  0.0000  0.0000  0.0000  0.0000  0.0000  0.0000  0.0000  0.0000  0.0000
  o =  0.9891  v =  0.0000  0.7071  0.0000 -0.7071  0.0000  0.0000  0.0000  0.0000  0.0000  0.0000      0.0000  0.0000  0.0000  0.0000  0.0000  0.0000  0.0000  0.0000  0.0000  0.0000
  o =  0.9966  v = -0.8838  0.0000  0.4678  0.0000 -0.0000  0.0000  0.0000  0.0000  0.0000  0.0000      0.0000  0.0000  0.0000  0.0000  0.0000  0.0000  0.0000  0.0000  0.0000  0.0000
     EDDAV:  cpu time    0.0978: real time    0.0978
       DOS:  cpu time    0.0001: real time    0.0001
    CHARGE:  cpu time    0.0590: real time    0.0590
    MIXING:  cpu time    0.0006: real time    0.0006
    --------------------------------------------
      LOOP:  cpu time    0.9691: real time    0.9691

 eigenvalue-minimisations  :   216
 total energy-change (2. order) : 0.3016531E+01  (-0.6508823E+00)
 number of electron      54.0000008 magnetization      -0.0000000
 augmentation part       19.8324373 magnetization      -0.0000000

 Broyden mixing:
  rms(total) = 0.72494E+00    rms(broyden)= 0.72478E+00
  rms(prec ) = 0.10968E+01
  weight for this iteration     100.00

 eigenvalues of (default mixing * dielectric matrix)
  average eigenvalue GAMMA=   0.7639
  0.9308  0.6805  0.6805

 Free energy of the ion-electron system (eV)
  ---------------------------------------------------
  alpha Z        PSCENC =       199.38838823
  Ewald energy   TEWEN  =     -4203.06823030
  -Hartree energ DENC   =     -2170.71648248
  -exchange      EXHF   =         0.00000000
  -V(xc)+E(xc)   XCENC  =       170.55733167
  PAW double counting   =      6408.11730010    -6373.16143151
  entropy T*S    EENTRO =        -0.00000000
  eigenvalues    EBANDS =      -788.81045870
  atomic energy  EATOM  =      6689.01075358
  Solvation  Ediel_sol  =         0.00000000
  ---------------------------------------------------
  free energy    TOTEN  =       -68.68282940 eV

  energy without entropy =      -68.68282940  energy(sigma->0) =      -68.68282940


--------------------------------------------------------------------------------------------------------




--------------------------------------- Iteration      1(   9)  ---------------------------------------


    POTLOK:  cpu time    0.0323: real time    0.0323
    SETDIJ:  cpu time    0.7793: real time    0.7793
atom =   1  type =  1  l = 2
 
 onsite density matrix
 
spin component  1
 
  0.0495  0.0000  0.0343  0.0000  0.0000
  0.0000  0.0458  0.0000  0.0141  0.0000
  0.0343  0.0000  0.0509  0.0000 -0.0000
  0.0000  0.0141  0.0000  0.0458  0.0000
  0.0000  0.0000 -0.0000  0.0000  0.0426
 
spin component  2
 
  0.9693  0.0000  0.0093  0.0000 -0.0000
  0.0000  0.9596  0.0000  0.0190  0.0000
  0.0093  0.0000  0.9411  0.0000 -0.0000
  0.0000  0.0190  0.0000  0.9596  0.0000
 -0.0000  0.0000 -0.0000  0.0000  0.9147
 
 occupancies and eigenvectors
 
  o =  0.0159  v = -0.7141 -0.0000  0.7000  0.0000  0.0000  0.0000  0.0000  0.0000  0.0000  0.0000      0.0000  0.0000  0.0000  0.0000  0.0000  0.0000  0.0000  0.0000  0.0000  0.0000
  o =  0.0317  v =  0.0000 -0.7071  0.0000  0.7071 -0.0000  0.0000  0.0000  0.0000  0.0000  0.0000      0.0000  0.0000  0.0000  0.0000  0.0000  0.0000  0.0000  0.0000  0.0000  0.0000
  o =  0.0426  v = -0.0000  0.0000  0.0000  0.0000 -1.0000  0.0000  0.0000  0.0000  0.0000  0.0000      0.0000  0.0000  0.0000  0.0000  0.0000  0.0000  0.0000  0.0000  0.0000  0.0000
  o =  0.0598  v =  0.0000 -0.7071  0.0000 -0.7071 -0.0000  0.0000  0.0000  0.0000  0.0000  0.0000      0.0000  0.0000  0.0000  0.0000  0.0000  0.0000  0.0000  0.0000  0.0000  0.0000
  o =  0.0845  v = -0.7000 -0.0000 -0.7141  0.0000  0.0000  0.0000  0.0000  0.0000  0.0000  0.0000      0.0000  0.0000  0.0000  0.0000  0.0000  0.0000  0.0000  0.0000  0.0000  0.0000
  o =  0.9147  v =  0.0000  0.0000  0.0000  0.0000  0.0000 -0.0000 -0.0000  0.0000  0.0000  1.0000      0.0000  0.0000  0.0000  0.0000  0.0000  0.0000  0.0000  0.0000  0.0000  0.0000
  o =  0.9383  v =  0.0000  0.0000  0.0000  0.0000  0.0000 -0.2880  0.0000  0.9576 -0.0000 -0.0000      0.0000  0.0000  0.0000  0.0000  0.0000  0.0000  0.0000  0.0000  0.0000  0.0000
  o =  0.9406  v =  0.0000  0.0000  0.0000  0.0000  0.0000  0.0000  0.7071 -0.0000 -0.7071  0.0000      0.0000  0.0000  0.0000  0.0000  0.0000  0.0000  0.0000  0.0000  0.0000  0.0000
  o =  0.9721  v =  0.0000  0.0000  0.0000  0.0000  0.0000 -0.9576 -0.0000 -0.2880 -0.0000  0.0000      0.0000  0.0000  0.0000  0.0000  0.0000  0.0000  0.0000  0.0000  0.0000  0.0000
  o =  0.9786  v =  0.0000  0.0000  0.0000  0.0000  0.0000 -0.0000  0.7071 -0.0000  0.7071 -0.0000      0.0000  0.0000  0.0000  0.0000  0.0000  0.0000  0.0000  0.0000  0.0000  0.0000
atom =   2  type =  1  l = 2
 
 onsite density matrix
 
spin component  1
 
  0.9693  0.0000 -0.0093  0.0000 -0.0000
  0.0000  0.9596  0.0000 -0.0190  0.0000
 -0.0093  0.0000  0.9411  0.0000 -0.0000
  0.0000 -0.0190  0.0000  0.9596  0.0000
 -0.0000  0.0000 -0.0000  0.0000  0.9147
 
spin component  2
 
  0.0495  0.0000 -0.0343  0.0000  0.0000
  0.0000  0.0458  0.0000 -0.0141  0.0000
 -0.0343  0.0000  0.0509  0.0000  0.0000
  0.0000 -0.0141  0.0000  0.0458  0.0000
  0.0000  0.0000  0.0000  0.0000  0.0426
 
 occupancies and eigenvectors
 
  o =  0.0159  v =  0.0000  0.0000  0.0000  0.0000  0.0000 -0.7141 -0.0000 -0.7000  0.0000  0.0000      0.0000  0.0000  0.0000  0.0000  0.0000  0.0000  0.0000  0.0000  0.0000  0.0000
  o =  0.0317  v =  0.0000  0.0000  0.0000  0.0000  0.0000  0.0000  0.7071  0.0000  0.7071  0.0000      0.0000  0.0000  0.0000  0.0000  0.0000  0.0000  0.0000  0.0000  0.0000  0.0000
  o =  0.0426  v =  0.0000  0.0000  0.0000  0.0000  0.0000 -0.0000  0.0000 -0.0000  0.0000 -1.0000      0.0000  0.0000  0.0000  0.0000  0.0000  0.0000  0.0000  0.0000  0.0000  0.0000
  o =  0.0598  v =  0.0000  0.0000  0.0000  0.0000  0.0000  0.0000  0.7071  0.0000 -0.7071  0.0000      0.0000  0.0000  0.0000  0.0000  0.0000  0.0000  0.0000  0.0000  0.0000  0.0000
  o =  0.0845  v =  0.0000  0.0000  0.0000  0.0000  0.0000 -0.7000 -0.0000  0.7141  0.0000  0.0000      0.0000  0.0000  0.0000  0.0000  0.0000  0.0000  0.0000  0.0000  0.0000  0.0000
  o =  0.9147  v =  0.0000  0.0000 -0.0000  0.0000  1.0000  0.0000  0.0000  0.0000  0.0000  0.0000      0.0000  0.0000  0.0000  0.0000  0.0000  0.0000  0.0000  0.0000  0.0000  0.0000
  o =  0.9383  v = -0.2880  0.0000 -0.9576  0.0000 -0.0000  0.0000  0.0000  0.0000  0.0000  0.0000      0.0000  0.0000  0.0000  0.0000  0.0000  0.0000  0.0000  0.0000  0.0000  0.0000
  o =  0.9406  v =  0.0000 -0.7071  0.0000 -0.7071  0.0000  0.0000  0.0000  0.0000  0.0000  0.0000      0.0000  0.0000  0.0000  0.0000  0.0000  0.0000  0.0000  0.0000  0.0000  0.0000
  o =  0.9721  v = -0.9576  0.0000  0.2880  0.0000  0.0000  0.0000  0.0000  0.0000  0.0000  0.0000      0.0000  0.0000  0.0000  0.0000  0.0000  0.0000  0.0000  0.0000  0.0000  0.0000
  o =  0.9786  v =  0.0000  0.7071  0.0000 -0.7071 -0.0000  0.0000  0.0000  0.0000  0.0000  0.0000      0.0000  0.0000  0.0000  0.0000  0.0000  0.0000  0.0000  0.0000  0.0000  0.0000
     EDDAV:  cpu time    0.0897: real time    0.0897
       DOS:  cpu time    0.0001: real time    0.0001
    CHARGE:  cpu time    0.0591: real time    0.0591
    MIXING:  cpu time    0.0006: real time    0.0006
    --------------------------------------------
      LOOP:  cpu time    0.9612: real time    0.9612

 eigenvalue-minimisations  :   192
 total energy-change (2. order) : 0.4542775E+00  (-0.7345500E+00)
 number of electron      54.0000007 magnetization      -0.0000000
 augmentation part       19.9965652 magnetization      -0.0000000

 Broyden mixing:
  rms(total) = 0.87209E+00    rms(broyden)= 0.87204E+00
  rms(prec ) = 0.96733E+00
  weight for this iteration     100.00

 eigenvalues of (default mixing * dielectric matrix)
  average eigenvalue GAMMA=   0.9238
  1.6209  0.5716  0.7513  0.7513

 Free energy of the ion-electron system (eV)
  ---------------------------------------------------
  alpha Z        PSCENC =       199.38838823
  Ewald energy   TEWEN  =     -4203.06823030
  -Hartree energ DENC   =     -2160.97759422
  -exchange      EXHF   =         0.00000000
  -V(xc)+E(xc)   XCENC  =       168.76796609
  PAW double counting   =      6419.92646182    -6383.75580183
  entropy T*S    EENTRO =        -0.00000000
  eigenvalues    EBANDS =      -797.52049526
  atomic energy  EATOM  =      6689.01075358
  Solvation  Ediel_sol  =         0.00000000
  ---------------------------------------------------
  free energy    TOTEN  =       -68.22855188 eV

  energy without entropy =      -68.22855188  energy(sigma->0) =      -68.22855188


--------------------------------------------------------------------------------------------------------




--------------------------------------- Iteration      1(  10)  ---------------------------------------


    POTLOK:  cpu time    0.0322: real time    0.0322
    SETDIJ:  cpu time    0.7794: real time    0.7794
atom =   1  type =  1  l = 2
 
 onsite density matrix
 
spin component  1
 
  0.0583  0.0000  0.0234  0.0000 -0.0000
  0.0000  0.0536  0.0000  0.0215  0.0000
  0.0234  0.0000  0.0505  0.0000 -0.0000
  0.0000  0.0215  0.0000  0.0536  0.0000
 -0.0000  0.0000 -0.0000  0.0000  0.0157
 
spin component  2
 
  0.9588  0.0000  0.0225  0.0000  0.0000
  0.0000  0.9494  0.0000  0.0133  0.0000
  0.0225  0.0000  0.9374  0.0000  0.0000
  0.0000  0.0133  0.0000  0.9494  0.0000
  0.0000  0.0000  0.0000  0.0000  0.9421
 
 occupancies and eigenvectors
 
  o =  0.0157  v =  0.0000 -0.0000 -0.0000  0.0000 -1.0000  0.0000  0.0000  0.0000  0.0000  0.0000      0.0000  0.0000  0.0000  0.0000  0.0000  0.0000  0.0000  0.0000  0.0000  0.0000
  o =  0.0307  v = -0.6462  0.0000  0.7632 -0.0000 -0.0000  0.0000  0.0000  0.0000  0.0000  0.0000      0.0000  0.0000  0.0000  0.0000  0.0000  0.0000  0.0000  0.0000  0.0000  0.0000
  o =  0.0321  v = -0.0000 -0.7071  0.0000  0.7071  0.0000  0.0000  0.0000  0.0000  0.0000  0.0000      0.0000  0.0000  0.0000  0.0000  0.0000  0.0000  0.0000  0.0000  0.0000  0.0000
  o =  0.0752  v = -0.0000 -0.7071 -0.0000 -0.7071 -0.0000  0.0000  0.0000  0.0000  0.0000  0.0000      0.0000  0.0000  0.0000  0.0000  0.0000  0.0000  0.0000  0.0000  0.0000  0.0000
  o =  0.0781  v = -0.7632  0.0000 -0.6462  0.0000  0.0000  0.0000  0.0000  0.0000  0.0000  0.0000      0.0000  0.0000  0.0000  0.0000  0.0000  0.0000  0.0000  0.0000  0.0000  0.0000
  o =  0.9232  v =  0.0000  0.0000  0.0000  0.0000  0.0000 -0.5347  0.0000  0.8451  0.0000  0.0000      0.0000  0.0000  0.0000  0.0000  0.0000  0.0000  0.0000  0.0000  0.0000  0.0000
  o =  0.9361  v =  0.0000  0.0000  0.0000  0.0000  0.0000  0.0000 -0.7071  0.0000  0.7071 -0.0000      0.0000  0.0000  0.0000  0.0000  0.0000  0.0000  0.0000  0.0000  0.0000  0.0000
  o =  0.9421  v =  0.0000  0.0000  0.0000  0.0000  0.0000  0.0000 -0.0000 -0.0000  0.0000  1.0000      0.0000  0.0000  0.0000  0.0000  0.0000  0.0000  0.0000  0.0000  0.0000  0.0000
  o =  0.9627  v =  0.0000  0.0000  0.0000  0.0000  0.0000  0.0000 -0.7071 -0.0000 -0.7071  0.0000      0.0000  0.0000  0.0000  0.0000  0.0000  0.0000  0.0000  0.0000  0.0000  0.0000
  o =  0.9730  v =  0.0000  0.0000  0.0000  0.0000  0.0000 -0.8451  0.0000 -0.5347  0.0000 -0.0000      0.0000  0.0000  0.0000  0.0000  0.0000  0.0000  0.0000  0.0000  0.0000  0.0000
atom =   2  type =  1  l = 2
 
 onsite density matrix
 
spin component  1
 
  0.9588  0.0000 -0.0225  0.0000  0.0000
  0.0000  0.9494  0.0000 -0.0133  0.0000
 -0.0225  0.0000  0.9374  0.0000  0.0000
  0.0000 -0.0133  0.0000  0.9494  0.0000
  0.0000  0.0000  0.0000  0.0000  0.9421
 
spin component  2
 
  0.0583  0.0000 -0.0234  0.0000 -0.0000
  0.0000  0.0536  0.0000 -0.0215  0.0000
 -0.0234  0.0000  0.0505  0.0000 -0.0000
  0.0000 -0.0215  0.0000  0.0536  0.0000
 -0.0000  0.0000 -0.0000  0.0000  0.0157
 
 occupancies and eigenvectors
 
  o =  0.0157  v =  0.0000  0.0000  0.0000  0.0000  0.0000 -0.0000 -0.0000 -0.0000 -0.0000 -1.0000      0.0000  0.0000  0.0000  0.0000  0.0000  0.0000  0.0000  0.0000  0.0000  0.0000
  o =  0.0307  v =  0.0000  0.0000  0.0000  0.0000  0.0000 -0.6462  0.0000 -0.7632  0.0000  0.0000      0.0000  0.0000  0.0000  0.0000  0.0000  0.0000  0.0000  0.0000  0.0000  0.0000
  o =  0.0321  v =  0.0000  0.0000  0.0000  0.0000  0.0000  0.0000  0.7071  0.0000  0.7071 -0.0000      0.0000  0.0000  0.0000  0.0000  0.0000  0.0000  0.0000  0.0000  0.0000  0.0000
  o =  0.0752  v =  0.0000  0.0000  0.0000  0.0000  0.0000 -0.0000 -0.7071  0.0000  0.7071  0.0000      0.0000  0.0000  0.0000  0.0000  0.0000  0.0000  0.0000  0.0000  0.0000  0.0000
  o =  0.0781  v =  0.0000  0.0000  0.0000  0.0000  0.0000 -0.7632  0.0000  0.6462 -0.0000 -0.0000      0.0000  0.0000  0.0000  0.0000  0.0000  0.0000  0.0000  0.0000  0.0000  0.0000
  o =  0.9232  v = -0.5347 -0.0000 -0.8451  0.0000  0.0000  0.0000  0.0000  0.0000  0.0000  0.0000      0.0000  0.0000  0.0000  0.0000  0.0000  0.0000  0.0000  0.0000  0.0000  0.0000
  o =  0.9361  v =  0.0000  0.7071 -0.0000  0.7071  0.0000  0.0000  0.0000  0.0000  0.0000  0.0000      0.0000  0.0000  0.0000  0.0000  0.0000  0.0000  0.0000  0.0000  0.0000  0.0000
  o =  0.9421  v = -0.0000  0.0000 -0.0000  0.0000 -1.0000  0.0000  0.0000  0.0000  0.0000  0.0000      0.0000  0.0000  0.0000  0.0000  0.0000  0.0000  0.0000  0.0000  0.0000  0.0000
  o =  0.9627  v =  0.0000  0.7071 -0.0000 -0.7071  0.0000  0.0000  0.0000  0.0000  0.0000  0.0000      0.0000  0.0000  0.0000  0.0000  0.0000  0.0000  0.0000  0.0000  0.0000  0.0000
  o =  0.9730  v = -0.8451  0.0000  0.5347  0.0000  0.0000  0.0000  0.0000  0.0000  0.0000  0.0000      0.0000  0.0000  0.0000  0.0000  0.0000  0.0000  0.0000  0.0000  0.0000  0.0000
     EDDAV:  cpu time    0.0820: real time    0.0820
       DOS:  cpu time    0.0001: real time    0.0001
    CHARGE:  cpu time    0.0590: real time    0.0590
    MIXING:  cpu time    0.0007: real time    0.0007
    --------------------------------------------
      LOOP:  cpu time    0.9534: real time    0.9534

 eigenvalue-minimisations  :   168
 total energy-change (2. order) : 0.5425101E-01  (-0.5153551E-01)
 number of electron      54.0000007 magnetization      -0.0000000
 augmentation part       19.9872564 magnetization      -0.0000000

 Broyden mixing:
  rms(total) = 0.64471E+00    rms(broyden)= 0.64471E+00
  rms(prec ) = 0.72459E+00
  weight for this iteration     100.00

 eigenvalues of (default mixing * dielectric matrix)
  average eigenvalue GAMMA=   1.1419
  2.5265  1.0027  1.0027  0.5887  0.5887

 Free energy of the ion-electron system (eV)
  ---------------------------------------------------
  alpha Z        PSCENC =       199.38838823
  Ewald energy   TEWEN  =     -4203.06823030
  -Hartree energ DENC   =     -2155.36447385
  -exchange      EXHF   =         0.00000000
  -V(xc)+E(xc)   XCENC  =       165.64704137
  PAW double counting   =      6486.13281988    -6451.02866651
  entropy T*S    EENTRO =        -0.00000000
  eigenvalues    EBANDS =      -798.89193327
  atomic energy  EATOM  =      6689.01075358
  Solvation  Ediel_sol  =         0.00000000
  ---------------------------------------------------
  free energy    TOTEN  =       -68.17430088 eV

  energy without entropy =      -68.17430088  energy(sigma->0) =      -68.17430088


--------------------------------------------------------------------------------------------------------




--------------------------------------- Iteration      1(  11)  ---------------------------------------


    POTLOK:  cpu time    0.0323: real time    0.0323
    SETDIJ:  cpu time    0.7806: real time    0.7806
atom =   1  type =  1  l = 2
 
 onsite density matrix
 
spin component  1
 
  0.0490  0.0000  0.0339  0.0000  0.0000
  0.0000  0.0444  0.0000  0.0226  0.0000
  0.0339  0.0000  0.0425  0.0000 -0.0000
  0.0000  0.0226  0.0000  0.0444  0.0000
  0.0000  0.0000 -0.0000  0.0000  0.0203
 
spin component  2
 
  0.9683  0.0000  0.0162  0.0000 -0.0000
  0.0000  0.9589  0.0000  0.0166  0.0000
  0.0162  0.0000  0.9434  0.0000  0.0000
  0.0000  0.0166  0.0000  0.9589  0.0000
 -0.0000  0.0000  0.0000  0.0000  0.9419
 
 occupancies and eigenvectors
 
  o =  0.0117  v = -0.6725 -0.0000  0.7401  0.0000  0.0000  0.0000  0.0000  0.0000  0.0000  0.0000      0.0000  0.0000  0.0000  0.0000  0.0000  0.0000  0.0000  0.0000  0.0000  0.0000
  o =  0.0203  v = -0.0000  0.0000  0.0000  0.0000 -1.0000  0.0000  0.0000  0.0000  0.0000  0.0000      0.0000  0.0000  0.0000  0.0000  0.0000  0.0000  0.0000  0.0000  0.0000  0.0000
  o =  0.0218  v =  0.0000 -0.7071  0.0000  0.7071 -0.0000  0.0000  0.0000  0.0000  0.0000  0.0000      0.0000  0.0000  0.0000  0.0000  0.0000  0.0000  0.0000  0.0000  0.0000  0.0000
  o =  0.0670  v =  0.0000 -0.7071  0.0000 -0.7071 -0.0000  0.0000  0.0000  0.0000  0.0000  0.0000      0.0000  0.0000  0.0000  0.0000  0.0000  0.0000  0.0000  0.0000  0.0000  0.0000
  o =  0.0797  v = -0.7401 -0.0000 -0.6725  0.0000  0.0000  0.0000  0.0000  0.0000  0.0000  0.0000      0.0000  0.0000  0.0000  0.0000  0.0000  0.0000  0.0000  0.0000  0.0000  0.0000
  o =  0.9354  v =  0.0000  0.0000  0.0000  0.0000  0.0000 -0.4419 -0.0000  0.8970  0.0000 -0.0000      0.0000  0.0000  0.0000  0.0000  0.0000  0.0000  0.0000  0.0000  0.0000  0.0000
  o =  0.9419  v =  0.0000  0.0000  0.0000  0.0000  0.0000  0.0000 -0.0000 -0.0000  0.0000 -1.0000      0.0000  0.0000  0.0000  0.0000  0.0000  0.0000  0.0000  0.0000  0.0000  0.0000
  o =  0.9423  v =  0.0000  0.0000  0.0000  0.0000  0.0000  0.0000  0.7071 -0.0000 -0.7071 -0.0000      0.0000  0.0000  0.0000  0.0000  0.0000  0.0000  0.0000  0.0000  0.0000  0.0000
  o =  0.9755  v =  0.0000  0.0000  0.0000  0.0000  0.0000  0.0000  0.7071 -0.0000  0.7071 -0.0000      0.0000  0.0000  0.0000  0.0000  0.0000  0.0000  0.0000  0.0000  0.0000  0.0000
  o =  0.9763  v =  0.0000  0.0000  0.0000  0.0000  0.0000 -0.8970 -0.0000 -0.4419  0.0000 -0.0000      0.0000  0.0000  0.0000  0.0000  0.0000  0.0000  0.0000  0.0000  0.0000  0.0000
atom =   2  type =  1  l = 2
 
 onsite density matrix
 
spin component  1
 
  0.9683  0.0000 -0.0162  0.0000 -0.0000
  0.0000  0.9589  0.0000 -0.0166  0.0000
 -0.0162  0.0000  0.9434  0.0000 -0.0000
  0.0000 -0.0166  0.0000  0.9589  0.0000
 -0.0000  0.0000 -0.0000  0.0000  0.9419
 
spin component  2
 
  0.0490  0.0000 -0.0339  0.0000  0.0000
  0.0000  0.0444  0.0000 -0.0226  0.0000
 -0.0339  0.0000  0.0425  0.0000  0.0000
  0.0000 -0.0226  0.0000  0.0444  0.0000
  0.0000  0.0000  0.0000  0.0000  0.0203
 
 occupancies and eigenvectors
 
  o =  0.0117  v =  0.0000  0.0000  0.0000  0.0000  0.0000 -0.6725 -0.0000 -0.7401  0.0000  0.0000      0.0000  0.0000  0.0000  0.0000  0.0000  0.0000  0.0000  0.0000  0.0000  0.0000
  o =  0.0203  v =  0.0000  0.0000  0.0000  0.0000  0.0000 -0.0000  0.0000 -0.0000  0.0000 -1.0000      0.0000  0.0000  0.0000  0.0000  0.0000  0.0000  0.0000  0.0000  0.0000  0.0000
  o =  0.0218  v =  0.0000  0.0000  0.0000  0.0000  0.0000  0.0000  0.7071  0.0000  0.7071  0.0000      0.0000  0.0000  0.0000  0.0000  0.0000  0.0000  0.0000  0.0000  0.0000  0.0000
  o =  0.0670  v =  0.0000  0.0000  0.0000  0.0000  0.0000  0.0000  0.7071  0.0000 -0.7071  0.0000      0.0000  0.0000  0.0000  0.0000  0.0000  0.0000  0.0000  0.0000  0.0000  0.0000
  o =  0.0797  v =  0.0000  0.0000  0.0000  0.0000  0.0000 -0.7401 -0.0000  0.6725  0.0000  0.0000      0.0000  0.0000  0.0000  0.0000  0.0000  0.0000  0.0000  0.0000  0.0000  0.0000
  o =  0.9354  v = -0.4419 -0.0000 -0.8970  0.0000 -0.0000  0.0000  0.0000  0.0000  0.0000  0.0000      0.0000  0.0000  0.0000  0.0000  0.0000  0.0000  0.0000  0.0000  0.0000  0.0000
  o =  0.9419  v = -0.0000  0.0000 -0.0000  0.0000  1.0000  0.0000  0.0000  0.0000  0.0000  0.0000      0.0000  0.0000  0.0000  0.0000  0.0000  0.0000  0.0000  0.0000  0.0000  0.0000
  o =  0.9423  v =  0.0000 -0.7071  0.0000 -0.7071  0.0000  0.0000  0.0000  0.0000  0.0000  0.0000      0.0000  0.0000  0.0000  0.0000  0.0000  0.0000  0.0000  0.0000  0.0000  0.0000
  o =  0.9755  v =  0.0000  0.7071  0.0000 -0.7071 -0.0000  0.0000  0.0000  0.0000  0.0000  0.0000      0.0000  0.0000  0.0000  0.0000  0.0000  0.0000  0.0000  0.0000  0.0000  0.0000
  o =  0.9763  v = -0.8970 -0.0000  0.4419  0.0000 -0.0000  0.0000  0.0000  0.0000  0.0000  0.0000      0.0000  0.0000  0.0000  0.0000  0.0000  0.0000  0.0000  0.0000  0.0000  0.0000
     EDDAV:  cpu time    0.0816: real time    0.0816
       DOS:  cpu time    0.0001: real time    0.0001
    CHARGE:  cpu time    0.0589: real time    0.0589
    MIXING:  cpu time    0.0008: real time    0.0008
    --------------------------------------------
      LOOP:  cpu time    0.9543: real time    0.9543

 eigenvalue-minimisations  :   168
 total energy-change (2. order) : 0.5034511E-01  (-0.1402921E+00)
 number of electron      54.0000007 magnetization       0.0000000
 augmentation part       20.0737220 magnetization       0.0000000

 Broyden mixing:
  rms(total) = 0.20026E+00    rms(broyden)= 0.20016E+00
  rms(prec ) = 0.30662E+00
  weight for this iteration     100.00

 eigenvalues of (default mixing * dielectric matrix)
  average eigenvalue GAMMA=   1.1335
  3.0610  0.9907  0.9907  0.5803  0.5893  0.5893

 Free energy of the ion-electron system (eV)
  ---------------------------------------------------
  alpha Z        PSCENC =       199.38838823
  Ewald energy   TEWEN  =     -4203.06823030
  -Hartree energ DENC   =     -2144.87154029
  -exchange      EXHF   =         0.00000000
  -V(xc)+E(xc)   XCENC  =       165.57281398
  PAW double counting   =      6593.09359971    -6559.12816821
  entropy T*S    EENTRO =        -0.00000000
  eigenvalues    EBANDS =      -808.12157248
  atomic energy  EATOM  =      6689.01075358
  Solvation  Ediel_sol  =         0.00000000
  ---------------------------------------------------
  free energy    TOTEN  =       -68.12395577 eV

  energy without entropy =      -68.12395577  energy(sigma->0) =      -68.12395577


--------------------------------------------------------------------------------------------------------




--------------------------------------- Iteration      1(  12)  ---------------------------------------


    POTLOK:  cpu time    0.0323: real time    0.0323
    SETDIJ:  cpu time    0.8807: real time    0.8808
atom =   1  type =  1  l = 2
 
 onsite density matrix
 
spin component  1
 
  0.0505  0.0000  0.0299  0.0000 -0.0000
  0.0000  0.0454  0.0000  0.0223  0.0000
  0.0299  0.0000  0.0442  0.0000  0.0000
  0.0000  0.0223  0.0000  0.0454  0.0000
 -0.0000  0.0000  0.0000  0.0000  0.0152
 
spin component  2
 
  0.9654  0.0000  0.0196  0.0000  0.0000
  0.0000  0.9563  0.0000  0.0162  0.0000
  0.0196  0.0000  0.9419  0.0000  0.0000
  0.0000  0.0162  0.0000  0.9563  0.0000
  0.0000  0.0000  0.0000  0.0000  0.9447
 
 occupancies and eigenvectors
 
  o =  0.0152  v =  0.0000  0.0000 -0.0000  0.0000  1.0000  0.0000  0.0000  0.0000  0.0000  0.0000      0.0000  0.0000  0.0000  0.0000  0.0000  0.0000  0.0000  0.0000  0.0000  0.0000
  o =  0.0172  v = -0.6690  0.0000  0.7433  0.0000  0.0000  0.0000  0.0000  0.0000  0.0000  0.0000      0.0000  0.0000  0.0000  0.0000  0.0000  0.0000  0.0000  0.0000  0.0000  0.0000
[...]
  eigenvalues    EBANDS =      -797.01050062
  atomic energy  EATOM  =      6689.01075358
  Solvation  Ediel_sol  =         0.00000000
  ---------------------------------------------------
  free energy    TOTEN  =       -68.08255105 eV

  energy without entropy =      -68.08255105  energy(sigma->0) =      -68.08255105


--------------------------------------------------------------------------------------------------------




 average (electrostatic) potential at core
  the test charge radii are     0.9577  0.7167
  (the norm of the test charge is              1.0000)
       1 -57.8267       2 -57.8267       3 -50.5844       4 -50.5844       5 -50.5844
       6 -50.5844
 
 
 
 E-fermi :   2.2301     XC(G=0):  -9.9825     alpha+bet : -8.6980


 spin component 1

 k-point     1 :       0.0000    0.0000    0.2500
  band No.  band energies     occupation 
      1     -49.1992      1.00000
      2     -49.1640      1.00000
      3     -49.1541      1.00000
      4     -42.6923      1.00000
      5     -42.6784      1.00000
      6     -42.6691      1.00000
      7     -22.8882      1.00000
      8     -22.5403      1.00000
      9     -22.5203      1.00000
     10     -22.4697      1.00000
     11      -4.8709      1.00000
     12      -4.1709      1.00000
     13      -3.9186      1.00000
     14      -3.7194      1.00000
     15      -3.6056      1.00000
     16      -3.5128      1.00000
     17      -3.1604      1.00000
     18      -3.0211      1.00000
     19      -2.9546      1.00000
     20      -2.2712      1.00000
     21      -2.2185      1.00000
     22      -1.8572      1.00000
     23       0.8422      1.00000
     24       0.9398      1.00000
     25       0.9808      1.00000
     26       1.9655      1.00000
     27       2.0230      1.00000
     28       6.3748      0.00000
     29       6.5175      0.00000
     30       6.5360      0.00000
     31       6.7712      0.00000
     32       7.5656      0.00000
     33       7.7651      0.00000
     34      12.1967      0.00000
     35      12.3941      0.00000
     36      12.9698      0.00000

 spin component 2

 k-point     1 :       0.0000    0.0000    0.2500
  band No.  band energies     occupation 
      1     -49.1992      1.00000
      2     -49.1640      1.00000
      3     -49.1541      1.00000
      4     -42.6923      1.00000
      5     -42.6784      1.00000
      6     -42.6691      1.00000
      7     -22.8882      1.00000
      8     -22.5403      1.00000
      9     -22.5203      1.00000
     10     -22.4697      1.00000
     11      -4.8709      1.00000
     12      -4.1709      1.00000
     13      -3.9186      1.00000
     14      -3.7194      1.00000
     15      -3.6056      1.00000
     16      -3.5128      1.00000
     17      -3.1604      1.00000
     18      -3.0211      1.00000
     19      -2.9546      1.00000
     20      -2.2712      1.00000
     21      -2.2185      1.00000
     22      -1.8572      1.00000
     23       0.8422      1.00000
     24       0.9398      1.00000
     25       0.9808      1.00000
     26       1.9655      1.00000
     27       2.0230      1.00000
     28       6.3748      0.00000
     29       6.5175      0.00000
     30       6.5360      0.00000
     31       6.7712      0.00000
     32       7.5656      0.00000
     33       7.7651      0.00000
     34      12.1967      0.00000
     35      12.3941      0.00000
     36      12.9698      0.00000


--------------------------------------------------------------------------------------------------------


 soft charge-density along one line, spin component           1
         0         1         2         3         4         5         6         7         8         9
 total charge-density along one line
 
 soft charge-density along one line, spin component           2
         0         1         2         3         4         5         6         7         8         9
 total charge-density along one line
 
 pseudopotential strength for first ion, spin component:           1
-45.211   0.000   0.001   7.788  -0.000   0.002  -0.000  -0.000
  0.000 -45.201  -0.000  -0.000   7.782   0.000  -0.000  -0.000
  0.001  -0.000 -45.211   0.002   0.000   7.788  -0.000  -0.000
  7.788  -0.000   0.002   5.586   0.000   0.003  -0.000   0.000
 -0.000   7.782   0.000   0.000   5.576  -0.000   0.000   0.000
  0.002   0.000   7.788   0.003  -0.000   5.586  -0.000   0.000
 -0.000  -0.000  -0.000  -0.000   0.000  -0.000  -2.962  -0.000
 -0.000  -0.000  -0.000   0.000   0.000   0.000  -0.000  -2.960
 -0.000  -0.000  -0.000   0.000   0.000  -0.000  -0.001   0.000
 -0.000  -0.000  -0.000   0.000  -0.000   0.000   0.000  -0.003
 -0.000  -0.000  -0.000  -0.000   0.000  -0.000   0.000  -0.000
 -0.000  -0.000  -0.000  -0.000   0.000  -0.000  -3.478  -0.000
 -0.000  -0.000  -0.000   0.000   0.000   0.000  -0.000  -3.476
  0.000  -0.000  -0.000   0.000   0.000  -0.000  -0.001   0.000
 -0.000  -0.000  -0.000   0.000  -0.000   0.000   0.000  -0.003
 -0.000  -0.000  -0.000  -0.000   0.000  -0.000   0.000  -0.000
 -0.000   0.000  -0.000   0.000   0.000  -0.000   0.003  -0.000
 -0.000   0.000  -0.000  -0.000   0.000  -0.000   0.006  -0.000
 pseudopotential strength for first ion, spin component:           2
-50.952   0.000  -0.015   9.786  -0.000   0.007  -0.000  -0.000
  0.000 -50.957  -0.000  -0.000   9.770   0.000  -0.000   0.000
 -0.015  -0.000 -50.952   0.007   0.000   9.786   0.000  -0.000
  9.786  -0.000   0.007   4.710   0.000  -0.002   0.000   0.000
 -0.000   9.770   0.000   0.000   4.709  -0.000   0.000  -0.000
  0.007   0.000   9.786  -0.002  -0.000   4.710  -0.000   0.000
 -0.000  -0.000   0.000   0.000   0.000  -0.000  -7.315  -0.000
 -0.000   0.000  -0.000   0.000  -0.000   0.000  -0.000  -7.310
  0.000  -0.000   0.000  -0.000   0.000  -0.000  -0.005   0.000
 -0.000   0.000  -0.000   0.000  -0.000   0.000   0.000  -0.026
  0.000  -0.000  -0.000  -0.000   0.000   0.000  -0.000  -0.000
 -0.000  -0.000   0.000   0.000   0.000  -0.000  -7.786  -0.000
 -0.000   0.000  -0.000   0.000  -0.000   0.000  -0.000  -7.782
  0.000  -0.000   0.000  -0.000   0.000  -0.000  -0.004   0.000
 -0.000   0.000  -0.000   0.000  -0.000   0.000   0.000  -0.026
  0.000  -0.000  -0.000  -0.000   0.000   0.000  -0.000  -0.000
  0.000   0.000   0.000  -0.000  -0.000  -0.000   0.004  -0.000
  0.000   0.000   0.000  -0.000   0.000  -0.000   0.007  -0.000
 total augmentation occupancy for first ion, spin component:           1
  2.001   0.000   0.000  -0.013   0.000   0.001   0.000   0.000   0.000   0.000   0.000   0.000   0.000   0.000   0.000   0.000
  0.000   2.001   0.000   0.000  -0.012   0.000   0.000   0.000   0.000   0.000   0.000   0.000   0.000   0.000   0.000   0.000
  0.000   0.000   2.001   0.001   0.000  -0.013   0.000   0.000   0.000   0.000   0.000   0.000   0.000   0.000   0.000   0.000
 -0.013   0.000   0.001   0.086   0.000  -0.005   0.000   0.000   0.000   0.000   0.000   0.000   0.000   0.000   0.000   0.000
  0.000  -0.012   0.000   0.000   0.092   0.000   0.000   0.000   0.000   0.000   0.000   0.000   0.000   0.000   0.000   0.000
  0.001   0.000  -0.013  -0.005   0.000   0.086   0.000   0.000   0.000   0.000   0.000   0.000   0.000   0.000   0.000   0.000
  0.000   0.000   0.000   0.000   0.000   0.000   7.745   0.000   2.601   0.000  -0.000  -5.738   0.000  -2.466   0.000  -0.000
  0.000   0.000   0.000   0.000   0.000   0.000   0.000   6.817   0.000   2.798   0.000   0.000  -4.901   0.000  -2.630   0.000
  0.000   0.000   0.000   0.000   0.000   0.000   2.601   0.000   5.567   0.000   0.000  -2.466   0.000  -3.798   0.000  -0.000
  0.000   0.000   0.000   0.000   0.000   0.000   0.000   2.798   0.000   6.817   0.000   0.000  -2.630   0.000  -4.901   0.000
  0.000   0.000   0.000   0.000   0.000   0.000  -0.000   0.000   0.000   0.000   4.007   0.000   0.000   0.000   0.000  -2.221
  0.000   0.000   0.000   0.000   0.000   0.000  -5.738   0.000  -2.466   0.000   0.000   4.905   0.000   2.369   0.000   0.000
  0.000   0.000   0.000   0.000   0.000   0.000   0.000  -4.901   0.000  -2.630   0.000   0.000   4.147   0.000   2.499   0.000
  0.000   0.000   0.000   0.000   0.000   0.000  -2.466   0.000  -3.798   0.000   0.000   2.369   0.000   3.175   0.000   0.000
  0.000   0.000   0.000   0.000   0.000   0.000   0.000  -2.630   0.000  -4.901   0.000   0.000   2.499   0.000   4.147   0.000
  0.000   0.000   0.000   0.000   0.000   0.000  -0.000   0.000  -0.000   0.000  -2.221   0.000   0.000   0.000   0.000   1.560
  0.000   0.000   0.000   0.000   0.000   0.000  -0.056   0.000  -0.447   0.000  -0.000   0.045   0.000   0.419   0.000   0.000
  0.000   0.000   0.000   0.000   0.000   0.000   0.009   0.000   0.100   0.000   0.000  -0.003   0.000  -0.098   0.000  -0.000
 total augmentation occupancy for first ion, spin component:           2
  0.004   0.000   0.000   0.017   0.000   0.000   0.000   0.000   0.000   0.000   0.000   0.000   0.000   0.000   0.000   0.000
  0.000   0.004   0.000   0.000   0.018   0.000   0.000   0.000   0.000   0.000   0.000   0.000   0.000   0.000   0.000   0.000
  0.000   0.000   0.004   0.000   0.000   0.017   0.000   0.000   0.000   0.000   0.000   0.000   0.000   0.000   0.000   0.000
  0.017   0.000   0.000  -0.012   0.000  -0.001   0.000   0.000   0.000   0.000   0.000   0.000   0.000   0.000   0.000   0.000
  0.000   0.018   0.000   0.000  -0.008   0.000   0.000   0.000   0.000   0.000   0.000   0.000   0.000   0.000   0.000   0.000
  0.000   0.000   0.017  -0.001   0.000  -0.012   0.000   0.000   0.000   0.000   0.000   0.000   0.000   0.000   0.000   0.000
  0.000   0.000   0.000   0.000   0.000   0.000  -5.109   0.000  -1.225   0.000   0.000   2.723   0.000   0.886   0.000  -0.000
  0.000   0.000   0.000   0.000   0.000   0.000   0.000  -4.604   0.000  -1.373   0.000   0.000   2.339   0.000   1.012   0.000
  0.000   0.000   0.000   0.000   0.000   0.000  -1.225   0.000  -3.804   0.000   0.000   0.887   0.000   1.734   0.000   0.000
  0.000   0.000   0.000   0.000   0.000   0.000   0.000  -1.373   0.000  -4.604   0.000   0.000   1.012   0.000   2.339   0.000
  0.000   0.000   0.000   0.000   0.000   0.000   0.000   0.000   0.000   0.000  -3.295   0.000   0.000  -0.000   0.000   1.379
  0.000   0.000   0.000   0.000   0.000   0.000   2.723   0.000   0.887   0.000   0.000  -1.448   0.000  -0.547   0.000  -0.000
  0.000   0.000   0.000   0.000   0.000   0.000   0.000   2.339   0.000   1.012   0.000   0.000  -1.176   0.000  -0.659   0.000
  0.000   0.000   0.000   0.000   0.000   0.000   0.886   0.000   1.734   0.000  -0.000  -0.547   0.000  -0.743   0.000   0.000
  0.000   0.000   0.000   0.000   0.000   0.000   0.000   1.012   0.000   2.339   0.000   0.000  -0.659   0.000  -1.176   0.000
  0.000   0.000   0.000   0.000   0.000   0.000  -0.000   0.000   0.000   0.000   1.379  -0.000   0.000   0.000   0.000  -0.564
  0.000   0.000   0.000   0.000   0.000   0.000   0.079   0.000   0.123   0.000   0.000  -0.054   0.000  -0.041   0.000   0.000
  0.000   0.000   0.000   0.000   0.000   0.000  -0.021   0.000  -0.017   0.000   0.000   0.013   0.000   0.002   0.000   0.000


------------------------ aborting loop because EDIFF is reached ----------------------------------------


 


 total charge     
 
# of ion       s       p       d       tot
------------------------------------------
    1        0.170   6.154   4.973  11.297
    2        0.170   6.154   4.973  11.297
    3        1.730   4.399   0.000   6.129
    4        1.730   4.399   0.000   6.129
    5        1.730   4.399   0.000   6.129
    6        1.730   4.399   0.000   6.129
--------------------------------------------------
tot          7.260  29.903   9.946  47.110
 


 magnetization (x)
 
# of ion       s       p       d       tot
------------------------------------------
    1       -0.022  -0.017  -4.561  -4.600
    2        0.022   0.017   4.561   4.600
    3        0.002   0.023   0.000   0.025
    4        0.002   0.023   0.000   0.025
    5       -0.002  -0.023   0.000  -0.025
    6       -0.002  -0.023   0.000  -0.025
--------------------------------------------------
tot          0.000  -0.000  -0.000  -0.000
 
    CHARGE:  cpu time    0.0239: real time    0.0239
    FORLOC:  cpu time    0.0011: real time    0.0011
    FORNL :  cpu time    0.0984: real time    0.0984
    STRESS:  cpu time    0.5607: real time    0.5607
    FORCOR:  cpu time    0.0296: real time    0.0296
    FORHAR:  cpu time    0.0021: real time    0.0021
    MIXING:  cpu time    0.0007: real time    0.0007
    OFIELD:  cpu time    0.0000: real time    0.0000

  FORCE on cell =-STRESS in cart. coord.  units (eV):
  Direction    XX          YY          ZZ          XY          YZ          ZX
  --------------------------------------------------------------------------------------
  Alpha Z   200.34222   200.34222   200.34222
  Ewald   -1595.38675 -1595.38675 -1003.96225    -0.00000     0.00000     0.00000
  Hartree   589.35448   589.35448   987.50720    -0.00000    -0.00000    -0.00000
  E(xc)    -150.51340  -150.51340  -150.80270     0.00000    -0.00001    -0.00001
  Local     175.16474   175.16474  -803.53025    -0.00000     0.00000    -0.00000
  n-local  -310.29697  -310.29697  -308.51650    -0.00000    -0.00000     0.00000
  augment   158.92192   158.92192   157.31601    -0.00000     0.00000    -0.00000
  Kinetic   932.39758   932.39760   921.62785    -0.00000     0.00000    -0.00000
  Fock        0.00000     0.00000     0.00000     0.00000     0.00000     0.00000
  -------------------------------------------------------------------------------------
  Total      -0.01616    -0.01616    -0.01842     0.00000     0.00000     0.00000
  in kB      -0.33602    -0.33602    -0.38295     0.00000     0.00000     0.00000
  external pressure =       -0.35 kB  Pullay stress =        0.00 kB


 VOLUME and BASIS-vectors are now :
 -----------------------------------------------------------------------------
  energy-cutoff  :      600.00
  volume of cell :       77.06
      direct lattice vectors                 reciprocal lattice vectors
     4.917991875 -0.000000000  0.000000000     0.203335025  0.000000000  0.000000000
    -0.000000000  4.917991875  0.000000000     0.000000000  0.203335025  0.000000000
     0.000000000  0.000000000  3.185873290     0.000000000  0.000000000  0.313885679

  length of vectors
     4.917991875  4.917991875  3.185873290     0.203335025  0.203335025  0.313885679


 FORCES acting on ions
    electron-ion (+dipol)            ewald-force                    non-local-force                 convergence-correction
 -----------------------------------------------------------------------------------------------
   -.165E-11 0.666E-11 -.459E-13   0.142E-12 0.000E+00 -.135E-13   -.684E-34 0.000E+00 0.000E+00   0.125E-12 -.613E-13 0.938E-13
   0.561E-13 0.669E-13 0.441E-13   0.142E-12 0.000E+00 -.143E-13   0.696E-34 0.000E+00 0.000E+00   -.392E-13 0.957E-14 -.149E-12
   -.426E+02 0.426E+02 0.714E-11   0.450E+02 -.450E+02 0.621E-14   -.239E+01 0.239E+01 0.000E+00   0.106E-04 -.106E-04 0.203E-13
   0.426E+02 -.426E+02 -.355E-11   -.450E+02 0.450E+02 0.634E-14   0.239E+01 -.239E+01 0.126E-27   -.106E-04 0.106E-04 0.831E-13
   0.426E+02 0.426E+02 -.111E-06   -.450E+02 -.450E+02 0.635E-14   0.239E+01 0.239E+01 0.000E+00   -.106E-04 -.106E-04 -.124E-10
   -.426E+02 -.426E+02 0.111E-06   0.450E+02 0.450E+02 0.631E-14   -.239E+01 -.239E+01 0.126E-27   0.106E-04 0.106E-04 0.123E-10
 -----------------------------------------------------------------------------------------------
   -.676E-12 0.112E-10 0.633E-11   0.000E+00 0.000E+00 -.257E-14   0.000E+00 -.444E-15 0.252E-27   0.862E-13 -.639E-13 -.346E-13
 
 
 POSITION                                       TOTAL-FORCE (eV/Angst)
 -----------------------------------------------------------------------------------
      2.45900      2.45900      1.59294        -0.000000      0.000000      0.000000
      0.00000     -0.00000      0.00000        -0.000000      0.000000      0.000000
      0.97134      3.94665      1.59294        -0.001167      0.001167     -0.000000
      3.94665      0.97134      1.59294         0.001167     -0.001167      0.000000
      1.48765      1.48765     -0.00000         0.001167      0.001167     -0.000000
      3.43034      3.43034      0.00000        -0.001167     -0.001167      0.000000
 -----------------------------------------------------------------------------------
    total drift:                               -0.000000      0.000000      0.000000


--------------------------------------------------------------------------------------------------------



  FREE ENERGIE OF THE ION-ELECTRON SYSTEM (eV)
  ---------------------------------------------------
  free  energy   TOTEN  =       -68.08255105 eV

  energy  without entropy=      -68.08255105  energy(sigma->0) =      -68.08255105
 
 d Force = 0.1567203E-05[-0.233E-05, 0.546E-05]  d Energy = 0.1563901E-04-0.141E-04
 d Force = 0.8994068E-01[ 0.897E-01, 0.902E-01]  d Ewald  =-0.7004671E+00 0.790E+00


--------------------------------------------------------------------------------------------------------


    POTLOK:  cpu time    1.4799: real time    1.4799


--------------------------------------------------------------------------------------------------------


 Conjugate gradient step on ions:
 trial-energy change:   -0.000016  1 .order   -0.000005   -0.000023    0.000014
  (g-gl).g = 0.972E-05      g.g   = 0.143E-04  gl.gl    = 0.112E-02
 g(Force)  = 0.290E-05   g(Stress)= 0.114E-04 ortho     = 0.232E-05
 gamma     =   0.00869
 trial     =   1.61905
 opt step  =   1.37645  (harmonic =   1.00962) maximal distance =0.00021194
 next E    =   -68.082552   (d E  =  -0.00002)


--------------------------------------------------------------------------------------------------------


  
 reached required accuracy - stopping structural energy minimisation
     LOOP+:  cpu time   19.8025: real time   19.8027
    4ORBIT:  cpu time    0.0000: real time    0.0000
 


 total charge     
 
# of ion       s       p       d       tot
------------------------------------------
    1        0.170   6.154   4.973  11.297
    2        0.170   6.154   4.973  11.297
    3        1.730   4.399   0.000   6.129
    4        1.730   4.399   0.000   6.129
    5        1.730   4.399   0.000   6.129
    6        1.730   4.399   0.000   6.129
--------------------------------------------------
tot          7.260  29.903   9.946  47.110
 


 magnetization (x)
 
# of ion       s       p       d       tot
------------------------------------------
    1       -0.022  -0.017  -4.561  -4.600
    2        0.022   0.017   4.561   4.600
    3        0.002   0.023   0.000   0.025
    4        0.002   0.023   0.000   0.025
    5       -0.002  -0.023   0.000  -0.025
    6       -0.002  -0.023   0.000  -0.025
--------------------------------------------------
tot          0.000  -0.000  -0.000  -0.000
 

 total amount of memory used by VASP MPI-rank0    37131. kBytes
=======================================================================

   base      :      30000. kBytes
   nonl-proj :        995. kBytes
   fftplans  :       1875. kBytes
   grid      :       3820. kBytes
   one-center:        186. kBytes
   wavefun   :        255. kBytes
 
  
  
 General timing and accounting informations for this job:
 ========================================================
  
                  Total CPU time used (sec):      244.694
                            User time (sec):      139.597
                          System time (sec):      105.097
                         Elapsed time (sec):      244.786
  
                   Maximum memory used (kb):       58624.
                   Average memory used (kb):           0.
  
                          Minor page faults:        18086
                          Major page faults:            5
                 Voluntary context switches:          258
