 vasp.5.4.4.18Apr17-6-g9f103f2a35 (build Nov 21 2017 18:25:41) complex          
  
 executed on         CrayXC-Intel date 2022.04.10  16:39:49
 running on  144 total cores
 distrk:  each k-point on   36 cores,    4 groups
 distr:  one band on NCORES_PER_BAND=   6 cores,    6 groups


--------------------------------------------------------------------------------------------------------


 INCAR:
 POTCAR:    PAW_PBE Mn_pv 02Aug2007               
 POTCAR:    PAW_PBE F 08Apr2002                   
 POTCAR:    PAW_PBE H 15Jun2001                   

 ----------------------------------------------------------------------------- 
|                                                                             |
|           W    W    AA    RRRRR   N    N  II  N    N   GGGG   !!!           |
|           W    W   A  A   R    R  NN   N  II  NN   N  G    G  !!!           |
|           W    W  A    A  R    R  N N  N  II  N N  N  G       !!!           |
|           W WW W  AAAAAA  RRRRR   N  N N  II  N  N N  G  GGG   !            |
|           WW  WW  A    A  R   R   N   NN  II  N   NN  G    G                |
|           W    W  A    A  R    R  N    N  II  N    N   GGGG   !!!           |
|                                                                             |
|      You have enabled k-point parallelism (KPAR>1).                         |
|      This developmental code was originally  written by Paul Kent at ORNL,  |
|      and carefully double checked in Vienna.                                |
|      GW as well as linear response parallelism added by Martijn Marsman     |
|      and Georg Kresse.                                                      |
|      Carefully verify results versus KPAR=1.                                |
|      Report problems to Paul Kent and Vienna.                               |
|                                                                             |
 ----------------------------------------------------------------------------- 

 POTCAR:    PAW_PBE Mn_pv 02Aug2007               
   VRHFIN =Mn: 3p4s3d                                                           
   LEXCH  = PE                                                                  
   EATOM  =  2025.2664 eV,  148.8529 Ry                                         
                                                                                
   TITEL  = PAW_PBE Mn_pv 02Aug2007                                             
   LULTRA =        F    use ultrasoft PP ?                                      
   IUNSCR =        1    unscreen: 0-lin 1-nonlin 2-no                           
   RPACOR =    2.080    partial core radius                                     
   POMASS =   54.938; ZVAL   =   13.000    mass and valenz                      
   RCORE  =    2.300    outmost cutoff radius                                   
   RWIGS  =    2.500; RWIGS  =    1.323    wigner-seitz radius (au A)           
   ENMAX  =  269.864; ENMIN  =  202.398 eV                                      
   ICORE  =        3    local potential                                         
   LCOR   =        T    correct aug charges                                     
   LPAW   =        T    paw PP                                                  
   EAUG   =  569.085                                                            
   DEXC   =    0.000                                                            
   RMAX   =    2.343    core radius for proj-oper                               
   RAUG   =    1.300    factor for augmentation sphere                          
   RDEP   =    2.338    radius for radial grids                                 
   RDEPT  =    1.798    core radius for aug-charge                              
                                                                                
   Atomic configuration                                                         
    8 entries                                                                   
     n  l   j            E        occ.                                          
     1  0  0.50     -6424.8287   2.0000                                         
     2  0  0.50      -739.1154   2.0000                                         
     2  1  1.50      -625.3949   6.0000                                         
     3  0  0.50       -81.6100   2.0000                                         
     3  1  1.50       -50.4667   6.0000                                         
     3  2  2.50        -3.3745   6.0000                                         
     4  0  0.50        -4.1331   1.0000                                         
     4  3  2.50        -1.3606   0.0000                                         
   Description                                                                  
     l       E           TYP  RCUT    TYP  RCUT                                 
     1    -50.4666628     23  2.000                                             
     1     -1.3605826     23  2.000                                             
     2     -3.3744729     23  2.300                                             
     2     -4.7350555     23  2.300                                             
     0     -4.1331431     23  2.300                                             
     0      7.6656591     23  2.300                                             
     3      9.5240782     23  2.300                                             
  local pseudopotential read in
  partial core-charges read in
  partial kinetic energy density read in
  atomic valenz-charges read in
  non local Contribution for L=           1  read in
    real space projection operators read in
  non local Contribution for L=           1  read in
    real space projection operators read in
  non local Contribution for L=           2  read in
    real space projection operators read in
  non local Contribution for L=           2  read in
    real space projection operators read in
  non local Contribution for L=           0  read in
    real space projection operators read in
  non local Contribution for L=           0  read in
    real space projection operators read in
    PAW grid and wavefunctions read in
 
   number of l-projection  operators is LMAX  =           6
   number of lm-projection operators is LMMAX =          18
 
 POTCAR:    PAW_PBE F 08Apr2002                   
   VRHFIN =F: s2p5                                                              
   LEXCH  = PE                                                                  
   EATOM  =   659.6475 eV,   48.4827 Ry                                         
                                                                                
   TITEL  = PAW_PBE F 08Apr2002                                                 
   LULTRA =        F    use ultrasoft PP ?                                      
   IUNSCR =        1    unscreen: 0-lin 1-nonlin 2-no                           
   RPACOR =    1.200    partial core radius                                     
   POMASS =   18.998; ZVAL   =    7.000    mass and valenz                      
   RCORE  =    1.520    outmost cutoff radius                                   
   RWIGS  =    1.500; RWIGS  =    0.794    wigner-seitz radius (au A)           
   ENMAX  =  400.000; ENMIN  =  300.000 eV                                      
   ICORE  =        2    local potential                                         
   LCOR   =        T    correct aug charges                                     
   LPAW   =        T    paw PP                                                  
   EAUG   =  613.614                                                            
   RMAX   =    1.555    core radius for proj-oper                               
   RAUG   =    1.300    factor for augmentation sphere                          
   RDEP   =    1.539    radius for radial grids                                 
   RDEPT  =    1.299    core radius for aug-charge                              
                                                                                
   Atomic configuration                                                         
    4 entries                                                                   
     n  l   j            E        occ.                                          
     1  0  0.50      -663.3661   2.0000                                         
     2  0  0.50       -29.8995   2.0000                                         
     2  1  0.50       -11.1114   5.0000                                         
     3  2  1.50       -10.8847   0.0000                                         
   Description                                                                  
     l       E           TYP  RCUT    TYP  RCUT                                 
     0    -29.8995018     23  1.200                                             
     0     -9.5240782     23  1.200                                             
     1    -11.1113914     23  1.520                                             
     1      1.3605826     23  1.520                                             
     2    -10.8846608      7  1.500                                             
  local pseudopotential read in
  partial core-charges read in
  partial kinetic energy density read in
  atomic valenz-charges read in
  non local Contribution for L=           0  read in
    real space projection operators read in
  non local Contribution for L=           0  read in
    real space projection operators read in
  non local Contribution for L=           1  read in
    real space projection operators read in
  non local Contribution for L=           1  read in
    real space projection operators read in
    PAW grid and wavefunctions read in
 
   number of l-projection  operators is LMAX  =           4
   number of lm-projection operators is LMMAX =           8
 
 POTCAR:    PAW_PBE H 15Jun2001                   
   VRHFIN =H: ultrasoft test                                                    
   LEXCH  = PE                                                                  
   EATOM  =    12.4884 eV,    0.9179 Ry                                         
                                                                                
   TITEL  = PAW_PBE H 15Jun2001                                                 
   LULTRA =        F    use ultrasoft PP ?                                      
   IUNSCR =        0    unscreen: 0-lin 1-nonlin 2-no                           
   RPACOR =    0.000    partial core radius                                     
   POMASS =    1.000; ZVAL   =    1.000    mass and valenz                      
   RCORE  =    1.100    outmost cutoff radius                                   
   RWIGS  =    0.700; RWIGS  =    0.370    wigner-seitz radius (au A)           
   ENMAX  =  250.000; ENMIN  =  200.000 eV                                      
   RCLOC  =    0.701    cutoff for local pot                                    
   LCOR   =        T    correct aug charges                                     
   LPAW   =        T    paw PP                                                  
   EAUG   =  400.000                                                            
   RMAX   =    1.123    core radius for proj-oper                               
   RAUG   =    1.200    factor for augmentation sphere                          
   RDEP   =    1.112    radius for radial grids                                 
   RDEPT  =    0.926    core radius for aug-charge                              
                                                                                
   Atomic configuration                                                         
    2 entries                                                                   
     n  l   j            E        occ.                                          
     1  0  0.50        -6.4927   1.0000                                         
     2  1  0.50        -3.4015   0.0000                                         
   Description                                                                  
     l       E           TYP  RCUT    TYP  RCUT                                 
     0     -6.4927494     23  1.100                                             
     0      6.8029130     23  1.100                                             
     1     -4.0817478     23  1.100                                             
  local pseudopotential read in
  atomic valenz-charges read in
  non local Contribution for L=           0  read in
    real space projection operators read in
  non local Contribution for L=           0  read in
    real space projection operators read in
  non local Contribution for L=           1  read in
    real space projection operators read in
    PAW grid and wavefunctions read in
 
   number of l-projection  operators is LMAX  =           3
   number of lm-projection operators is LMMAX =           5
 

 ----------------------------------------------------------------------------- 
|                                                                             |
|  ADVICE TO THIS USER RUNNING 'VASP/VAMP'   (HEAR YOUR MASTER'S VOICE ...):  |
|                                                                             |
|      You have a (more or less) 'large supercell' and for larger cells       |
|      it might be more efficient to use real space projection opertators     |
|      So try LREAL= Auto  in the INCAR   file.                               |
|      Mind:          For very  accurate calculation you might also keep the  |
|      reciprocal projection scheme          (i.e. LREAL=.FALSE.)             |
|                                                                             |
 ----------------------------------------------------------------------------- 


 ----------------------------------------------------------------------------- 
|                                                                             |
|  ADVICE TO THIS USER RUNNING 'VASP/VAMP'   (HEAR YOUR MASTER'S VOICE ...):  |
|                                                                             |
|      You enforced a specific xc-type in the INCAR file,                     |
|      a different type was found on the POTCAR file                          |
|          I HOPE YOU KNOW, WHAT YOU ARE  DOING                               |
|                                                                             |
 ----------------------------------------------------------------------------- 

  PAW_PBE Mn_pv 02Aug2007               :
 energy of atom  1       EATOM=-2025.2664
 kinetic energy error for atom=    0.0020 (will be added to EATOM!!)
  PAW_PBE F 08Apr2002                   :
 energy of atom  2       EATOM= -659.6475
 kinetic energy error for atom=    0.0140 (will be added to EATOM!!)
  PAW_PBE H 15Jun2001                   :
 energy of atom  3       EATOM=  -12.4884
 kinetic energy error for atom=    0.0002 (will be added to EATOM!!)
 
 
 POSCAR: Mn  F  H                                
  positions in direct lattice
  velocities in cartesian coordinates
 exchange correlation table for  LEXCH =       14
   RHO(1)=    0.500       N(1)  =     2000
   RHO(2)=  100.500       N(2)  =     4000
 


--------------------------------------------------------------------------------------------------------


 ion  position               nearest neighbor table
   1  0.172  0.169  0.130-  73 2.07  80 2.08  74 2.09  76 2.10  79 2.10  75 2.37
   2  0.988  0.995  0.000- 204 2.02 182 2.08 170 2.08 105 2.14 117 2.14  75 2.26
   3  0.167  0.165  0.376-  77 2.09  78 2.09  83 2.11  84 2.12  80 2.13  79 2.15
   4  0.998  0.000  0.250- 208 2.10 174 2.11  79 2.11 109 2.12 170 2.14 105 2.14
   5  0.167  0.165  0.624-  81 2.09  82 2.09  83 2.11  84 2.12  88 2.13  87 2.15
   6  0.999  1.000  0.500- 212 2.08  83 2.09 174 2.13 178 2.13 113 2.13 109 2.13
   7  0.172  0.169  0.870-  85 2.07  88 2.08  86 2.09  76 2.10  87 2.10  75 2.37
   8  0.998  0.000  0.750- 216 2.10 178 2.11  87 2.11 113 2.12 182 2.14 117 2.14
   9  0.167  0.500  0.125-  89 2.10  90 2.10  96 2.12  95 2.12  91 2.13  92 2.13
  10  0.001  0.333  0.000-  91 2.09 172 2.09 186 2.12 198 2.12  85 2.14  73 2.14
  11  0.167  0.500  0.375-  93 2.09  94 2.09 100 2.13  99 2.13  95 2.14  96 2.14
  12  0.001  0.332  0.250- 176 2.09  95 2.09 186 2.12  77 2.12 190 2.13  73 2.17
  13  0.167  0.500  0.625-  97 2.09  98 2.09  99 2.13 100 2.13 104 2.14 103 2.14
  14  0.001  0.333  0.500- 180 2.09  99 2.09 190 2.13 194 2.13  81 2.14  77 2.14
  15  0.167  0.500  0.875- 101 2.10 102 2.10 103 2.12 104 2.12  92 2.13  91 2.13
  16  0.001  0.332  0.750- 184 2.09 103 2.09 198 2.12  81 2.12 194 2.13  85 2.17
  17  0.161  0.831  0.130- 106 2.07 111 2.08 105 2.09 107 2.10 112 2.10 108 2.37
  18  0.001  0.667  0.000- 188 2.09  89 2.12 101 2.12 202 2.12 214 2.12 107 2.15
  19  0.167  0.835  0.376- 110 2.09 109 2.09 116 2.11 115 2.12 111 2.13 112 2.15
  20  0.999  0.666  0.251- 192 2.08 111 2.10  93 2.12 206 2.12  89 2.13 202 2.14
  21  0.167  0.835  0.624- 114 2.09 113 2.09 116 2.11 115 2.12 119 2.13 120 2.15
  22  0.000  0.667  0.500- 196 2.09 115 2.10  97 2.13  93 2.13 206 2.13 210 2.13
  23  0.161  0.831  0.870- 118 2.07 119 2.08 117 2.09 107 2.10 120 2.10 108 2.37
  24  0.999  0.666  0.749- 200 2.08 119 2.10  97 2.12 210 2.12 101 2.13 214 2.14
  25  0.504  0.170  0.127- 122 2.10 128 2.10 121 2.10 124 2.12 123 2.12 127 2.14
  26  0.346  0.005  0.000- 123 2.02 153 2.08 165 2.08  86 2.14  74 2.14 108 2.26
  27  0.500  0.167  0.375- 126 2.09 125 2.09 132 2.12 131 2.13 128 2.13 127 2.14
  28  0.335  1.000  0.250- 127 2.10 157 2.11 112 2.11  78 2.12 153 2.14  74 2.14
  29  0.500  0.167  0.625- 130 2.09 129 2.09 132 2.12 131 2.13 136 2.13 135 2.14
  30  0.335  0.000  0.500- 131 2.08 116 2.09 161 2.13 157 2.13  78 2.13  82 2.13
  31  0.504  0.170  0.873- 134 2.10 136 2.10 133 2.10 124 2.12 123 2.12 135 2.14
  32  0.335  1.000  0.750- 135 2.10 161 2.11 120 2.11  82 2.12 165 2.14  86 2.14
  33  0.499  0.500  0.125- 138 2.10 137 2.10 143 2.12 140 2.12 144 2.12 139 2.13
  34  0.333  0.333  0.000- 139 2.09  90 2.12 102 2.12 133 2.12 121 2.12  76 2.15
  35  0.499  0.501  0.375- 142 2.10 141 2.10 148 2.12 147 2.13 144 2.13 143 2.13
  36  0.334  0.334  0.251- 143 2.08  80 2.10  94 2.12 125 2.12  90 2.13 121 2.14
  37  0.499  0.501  0.625- 146 2.10 145 2.10 148 2.12 147 2.13 152 2.13 151 2.13
  38  0.333  0.333  0.500- 147 2.09  84 2.10  94 2.13  98 2.13 125 2.13 129 2.13
  39  0.499  0.500  0.875- 150 2.10 149 2.10 151 2.12 140 2.12 152 2.12 139 2.13
  40  0.334  0.334  0.749- 151 2.08  88 2.10  98 2.12 129 2.12 102 2.13 133 2.14
  41  0.501  0.832  0.125- 154 2.09 153 2.12 160 2.12 159 2.12 155 2.13 156 2.13
  42  0.333  0.667  0.000-  92 2.09 155 2.09 149 2.12 137 2.12 106 2.14 118 2.14
  43  0.501  0.833  0.375- 158 2.09 157 2.10 164 2.13 163 2.13 160 2.13 159 2.13
  44  0.332  0.668  0.250- 159 2.09  96 2.09 137 2.12 110 2.12 141 2.13 106 2.17
  45  0.501  0.833  0.625- 162 2.09 161 2.10 164 2.13 163 2.13 168 2.13 167 2.13
  46  0.333  0.667  0.500- 163 2.09 100 2.09 141 2.13 145 2.13 110 2.14 114 2.14
  47  0.501  0.832  0.875- 166 2.09 165 2.12 168 2.12 167 2.12 155 2.13 156 2.13
  48  0.332  0.668  0.750- 167 2.09 104 2.09 149 2.12 114 2.12 145 2.13 118 2.17
  49  0.832  0.168  0.125- 169 2.09 170 2.12 175 2.12 176 2.12 172 2.13 171 2.13
  50  0.667  1.000  0.000- 156 2.10 171 2.10 122 2.13 213 2.13 134 2.13 201 2.13
  51  0.833  0.167  0.375- 173 2.09 174 2.10 179 2.13 180 2.13 175 2.13 176 2.13
  52  0.667  1.000  0.250- 175 2.10 160 2.10 205 2.12 126 2.12 201 2.13 122 2.13
  53  0.833  0.167  0.625- 177 2.09 178 2.10 179 2.13 180 2.13 183 2.13 184 2.13
  54  0.667  1.000  0.500- 179 2.10 164 2.10 126 2.13 209 2.13 130 2.13 205 2.13
  55  0.832  0.168  0.875- 181 2.09 182 2.12 183 2.12 184 2.12 172 2.13 171 2.13
  56  0.667  1.000  0.750- 183 2.10 168 2.10 130 2.12 209 2.12 213 2.13 134 2.13
  57  0.835  0.499  0.125- 185 2.10 186 2.10 192 2.12 187 2.12 191 2.12 188 2.13
  58  0.667  0.336  0.000- 124 2.08 187 2.08 138 2.13 150 2.13 181 2.13 169 2.13
  59  0.834  0.499  0.375- 189 2.10 190 2.10 195 2.12 196 2.13 191 2.13 192 2.13
  60  0.667  0.335  0.251- 191 2.08 128 2.09 142 2.12 173 2.13 138 2.13 169 2.13
  61  0.834  0.499  0.625- 193 2.10 194 2.10 195 2.12 196 2.13 199 2.13 200 2.13
  62  0.666  0.334  0.500- 132 2.09 195 2.09 146 2.13 142 2.13 173 2.13 177 2.13
  63  0.835  0.499  0.875- 197 2.10 198 2.10 200 2.12 187 2.12 199 2.12 188 2.13
  64  0.667  0.335  0.750- 199 2.08 136 2.09 146 2.12 177 2.13 150 2.13 181 2.13
  65  0.830  0.830  0.127- 201 2.10 207 2.10 202 2.10 203 2.12 204 2.12 208 2.14
  66  0.666  0.664  0.000- 203 2.08 140 2.08 197 2.13 185 2.13 154 2.13 166 2.13
  67  0.833  0.833  0.375- 205 2.09 206 2.09 211 2.12 212 2.13 207 2.13 208 2.14
  68  0.667  0.664  0.251- 144 2.08 207 2.09 189 2.12 158 2.13 185 2.13 154 2.13
  69  0.833  0.833  0.625- 209 2.09 210 2.09 211 2.12 212 2.13 215 2.13 216 2.14
  70  0.667  0.666  0.500- 211 2.09 148 2.09 193 2.13 189 2.13 162 2.13 158 2.13
  71  0.830  0.830  0.873- 213 2.10 215 2.10 214 2.10 203 2.12 204 2.12 216 2.14
  72  0.667  0.664  0.750- 152 2.08 215 2.09 193 2.12 162 2.13 197 2.13 166 2.13
  73  0.065  0.262  0.123-   1 2.07  10 2.14  12 2.17
  74  0.275  0.070  0.124-   1 2.09  28 2.14  26 2.14
  75  0.124  0.067  0.000- 217 1.16   2 2.26   7 2.37   1 2.37
  76  0.228  0.230  0.000-   7 2.10   1 2.10  34 2.15
  77  0.065  0.265  0.375-   3 2.09  12 2.12  14 2.14
  78  0.270  0.065  0.374-   3 2.09  28 2.12  30 2.13
  79  0.105  0.098  0.247-   1 2.10   4 2.11   3 2.15
  80  0.233  0.233  0.253-   1 2.08  36 2.10   3 2.13
  81  0.065  0.265  0.625-   5 2.09  16 2.12  14 2.14
  82  0.270  0.065  0.626-   5 2.09  32 2.12  30 2.13
  83  0.102  0.099  0.500-   6 2.09   3 2.11   5 2.11
  84  0.232  0.231  0.500-  38 2.10   5 2.12   3 2.12
  85  0.065  0.262  0.877-   7 2.07  10 2.14  16 2.17
  86  0.275  0.070  0.876-   7 2.09  32 2.14  26 2.14
  87  0.105  0.098  0.753-   7 2.10   8 2.11   5 2.15
  88  0.233  0.233  0.747-   7 2.08  40 2.10   5 2.13
  89  0.066  0.603  0.125-   9 2.10  18 2.12  20 2.13
  90  0.267  0.397  0.125-   9 2.10  34 2.12  36 2.13
  91  0.102  0.433  0.000-  10 2.09   9 2.13  15 2.13
  92  0.231  0.566  0.000-  42 2.09  15 2.13   9 2.13
  93  0.065  0.600  0.375-  11 2.09  20 2.12  22 2.13
  94  0.269  0.399  0.375-  11 2.09  36 2.12  38 2.13
  95  0.103  0.433  0.249-  12 2.09   9 2.12  11 2.14
  96  0.231  0.567  0.249-  44 2.09   9 2.12  11 2.14
  97  0.065  0.600  0.625-  13 2.09  24 2.12  22 2.13
  98  0.269  0.399  0.625-  13 2.09  40 2.12  38 2.13
  99  0.103  0.433  0.500-  14 2.09  13 2.13  11 2.13
 100  0.231  0.567  0.500-  46 2.09  11 2.13  13 2.13
 101  0.066  0.603  0.875-  15 2.10  18 2.12  24 2.13
 102  0.267  0.397  0.875-  15 2.10  34 2.12  40 2.13
 103  0.103  0.433  0.751-  16 2.09  15 2.12  13 2.14
 104  0.231  0.567  0.751-  48 2.09  15 2.12  13 2.14
 105  0.058  0.930  0.124-  17 2.09   4 2.14   2 2.14
 106  0.268  0.738  0.123-  17 2.07  42 2.14  44 2.17
 107  0.105  0.770  0.000-  17 2.10  23 2.10  18 2.15
 108  0.210  0.933  0.000- 217 1.16  26 2.26  17 2.37  23 2.37
 109  0.064  0.935  0.374-  19 2.09   4 2.12   6 2.13
 110  0.268  0.735  0.375-  19 2.09  44 2.12  46 2.14
 111  0.101  0.767  0.253-  17 2.08  20 2.10  19 2.13
 112  0.229  0.902  0.247-  17 2.10  28 2.11  19 2.15
 113  0.064  0.935  0.626-  21 2.09   8 2.12   6 2.13
 114  0.268  0.735  0.625-  21 2.09  48 2.12  46 2.14
 115  0.102  0.769  0.500-  22 2.10  21 2.12  19 2.12
 116  0.231  0.901  0.500-  30 2.09  21 2.11  19 2.11
 117  0.058  0.930  0.876-  23 2.09   8 2.14   2 2.14
 118  0.268  0.738  0.877-  23 2.07  42 2.14  48 2.17
 119  0.101  0.767  0.747-  23 2.08  24 2.10  21 2.13
 120  0.229  0.902  0.753-  23 2.10  32 2.11  21 2.15
 121  0.397  0.267  0.125-  25 2.10  34 2.12  36 2.14
 122  0.604  0.068  0.125-  25 2.10  50 2.13  52 2.13
 123  0.443  0.104  0.000-  26 2.02  25 2.12  31 2.12
 124  0.565  0.236  0.000-  58 2.08  31 2.12  25 2.12
 125  0.398  0.267  0.375-  27 2.09  36 2.12  38 2.13
 126  0.602  0.066  0.375-  27 2.09  52 2.12  54 2.13
 127  0.437  0.100  0.249-  28 2.10  27 2.14  25 2.14
 128  0.565  0.235  0.252-  60 2.09  25 2.10  27 2.13
 129  0.398  0.267  0.625-  29 2.09  40 2.12  38 2.13
 130  0.602  0.066  0.625-  29 2.09  56 2.12  54 2.13
 131  0.436  0.101  0.500-  30 2.08  27 2.13  29 2.13
 132  0.565  0.233  0.500-  62 2.09  29 2.12  27 2.12
 133  0.397  0.267  0.875-  31 2.10  34 2.12  40 2.14
 134  0.604  0.068  0.875-  31 2.10  50 2.13  56 2.13
 135  0.437  0.100  0.751-  32 2.10  29 2.14  31 2.14
 136  0.565  0.235  0.748-  64 2.09  31 2.10  29 2.13
 137  0.396  0.602  0.125-  33 2.10  42 2.12  44 2.12
 138  0.601  0.401  0.125-  33 2.10  58 2.13  60 2.13
 139  0.433  0.435  0.000-  34 2.09  33 2.13  39 2.13
 140  0.563  0.566  0.000-  66 2.08  33 2.12  39 2.12
 141  0.397  0.602  0.375-  35 2.10  46 2.13  44 2.13
 142  0.602  0.401  0.375-  35 2.10  60 2.12  62 2.13
 143  0.435  0.435  0.250-  36 2.08  33 2.12  35 2.13
 144  0.563  0.566  0.250-  68 2.08  33 2.12  35 2.13
 145  0.397  0.602  0.625-  37 2.10  46 2.13  48 2.13
 146  0.602  0.401  0.625-  37 2.10  64 2.12  62 2.13
 147  0.434  0.435  0.500-  38 2.09  35 2.13  37 2.13
 148  0.564  0.567  0.500-  70 2.09  37 2.12  35 2.12
 149  0.396  0.602  0.875-  39 2.10  42 2.12  48 2.12
 150  0.601  0.401  0.875-  39 2.10  58 2.13  64 2.13
 151  0.435  0.435  0.750-  40 2.08  39 2.12  37 2.13
 152  0.563  0.566  0.750-  72 2.08  39 2.12  37 2.13
 153  0.395  0.931  0.123-  26 2.08  41 2.12  28 2.14
 154  0.603  0.732  0.125-  41 2.09  66 2.13  68 2.13
 155  0.436  0.767  0.000-  42 2.09  47 2.13  41 2.13
 156  0.562  0.901  0.000-  50 2.10  41 2.13  47 2.13
 157  0.398  0.933  0.375-  43 2.10  28 2.11  30 2.13
 158  0.602  0.732  0.375-  43 2.09  68 2.13  70 2.13
 159  0.435  0.768  0.250-  44 2.09  41 2.12  43 2.13
 160  0.563  0.900  0.249-  52 2.10  41 2.12  43 2.13
 161  0.398  0.933  0.625-  45 2.10  32 2.11  30 2.13
 162  0.602  0.732  0.625-  45 2.09  72 2.13  70 2.13
 163  0.435  0.768  0.500-  46 2.09  43 2.13  45 2.13
 164  0.565  0.899  0.500-  54 2.10  45 2.13  43 2.13
 165  0.395  0.931  0.877-  26 2.08  47 2.12  32 2.14
 166  0.603  0.732  0.875-  47 2.09  66 2.13  72 2.13
 167  0.435  0.768  0.750-  48 2.09  47 2.12  45 2.13
 168  0.563  0.900  0.751-  56 2.10  47 2.12  45 2.13
 169  0.731  0.268  0.125-  49 2.09  58 2.13  60 2.13
 170  0.938  0.069  0.123-   2 2.08  49 2.12   4 2.14
 171  0.772  0.099  0.000-  50 2.10  55 2.13  49 2.13
 172  0.898  0.233  0.000-  10 2.09  49 2.13  55 2.13
 173  0.731  0.268  0.375-  51 2.09  60 2.13  62 2.13
 174  0.936  0.067  0.375-  51 2.10   4 2.11   6 2.13
 175  0.770  0.100  0.249-  52 2.10  49 2.12  51 2.13
 176  0.899  0.232  0.250-  12 2.09  49 2.12  51 2.13
 177  0.731  0.268  0.625-  53 2.09  64 2.13  62 2.13
 178  0.936  0.067  0.625-  53 2.10   8 2.11   6 2.13
 179  0.769  0.101  0.500-  54 2.10  51 2.13  53 2.13
 180  0.899  0.232  0.500-  14 2.09  53 2.13  51 2.13
 181  0.731  0.268  0.875-  55 2.09  58 2.13  64 2.13
 182  0.938  0.069  0.877-   2 2.08  55 2.12   8 2.14
 183  0.770  0.100  0.751-  56 2.10  55 2.12  53 2.13
 184  0.899  0.232  0.750-  16 2.09  55 2.12  53 2.13
 185  0.732  0.599  0.125-  57 2.10  66 2.13  68 2.13
 186  0.937  0.398  0.125-  57 2.10  10 2.12  12 2.12
 187  0.770  0.434  0.000-  58 2.08  57 2.12  63 2.12
 188  0.900  0.565  0.000-  18 2.09  63 2.13  57 2.13
 189  0.732  0.599  0.375-  59 2.10  68 2.12  70 2.13
 190  0.937  0.398  0.375-  59 2.10  14 2.13  12 2.13
 191  0.770  0.434  0.250-  60 2.08  57 2.12  59 2.13
 192  0.899  0.565  0.250-  20 2.08  57 2.12  59 2.13
 193  0.732  0.599  0.625-  61 2.10  72 2.12  70 2.13
 194  0.937  0.398  0.626-  61 2.10  14 2.13  16 2.13
 195  0.770  0.433  0.500-  62 2.09  59 2.12  61 2.12
 196  0.899  0.565  0.500-  22 2.09  61 2.13  59 2.13
 197  0.732  0.599  0.875-  63 2.10  66 2.13  72 2.13
 198  0.937  0.398  0.875-  63 2.10  10 2.12  16 2.12
 199  0.770  0.434  0.750-  64 2.08  63 2.12  61 2.13
 200  0.899  0.565  0.750-  24 2.08  63 2.12  61 2.13
 201  0.729  0.932  0.125-  65 2.10  50 2.13  52 2.13
 202  0.937  0.733  0.125-  65 2.10  18 2.12  20 2.14
 203  0.768  0.764  0.000-  66 2.08  65 2.12  71 2.12
 204  0.890  0.896  0.000-   2 2.02  71 2.12  65 2.12
 205  0.731  0.934  0.375-  67 2.09  52 2.12  54 2.13
 206  0.935  0.733  0.375-  67 2.09  20 2.12  22 2.13
 207  0.768  0.765  0.252-  68 2.09  65 2.10  67 2.13
 208  0.896  0.900  0.249-   4 2.10  67 2.14  65 2.14
 209  0.731  0.934  0.625-  69 2.09  56 2.12  54 2.13
 210  0.935  0.733  0.625-  69 2.09  24 2.12  22 2.13
 211  0.768  0.767  0.500-  70 2.09  67 2.12  69 2.12
 212  0.898  0.899  0.500-   6 2.08  69 2.13  67 2.13
 213  0.729  0.932  0.875-  71 2.10  50 2.13  56 2.13
 214  0.937  0.733  0.875-  71 2.10  18 2.12  24 2.14
 215  0.768  0.765  0.748-  72 2.09  71 2.10  69 2.13
 216  0.896  0.900  0.751-   8 2.10  69 2.14  71 2.14
 217  0.167  1.000  0.000-  75 1.16 108 1.16
 

IMPORTANT INFORMATION: All symmetrisations will be switched off!
NOSYMM: (Re-)initialisation of all symmetry stuff for point group C_1.

 
 
 KPOINTS: KPOINTS created by Atomic Simulation Env

Automatic generation of k-mesh.
Space group operators:
 irot       det(A)        alpha          n_x          n_y          n_z        tau_x        tau_y        tau_z
    1     1.000000     0.000000     1.000000     0.000000     0.000000     0.000000     0.000000     0.000000
 
 Subroutine IBZKPT returns following result:
 ===========================================
 
 Found      4 irreducible k-points:
 
 Following reciprocal coordinates:
            Coordinates               Weight
  0.250000  0.250000  0.250000      2.000000
 -0.250000  0.250000  0.250000      2.000000
  0.250000 -0.250000  0.250000      2.000000
 -0.250000 -0.250000  0.250000      2.000000
 
 Following cartesian coordinates:
            Coordinates               Weight
  0.017111  0.017111  0.018996      2.000000
 -0.017111  0.017111  0.018996      2.000000
  0.017111 -0.017111  0.018996      2.000000
 -0.017111 -0.017111  0.018996      2.000000
 


--------------------------------------------------------------------------------------------------------




 Dimension of arrays:
   k-points           NKPTS =      4   k-points in BZ     NKDIM =      4   number of bands    NBANDS=   1170
   number of dos      NEDOS =    301   number of ions     NIONS =    217
   non local maximal  LDIM  =      6   non local SUM 2l+1 LMDIM =     18
   total plane-waves  NPLWV = 829440
   max r-space proj   IRMAX =      1   max aug-charges    IRDMAX=  71863
   dimension x,y,z NGX =    96 NGY =   96 NGZ =   90
   dimension x,y,z NGXF=   192 NGYF=  192 NGZF=  180
   support grid    NGXF=   384 NGYF=  384 NGZF=  360
   ions per type =              72 144   1
   NGX,Y,Z   is equivalent  to a cutoff of  10.92, 10.92, 11.37 a.u.
   NGXF,Y,Z  is equivalent  to a cutoff of  21.85, 21.85, 22.74 a.u.

 SYSTEM =  unknown system                          
 POSCAR =  Mn  F  H                                

 Startparameter for this run:
   NWRITE =      2    write-flag & timer
   PREC   = normal    normal or accurate (medium, high low for compatibility)
   ISTART =      0    job   : 0-new  1-cont  2-samecut
   ICHARG =      2    charge: 1-file 2-atom 10-const
   ISPIN  =      2    spin polarized calculation?
   LNONCOLLINEAR =      F non collinear calculations
   LSORBIT =      F    spin-orbit coupling
   INIWAV =      1    electr: 0-lowe 1-rand  2-diag
   LASPH  =      T    aspherical Exc in radial PAW
   METAGGA=      F    non-selfconsistent MetaGGA calc.

 Electronic Relaxation 1
   ENCUT  =  700.0 eV  51.45 Ry    7.17 a.u.  31.52 31.52 28.39*2*pi/ulx,y,z
   ENINI  =  700.0     initial cutoff
   ENAUG  =  613.6 eV  augmentation charge cutoff
   NELM   =     60;   NELMIN=  2; NELMDL= -5     # of ELM steps 
   EDIFF  = 0.1E-06   stopping-criterion for ELM
   LREAL  =      F    real-space projection
   NLSPLINE    = F    spline interpolate recip. space projectors
   LCOMPAT=      F    compatible to vasp.4.4
   GGA_COMPAT  = T    GGA compatible to vasp.4.4-vasp.4.6
   LMAXPAW     = -100 max onsite density
   LMAXMIX     =    4 max onsite mixed and CHGCAR
   VOSKOWN=      0    Vosko Wilk Nusair interpolation
   ROPT   =    0.00000   0.00000   0.00000
 Ionic relaxation
   EDIFFG = -.5E-02   stopping-criterion for IOM
   NSW    =      0    number of steps for IOM
   NBLOCK =      1;   KBLOCK =      1    inner block; outer block 
   IBRION =     -1    ionic relax: 0-MD 1-quasi-New 2-CG
   NFREE  =      0    steps in history (QN), initial steepest desc. (CG)
   ISIF   =      2    stress and relaxation
   IWAVPR =     10    prediction:  0-non 1-charg 2-wave 3-comb
   ISYM   =      0    0-nonsym 1-usesym 2-fastsym
   LCORR  =      T    Harris-Foulkes like correction to forces

   POTIM  = 0.5000    time-step for ionic-motion
   TEIN   =    0.0    initial temperature
   TEBEG  =    0.0;   TEEND  =   0.0 temperature during run
   SMASS  =  -3.00    Nose mass-parameter (am)
   estimated Nose-frequenzy (Omega)   =  0.10E-29 period in steps =****** mass=  -0.488E-26a.u.
   SCALEE = 1.0000    scale energy and forces
   NPACO  =    256;   APACO  = 16.0  distance and # of slots for P.C.
   PSTRESS=    0.0 pullay stress

  Mass of Ions in am
   POMASS =  54.94 19.00  1.00
  Ionic Valenz
   ZVAL   =  13.00  7.00  1.00
  Atomic Wigner-Seitz radii
   RWIGS  =  -1.00 -1.00 -1.00
  virtual crystal weights 
   VCA    =   1.00  1.00  1.00
   NELECT =    1944.0000    total number of electrons
   NUPDOWN=      -1.0000    fix difference up-down

 DOS related values:
   EMIN   =  10.00;   EMAX   =-10.00  energy-range for DOS
   EFERMI =   0.00
   ISMEAR =     0;   SIGMA  =   0.02  broadening in eV -4-tet -1-fermi 0-gaus

 Electronic relaxation 2 (details)
   IALGO  =     68    algorithm
   LDIAG  =      T    sub-space diagonalisation (order eigenvalues)
   LSUBROT=      F    optimize rotation matrix (better conditioning)
   TURBO    =      0    0=normal 1=particle mesh
   IRESTART =      0    0=no restart 2=restart with 2 vectors
   NREBOOT  =      0    no. of reboots
   NMIN     =      0    reboot dimension
   EREF     =   0.00    reference energy to select bands
   IMIX   =      4    mixing-type and parameters
     AMIX     =   0.40;   BMIX     =  1.00
     AMIX_MAG =   1.60;   BMIX_MAG =  1.00
     AMIN     =   0.10
     WC   =   100.;   INIMIX=   1;  MIXPRE=   1;  MAXMIX= -45

 Intra band minimization:
   WEIMIN = 0.0000     energy-eigenvalue tresh-hold
   EBREAK =  0.21E-10  absolut break condition
   DEPER  =   0.30     relativ break condition  

   TIME   =   0.40     timestep for ELM

  volume/ion in A,a.u.               =      12.95        87.36
  Fermi-wavevector in a.u.,A,eV,Ry     =   1.448042  2.736403 28.529059  2.096827
  Thomas-Fermi vector in A             =   2.565928
 
 Write flags
   LWAVE        =      T    write WAVECAR
   LDOWNSAMPLE  =      F    k-point downsampling of WAVECAR
   LCHARG       =      T    write CHGCAR
   LVTOT        =      F    write LOCPOT, total local potential
   LVHAR        =      F    write LOCPOT, Hartree potential only
   LELF         =      F    write electronic localiz. function (ELF)
   LORBIT       =     11    0 simple, 1 ext, 2 COOP (PROOUT), +10 PAW based schemes


 Dipole corrections
   LMONO  =      F    monopole corrections only (constant potential shift)
   LDIPOL =      F    correct potential (dipole corrections)
   IDIPOL =      0    1-x, 2-y, 3-z, 4-all directions 
   EPSILON=  1.0000000 bulk dielectric constant

 LDA+U is selected, type is set to LDAUTYPE =  2
   angular momentum for each species LDAUL =     2   -1   -1
   U (eV)           for each species LDAUU =   2.0  0.0  0.0
   J (eV)           for each species LDAUJ =   0.0  0.0  0.0
 Exchange correlation treatment:
   GGA     =    PS    GGA type
   LEXCH   =    14    internal setting for exchange type
   VOSKOWN=      0    Vosko Wilk Nusair interpolation
   LHFCALC =     F    Hartree Fock is set to
   LHFONE  =     F    Hartree Fock one center treatment
   AEXX    =    0.0000 exact exchange contribution

 Linear response parameters
   LEPSILON=     F    determine dielectric tensor
   LRPA    =     F    only Hartree local field effects (RPA)
   LNABLA  =     F    use nabla operator in PAW spheres
   LVEL    =     F    velocity operator in full k-point grid
   LINTERFAST=   F  fast interpolation
   KINTER  =     0    interpolate to denser k-point grid
   CSHIFT  =0.1000    complex shift for real part using Kramers Kronig
   OMEGAMAX=  -1.0    maximum frequency
   DEG_THRESHOLD= 0.2000000E-02 threshold for treating states as degnerate
   RTIME   =   -0.100 relaxation time in fs
  (WPLASMAI=    0.000 imaginary part of plasma frequency in eV, 0.658/RTIME)
   DFIELD  = 0.0000000 0.0000000 0.0000000 field for delta impulse in time
 
 Orbital magnetization related:
   ORBITALMAG=     F  switch on orbital magnetization
   LCHIMAG   =     F  perturbation theory with respect to B field
   DQ        =  0.001000  dq finite difference perturbation B field
   LLRAUG    =     F  two centre corrections for induced B field



--------------------------------------------------------------------------------------------------------


 Static calculation
 charge density and potential will be updated during run
 spin polarized calculation
 RMM-DIIS sequential band-by-band and
  variant of blocked Davidson during initial phase
 perform sub-space diagonalisation
    before iterative eigenvector-optimisation
 modified Broyden-mixing scheme, WC =      100.0
 initial mixing is a Kerker type mixing with AMIX =  0.4000 and BMIX =      1.0000
 Hartree-type preconditioning will be used
 using additional bands          198
 reciprocal scheme for non local part
 use partial core corrections
 calculate Harris-corrections to forces 
   (improved forces if not selfconsistent)
 use gradient corrections 
 use of overlap-Matrix (Vanderbilt PP)
 Gauss-broadening in eV      SIGMA  =   0.02


--------------------------------------------------------------------------------------------------------


  energy-cutoff  :      700.00
  volume of cell :     2809.16
      direct lattice vectors                 reciprocal lattice vectors
    14.610086635  0.000000000  0.000000000     0.068445864  0.000000000  0.000000000
     0.000000000 14.610086635  0.000000000     0.000000000  0.068445864  0.000000000
     0.000000000  0.000000000 13.160468869     0.000000000  0.000000000  0.075985135

  length of vectors
    14.610086635 14.610086635 13.160468869     0.068445864  0.068445864  0.075985135


 
 k-points in units of 2pi/SCALE and weight: KPOINTS created by Atomic Simulation Env
   0.01711147  0.01711147  0.01899628       0.250
  -0.01711147  0.01711147  0.01899628       0.250
   0.01711147 -0.01711147  0.01899628       0.250
  -0.01711147 -0.01711147  0.01899628       0.250
 
 k-points in reciprocal lattice and weights: KPOINTS created by Atomic Simulation Env
   0.25000000  0.25000000  0.25000000       0.250
  -0.25000000  0.25000000  0.25000000       0.250
   0.25000000 -0.25000000  0.25000000       0.250
  -0.25000000 -0.25000000  0.25000000       0.250
 
 position of ions in fractional coordinates (direct lattice) 
   0.17206628  0.16853396  0.12993184
   0.98754085  0.99456787  0.00002484
   0.16661233  0.16475417  0.37618677
   0.99823826  0.00035499  0.25031544
   0.16661790  0.16476320  0.62387165
   0.99873711  0.99986526  0.50002422
   0.17206447  0.16853781  0.87012745
   0.99824070  0.00036464  0.74973358
   0.16668638  0.49994529  0.12504075
   0.00054259  0.33283874  0.00003533
   0.16669472  0.49995089  0.37504790
   0.00119631  0.33175123  0.24991605
   0.16669399  0.49995483  0.62498798
   0.00059890  0.33261076  0.50003457
   0.16668642  0.49995073  0.87499498
   0.00119683  0.33175711  0.75015412
   0.16130826  0.83134973  0.12991293
   0.00057315  0.66704770  0.00002240
   0.16677371  0.83514371  0.37616932
   0.99912683  0.66567305  0.25079292
   0.16676637  0.83514217  0.62385186
   0.00020267  0.66684374  0.50002350
   0.16130502  0.83135280  0.87010879
   0.99911984  0.66567715  0.74925397
   0.50379095  0.17037301  0.12659031
   0.34583079  0.00532042  0.00001852
   0.50035729  0.16661798  0.37532139
   0.33514131  0.99953326  0.25030874
   0.50034521  0.16661339  0.62473152
   0.33464727  0.00003945  0.50001881
   0.50379267  0.17038088  0.87345950
   0.33513606  0.99953658  0.74973023
   0.49850229  0.50045391  0.12506109
   0.33279087  0.33284966  0.00002100
   0.49910071  0.50081027  0.37544777
   0.33426206  0.33420873  0.25078804
   0.49910282  0.50081943  0.62458986
   0.33317461  0.33306329  0.50002082
   0.49850663  0.50046371  0.87497560
   0.33426133  0.33421889  0.74925526
   0.50106555  0.83177011  0.12512524
   0.33283750  0.66705114  0.00001043
   0.50063647  0.83264406  0.37509464
   0.33218491  0.66814252  0.24988974
   0.50064201  0.83265306  0.62494510
   0.33279307  0.66728938  0.50001062
   0.50106520  0.83177151  0.87491315
   0.33218322  0.66815091  0.75013069
   0.83231250  0.16811653  0.12514263
   0.66668721  0.99994776  0.00002654
   0.83274368  0.16725312  0.37510944
   0.66669304  0.99994200  0.25006028
   0.83274787  0.16726037  0.62496063
   0.66668894  0.99995777  0.50002737
   0.83231624  0.16812371  0.87492846
   0.66669344  0.99995145  0.74999411
   0.83487969  0.49943132  0.12507629
   0.66705670  0.33604390  0.00002844
   0.83428074  0.49908172  0.37546063
   0.66687113  0.33544511  0.25053717
   0.83427777  0.49908245  0.62460031
   0.66634994  0.33384957  0.50002960
   0.83487328  0.49942980  0.87498745
   0.66686849  0.33545160  0.74951857
   0.82958363  0.82951007  0.12659278
   0.66632936  0.66383813  0.00002634
   0.83302788  0.83328079  0.37532225
   0.66650447  0.66444489  0.25053539
   0.83303074  0.83328961  0.62472905
   0.66703249  0.66604928  0.50002534
   0.82958487  0.82951864  0.87345829
   0.66650888  0.66445273  0.74951577
   0.06526214  0.26172670  0.12292225
   0.27516378  0.06950087  0.12370929
   0.12386030  0.06706148  0.00002361
   0.22831541  0.22960615  0.00002967
   0.06508396  0.26535540  0.37463952
   0.26950805  0.06523637  0.37423212
   0.10473189  0.09816910  0.24742353
   0.23257723  0.23299742  0.25338996
   0.06509173  0.26536640  0.62542946
   0.26951685  0.06524838  0.62580567
   0.10226337  0.09872956  0.50003268
   0.23177800  0.23121885  0.50002463
   0.06525785  0.26172634  0.87714699
   0.27516053  0.06950173  0.87633405
   0.10474302  0.09816737  0.75263037
   0.23257274  0.23300951  0.74667261
   0.06624004  0.60274703  0.12476492
   0.26712624  0.39713571  0.12477316
   0.10232174  0.43343617  0.00001840
   0.23105887  0.56645388  0.00001676
   0.06468748  0.60042496  0.37515799
   0.26870337  0.39947786  0.37514353
   0.10270160  0.43286403  0.24941812
   0.23066793  0.56704356  0.24940526
   0.06468266  0.60042450  0.62489069
   0.26870542  0.39948459  0.62489547
   0.10268405  0.43313992  0.50002100
   0.23070968  0.56675905  0.50001533
   0.06624323  0.60275526  0.87527641
   0.26712665  0.39714139  0.87527069
   0.10269896  0.43287098  0.75062455
   0.23067479  0.56704209  0.75062749
   0.05820808  0.93038320  0.12371006
   0.26811825  0.73816425  0.12289585
   0.10505664  0.77027951  0.00001229
   0.20951280  0.93281534  0.00001431
   0.06387904  0.93466490  0.37423708
   0.26830632  0.73454542  0.37461891
   0.10080941  0.76688766  0.25337921
   0.22864013  0.90172743  0.24740069
   0.06387153  0.93466196  0.62580853
   0.26829523  0.73454034  0.62539966
   0.10159816  0.76869147  0.50000850
   0.23112274  0.90117382  0.50001435
   0.05820294  0.93038229  0.87633221
   0.26811706  0.73816958  0.87712611
   0.10080632  0.76688842  0.74664578
   0.22863315  0.90173268  0.75261881
   0.39672783  0.26653863  0.12475351
   0.60424557  0.06797943  0.12499480
   0.44306519  0.10379499  0.00002218
   0.56534245  0.23611001  0.00002684
   0.39835935  0.26736100  0.37512701
   0.60231517  0.06603120  0.37485975
   0.43739701  0.10014906  0.24873780
   0.56505328  0.23468903  0.25188258
   0.39834866  0.26735741  0.62492013
   0.60230197  0.06602419  0.62519414
   0.43568915  0.10055128  0.50001972
   0.56502659  0.23250855  0.50003363
   0.39673027  0.26654618  0.87528825
   0.60424787  0.06798768  0.87506008
   0.43739052  0.10015472  0.75131914
   0.56505415  0.23469201  0.74816249
   0.39614440  0.60180991  0.12532509
   0.60145532  0.40050783  0.12529851
   0.43333702  0.43465751  0.00001426
   0.56293984  0.56562678  0.00002327
   0.39682648  0.60168164  0.37452989
   0.60176972  0.40053612  0.37547749
   0.43459176  0.43490886  0.24993437
   0.56347030  0.56576553  0.24976825
   0.39682579  0.60168697  0.62549547
   0.60177906  0.40055263  0.62457545
   0.43432167  0.43467416  0.50002189
   0.56363816  0.56676732  0.50001602
   0.39615298  0.60182431  0.87469597
   0.60146201  0.40051900  0.87475642
   0.43460074  0.43491057  0.75010319
   0.56346348  0.56578435  0.75026935
   0.39502455  0.93078004  0.12307715
   0.60276617  0.73156995  0.12503814
   0.43558454  0.76682700  0.00001787
   0.56183897  0.90137054  0.00002116
   0.39783400  0.93324613  0.37461424
   0.60193006  0.73170632  0.37477908
   0.43480305  0.76775681  0.24972253
   0.56348031  0.89988730  0.24941678
   0.39783929  0.93325599  0.62542539
   0.60193398  0.73171282  0.62526924
   0.43483845  0.76782058  0.50002258
   0.56459691  0.89914309  0.50001714
   0.39502473  0.93078297  0.87695748
   0.60277299  0.73157849  0.87501207
   0.43479470  0.76777227  0.75030969
   0.56349057  0.89988522  0.75062917
   0.73060330  0.26830603  0.12504902
   0.93835123  0.06910718  0.12308823
   0.77153931  0.09852136  0.00003092
   0.89778995  0.23306848  0.00003945
   0.73144652  0.26818697  0.37478450
   0.93553665  0.06664095  0.37462060
   0.76990159  0.10000101  0.24943176
   0.89857441  0.23213934  0.24973784
   0.73145706  0.26820066  0.62527788
   0.93554430  0.06665144  0.62543086
   0.76877385  0.10077749  0.50003853
   0.89856129  0.23206978  0.50003212
   0.73060667  0.26831360  0.87500841
   0.93836174  0.06911999  0.87696907
   0.76990131  0.10001113  0.75063539
   0.89858428  0.23213761  0.75033275
   0.73192867  0.59937940  0.12530589
   0.93724213  0.39808264  0.12534743
   0.77045337  0.43424858  0.00003585
   0.90002547  0.56524451  0.00002742
   0.73160960  0.59935528  0.37547600
   0.93655373  0.39820833  0.37455692
   0.76991343  0.43411737  0.24978156
   0.89879783  0.56497162  0.24994898
   0.73160482  0.59935357  0.62457649
   0.93654994  0.39820812  0.62551109
   0.76974213  0.43313271  0.50002806
   0.89906366  0.56522236  0.50003151
   0.73191698  0.59937207  0.87474815
   0.93723440  0.39807901  0.87472292
   0.76991312  0.43412049  0.75027999
   0.89878909  0.56497821  0.75011439
   0.72913073  0.93190559  0.12499021
   0.93664896  0.73334967  0.12476711
   0.76804539  0.76376901  0.00002317
   0.89030206  0.89609900  0.00002769
   0.73107438  0.93387365  0.37487097
   0.93501917  0.73253000  0.37512066
   0.76830908  0.76521460  0.25188891
   0.89598638  0.89973609  0.24873562
   0.73107180  0.93387644  0.62518516
   0.93502433  0.73254047  0.62492488
   0.76836136  0.76738540  0.50002868
   0.89769819  0.89934787  0.50002304
   0.72913116  0.93191143  0.87506221
   0.93665045  0.73335815  0.87528223
   0.76832383  0.76521095  0.74816201
   0.89597702  0.89975686  0.75131581
   0.16668567  0.99993828  0.00001820
 
 position of ions in cartesian coordinates  (Angst):
   2.51390327  2.46229571  1.70996388
  14.42805736 14.53072280  0.00032686
   2.43422051  2.40707275  4.95079425
  14.58434742  0.00518638  3.29426850
   2.43430197  2.40720459  8.21044341
  14.59163571 14.60811801  6.58055320
   2.51387678  2.46235204 11.45128524
  14.58438310  0.00532745  9.86684542
   2.43530247  7.30424404  1.64559495
   0.00792726  4.86280277  0.00046498
   2.43542437  7.30432577  4.93580622
   0.01747814  4.84691414  3.28901236
   2.43541364  7.30438342  8.22513482
   0.00874996  4.85947208  6.58068933
   2.43530298  7.30432348 11.51534426
   0.01748572  4.84700008  9.87237995
   2.35672770 12.14609163  1.70971514
   0.00837371  9.74562464  0.00029485
   2.43657836 12.20152192  4.95056466
  14.59732954  9.72554100  3.30055240
   2.43647108 12.20149947  8.21018299
   0.00296101  9.74264481  6.58054374
   2.35668039 12.14613648 11.45103960
  14.59722741  9.72560084  9.86053359
   7.36042939  2.48916446  1.66598778
   5.05261776  0.07773187  0.00024379
   7.31026328  2.43430314  4.93940541
   4.89644360 14.60326750  3.29418034
   7.31008691  2.43423603  8.22175970
   4.88922556  0.00057632  6.58048194
   7.36045449  2.48927937 11.49513658
   4.89636694 14.60331602  9.86680139
   7.28316159  7.31167495  1.64586257
   4.86210343  4.86296240  0.00027638
   7.29190455  7.31688145  4.94106868
   4.88359766  4.88281845  3.30048819
   7.29193538  7.31701524  8.21989541
   4.86770990  4.86608355  6.58050840
   7.28322503  7.31181811 11.51508920
   4.88358706  4.88296694  9.86055049
   7.32061112 12.15223332  1.64670689
   4.86278474  9.74567496  0.00013725
   7.31434215 12.16500185  4.93642130
   4.85325024  9.76162014  3.28866612
   7.31442320 12.16513341  8.22457051
   4.86213563  9.74915569  6.58037422
   7.32060603 12.15225375 11.51426722
   4.85322557  9.76174270  9.87207165
  12.16015771  2.45619713  1.64693571
   9.74035790 14.60932344  0.00034929
  12.16645724  2.44358252  4.93661616
   9.74044308 14.60923926  3.29091054
  12.16651855  2.44368853  8.22477486
   9.74038314 14.60946963  6.58059469
  12.16021235  2.45630196 11.51446876
   9.74044893 14.60937731  9.87027407
  12.19766457  7.29673484  1.64606261
   9.74575615  4.90963042  0.00037432
  12.18891386  7.29162717  4.94123798
   9.74304496  4.90088210  3.29718662
  12.18887054  7.29163776  8.22003292
   9.73543029  4.87757114  6.58062400
  12.19757096  7.29671264 11.51524513
   9.74300645  4.90097695  9.86401584
  12.12028868 12.11921401  1.66602037
   9.73512965  9.69873263  0.00034658
  12.17060955 12.17430451  4.93941675
   9.73768804  9.70759738  3.29716317
  12.17065135 12.17443347  8.22172715
   9.74540246  9.73103765  6.58056797
  12.12030687 12.11933914 11.49512063
   9.73775249  9.70771200  9.86397902
   0.95348554  3.82384981  1.61771447
   4.02016661  1.01541367  1.62807228
   1.80960974  0.97977405  0.00031068
   3.33570787  3.35456573  0.00039047
   0.95088234  3.87686541  4.93043180
   3.93753590  0.95310898  4.92507023
   1.53014200  1.43425909  3.25620972
   3.39797349  3.40411242  3.33473064
   0.95099577  3.87702615  8.23094500
   3.93766448  0.95328447  8.23589603
   1.49407669  1.44244748  6.58066452
   3.38629660  3.37812745  6.58055859
   0.95342285  3.82384452 11.54366571
   4.02011921  1.01542626 11.53296693
   1.53030464  1.43423380  9.90496853
   3.39790791  3.40428914  9.82656159
   0.96777277  8.80618634  1.64196490
   3.90273744  5.80218718  1.64207328
   1.49492943  6.33254003  0.00024218
   3.37579005  8.27594022  0.00022058
   0.94508974  8.77226066  4.93725502
   3.92577954  5.83640608  4.93706473
   1.50047930  6.32418095  3.28245945
   3.37007849  8.28455548  3.28229017
   0.94501922  8.77225402  8.22385450
   3.92580953  5.83650452  8.22391732
   1.50022283  6.32821180  6.58051079
   3.37068839  8.28039884  6.58043623
   0.96781928  8.80630654 11.51904799
   3.90274343  5.80227016 11.51897261
   1.50044066  6.32428258  9.87857105
   3.37017873  8.28453406  9.87860975
   0.85042507 13.59297912  1.62808239
   3.91723080 10.78464362  1.61736704
   1.53488663 11.25385038  0.00016168
   3.06100020 13.62851296  0.00018832
   0.93327833 13.65553520  4.92513544
   3.91997860 10.73177225  4.93016051
   1.47283428 11.20429512  3.33458922
   3.34045209 13.17431581  3.25590904
   0.93316856 13.65549222  8.23593367
   3.91981660 10.73169801  8.23055281
   1.48435792 11.23064899  6.58034634
   3.37672332 13.16622753  6.58042324
   0.85034993 13.59296580 11.53294270
   3.91721346 10.78472156 11.54339091
   1.47278906 11.20430629  9.82620853
   3.34035008 13.17439264  9.90481638
   5.79622801  3.89415255  1.64181464
   8.82808020  0.99318533  1.64499017
   6.47322082  1.51645376  0.00029187
   8.25970211  3.44958763  0.00035323
   5.82006458  3.90616739  4.93684736
   8.79987684  0.96472158  4.93333014
   6.39040826  1.46318649  3.27350609
   8.25547741  3.42882712  3.31489288
   5.81990839  3.90611491  8.22424186
   8.79968396  0.96461917  8.22784800
   6.36545618  1.46906296  6.58049392
   8.25508747  3.39697004  6.58067707
   5.79626359  3.89426275 11.51920379
   8.82811376  0.99330584 11.51620092
   6.39031342  1.46326906  9.88771213
   8.25549015  3.42887063  9.84616915
   5.78770403  8.79249485  1.64933697
   8.78731427  5.85145413  1.64898718
   6.33109146  6.35038391  0.00018763
   8.22459986  8.26385629  0.00030623
   5.79766921  8.79062086  4.92898892
   8.79190776  5.85186735  4.94145981
   6.34942321  6.35405612  3.28925350
   8.23234984  8.26588335  3.28706732
   5.79765912  8.79069869  8.23181363
   8.79204416  5.85210869  8.21970572
   6.34547719  6.35062715  6.58052248
   8.23480241  8.28051958  6.58044528
   5.78782939  8.79270531 11.51140904
   8.78741209  5.85161736 11.51220469
   6.34955446  6.35408114  9.87170973
   8.23225019  8.26615839  9.87389641
   5.77134288 13.59877704  1.61975303
   8.80646601 10.68830036  1.64556053
   6.36392783 11.20340893  0.00023514
   8.20851601 13.16910175  0.00027845
   5.81238913 13.63480678  4.93009909
   8.79425028 10.69029268  4.93226841
   6.35251016 11.21699351  3.28646552
   8.23249621 13.14743135  3.28244183
   5.81246653 13.63495080  8.23089135
   8.79430765 10.69038773  8.22883635
   6.35302742 11.21792513  6.58053155
   8.24880981 13.13655843  6.58046001
   5.77134551 13.59881984 11.54117156
   8.80656563 10.68842518 11.51556908
   6.35238819 11.21721937  9.87442737
   8.23264598 13.14740097  9.87863182
  10.67417755  3.91997439  1.64570380
  13.70939276  1.00966187  1.61989876
  11.27225611  1.43940553  0.00040688
  13.11678889  3.40515074  0.00051914
  10.68649704  3.91823485  4.93233981
  13.66827151  0.97362998  4.93018274
  11.24832900  1.46102344  3.28263885
  13.12824999  3.39157586  3.28666710
  10.68665098  3.91843481  8.22895009
  13.66838327  0.97378334  8.23096338
  11.23185254  1.47236781  6.58074146
  13.12805833  3.39055966  6.58065712
  10.67422676  3.92008488 11.51552090
  13.70954635  1.00984897 11.54132411
  11.24832481  1.46117122  9.87871365
  13.12839424  3.39155060  9.87473073
  10.69354124  8.75698501  1.64908424
  13.69318877  5.81602185  1.64963096
  11.25639050  6.34440939  0.00047182
  13.14945010  8.25827119  0.00036087
  10.68887964  8.75663252  4.94144017
  13.68313117  5.81785816  4.92934462
  11.24850188  6.34249239  3.28724251
  13.13151414  8.25428428  3.28944573
  10.68880979  8.75660762  8.21971947
  13.68307576  5.81785517  8.23201923
  11.24599926  6.32810648  6.58060370
  13.13539791  8.25794760  6.58064919
  10.69337051  8.75687785 11.51209584
  13.69307579  5.81596877 11.51176376
  11.24849732  6.34253796  9.87403647
  13.13138640  8.25438056  9.87185701
  10.65266315 13.61522147  1.64492976
  13.68452246 10.71430216  1.64199371
  11.22120964 11.15873139  0.00030487
  13.00739028 13.09208409  0.00036436
  10.68106002 13.64397497  4.93347771
  13.66071114 10.70232679  4.93676371
  11.22506216 11.17985156  3.31497614
  13.09043869 13.14522224  3.27347736
  10.68102233 13.64401573  8.22772979
  13.66078653 10.70247970  8.22430441
  11.22582603 11.21156722  6.58061186
  13.11544834 13.13955027  6.58053769
  10.65266938 13.61530668 11.51622893
  13.68454417 10.71442608 11.51912451
  11.22527774 11.17979823  9.84616282
  13.09030186 13.14552567  9.88766827
   2.43529209 14.60918495  0.00023955
 


--------------------------------------------------------------------------------------------------------


 k-point  1 :   0.2500 0.2500 0.2500  plane waves:  118129
 k-point  2 :  -0.2500 0.2500 0.2500  plane waves:  118129
 k-point  3 :   0.2500-0.2500 0.2500  plane waves:  118129
 k-point  4 :  -0.2500-0.2500 0.2500  plane waves:  118129

 maximum and minimum number of plane-waves per node :     19742    19655

 maximum number of plane-waves:    118129
 maximum index in each direction: 
   IXMAX=   31   IYMAX=   31   IZMAX=   28
   IXMIN=  -31   IYMIN=  -31   IZMIN=  -28


 parallel 3D FFT for wavefunctions:
    minimum data exchange during FFTs selected (reduces bandwidth)
 parallel 3D FFT for charge:
    minimum data exchange during FFTs selected (reduces bandwidth)


 total amount of memory used by VASP MPI-rank0   697375. kBytes
=======================================================================

   base      :      30000. kBytes
   nonl-proj :     102460. kBytes
   fftplans  :      32099. kBytes
   grid      :      29521. kBytes
   one-center:       1150. kBytes
   wavefun   :     502145. kBytes
 
     INWAV:  cpu time    0.0001: real time    0.0002
 Broyden mixing: mesh for mixing (old mesh)
   NGX = 63   NGY = 63   NGZ = 57
  (NGX  =192   NGY  =192   NGZ  =180)
  gives a total of 226233 points

 initial charge density was supplied:
 charge density of overlapping atoms calculated
 number of electron    1945.0000000 magnetization      -0.0090000
 keeping initial charge density in first step


--------------------------------------------------------------------------------------------------------


 Maximum index for augmentation-charges         2856 (set IRDMAX)


--------------------------------------------------------------------------------------------------------


 First call to EWALD:  gamma=   0.126
 Maximum number of real-space cells 3x 3x 3
 Maximum number of reciprocal cells 3x 3x 3

    FEWALD:  cpu time    0.4944: real time    0.4945


--------------------------------------- Iteration      1(   1)  ---------------------------------------


    POTLOK:  cpu time    0.3392: real time    0.3477
    SETDIJ:  cpu time    3.8380: real time    3.8384
atom =   1  type =  1  l = 2
 
 onsite density matrix
 
spin component  1
 
  0.7152  0.0000  0.0000  0.0000  0.0000
  0.0000  0.7152  0.0000  0.0000  0.0000
  0.0000  0.0000  0.7152  0.0000  0.0000
  0.0000  0.0000  0.0000  0.7152  0.0000
  0.0000  0.0000  0.0000  0.0000  0.7152
 
spin component  2
 
  0.3377  0.0000  0.0000  0.0000  0.0000
  0.0000  0.3377  0.0000  0.0000  0.0000
  0.0000  0.0000  0.3377  0.0000  0.0000
  0.0000  0.0000  0.0000  0.3377  0.0000
  0.0000  0.0000  0.0000  0.0000  0.3377
 
 occupancies and eigenvectors
 
  o =  0.3377  v =  0.0000  0.0000  0.0000  0.0000  0.0000  1.0000  0.0000  0.0000  0.0000  0.0000      0.0000  0.0000  0.0000  0.0000  0.0000  0.0000  0.0000  0.0000  0.0000  0.0000
  o =  0.3377  v =  0.0000  0.0000  0.0000  0.0000  0.0000  0.0000  1.0000  0.0000  0.0000  0.0000      0.0000  0.0000  0.0000  0.0000  0.0000  0.0000  0.0000  0.0000  0.0000  0.0000
  o =  0.3377  v =  0.0000  0.0000  0.0000  0.0000  0.0000  0.0000  0.0000  1.0000  0.0000  0.0000      0.0000  0.0000  0.0000  0.0000  0.0000  0.0000  0.0000  0.0000  0.0000  0.0000
  o =  0.3377  v =  0.0000  0.0000  0.0000  0.0000  0.0000  0.0000  0.0000  0.0000  0.0000 -1.0000      0.0000  0.0000  0.0000  0.0000  0.0000  0.0000  0.0000  0.0000  0.0000  0.0000
  o =  0.3377  v =  0.0000  0.0000  0.0000  0.0000  0.0000  0.0000  0.0000  0.0000 -1.0000  0.0000      0.0000  0.0000  0.0000  0.0000  0.0000  0.0000  0.0000  0.0000  0.0000  0.0000
  o =  0.7152  v =  1.0000  0.0000  0.0000  0.0000  0.0000  0.0000  0.0000  0.0000  0.0000  0.0000      0.0000  0.0000  0.0000  0.0000  0.0000  0.0000  0.0000  0.0000  0.0000  0.0000
  o =  0.7152  v =  0.0000  1.0000  0.0000  0.0000  0.0000  0.0000  0.0000  0.0000  0.0000  0.0000      0.0000  0.0000  0.0000  0.0000  0.0000  0.0000  0.0000  0.0000  0.0000  0.0000
  o =  0.7152  v =  0.0000  0.0000  1.0000  0.0000  0.0000  0.0000  0.0000  0.0000  0.0000  0.0000      0.0000  0.0000  0.0000  0.0000  0.0000  0.0000  0.0000  0.0000  0.0000  0.0000
  o =  0.7152  v =  0.0000  0.0000  0.0000  0.0000 -1.0000  0.0000  0.0000  0.0000  0.0000  0.0000      0.0000  0.0000  0.0000  0.0000  0.0000  0.0000  0.0000  0.0000  0.0000  0.0000
  o =  0.7152  v =  0.0000  0.0000  0.0000 -1.0000  0.0000  0.0000  0.0000  0.0000  0.0000  0.0000      0.0000  0.0000  0.0000  0.0000  0.0000  0.0000  0.0000  0.0000  0.0000  0.0000
atom =   2  type =  1  l = 2
 
 onsite density matrix
 
spin component  1
 
  0.3377  0.0000  0.0000  0.0000  0.0000
  0.0000  0.3377  0.0000  0.0000  0.0000
  0.0000  0.0000  0.3377  0.0000  0.0000
  0.0000  0.0000  0.0000  0.3377  0.0000
  0.0000  0.0000  0.0000  0.0000  0.3377
 
spin component  2
 
  0.7152  0.0000  0.0000  0.0000  0.0000
  0.0000  0.7152  0.0000  0.0000  0.0000
  0.0000  0.0000  0.7152  0.0000  0.0000
  0.0000  0.0000  0.0000  0.7152  0.0000
  0.0000  0.0000  0.0000  0.0000  0.7152
 
 occupancies and eigenvectors
 
  o =  0.3377  v =  1.0000  0.0000  0.0000  0.0000  0.0000  0.0000  0.0000  0.0000  0.0000  0.0000      0.0000  0.0000  0.0000  0.0000  0.0000  0.0000  0.0000  0.0000  0.0000  0.0000
  o =  0.3377  v =  0.0000  1.0000  0.0000  0.0000  0.0000  0.0000  0.0000  0.0000  0.0000  0.0000      0.0000  0.0000  0.0000  0.0000  0.0000  0.0000  0.0000  0.0000  0.0000  0.0000
  o =  0.3377  v =  0.0000  0.0000  1.0000  0.0000  0.0000  0.0000  0.0000  0.0000  0.0000  0.0000      0.0000  0.0000  0.0000  0.0000  0.0000  0.0000  0.0000  0.0000  0.0000  0.0000
  o =  0.3377  v =  0.0000  0.0000  0.0000  0.0000 -1.0000  0.0000  0.0000  0.0000  0.0000  0.0000      0.0000  0.0000  0.0000  0.0000  0.0000  0.0000  0.0000  0.0000  0.0000  0.0000
  o =  0.3377  v =  0.0000  0.0000  0.0000 -1.0000  0.0000  0.0000  0.0000  0.0000  0.0000  0.0000      0.0000  0.0000  0.0000  0.0000  0.0000  0.0000  0.0000  0.0000  0.0000  0.0000
  o =  0.7152  v =  0.0000  0.0000  0.0000  0.0000  0.0000  1.0000  0.0000  0.0000  0.0000  0.0000      0.0000  0.0000  0.0000  0.0000  0.0000  0.0000  0.0000  0.0000  0.0000  0.0000
  o =  0.7152  v =  0.0000  0.0000  0.0000  0.0000  0.0000  0.0000  1.0000  0.0000  0.0000  0.0000      0.0000  0.0000  0.0000  0.0000  0.0000  0.0000  0.0000  0.0000  0.0000  0.0000
  o =  0.7152  v =  0.0000  0.0000  0.0000  0.0000  0.0000  0.0000  0.0000  1.0000  0.0000  0.0000      0.0000  0.0000  0.0000  0.0000  0.0000  0.0000  0.0000  0.0000  0.0000  0.0000
  o =  0.7152  v =  0.0000  0.0000  0.0000  0.0000  0.0000  0.0000  0.0000  0.0000  0.0000 -1.0000      0.0000  0.0000  0.0000  0.0000  0.0000  0.0000  0.0000  0.0000  0.0000  0.0000
  o =  0.7152  v =  0.0000  0.0000  0.0000  0.0000  0.0000  0.0000  0.0000  0.0000 -1.0000  0.0000      0.0000  0.0000  0.0000  0.0000  0.0000  0.0000  0.0000  0.0000  0.0000  0.0000
atom =   3  type =  1  l = 2
 
 onsite density matrix
 
spin component  1
 
  0.7153  0.0000  0.0000  0.0000  0.0000
  0.0000  0.7153  0.0000  0.0000  0.0000
  0.0000  0.0000  0.7153  0.0000  0.0000
  0.0000  0.0000  0.0000  0.7153  0.0000
  0.0000  0.0000  0.0000  0.0000  0.7153
 
spin component  2
 
  0.3375  0.0000  0.0000  0.0000  0.0000
  0.0000  0.3375  0.0000  0.0000  0.0000
  0.0000  0.0000  0.3375  0.0000  0.0000
  0.0000  0.0000  0.0000  0.3375  0.0000
  0.0000  0.0000  0.0000  0.0000  0.3375
 
 occupancies and eigenvectors
 
  o =  0.3375  v =  0.0000  0.0000  0.0000  0.0000  0.0000  1.0000  0.0000  0.0000  0.0000  0.0000      0.0000  0.0000  0.0000  0.0000  0.0000  0.0000  0.0000  0.0000  0.0000  0.0000
  o =  0.3375  v =  0.0000  0.0000  0.0000  0.0000  0.0000  0.0000  1.0000  0.0000  0.0000  0.0000      0.0000  0.0000  0.0000  0.0000  0.0000  0.0000  0.0000  0.0000  0.0000  0.0000
  o =  0.3375  v =  0.0000  0.0000  0.0000  0.0000  0.0000  0.0000  0.0000  1.0000  0.0000  0.0000      0.0000  0.0000  0.0000  0.0000  0.0000  0.0000  0.0000  0.0000  0.0000  0.0000
  o =  0.3375  v =  0.0000  0.0000  0.0000  0.0000  0.0000  0.0000  0.0000  0.0000  0.0000 -1.0000      0.0000  0.0000  0.0000  0.0000  0.0000  0.0000  0.0000  0.0000  0.0000  0.0000
  o =  0.3375  v =  0.0000  0.0000  0.0000  0.0000  0.0000  0.0000  0.0000  0.0000 -1.0000  0.0000      0.0000  0.0000  0.0000  0.0000  0.0000  0.0000  0.0000  0.0000  0.0000  0.0000
  o =  0.7153  v =  1.0000  0.0000  0.0000  0.0000  0.0000  0.0000  0.0000  0.0000  0.0000  0.0000      0.0000  0.0000  0.0000  0.0000  0.0000  0.0000  0.0000  0.0000  0.0000  0.0000
  o =  0.7153  v =  0.0000  1.0000  0.0000  0.0000  0.0000  0.0000  0.0000  0.0000  0.0000  0.0000      0.0000  0.0000  0.0000  0.0000  0.0000  0.0000  0.0000  0.0000  0.0000  0.0000
  o =  0.7153  v =  0.0000  0.0000  1.0000  0.0000  0.0000  0.0000  0.0000  0.0000  0.0000  0.0000      0.0000  0.0000  0.0000  0.0000  0.0000  0.0000  0.0000  0.0000  0.0000  0.0000
  o =  0.7153  v =  0.0000  0.0000  0.0000  0.0000 -1.0000  0.0000  0.0000  0.0000  0.0000  0.0000      0.0000  0.0000  0.0000  0.0000  0.0000  0.0000  0.0000  0.0000  0.0000  0.0000
  o =  0.7153  v =  0.0000  0.0000  0.0000 -1.0000  0.0000  0.0000  0.0000  0.0000  0.0000  0.0000      0.0000  0.0000  0.0000  0.0000  0.0000  0.0000  0.0000  0.0000  0.0000  0.0000
atom =   4  type =  1  l = 2
 
 onsite density matrix
 
spin component  1
 
  0.3374  0.0000  0.0000  0.0000  0.0000
  0.0000  0.3374  0.0000  0.0000  0.0000
  0.0000  0.0000  0.3374  0.0000  0.0000
  0.0000  0.0000  0.0000  0.3374  0.0000
  0.0000  0.0000  0.0000  0.0000  0.3374
 
spin component  2
 
  0.7154  0.0000  0.0000  0.0000  0.0000
  0.0000  0.7154  0.0000  0.0000  0.0000
  0.0000  0.0000  0.7154  0.0000  0.0000
  0.0000  0.0000  0.0000  0.7154  0.0000
  0.0000  0.0000  0.0000  0.0000  0.7154
 
 occupancies and eigenvectors
 
  o =  0.3374  v =  1.0000  0.0000  0.0000  0.0000  0.0000  0.0000  0.0000  0.0000  0.0000  0.0000      0.0000  0.0000  0.0000  0.0000  0.0000  0.0000  0.0000  0.0000  0.0000  0.0000
  o =  0.3374  v =  0.0000  1.0000  0.0000  0.0000  0.0000  0.0000  0.0000  0.0000  0.0000  0.0000      0.0000  0.0000  0.0000  0.0000  0.0000  0.0000  0.0000  0.0000  0.0000  0.0000
  o =  0.3374  v =  0.0000  0.0000  1.0000  0.0000  0.0000  0.0000  0.0000  0.0000  0.0000  0.0000      0.0000  0.0000  0.0000  0.0000  0.0000  0.0000  0.0000  0.0000  0.0000  0.0000
  o =  0.3374  v =  0.0000  0.0000  0.0000  0.0000 -1.0000  0.0000  0.0000  0.0000  0.0000  0.0000      0.0000  0.0000  0.0000  0.0000  0.0000  0.0000  0.0000  0.0000  0.0000  0.0000
  o =  0.3374  v =  0.0000  0.0000  0.0000 -1.0000  0.0000  0.0000  0.0000  0.0000  0.0000  0.0000      0.0000  0.0000  0.0000  0.0000  0.0000  0.0000  0.0000  0.0000  0.0000  0.0000
  o =  0.7154  v =  0.0000  0.0000  0.0000  0.0000  0.0000  1.0000  0.0000  0.0000  0.0000  0.0000      0.0000  0.0000  0.0000  0.0000  0.0000  0.0000  0.0000  0.0000  0.0000  0.0000
  o =  0.7154  v =  0.0000  0.0000  0.0000  0.0000  0.0000  0.0000  1.0000  0.0000  0.0000  0.0000      0.0000  0.0000  0.0000  0.0000  0.0000  0.0000  0.0000  0.0000  0.0000  0.0000
  o =  0.7154  v =  0.0000  0.0000  0.0000  0.0000  0.0000  0.0000  0.0000  1.0000  0.0000  0.0000      0.0000  0.0000  0.0000  0.0000  0.0000  0.0000  0.0000  0.0000  0.0000  0.0000
  o =  0.7154  v =  0.0000  0.0000  0.0000  0.0000  0.0000  0.0000  0.0000  0.0000  0.0000 -1.0000      0.0000  0.0000  0.0000  0.0000  0.0000  0.0000  0.0000  0.0000  0.0000  0.0000
  o =  0.7154  v =  0.0000  0.0000  0.0000  0.0000  0.0000  0.0000  0.0000  0.0000 -1.0000  0.0000      0.0000  0.0000  0.0000  0.0000  0.0000  0.0000  0.0000  0.0000  0.0000  0.0000
atom =   5  type =  1  l = 2
 
 onsite density matrix
 
spin component  1
 
  0.7153  0.0000  0.0000  0.0000  0.0000
  0.0000  0.7153  0.0000  0.0000  0.0000
  0.0000  0.0000  0.7153  0.0000  0.0000
  0.0000  0.0000  0.0000  0.7153  0.0000
  0.0000  0.0000  0.0000  0.0000  0.7153
 
spin component  2
 
  0.3375  0.0000  0.0000  0.0000  0.0000
  0.0000  0.3375  0.0000  0.0000  0.0000
  0.0000  0.0000  0.3375  0.0000  0.0000
  0.0000  0.0000  0.0000  0.3375  0.0000
  0.0000  0.0000  0.0000  0.0000  0.3375
 
 occupancies and eigenvectors
 
  o =  0.3375  v =  0.0000  0.0000  0.0000  0.0000  0.0000  1.0000  0.0000  0.0000  0.0000  0.0000      0.0000  0.0000  0.0000  0.0000  0.0000  0.0000  0.0000  0.0000  0.0000  0.0000
  o =  0.3375  v =  0.0000  0.0000  0.0000  0.0000  0.0000  0.0000  1.0000  0.0000  0.0000  0.0000      0.0000  0.0000  0.0000  0.0000  0.0000  0.0000  0.0000  0.0000  0.0000  0.0000
  o =  0.3375  v =  0.0000  0.0000  0.0000  0.0000  0.0000  0.0000  0.0000  1.0000  0.0000  0.0000      0.0000  0.0000  0.0000  0.0000  0.0000  0.0000  0.0000  0.0000  0.0000  0.0000
  o =  0.3375  v =  0.0000  0.0000  0.0000  0.0000  0.0000  0.0000  0.0000  0.0000  0.0000 -1.0000      0.0000  0.0000  0.0000  0.0000  0.0000  0.0000  0.0000  0.0000  0.0000  0.0000
  o =  0.3375  v =  0.0000  0.0000  0.0000  0.0000  0.0000  0.0000  0.0000  0.0000 -1.0000  0.0000      0.0000  0.0000  0.0000  0.0000  0.0000  0.0000  0.0000  0.0000  0.0000  0.0000
  o =  0.7153  v =  1.0000  0.0000  0.0000  0.0000  0.0000  0.0000  0.0000  0.0000  0.0000  0.0000      0.0000  0.0000  0.0000  0.0000  0.0000  0.0000  0.0000  0.0000  0.0000  0.0000
  o =  0.7153  v =  0.0000  1.0000  0.0000  0.0000  0.0000  0.0000  0.0000  0.0000  0.0000  0.0000      0.0000  0.0000  0.0000  0.0000  0.0000  0.0000  0.0000  0.0000  0.0000  0.0000
  o =  0.7153  v =  0.0000  0.0000  1.0000  0.0000  0.0000  0.0000  0.0000  0.0000  0.0000  0.0000      0.0000  0.0000  0.0000  0.0000  0.0000  0.0000  0.0000  0.0000  0.0000  0.0000
  o =  0.7153  v =  0.0000  0.0000  0.0000  0.0000 -1.0000  0.0000  0.0000  0.0000  0.0000  0.0000      0.0000  0.0000  0.0000  0.0000  0.0000  0.0000  0.0000  0.0000  0.0000  0.0000
  o =  0.7153  v =  0.0000  0.0000  0.0000 -1.0000  0.0000  0.0000  0.0000  0.0000  0.0000  0.0000      0.0000  0.0000  0.0000  0.0000  0.0000  0.0000  0.0000  0.0000  0.0000  0.0000
atom =   6  type =  1  l = 2
 
 onsite density matrix
 
spin component  1
 
  0.3375  0.0000  0.0000  0.0000  0.0000
  0.0000  0.3375  0.0000  0.0000  0.0000
  0.0000  0.0000  0.3375  0.0000  0.0000
  0.0000  0.0000  0.0000  0.3375  0.0000
  0.0000  0.0000  0.0000  0.0000  0.3375
 
spin component  2
 
  0.7153  0.0000  0.0000  0.0000  0.0000
  0.0000  0.7153  0.0000  0.0000  0.0000
  0.0000  0.0000  0.7153  0.0000  0.0000
  0.0000  0.0000  0.0000  0.7153  0.0000
  0.0000  0.0000  0.0000  0.0000  0.7153
 
 occupancies and eigenvectors
 
  o =  0.3375  v =  1.0000  0.0000  0.0000  0.0000  0.0000  0.0000  0.0000  0.0000  0.0000  0.0000      0.0000  0.0000  0.0000  0.0000  0.0000  0.0000  0.0000  0.0000  0.0000  0.0000
  o =  0.3375  v =  0.0000  1.0000  0.0000  0.0000  0.0000  0.0000  0.0000  0.0000  0.0000  0.0000      0.0000  0.0000  0.0000  0.0000  0.0000  0.0000  0.0000  0.0000  0.0000  0.0000
  o =  0.3375  v =  0.0000  0.0000  1.0000  0.0000  0.0000  0.0000  0.0000  0.0000  0.0000  0.0000      0.0000  0.0000  0.0000  0.0000  0.0000  0.0000  0.0000  0.0000  0.0000  0.0000
  o =  0.3375  v =  0.0000  0.0000  0.0000  0.0000 -1.0000  0.0000  0.0000  0.0000  0.0000  0.0000      0.0000  0.0000  0.0000  0.0000  0.0000  0.0000  0.0000  0.0000  0.0000  0.0000
  o =  0.3375  v =  0.0000  0.0000  0.0000 -1.0000  0.0000  0.0000  0.0000  0.0000  0.0000  0.0000      0.0000  0.0000  0.0000  0.0000  0.0000  0.0000  0.0000  0.0000  0.0000  0.0000
  o =  0.7153  v =  0.0000  0.0000  0.0000  0.0000  0.0000  1.0000  0.0000  0.0000  0.0000  0.0000      0.0000  0.0000  0.0000  0.0000  0.0000  0.0000  0.0000  0.0000  0.0000  0.0000
  o =  0.7153  v =  0.0000  0.0000  0.0000  0.0000  0.0000  0.0000  1.0000  0.0000  0.0000  0.0000      0.0000  0.0000  0.0000  0.0000  0.0000  0.0000  0.0000  0.0000  0.0000  0.0000
  o =  0.7153  v =  0.0000  0.0000  0.0000  0.0000  0.0000  0.0000  0.0000  1.0000  0.0000  0.0000      0.0000  0.0000  0.0000  0.0000  0.0000  0.0000  0.0000  0.0000  0.0000  0.0000
  o =  0.7153  v =  0.0000  0.0000  0.0000  0.0000  0.0000  0.0000  0.0000  0.0000  0.0000 -1.0000      0.0000  0.0000  0.0000  0.0000  0.0000  0.0000  0.0000  0.0000  0.0000  0.0000
  o =  0.7153  v =  0.0000  0.0000  0.0000  0.0000  0.0000  0.0000  0.0000  0.0000 -1.0000  0.0000      0.0000  0.0000  0.0000  0.0000  0.0000  0.0000  0.0000  0.0000  0.0000  0.0000
atom =   7  type =  1  l = 2
 
 onsite density matrix
 
spin component  1
 
  0.7152  0.0000  0.0000  0.0000  0.0000
  0.0000  0.7152  0.0000  0.0000  0.0000
  0.0000  0.0000  0.7152  0.0000  0.0000
  0.0000  0.0000  0.0000  0.7152  0.0000
  0.0000  0.0000  0.0000  0.0000  0.7152
 
spin component  2
 
  0.3377  0.0000  0.0000  0.0000  0.0000
  0.0000  0.3377  0.0000  0.0000  0.0000
  0.0000  0.0000  0.3377  0.0000  0.0000
  0.0000  0.0000  0.0000  0.3377  0.0000
  0.0000  0.0000  0.0000  0.0000  0.3377
 
 occupancies and eigenvectors
 
  o =  0.3377  v =  0.0000  0.0000  0.0000  0.0000  0.0000  1.0000  0.0000  0.0000  0.0000  0.0000      0.0000  0.0000  0.0000  0.0000  0.0000  0.0000  0.0000  0.0000  0.0000  0.0000
  o =  0.3377  v =  0.0000  0.0000  0.0000  0.0000  0.0000  0.0000  1.0000  0.0000  0.0000  0.0000      0.0000  0.0000  0.0000  0.0000  0.0000  0.0000  0.0000  0.0000  0.0000  0.0000
  o =  0.3377  v =  0.0000  0.0000  0.0000  0.0000  0.0000  0.0000  0.0000  1.0000  0.0000  0.0000      0.0000  0.0000  0.0000  0.0000  0.0000  0.0000  0.0000  0.0000  0.0000  0.0000
  o =  0.3377  v =  0.0000  0.0000  0.0000  0.0000  0.0000  0.0000  0.0000  0.0000  0.0000 -1.0000      0.0000  0.0000  0.0000  0.0000  0.0000  0.0000  0.0000  0.0000  0.0000  0.0000
  o =  0.3377  v =  0.0000  0.0000  0.0000  0.0000  0.0000  0.0000  0.0000  0.0000 -1.0000  0.0000      0.0000  0.0000  0.0000  0.0000  0.0000  0.0000  0.0000  0.0000  0.0000  0.0000
  o =  0.7152  v =  1.0000  0.0000  0.0000  0.0000  0.0000  0.0000  0.0000  0.0000  0.0000  0.0000      0.0000  0.0000  0.0000  0.0000  0.0000  0.0000  0.0000  0.0000  0.0000  0.0000
  o =  0.7152  v =  0.0000  1.0000  0.0000  0.0000  0.0000  0.0000  0.0000  0.0000  0.0000  0.0000      0.0000  0.0000  0.0000  0.0000  0.0000  0.0000  0.0000  0.0000  0.0000  0.0000
  o =  0.7152  v =  0.0000  0.0000  1.0000  0.0000  0.0000  0.0000  0.0000  0.0000  0.0000  0.0000      0.0000  0.0000  0.0000  0.0000  0.0000  0.0000  0.0000  0.0000  0.0000  0.0000
  o =  0.7152  v =  0.0000  0.0000  0.0000  0.0000 -1.0000  0.0000  0.0000  0.0000  0.0000  0.0000      0.0000  0.0000  0.0000  0.0000  0.0000  0.0000  0.0000  0.0000  0.0000  0.0000
  o =  0.7152  v =  0.0000  0.0000  0.0000 -1.0000  0.0000  0.0000  0.0000  0.0000  0.0000  0.0000      0.0000  0.0000  0.0000  0.0000  0.0000  0.0000  0.0000  0.0000  0.0000  0.0000
atom =   8  type =  1  l = 2
 
 onsite density matrix
 
spin component  1
 
  0.3374  0.0000  0.0000  0.0000  0.0000
  0.0000  0.3374  0.0000  0.0000  0.0000
  0.0000  0.0000  0.3374  0.0000  0.0000
  0.0000  0.0000  0.0000  0.3374  0.0000
  0.0000  0.0000  0.0000  0.0000  0.3374
 
spin component  2
 
  0.7154  0.0000  0.0000  0.0000  0.0000
  0.0000  0.7154  0.0000  0.0000  0.0000
  0.0000  0.0000  0.7154  0.0000  0.0000
  0.0000  0.0000  0.0000  0.7154  0.0000
  0.0000  0.0000  0.0000  0.0000  0.7154
 
 occupancies and eigenvectors
 
  o =  0.3374  v =  1.0000  0.0000  0.0000  0.0000  0.0000  0.0000  0.0000  0.0000  0.0000  0.0000      0.0000  0.0000  0.0000  0.0000  0.0000  0.0000  0.0000  0.0000  0.0000  0.0000
  o =  0.3374  v =  0.0000  1.0000  0.0000  0.0000  0.0000  0.0000  0.0000  0.0000  0.0000  0.0000      0.0000  0.0000  0.0000  0.0000  0.0000  0.0000  0.0000  0.0000  0.0000  0.0000
  o =  0.3374  v =  0.0000  0.0000  1.0000  0.0000  0.0000  0.0000  0.0000  0.0000  0.0000  0.0000      0.0000  0.0000  0.0000  0.0000  0.0000  0.0000  0.0000  0.0000  0.0000  0.0000
  o =  0.3374  v =  0.0000  0.0000  0.0000  0.0000 -1.0000  0.0000  0.0000  0.0000  0.0000  0.0000      0.0000  0.0000  0.0000  0.0000  0.0000  0.0000  0.0000  0.0000  0.0000  0.0000
  o =  0.3374  v =  0.0000  0.0000  0.0000 -1.0000  0.0000  0.0000  0.0000  0.0000  0.0000  0.0000      0.0000  0.0000  0.0000  0.0000  0.0000  0.0000  0.0000  0.0000  0.0000  0.0000
  o =  0.7154  v =  0.0000  0.0000  0.0000  0.0000  0.0000  1.0000  0.0000  0.0000  0.0000  0.0000      0.0000  0.0000  0.0000  0.0000  0.0000  0.0000  0.0000  0.0000  0.0000  0.0000
  o =  0.7154  v =  0.0000  0.0000  0.0000  0.0000  0.0000  0.0000  1.0000  0.0000  0.0000  0.0000      0.0000  0.0000  0.0000  0.0000  0.0000  0.0000  0.0000  0.0000  0.0000  0.0000
  o =  0.7154  v =  0.0000  0.0000  0.0000  0.0000  0.0000  0.0000  0.0000  1.0000  0.0000  0.0000      0.0000  0.0000  0.0000  0.0000  0.0000  0.0000  0.0000  0.0000  0.0000  0.0000
  o =  0.7154  v =  0.0000  0.0000  0.0000  0.0000  0.0000  0.0000  0.0000  0.0000  0.0000 -1.0000      0.0000  0.0000  0.0000  0.0000  0.0000  0.0000  0.0000  0.0000  0.0000  0.0000
  o =  0.7154  v =  0.0000  0.0000  0.0000  0.0000  0.0000  0.0000  0.0000  0.0000 -1.0000  0.0000      0.0000  0.0000  0.0000  0.0000  0.0000  0.0000  0.0000  0.0000  0.0000  0.0000
atom =   9  type =  1  l = 2
 
 onsite density matrix
 
spin component  1
 
  0.7154  0.0000  0.0000  0.0000  0.0000
  0.0000  0.7154  0.0000  0.0000  0.0000
  0.0000  0.0000  0.7154  0.0000  0.0000
  0.0000  0.0000  0.0000  0.7154  0.0000
  0.0000  0.0000  0.0000  0.0000  0.7154
 
spin component  2
 
  0.3375  0.0000  0.0000  0.0000  0.0000
  0.0000  0.3375  0.0000  0.0000  0.0000
  0.0000  0.0000  0.3375  0.0000  0.0000
  0.0000  0.0000  0.0000  0.3375  0.0000
  0.0000  0.0000  0.0000  0.0000  0.3375
 
 occupancies and eigenvectors
 
  o =  0.3375  v =  0.0000  0.0000  0.0000  0.0000  0.0000  1.0000  0.0000  0.0000  0.0000  0.0000      0.0000  0.0000  0.0000  0.0000  0.0000  0.0000  0.0000  0.0000  0.0000  0.0000
  o =  0.3375  v =  0.0000  0.0000  0.0000  0.0000  0.0000  0.0000  1.0000  0.0000  0.0000  0.0000      0.0000  0.0000  0.0000  0.0000  0.0000  0.0000  0.0000  0.0000  0.0000  0.0000
  o =  0.3375  v =  0.0000  0.0000  0.0000  0.0000  0.0000  0.0000  0.0000  1.0000  0.0000  0.0000      0.0000  0.0000  0.0000  0.0000  0.0000  0.0000  0.0000  0.0000  0.0000  0.0000
  o =  0.3375  v =  0.0000  0.0000  0.0000  0.0000  0.0000  0.0000  0.0000  0.0000  0.0000 -1.0000      0.0000  0.0000  0.0000  0.0000  0.0000  0.0000  0.0000  0.0000  0.0000  0.0000
  o =  0.3375  v =  0.0000  0.0000  0.0000  0.0000  0.0000  0.0000  0.0000  0.0000 -1.0000  0.0000      0.0000  0.0000  0.0000  0.0000  0.0000  0.0000  0.0000  0.0000  0.0000  0.0000
  o =  0.7154  v =  0.0000  0.0000  0.0000  0.7071  0.7071  0.0000  0.0000  0.0000  0.0000  0.0000      0.0000  0.0000  0.0000  0.0000  0.0000  0.0000  0.0000  0.0000  0.0000  0.0000
  o =  0.7154  v =  0.0000  1.0000  0.0000  0.0000  0.0000  0.0000  0.0000  0.0000  0.0000  0.0000      0.0000  0.0000  0.0000  0.0000  0.0000  0.0000  0.0000  0.0000  0.0000  0.0000
  o =  0.7154  v =  0.0000  0.0000  1.0000  0.0000  0.0000  0.0000  0.0000  0.0000  0.0000  0.0000      0.0000  0.0000  0.0000  0.0000  0.0000  0.0000  0.0000  0.0000  0.0000  0.0000
  o =  0.7154  v =  0.0000  0.0000  0.0000 -0.7071  0.7071  0.0000  0.0000  0.0000  0.0000  0.0000      0.0000  0.0000  0.0000  0.0000  0.0000  0.0000  0.0000  0.0000  0.0000  0.0000
  o =  0.7154  v =  1.0000  0.0000  0.0000  0.0000  0.0000  0.0000  0.0000  0.0000  0.0000  0.0000      0.0000  0.0000  0.0000  0.0000  0.0000  0.0000  0.0000  0.0000  0.0000  0.0000
atom =  10  type =  1  l = 2
 
 onsite density matrix
 
spin component  1
 
  0.3376  0.0000  0.0000  0.0000  0.0000
  0.0000  0.3376  0.0000  0.0000  0.0000
  0.0000  0.0000  0.3376  0.0000  0.0000
  0.0000  0.0000  0.0000  0.3376  0.0000
  0.0000  0.0000  0.0000  0.0000  0.3376
 
spin component  2
 
  0.7153  0.0000  0.0000  0.0000  0.0000
  0.0000  0.7153  0.0000  0.0000  0.0000
  0.0000  0.0000  0.7153  0.0000  0.0000
  0.0000  0.0000  0.0000  0.7153  0.0000
[...]
    1        0.170   6.154   4.956  11.279
    2        0.171   6.158   4.963  11.292
    3        0.167   6.152   4.958  11.278
    4        0.166   6.150   4.954  11.270
    5        0.167   6.152   4.958  11.278
    6        0.167   6.152   4.957  11.277
    7        0.170   6.154   4.956  11.279
    8        0.166   6.150   4.954  11.270
    9        0.167   6.151   4.956  11.274
   10        0.167   6.152   4.957  11.277
   11        0.166   6.151   4.955  11.272
   12        0.166   6.150   4.954  11.271
   13        0.166   6.151   4.955  11.272
   14        0.166   6.151   4.955  11.272
   15        0.167   6.151   4.956  11.274
   16        0.166   6.150   4.954  11.271
   17        0.170   6.154   4.956  11.279
   18        0.166   6.150   4.954  11.271
   19        0.167   6.152   4.958  11.278
   20        0.168   6.153   4.958  11.279
   21        0.167   6.152   4.958  11.278
   22        0.167   6.151   4.956  11.274
   23        0.170   6.154   4.956  11.279
   24        0.168   6.153   4.958  11.279
   25        0.168   6.153   4.958  11.279
   26        0.171   6.158   4.963  11.292
   27        0.167   6.152   4.957  11.276
   28        0.166   6.150   4.954  11.270
   29        0.167   6.152   4.957  11.276
   30        0.167   6.152   4.957  11.277
   31        0.168   6.153   4.958  11.279
   32        0.166   6.150   4.954  11.270
   33        0.167   6.152   4.957  11.276
   34        0.166   6.150   4.954  11.271
   35        0.167   6.152   4.956  11.275
   36        0.168   6.153   4.958  11.279
   37        0.167   6.152   4.956  11.275
   38        0.167   6.151   4.956  11.274
   39        0.167   6.152   4.957  11.276
   40        0.168   6.153   4.958  11.279
   41        0.167   6.152   4.956  11.275
   42        0.167   6.152   4.957  11.277
   43        0.167   6.151   4.956  11.274
   44        0.166   6.150   4.954  11.271
   45        0.167   6.151   4.956  11.274
   46        0.166   6.151   4.955  11.272
   47        0.167   6.152   4.956  11.275
   48        0.166   6.150   4.954  11.271
   49        0.167   6.152   4.956  11.275
   50        0.166   6.151   4.955  11.272
   51        0.167   6.151   4.956  11.274
   52        0.167   6.151   4.956  11.274
   53        0.167   6.151   4.956  11.274
   54        0.167   6.151   4.956  11.274
   55        0.167   6.152   4.956  11.275
   56        0.167   6.151   4.956  11.274
   57        0.167   6.152   4.957  11.276
   58        0.168   6.154   4.959  11.280
   59        0.167   6.152   4.956  11.275
   60        0.167   6.153   4.958  11.278
   61        0.167   6.152   4.956  11.275
   62        0.167   6.152   4.956  11.275
   63        0.167   6.152   4.957  11.276
   64        0.167   6.153   4.958  11.278
   65        0.168   6.153   4.958  11.279
   66        0.168   6.154   4.959  11.280
   67        0.167   6.152   4.957  11.276
   68        0.167   6.153   4.958  11.278
   69        0.167   6.152   4.957  11.276
   70        0.167   6.152   4.956  11.275
   71        0.168   6.153   4.958  11.279
   72        0.167   6.153   4.958  11.278
   73        1.726   4.357   0.000   6.083
   74        1.727   4.362   0.000   6.088
   75        1.730   4.377   0.000   6.107
   76        1.726   4.361   0.000   6.088
   77        1.726   4.361   0.000   6.087
   78        1.726   4.361   0.000   6.088
   79        1.726   4.359   0.000   6.085
   80        1.727   4.365   0.000   6.092
   81        1.726   4.361   0.000   6.087
   82        1.726   4.361   0.000   6.088
   83        1.726   4.363   0.000   6.090
   84        1.726   4.361   0.000   6.088
   85        1.726   4.357   0.000   6.083
   86        1.727   4.362   0.000   6.088
   87        1.726   4.359   0.000   6.085
   88        1.727   4.365   0.000   6.092
   89        1.726   4.361   0.000   6.087
   90        1.726   4.361   0.000   6.087
   91        1.726   4.361   0.000   6.087
   92        1.726   4.361   0.000   6.087
   93        1.726   4.362   0.000   6.088
   94        1.726   4.362   0.000   6.088
   95        1.726   4.360   0.000   6.087
   96        1.726   4.360   0.000   6.087
   97        1.726   4.362   0.000   6.088
   98        1.726   4.362   0.000   6.088
   99        1.726   4.361   0.000   6.087
  100        1.726   4.361   0.000   6.087
  101        1.726   4.361   0.000   6.087
  102        1.726   4.361   0.000   6.087
  103        1.726   4.360   0.000   6.087
  104        1.726   4.360   0.000   6.087
  105        1.727   4.362   0.000   6.088
  106        1.726   4.357   0.000   6.083
  107        1.726   4.361   0.000   6.088
  108        1.730   4.377   0.000   6.107
  109        1.726   4.361   0.000   6.088
  110        1.726   4.361   0.000   6.087
  111        1.727   4.365   0.000   6.092
  112        1.726   4.359   0.000   6.085
  113        1.726   4.361   0.000   6.088
  114        1.726   4.361   0.000   6.087
  115        1.726   4.361   0.000   6.088
  116        1.726   4.363   0.000   6.090
  117        1.727   4.362   0.000   6.088
  118        1.726   4.357   0.000   6.083
  119        1.727   4.365   0.000   6.092
  120        1.726   4.359   0.000   6.085
  121        1.726   4.360   0.000   6.086
  122        1.726   4.361   0.000   6.087
  123        1.727   4.370   0.000   6.097
  124        1.726   4.364   0.000   6.090
  125        1.726   4.361   0.000   6.088
  126        1.726   4.361   0.000   6.088
  127        1.726   4.359   0.000   6.085
  128        1.726   4.364   0.000   6.090
  129        1.726   4.361   0.000   6.088
  130        1.726   4.361   0.000   6.088
  131        1.726   4.362   0.000   6.089
  132        1.726   4.362   0.000   6.088
  133        1.726   4.360   0.000   6.086
  134        1.726   4.361   0.000   6.087
  135        1.726   4.359   0.000   6.085
  136        1.726   4.364   0.000   6.090
  137        1.726   4.361   0.000   6.088
  138        1.726   4.361   0.000   6.087
  139        1.726   4.361   0.000   6.087
  140        1.726   4.363   0.000   6.090
  141        1.726   4.361   0.000   6.087
  142        1.726   4.361   0.000   6.087
  143        1.726   4.363   0.000   6.090
  144        1.726   4.363   0.000   6.089
  145        1.726   4.361   0.000   6.087
  146        1.726   4.361   0.000   6.087
  147        1.726   4.361   0.000   6.088
  148        1.726   4.362   0.000   6.088
  149        1.726   4.361   0.000   6.088
  150        1.726   4.361   0.000   6.087
  151        1.726   4.363   0.000   6.090
  152        1.726   4.363   0.000   6.089
  153        1.726   4.361   0.000   6.088
  154        1.726   4.361   0.000   6.087
  155        1.726   4.362   0.000   6.088
  156        1.726   4.360   0.000   6.086
  157        1.726   4.362   0.000   6.088
  158        1.726   4.361   0.000   6.087
  159        1.726   4.362   0.000   6.088
  160        1.726   4.361   0.000   6.087
  161        1.726   4.362   0.000   6.088
  162        1.726   4.361   0.000   6.087
  163        1.726   4.361   0.000   6.088
  164        1.726   4.361   0.000   6.087
  165        1.726   4.361   0.000   6.088
  166        1.726   4.361   0.000   6.087
  167        1.726   4.362   0.000   6.088
  168        1.726   4.361   0.000   6.087
  169        1.726   4.361   0.000   6.087
  170        1.726   4.361   0.000   6.088
  171        1.726   4.360   0.000   6.086
  172        1.726   4.362   0.000   6.088
  173        1.726   4.361   0.000   6.087
  174        1.726   4.362   0.000   6.088
  175        1.726   4.361   0.000   6.087
  176        1.726   4.362   0.000   6.088
  177        1.726   4.361   0.000   6.087
  178        1.726   4.362   0.000   6.088
  179        1.726   4.361   0.000   6.087
  180        1.726   4.361   0.000   6.088
  181        1.726   4.361   0.000   6.087
  182        1.726   4.361   0.000   6.088
  183        1.726   4.361   0.000   6.087
  184        1.726   4.362   0.000   6.088
  185        1.726   4.361   0.000   6.087
  186        1.726   4.361   0.000   6.088
  187        1.726   4.363   0.000   6.090
  188        1.726   4.361   0.000   6.087
  189        1.726   4.361   0.000   6.087
  190        1.726   4.361   0.000   6.087
  191        1.726   4.363   0.000   6.089
  192        1.726   4.363   0.000   6.090
  193        1.726   4.361   0.000   6.087
  194        1.726   4.361   0.000   6.087
  195        1.726   4.362   0.000   6.088
  196        1.726   4.361   0.000   6.088
  197        1.726   4.361   0.000   6.087
  198        1.726   4.361   0.000   6.088
  199        1.726   4.363   0.000   6.089
  200        1.726   4.363   0.000   6.090
  201        1.726   4.361   0.000   6.087
  202        1.726   4.360   0.000   6.086
  203        1.726   4.364   0.000   6.090
  204        1.727   4.370   0.000   6.097
  205        1.726   4.361   0.000   6.088
  206        1.726   4.361   0.000   6.088
  207        1.726   4.364   0.000   6.090
  208        1.726   4.359   0.000   6.085
  209        1.726   4.361   0.000   6.088
  210        1.726   4.361   0.000   6.088
  211        1.726   4.362   0.000   6.088
  212        1.726   4.362   0.000   6.089
  213        1.726   4.361   0.000   6.087
  214        1.726   4.360   0.000   6.086
  215        1.726   4.364   0.000   6.090
  216        1.726   4.359   0.000   6.085
  217        0.436   0.112   0.000   0.548
--------------------------------------------------
tot        261.0771071.128 356.8681689.073
 


 magnetization (x)
 
# of ion       s       p       d       tot
------------------------------------------
    1        0.019   0.020   4.559   4.598
    2       -0.018  -0.021  -4.559  -4.598
    3        0.018   0.018   4.568   4.604
    4       -0.018  -0.018  -4.570  -4.606
    5        0.018   0.018   4.568   4.604
    6       -0.018  -0.018  -4.569  -4.604
    7        0.019   0.020   4.559   4.598
    8       -0.018  -0.018  -4.570  -4.606
    9        0.018   0.018   4.569   4.605
   10       -0.017  -0.018  -4.568  -4.603
   11        0.018   0.018   4.570   4.605
   12       -0.018  -0.018  -4.569  -4.605
   13        0.018   0.018   4.570   4.605
   14       -0.018  -0.018  -4.570  -4.605
   15        0.018   0.018   4.569   4.605
   16       -0.018  -0.018  -4.569  -4.605
   17        0.019   0.020   4.559   4.598
   18       -0.018  -0.018  -4.570  -4.606
   19        0.018   0.018   4.568   4.604
   20       -0.018  -0.018  -4.568  -4.603
   21        0.018   0.018   4.568   4.604
   22       -0.018  -0.018  -4.569  -4.605
   23        0.019   0.020   4.559   4.598
   24       -0.018  -0.018  -4.568  -4.603
   25        0.018   0.018   4.568   4.603
   26       -0.018  -0.021  -4.559  -4.598
   27        0.018   0.018   4.569   4.604
   28       -0.018  -0.018  -4.570  -4.606
   29        0.018   0.018   4.569   4.604
   30       -0.018  -0.018  -4.569  -4.604
   31        0.018   0.018   4.568   4.603
   32       -0.018  -0.018  -4.570  -4.606
   33        0.018   0.018   4.569   4.604
   34       -0.018  -0.018  -4.570  -4.606
   35        0.018   0.018   4.569   4.604
   36       -0.018  -0.018  -4.568  -4.603
   37        0.018   0.018   4.569   4.604
   38       -0.018  -0.018  -4.569  -4.605
   39        0.018   0.018   4.569   4.604
   40       -0.018  -0.018  -4.568  -4.603
   41        0.018   0.018   4.569   4.605
   42       -0.017  -0.018  -4.568  -4.603
   43        0.018   0.018   4.570   4.605
   44       -0.018  -0.018  -4.569  -4.605
   45        0.018   0.018   4.570   4.605
   46       -0.018  -0.018  -4.570  -4.605
   47        0.018   0.018   4.569   4.605
   48       -0.018  -0.018  -4.569  -4.605
   49        0.018   0.018   4.569   4.605
   50       -0.018  -0.018  -4.570  -4.605
   51        0.018   0.018   4.570   4.605
   52       -0.018  -0.018  -4.570  -4.605
   53        0.018   0.018   4.570   4.605
   54       -0.018  -0.018  -4.569  -4.605
   55        0.018   0.018   4.569   4.605
   56       -0.018  -0.018  -4.570  -4.605
   57        0.018   0.018   4.569   4.604
   58       -0.018  -0.018  -4.568  -4.603
   59        0.018   0.018   4.569   4.604
   60       -0.018  -0.018  -4.568  -4.603
   61        0.018   0.018   4.569   4.604
   62       -0.018  -0.018  -4.569  -4.604
   63        0.018   0.018   4.569   4.604
   64       -0.018  -0.018  -4.568  -4.603
   65        0.018   0.018   4.568   4.603
   66       -0.018  -0.018  -4.568  -4.603
   67        0.018   0.018   4.569   4.604
   68       -0.018  -0.018  -4.568  -4.603
   69        0.018   0.018   4.569   4.604
   70       -0.018  -0.018  -4.569  -4.604
   71        0.018   0.018   4.568   4.603
   72       -0.018  -0.018  -4.568  -4.603
   73       -0.002  -0.014   0.000  -0.016
   74       -0.002  -0.017   0.000  -0.019
   75        0.002   0.007   0.000   0.009
   76        0.002   0.025   0.000   0.026
   77       -0.002  -0.018   0.000  -0.020
   78       -0.002  -0.020   0.000  -0.022
   79        0.002   0.021   0.000   0.023
   80        0.002   0.028   0.000   0.030
   81       -0.002  -0.018   0.000  -0.020
   82       -0.002  -0.020   0.000  -0.022
   83        0.002   0.021   0.000   0.024
   84        0.002   0.023   0.000   0.025
   85       -0.002  -0.014   0.000  -0.016
   86       -0.002  -0.017   0.000  -0.019
   87        0.002   0.021   0.000   0.023
   88        0.002   0.028   0.000   0.030
   89       -0.002  -0.020   0.000  -0.022
   90       -0.002  -0.020   0.000  -0.022
   91        0.002   0.019   0.000   0.021
   92        0.002   0.019   0.000   0.021
   93       -0.002  -0.020   0.000  -0.022
   94       -0.002  -0.020   0.000  -0.022
   95        0.002   0.019   0.000   0.021
   96        0.002   0.019   0.000   0.021
   97       -0.002  -0.020   0.000  -0.022
   98       -0.002  -0.020   0.000  -0.022
   99        0.002   0.020   0.000   0.022
  100        0.002   0.020   0.000   0.022
  101       -0.002  -0.020   0.000  -0.022
  102       -0.002  -0.020   0.000  -0.022
  103        0.002   0.019   0.000   0.021
  104        0.002   0.019   0.000   0.021
  105       -0.002  -0.017   0.000  -0.019
  106       -0.002  -0.014   0.000  -0.016
  107        0.002   0.025   0.000   0.026
  108        0.002   0.007   0.000   0.009
  109       -0.002  -0.020   0.000  -0.022
  110       -0.002  -0.018   0.000  -0.020
  111        0.002   0.028   0.000   0.030
  112        0.002   0.021   0.000   0.023
  113       -0.002  -0.020   0.000  -0.022
  114       -0.002  -0.018   0.000  -0.020
  115        0.002   0.023   0.000   0.025
  116        0.002   0.021   0.000   0.024
  117       -0.002  -0.017   0.000  -0.019
  118       -0.002  -0.014   0.000  -0.016
  119        0.002   0.028   0.000   0.030
  120        0.002   0.021   0.000   0.023
  121       -0.002  -0.020   0.000  -0.022
  122       -0.002  -0.019   0.000  -0.021
  123        0.002   0.007   0.000   0.009
  124        0.002   0.019   0.000   0.021
  125       -0.002  -0.020   0.000  -0.022
  126       -0.002  -0.019   0.000  -0.022
  127        0.002   0.018   0.000   0.020
  128        0.002   0.022   0.000   0.024
  129       -0.002  -0.020   0.000  -0.022
  130       -0.002  -0.019   0.000  -0.022
  131        0.002   0.019   0.000   0.021
  132        0.002   0.021   0.000   0.023
  133       -0.002  -0.020   0.000  -0.022
  134       -0.002  -0.019   0.000  -0.021
  135        0.002   0.018   0.000   0.020
  136        0.002   0.021   0.000   0.024
  137       -0.002  -0.022   0.000  -0.024
  138       -0.002  -0.019   0.000  -0.022
  139        0.002   0.017   0.000   0.019
  140        0.002   0.019   0.000   0.021
  141       -0.002  -0.021   0.000  -0.023
  142       -0.002  -0.020   0.000  -0.022
  143        0.002   0.018   0.000   0.020
  144        0.002   0.019   0.000   0.021
  145       -0.002  -0.021   0.000  -0.023
  146       -0.002  -0.020   0.000  -0.022
  147        0.002   0.020   0.000   0.022
  148        0.002   0.020   0.000   0.023
  149       -0.002  -0.022   0.000  -0.024
  150       -0.002  -0.019   0.000  -0.022
  151        0.002   0.018   0.000   0.020
  152        0.002   0.019   0.000   0.021
  153       -0.002  -0.024   0.000  -0.026
  154       -0.002  -0.018   0.000  -0.020
  155        0.002   0.019   0.000   0.021
  156        0.002   0.020   0.000   0.022
  157       -0.002  -0.022   0.000  -0.024
  158       -0.002  -0.019   0.000  -0.021
  159        0.002   0.019   0.000   0.021
  160        0.002   0.020   0.000   0.022
  161       -0.002  -0.022   0.000  -0.024
  162       -0.002  -0.019   0.000  -0.021
  163        0.002   0.020   0.000   0.022
  164        0.002   0.020   0.000   0.022
  165       -0.002  -0.024   0.000  -0.026
  166       -0.002  -0.018   0.000  -0.020
  167        0.002   0.019   0.000   0.021
  168        0.002   0.020   0.000   0.022
  169       -0.002  -0.018   0.000  -0.020
  170       -0.002  -0.024   0.000  -0.026
  171        0.002   0.020   0.000   0.022
  172        0.002   0.019   0.000   0.021
  173       -0.002  -0.019   0.000  -0.021
  174       -0.002  -0.022   0.000  -0.024
  175        0.002   0.020   0.000   0.022
  176        0.002   0.019   0.000   0.021
  177       -0.002  -0.019   0.000  -0.021
  178       -0.002  -0.022   0.000  -0.024
  179        0.002   0.020   0.000   0.022
  180        0.002   0.020   0.000   0.022
  181       -0.002  -0.018   0.000  -0.020
  182       -0.002  -0.024   0.000  -0.026
  183        0.002   0.020   0.000   0.022
  184        0.002   0.019   0.000   0.021
  185       -0.002  -0.019   0.000  -0.022
  186       -0.002  -0.022   0.000  -0.024
  187        0.002   0.019   0.000   0.021
  188        0.002   0.017   0.000   0.019
  189       -0.002  -0.020   0.000  -0.022
  190       -0.002  -0.021   0.000  -0.023
  191        0.002   0.019   0.000   0.021
  192        0.002   0.018   0.000   0.020
  193       -0.002  -0.020   0.000  -0.022
  194       -0.002  -0.021   0.000  -0.023
  195        0.002   0.020   0.000   0.023
  196        0.002   0.020   0.000   0.022
  197       -0.002  -0.019   0.000  -0.022
  198       -0.002  -0.022   0.000  -0.024
  199        0.002   0.019   0.000   0.021
  200        0.002   0.018   0.000   0.020
  201       -0.002  -0.019   0.000  -0.021
  202       -0.002  -0.020   0.000  -0.022
  203        0.002   0.019   0.000   0.021
  204        0.002   0.007   0.000   0.009
  205       -0.002  -0.019   0.000  -0.022
  206       -0.002  -0.020   0.000  -0.022
  207        0.002   0.021   0.000   0.024
  208        0.002   0.018   0.000   0.020
  209       -0.002  -0.019   0.000  -0.022
  210       -0.002  -0.020   0.000  -0.022
  211        0.002   0.021   0.000   0.023
  212        0.002   0.019   0.000   0.021
  213       -0.002  -0.019   0.000  -0.021
  214       -0.002  -0.020   0.000  -0.022
  215        0.002   0.021   0.000   0.024
  216        0.002   0.018   0.000   0.020
  217        0.001   0.000   0.000   0.001
--------------------------------------------------
tot          0.005   0.004  -0.024  -0.015
 

 total amount of memory used by VASP MPI-rank0   697375. kBytes
=======================================================================

   base      :      30000. kBytes
   nonl-proj :     102460. kBytes
   fftplans  :      32099. kBytes
   grid      :      29521. kBytes
   one-center:       1150. kBytes
   wavefun   :     502145. kBytes
 
  
  
 General timing and accounting informations for this job:
 ========================================================
  
                  Total CPU time used (sec):     6099.091
                            User time (sec):     6074.445
                          System time (sec):       24.646
                         Elapsed time (sec):     6107.125
  
                   Maximum memory used (kb):      922152.
                   Average memory used (kb):           0.
  
                          Minor page faults:       276758
                          Major page faults:           13
                 Voluntary context switches:          887
