       N       E                     dE             d eps       ncg     rms          rms(c)
DAV:   1     0.698910584016E+03    0.69891E+03   -0.34128E+04   144   0.191E+03
DAV:   2     0.115020616494E+02   -0.68741E+03   -0.66118E+03   156   0.521E+02
DAV:   3    -0.406963241587E+02   -0.52198E+02   -0.51891E+02   168   0.158E+02
DAV:   4    -0.414544308304E+02   -0.75811E+00   -0.75771E+00   168   0.209E+01
DAV:   5    -0.414647823015E+02   -0.10351E-01   -0.10351E-01   168   0.243E+00    0.246E+01
DAV:   6    -0.394033231261E+02    0.20615E+01   -0.16199E+01   216   0.319E+01    0.161E+01
DAV:   7    -0.400376894469E+02   -0.63437E+00   -0.14287E+00   168   0.104E+01    0.117E+01
DAV:   8    -0.399226891434E+02    0.11500E+00   -0.56103E-01   168   0.603E+00    0.433E+00
DAV:   9    -0.402038344033E+02   -0.28115E+00   -0.96928E-02   156   0.281E+00    0.128E+00
DAV:  10    -0.402043639789E+02   -0.52958E-03   -0.13348E-02   168   0.927E-01    0.225E-01
DAV:  11    -0.402043561543E+02    0.78246E-05   -0.13304E-03   144   0.240E-01    0.122E-01
DAV:  12    -0.402043778762E+02   -0.21722E-04   -0.32301E-05   216   0.733E-02    0.581E-02
DAV:  13    -0.402043840000E+02   -0.61238E-05   -0.43118E-05   144   0.387E-02    0.170E-02
DAV:  14    -0.402043848153E+02   -0.81536E-06   -0.44056E-06   144   0.238E-02    0.479E-03
DAV:  15    -0.402043850674E+02   -0.25202E-06   -0.38631E-07   168   0.477E-03    0.171E-03
DAV:  16    -0.402043850838E+02   -0.16417E-07   -0.26880E-08    72   0.159E-03
   1 F= -.40204385E+02 E0= -.40204385E+02  d E =-.402044E+02  mag=     0.0000
       N       E                     dE             d eps       ncg     rms          rms(c)
DAV:   1    -0.403649181508E+02   -0.16053E+00   -0.62334E+00   144   0.187E+01    0.311E+00
DAV:   2    -0.402516531942E+02    0.11326E+00   -0.29965E-01   192   0.421E+00    0.183E+00
DAV:   3    -0.402334024935E+02    0.18251E-01   -0.32464E-02   168   0.163E+00    0.944E-01
DAV:   4    -0.402259359125E+02    0.74666E-02   -0.57398E-03   192   0.544E-01    0.432E-01
DAV:   5    -0.402246298019E+02    0.13061E-02   -0.19334E-03   168   0.346E-01    0.169E-01
DAV:   6    -0.402246707803E+02   -0.40978E-04   -0.19371E-04   192   0.963E-02    0.689E-02
DAV:   7    -0.402246713875E+02   -0.60721E-06   -0.12375E-05   168   0.273E-02    0.325E-02
DAV:   8    -0.402246729169E+02   -0.15294E-05   -0.22116E-06   216   0.131E-02    0.796E-03
DAV:   9    -0.402246729925E+02   -0.75539E-07   -0.42591E-07   144   0.418E-03
   2 F= -.40224673E+02 E0= -.40224673E+02  d E =-.202879E-01  mag=    -0.0000
       N       E                     dE             d eps       ncg     rms          rms(c)
DAV:   1    -0.402467701075E+02   -0.22097E-01   -0.89840E-01   144   0.711E+00    0.119E+00
DAV:   2    -0.402303495595E+02    0.16421E-01   -0.42625E-02   192   0.161E+00    0.709E-01
DAV:   3    -0.402277270382E+02    0.26225E-02   -0.47449E-03   168   0.616E-01    0.365E-01
DAV:   4    -0.402266403941E+02    0.10866E-02   -0.82285E-04   192   0.208E-01    0.168E-01
DAV:   5    -0.402264453945E+02    0.19500E-03   -0.28938E-04   168   0.134E-01    0.638E-02
DAV:   6    -0.402264512258E+02   -0.58313E-05   -0.29643E-05   192   0.377E-02    0.260E-02
DAV:   7    -0.402264513196E+02   -0.93801E-07   -0.16824E-06   168   0.103E-02    0.124E-02
DAV:   8    -0.402264515386E+02   -0.21900E-06   -0.32005E-07   192   0.507E-03    0.308E-03
DAV:   9    -0.402264515505E+02   -0.11838E-07   -0.54586E-08    72   0.158E-03
   3 F= -.40226452E+02 E0= -.40226452E+02  d E =-.220665E-01  mag=    -0.0000
       N       E                     dE             d eps       ncg     rms          rms(c)
DAV:   1    -0.403240343970E+02   -0.97583E-01   -0.32439E+00   144   0.143E+01    0.255E+00
DAV:   2    -0.402458155572E+02    0.78219E-01   -0.20678E-01   192   0.365E+00    0.158E+00
DAV:   3    -0.402389602596E+02    0.68553E-02   -0.17526E-02   168   0.128E+00    0.687E-01
DAV:   4    -0.402350848977E+02    0.38754E-02   -0.30284E-03   192   0.413E-01    0.367E-01
DAV:   5    -0.402340910168E+02    0.99388E-03   -0.13144E-03   192   0.282E-01    0.126E-01
DAV:   6    -0.402341109488E+02   -0.19932E-04   -0.11817E-04   144   0.892E-02    0.507E-02
DAV:   7    -0.402341132265E+02   -0.22778E-05   -0.82297E-06   192   0.205E-02    0.267E-02
DAV:   8    -0.402341140818E+02   -0.85532E-06   -0.10026E-06   192   0.868E-03    0.426E-03
DAV:   9    -0.402341141207E+02   -0.38869E-07   -0.14009E-07   120   0.322E-03
   4 F= -.40234114E+02 E0= -.40234114E+02  d E =-.766257E-02  mag=    -0.0000
       N       E                     dE             d eps       ncg     rms          rms(c)
DAV:   1    -0.402664187996E+02   -0.32305E-01   -0.11259E+00   192   0.841E+00    0.150E+00
DAV:   2    -0.402394415327E+02    0.26977E-01   -0.71911E-02   144   0.214E+00    0.925E-01
DAV:   3    -0.402370687193E+02    0.23728E-02   -0.59625E-03   168   0.753E-01    0.401E-01
DAV:   4    -0.402357227555E+02    0.13460E-02   -0.10630E-03   216   0.244E-01    0.214E-01
DAV:   5    -0.402353806423E+02    0.34211E-03   -0.45550E-04   192   0.167E-01    0.725E-02
DAV:   6    -0.402353879373E+02   -0.72950E-05   -0.39527E-05   168   0.515E-02    0.295E-02
DAV:   7    -0.402353887316E+02   -0.79429E-06   -0.25799E-06   192   0.116E-02    0.157E-02
DAV:   8    -0.402353890215E+02   -0.28989E-06   -0.34782E-07   192   0.516E-03    0.245E-03
DAV:   9    -0.402353890355E+02   -0.14006E-07   -0.46250E-08    72   0.195E-03
   5 F= -.40235389E+02 E0= -.40235389E+02  d E =-.893748E-02  mag=     0.0000
       N       E                     dE             d eps       ncg     rms          rms(c)
DAV:   1    -0.402412597247E+02   -0.58707E-02   -0.11704E+00   144   0.734E+00    0.660E-01
DAV:   2    -0.402382596033E+02    0.30001E-02   -0.33417E-02   192   0.132E+00    0.375E-01
DAV:   3    -0.402376816531E+02    0.57795E-03   -0.12080E-03   144   0.341E-01    0.188E-01
DAV:   4    -0.402374036065E+02    0.27805E-03   -0.19486E-04   192   0.104E-01    0.945E-02
DAV:   5    -0.402373397083E+02    0.63898E-04   -0.75601E-05   192   0.685E-02    0.348E-02
DAV:   6    -0.402373413381E+02   -0.16298E-05   -0.70770E-06   192   0.180E-02    0.134E-02
DAV:   7    -0.402373414252E+02   -0.87058E-07   -0.40006E-07   168   0.508E-03
   6 F= -.40237341E+02 E0= -.40237341E+02  d E =-.195239E-02  mag=     0.0000
       N       E                     dE             d eps       ncg     rms          rms(c)
DAV:   1    -0.402466837206E+02   -0.93424E-02   -0.24804E+00   144   0.107E+01    0.965E-01
DAV:   2    -0.402402078960E+02    0.64758E-02   -0.71413E-02   192   0.193E+00    0.545E-01
DAV:   3    -0.402389739519E+02    0.12339E-02   -0.26003E-03   144   0.505E-01    0.274E-01
DAV:   4    -0.402383828708E+02    0.59108E-03   -0.41933E-04   192   0.153E-01    0.138E-01
DAV:   5    -0.402382477800E+02    0.13509E-03   -0.16154E-04   216   0.998E-02    0.515E-02
DAV:   6    -0.402382513702E+02   -0.35902E-05   -0.14192E-05   192   0.261E-02    0.185E-02
DAV:   7    -0.402382515154E+02   -0.14519E-06   -0.10063E-06   144   0.806E-03    0.937E-03
DAV:   8    -0.402382516298E+02   -0.11438E-06   -0.13776E-07    96   0.341E-03    0.226E-03
DAV:   9    -0.402382516377E+02   -0.79835E-08   -0.35807E-08    72   0.142E-03
   7 F= -.40238252E+02 E0= -.40238252E+02  d E =-.286260E-02  mag=    -0.0000
       N       E                     dE             d eps       ncg     rms          rms(c)
DAV:   1    -0.402383780459E+02   -0.12642E-03   -0.32412E-02   144   0.122E+00    0.111E-01
DAV:   2    -0.402382926992E+02    0.85347E-04   -0.91156E-04   192   0.220E-01    0.640E-02
DAV:   3    -0.402382766457E+02    0.16053E-04   -0.34147E-05   144   0.556E-02    0.318E-02
DAV:   4    -0.402382688444E+02    0.78013E-05   -0.52872E-06   192   0.174E-02    0.160E-02
DAV:   5    -0.402382670073E+02    0.18372E-05   -0.21477E-06   192   0.115E-02    0.578E-03
DAV:   6    -0.402382670473E+02   -0.40032E-07   -0.20018E-07   192   0.305E-03
   8 F= -.40238267E+02 E0= -.40238267E+02  d E =-.287801E-02  mag=     0.0000
       N       E                     dE             d eps       ncg     rms          rms(c)
DAV:   1    -0.402392733142E+02   -0.10063E-02   -0.46385E-02   144   0.174E+00    0.277E-01
DAV:   2    -0.402383418489E+02    0.93147E-03   -0.34555E-03   144   0.431E-01    0.161E-01
DAV:   3    -0.402383076583E+02    0.34191E-04   -0.24221E-04   144   0.159E-01    0.697E-02
DAV:   4    -0.402382891899E+02    0.18468E-04   -0.20868E-05   168   0.364E-02    0.433E-02
DAV:   5    -0.402382820317E+02    0.71581E-05   -0.63399E-06   168   0.197E-02    0.141E-02
DAV:   6    -0.402382823083E+02   -0.27659E-06   -0.57927E-07   192   0.644E-03    0.243E-03
DAV:   7    -0.402382823185E+02   -0.10121E-07   -0.49429E-08    96   0.175E-03
   9 F= -.40238282E+02 E0= -.40238282E+02  d E =-.152711E-04  mag=     0.0000
       N       E                     dE             d eps       ncg     rms          rms(c)
DAV:   1    -0.402384459512E+02   -0.16364E-03   -0.70910E-03   144   0.679E-01    0.109E-01
DAV:   2    -0.402383033579E+02    0.14259E-03   -0.53036E-04   144   0.169E-01    0.628E-02
DAV:   3    -0.402382981449E+02    0.52129E-05   -0.37202E-05   144   0.621E-02    0.272E-02
DAV:   4    -0.402382953130E+02    0.28319E-05   -0.31878E-06   168   0.142E-02    0.168E-02
DAV:   5    -0.402382942134E+02    0.10996E-05   -0.96481E-07   168   0.768E-03    0.547E-03
DAV:   6    -0.402382942548E+02   -0.41337E-07   -0.78403E-08   144   0.251E-03
  10 F= -.40238294E+02 E0= -.40238294E+02  d E =-.272075E-04  mag=     0.0000
