 vasp.5.4.4.18Apr17-6-g9f103f2a35 (build Apr 27 2017 11:13:10) complex          
  
 executed on           IFC91_ompi date 2020.05.13  12:11:46
 running on   12 total cores
 distrk:  each k-point on   12 cores,    1 groups
 distr:  one band on NCORES_PER_BAND=   1 cores,   12 groups


--------------------------------------------------------------------------------------------------------


 INCAR:
 POTCAR:    PAW Mn_pv 02Aug2007                   
 POTCAR:    PAW F 31May2000                       

 ----------------------------------------------------------------------------- 
|                                                                             |
|           W    W    AA    RRRRR   N    N  II  N    N   GGGG   !!!           |
|           W    W   A  A   R    R  NN   N  II  NN   N  G    G  !!!           |
|           W    W  A    A  R    R  N N  N  II  N N  N  G       !!!           |
|           W WW W  AAAAAA  RRRRR   N  N N  II  N  N N  G  GGG   !            |
|           WW  WW  A    A  R   R   N   NN  II  N   NN  G    G                |
|           W    W  A    A  R    R  N    N  II  N    N   GGGG   !!!           |
|                                                                             |
|      For optimal performance we recommend to set                            |
|        NCORE= 4 - approx SQRT( number of cores)                             |
|      NCORE specifies how many cores store one orbital (NPAR=cpu/NCORE).     |
|      This setting can  greatly improve the performance of VASP for DFT.     |
|      The default,   NCORE=1            might be grossly inefficient         |
|      on modern multi-core architectures or massively parallel machines.     |
|      Do your own testing !!!!                                               |
|      Unfortunately you need to use the default for GW and RPA calculations. |
|      (for HF NCORE is supported but not extensively tested yet)             |
|                                                                             |
 ----------------------------------------------------------------------------- 

 POTCAR:    PAW Mn_pv 02Aug2007                   
   VRHFIN =Mn: 3p4s3d                                                           
   LEXCH  = CA                                                                  
   EATOM  =  2028.0466 eV,  149.0572 Ry                                         
                                                                                
   TITEL  = PAW Mn_pv 02Aug2007                                                 
   LULTRA =        F    use ultrasoft PP ?                                      
   IUNSCR =        1    unscreen: 0-lin 1-nonlin 2-no                           
   RPACOR =    2.080    partial core radius                                     
   POMASS =   54.938; ZVAL   =   13.000    mass and valenz                      
   RCORE  =    2.300    outmost cutoff radius                                   
   RWIGS  =    2.500; RWIGS  =    1.323    wigner-seitz radius (au A)           
   ENMAX  =  269.944; ENMIN  =  202.458 eV                                      
   ICORE  =        3    local potential                                         
   LCOR   =        T    correct aug charges                                     
   LPAW   =        T    paw PP                                                  
   EAUG   =  569.085                                                            
   DEXC   =    0.000                                                            
   RMAX   =    2.343    core radius for proj-oper                               
   RAUG   =    1.300    factor for augmentation sphere                          
   RDEP   =    2.338    radius for radial grids                                 
   RDEPT  =    1.798    core radius for aug-charge                              
                                                                                
   Atomic configuration                                                         
    8 entries                                                                   
     n  l   j            E        occ.                                          
     1  0  0.50     -6393.6057   2.0000                                         
     2  0  0.50      -735.9993   2.0000                                         
     2  1  1.50      -624.3417   6.0000                                         
     3  0  0.50       -80.9782   2.0000                                         
     3  1  1.50       -50.3144   6.0000                                         
     3  2  2.50        -3.6171   6.0000                                         
     4  0  0.50        -4.3304   1.0000                                         
     4  3  2.50        -1.3606   0.0000                                         
   Description                                                                  
     l       E           TYP  RCUT    TYP  RCUT                                 
     1    -50.3143634     23  2.000                                             
     1     -1.3605826     23  2.000                                             
     2     -3.6171470     23  2.300                                             
     2     -4.9777296     23  2.300                                             
     0     -4.3303688     23  2.300                                             
     0      7.3408788     23  2.300                                             
     3      9.5240782     23  2.300                                             
  local pseudopotential read in
  partial core-charges read in
  partial kinetic energy density read in
  atomic valenz-charges read in
  non local Contribution for L=           1  read in
    real space projection operators read in
  non local Contribution for L=           1  read in
    real space projection operators read in
  non local Contribution for L=           2  read in
    real space projection operators read in
  non local Contribution for L=           2  read in
    real space projection operators read in
  non local Contribution for L=           0  read in
    real space projection operators read in
  non local Contribution for L=           0  read in
    real space projection operators read in
    PAW grid and wavefunctions read in
 
   number of l-projection  operators is LMAX  =           6
   number of lm-projection operators is LMMAX =          18
 
 POTCAR:    PAW F 31May2000                       
   VRHFIN =F: s2p5                                                              
   LEXCH  = CA                                                                  
   EATOM  =   658.3685 eV,   48.3887 Ry                                         
                                                                                
   TITEL  = PAW F 31May2000                                                     
   LULTRA =        F    use ultrasoft PP ?                                      
   IUNSCR =        1    unscreen: 0-lin 1-nonlin 2-no                           
   RPACOR =    1.200    partial core radius                                     
   POMASS =   18.998; ZVAL   =    7.000    mass and valenz                      
   RCORE  =    1.520    outmost cutoff radius                                   
   RWIGS  =    1.500; RWIGS  =    0.794    wigner-seitz radius (au A)           
   ENMAX  =  400.000; ENMIN  =  300.000 eV                                      
   ICORE  =        2    local potential                                         
   LCOR   =        T    correct aug charges                                     
   LPAW   =        T    paw PP                                                  
   EAUG   =  613.614                                                            
   DEXC   =    0.000                                                            
   RMAX   =    1.555    core radius for proj-oper                               
   RAUG   =    1.300    factor for augmentation sphere                          
   RDEP   =    1.539    radius for radial grids                                 
   RDEPT  =    1.299    core radius for aug-charge                              
                                                                                
   Atomic configuration                                                         
    4 entries                                                                   
     n  l   j            E        occ.                                          
     1  0  0.50      -658.3386   2.0000                                         
     2  0  0.50       -29.6221   2.0000                                         
     2  1  0.50       -11.2952   5.0000                                         
     3  2  1.50       -12.2452   0.0000                                         
   Description                                                                  
     l       E           TYP  RCUT    TYP  RCUT                                 
     0    -29.6221019     23  1.200                                             
     0     -9.5240782     23  1.200                                             
     1    -11.2951545     23  1.520                                             
     1      1.3605826     23  1.520                                             
     2    -12.2452434      7  1.500                                             
  local pseudopotential read in
  partial core-charges read in
  partial kinetic energy density read in
  kinetic energy density of atom read in
  atomic valenz-charges read in
  non local Contribution for L=           0  read in
    real space projection operators read in
  non local Contribution for L=           0  read in
    real space projection operators read in
  non local Contribution for L=           1  read in
    real space projection operators read in
  non local Contribution for L=           1  read in
    real space projection operators read in
    PAW grid and wavefunctions read in
 
   number of l-projection  operators is LMAX  =           4
   number of lm-projection operators is LMMAX =           8
 
  PAW Mn_pv 02Aug2007                   :
 energy of atom  1       EATOM=-2028.0466
 kinetic energy error for atom=    0.0047 (will be added to EATOM!!)
  PAW F 31May2000                       :
 energy of atom  2       EATOM= -658.3685
 kinetic energy error for atom=    0.0252 (will be added to EATOM!!)
 
 
 POSCAR: Mn  F                                   
  positions in cartesian coordinates
  No initial velocities read in
 exchange correlation table for  LEXCH =        2
   RHO(1)=    0.500       N(1)  =     2000
   RHO(2)=  100.500       N(2)  =     4000
 


--------------------------------------------------------------------------------------------------------


 ion  position               nearest neighbor table
   1  0.500  0.500  0.500-   3 2.06   4 2.06   5 2.10   6 2.10   5 2.10   6 2.10
   2  0.000  0.000  0.000-   5 2.06   6 2.06   3 2.10   4 2.10   3 2.10   4 2.10
   3  0.196  0.804  0.500-   1 2.06   2 2.10   2 2.10
   4  0.804  0.196  0.500-   1 2.06   2 2.10   2 2.10
   5  0.304  0.304  0.000-   2 2.06   1 2.10   1 2.10
   6  0.696  0.696  0.000-   2 2.06   1 2.10   1 2.10
 
  LATTYP: Found a simple tetragonal cell.
 ALAT       =     4.7959042861
 C/A-ratio  =     0.6772201529
  
  Lattice vectors:
  
 A1 = (   4.7959042861,   0.0000000000,   0.0000000000)
 A2 = (   0.0000000000,   4.7959042861,   0.0000000000)
 A3 = (   0.0000000000,   0.0000000000,   3.2478830338)


Analysis of symmetry for initial positions (statically):
=====================================================================
 Subroutine PRICEL returns:
 Original cell was already a primitive cell.
 

 Routine SETGRP: Setting up the symmetry group for a 
 simple tetragonal supercell.


 Subroutine GETGRP returns: Found 16 space group operations
 (whereof  8 operations were pure point group operations)
 out of a pool of 16 trial point group operations.


The static configuration has the point symmetry D_2h.
 The point group associated with its full space group is D_4h.


Analysis of symmetry for dynamics (positions and initial velocities):
=====================================================================
 Subroutine PRICEL returns:
 Original cell was already a primitive cell.
 

 Routine SETGRP: Setting up the symmetry group for a 
 simple tetragonal supercell.


 Subroutine GETGRP returns: Found 16 space group operations
 (whereof  8 operations were pure point group operations)
 out of a pool of 16 trial point group operations.


The dynamic configuration has the point symmetry D_2h.
 The point group associated with its full space group is D_4h.


Analysis of structural, dynamic, and magnetic symmetry:
=====================================================================
 Subroutine PRICEL returns:
 Original cell was already a primitive cell.
 

 Routine SETGRP: Setting up the symmetry group for a 
 simple tetragonal supercell.


 Subroutine GETGRP returns: Found 16 space group operations
 (whereof  8 operations were pure point group operations)
 out of a pool of 16 trial point group operations.


The magnetic configuration has the point symmetry D_2h.
 The point group associated with its full space group is D_4h.


 Subroutine INISYM returns: Found 16 space group operations
 (whereof  8 operations are pure point group operations),
 and found     1 'primitive' translations

 
 
 KPOINTS: KPOINTS created by Atomic Simulation Env

Automatic generation of k-mesh.
Space group operators:
 irot       det(A)        alpha          n_x          n_y          n_z        tau_x        tau_y        tau_z
    1     1.000000     0.000000     1.000000     0.000000     0.000000     0.000000     0.000000     0.000000
    2    -1.000000     0.000000     1.000000     0.000000     0.000000     0.000000     0.000000     0.000000
    3     1.000000   180.000000     0.000000     0.000000     1.000000     0.000000     0.000000     0.000000
    4    -1.000000   180.000000     0.000000     0.000000     1.000000     0.000000     0.000000     0.000000
    5     1.000000   180.000000     0.707107     0.707107     0.000000     0.000000     0.000000     0.000000
    6    -1.000000   180.000000     0.707107     0.707107     0.000000     0.000000     0.000000     0.000000
    7     1.000000   180.000000     0.707107    -0.707107     0.000000     0.000000     0.000000     0.000000
    8    -1.000000   180.000000     0.707107    -0.707107     0.000000     0.000000     0.000000     0.000000
    9     1.000000    90.000000     0.000000     0.000000    -1.000000     0.500000     0.500000     0.500000
   10    -1.000000    90.000000     0.000000     0.000000    -1.000000     0.500000     0.500000     0.500000
   11     1.000000    90.000000     0.000000     0.000000     1.000000     0.500000     0.500000     0.500000
   12    -1.000000    90.000000     0.000000     0.000000     1.000000     0.500000     0.500000     0.500000
   13     1.000000   180.000000     0.000000     1.000000     0.000000     0.500000     0.500000     0.500000
   14    -1.000000   180.000000     0.000000     1.000000     0.000000     0.500000     0.500000     0.500000
   15     1.000000   180.000000     1.000000     0.000000     0.000000     0.500000     0.500000     0.500000
   16    -1.000000   180.000000     1.000000     0.000000     0.000000     0.500000     0.500000     0.500000
 
 Subroutine IBZKPT returns following result:
 ===========================================
 
 Found      1 irreducible k-points:
 
 Following reciprocal coordinates:
            Coordinates               Weight
  0.000000  0.000000  0.250000      2.000000
 
 Following cartesian coordinates:
            Coordinates               Weight
  0.000000  0.000000  0.076973      2.000000
 


--------------------------------------------------------------------------------------------------------




 Dimension of arrays:
   k-points           NKPTS =      1   k-points in BZ     NKDIM =      1   number of bands    NBANDS=     36
   number of dos      NEDOS =    301   number of ions     NIONS =      6
   non local maximal  LDIM  =      6   non local SUM 2l+1 LMDIM =     18
   total plane-waves  NPLWV =  18000
   max r-space proj   IRMAX =      1   max aug-charges    IRDMAX=  58682
   dimension x,y,z NGX =    30 NGY =   30 NGZ =   20
   dimension x,y,z NGXF=    60 NGYF=   60 NGZF=   40
   support grid    NGXF=   120 NGYF=  120 NGZF=   80
   ions per type =               2   4
   NGX,Y,Z   is equivalent  to a cutoff of  10.40, 10.40, 10.24 a.u.
   NGXF,Y,Z  is equivalent  to a cutoff of  20.80, 20.80, 20.47 a.u.

 SYSTEM =  unknown system                          
 POSCAR =  Mn  F                                   

 Startparameter for this run:
   NWRITE =      2    write-flag & timer
   PREC   = normal    normal or accurate (medium, high low for compatibility)
   ISTART =      0    job   : 0-new  1-cont  2-samecut
   ICHARG =      2    charge: 1-file 2-atom 10-const
   ISPIN  =      2    spin polarized calculation?
   LNONCOLLINEAR =      F non collinear calculations
   LSORBIT =      F    spin-orbit coupling
   INIWAV =      1    electr: 0-lowe 1-rand  2-diag
   LASPH  =      T    aspherical Exc in radial PAW
   METAGGA=      F    non-selfconsistent MetaGGA calc.

 Electronic Relaxation 1
   ENCUT  =  600.0 eV  44.10 Ry    6.64 a.u.   9.58  9.58  6.49*2*pi/ulx,y,z
   ENINI  =  600.0     initial cutoff
   ENAUG  =  613.6 eV  augmentation charge cutoff
   NELM   =     60;   NELMIN=  2; NELMDL= -5     # of ELM steps 
   EDIFF  = 0.1E-06   stopping-criterion for ELM
   LREAL  =      F    real-space projection
   NLSPLINE    = F    spline interpolate recip. space projectors
   LCOMPAT=      F    compatible to vasp.4.4
   GGA_COMPAT  = T    GGA compatible to vasp.4.4-vasp.4.6
   LMAXPAW     = -100 max onsite density
   LMAXMIX     =    4 max onsite mixed and CHGCAR
   VOSKOWN=      0    Vosko Wilk Nusair interpolation
   ROPT   =    0.00000   0.00000
 Ionic relaxation
   EDIFFG = -.5E-02   stopping-criterion for IOM
   NSW    =     50    number of steps for IOM
   NBLOCK =      1;   KBLOCK =     50    inner block; outer block 
   IBRION =      2    ionic relax: 0-MD 1-quasi-New 2-CG
   NFREE  =      1    steps in history (QN), initial steepest desc. (CG)
   ISIF   =      3    stress and relaxation
   IWAVPR =     11    prediction:  0-non 1-charg 2-wave 3-comb
   ISYM   =      2    0-nonsym 1-usesym 2-fastsym
   LCORR  =      T    Harris-Foulkes like correction to forces

   POTIM  = 0.5000    time-step for ionic-motion
   TEIN   =    0.0    initial temperature
   TEBEG  =    0.0;   TEEND  =   0.0 temperature during run
   SMASS  =  -3.00    Nose mass-parameter (am)
   estimated Nose-frequenzy (Omega)   =  0.10E-29 period in steps =****** mass=  -0.526E-27a.u.
   SCALEE = 1.0000    scale energy and forces
   NPACO  =    256;   APACO  = 16.0  distance and # of slots for P.C.
   PSTRESS=    0.0 pullay stress

  Mass of Ions in am
   POMASS =  54.94 19.00
  Ionic Valenz
   ZVAL   =  13.00  7.00
  Atomic Wigner-Seitz radii
   RWIGS  =  -1.00 -1.00
  virtual crystal weights 
   VCA    =   1.00  1.00
   NELECT =      54.0000    total number of electrons
   NUPDOWN=      -1.0000    fix difference up-down

 DOS related values:
   EMIN   =  10.00;   EMAX   =-10.00  energy-range for DOS
   EFERMI =   0.00
   ISMEAR =     0;   SIGMA  =   0.02  broadening in eV -4-tet -1-fermi 0-gaus

 Electronic relaxation 2 (details)
   IALGO  =     38    algorithm
   LDIAG  =      T    sub-space diagonalisation (order eigenvalues)
   LSUBROT=      F    optimize rotation matrix (better conditioning)
   TURBO    =      0    0=normal 1=particle mesh
   IRESTART =      0    0=no restart 2=restart with 2 vectors
   NREBOOT  =      0    no. of reboots
   NMIN     =      0    reboot dimension
   EREF     =   0.00    reference energy to select bands
   IMIX   =      4    mixing-type and parameters
     AMIX     =   0.40;   BMIX     =  1.00
     AMIX_MAG =   1.60;   BMIX_MAG =  1.00
     AMIN     =   0.10
     WC   =   100.;   INIMIX=   1;  MIXPRE=   1;  MAXMIX= -45

 Intra band minimization:
   WEIMIN = 0.0010     energy-eigenvalue tresh-hold
   EBREAK =  0.69E-09  absolut break condition
   DEPER  =   0.30     relativ break condition  

   TIME   =   0.40     timestep for ELM

  volume/ion in A,a.u.               =      12.45        84.02
  Fermi-wavevector in a.u.,A,eV,Ry     =   1.469238  2.776458 29.370375  2.158662
  Thomas-Fermi vector in A             =   2.584640
 
 Write flags
   LWAVE        =      F    write WAVECAR
   LDOWNSAMPLE  =      F    k-point downsampling of WAVECAR
   LCHARG       =      F    write CHGCAR
   LVTOT        =      F    write LOCPOT, total local potential
   LVHAR        =      F    write LOCPOT, Hartree potential only
   LELF         =      F    write electronic localiz. function (ELF)
   LORBIT       =     11    0 simple, 1 ext, 2 COOP (PROOUT), +10 PAW based schemes


 Dipole corrections
   LMONO  =      F    monopole corrections only (constant potential shift)
   LDIPOL =      F    correct potential (dipole corrections)
   IDIPOL =      0    1-x, 2-y, 3-z, 4-all directions 
   EPSILON=  1.0000000 bulk dielectric constant

 LDA+U is selected, type is set to LDAUTYPE =  2
   angular momentum for each species LDAUL =     2   -1
   U (eV)           for each species LDAUU =   4.0  0.0
   J (eV)           for each species LDAUJ =   0.0  0.0
 Exchange correlation treatment:
   GGA     =    --    GGA type
   LEXCH   =     2    internal setting for exchange type
   VOSKOWN=      0    Vosko Wilk Nusair interpolation
   LHFCALC =     F    Hartree Fock is set to
   LHFONE  =     F    Hartree Fock one center treatment
   AEXX    =    0.0000 exact exchange contribution

 Linear response parameters
   LEPSILON=     F    determine dielectric tensor
   LRPA    =     F    only Hartree local field effects (RPA)
   LNABLA  =     F    use nabla operator in PAW spheres
   LVEL    =     F    velocity operator in full k-point grid
   LINTERFAST=   F  fast interpolation
   KINTER  =     0    interpolate to denser k-point grid
   CSHIFT  =0.1000    complex shift for real part using Kramers Kronig
   OMEGAMAX=  -1.0    maximum frequency
   DEG_THRESHOLD= 0.2000000E-02 threshold for treating states as degnerate
   RTIME   =   -0.100 relaxation time in fs
  (WPLASMAI=    0.000 imaginary part of plasma frequency in eV, 0.658/RTIME)
   DFIELD  = 0.0000000 0.0000000 0.0000000 field for delta impulse in time
 
 Orbital magnetization related:
   ORBITALMAG=     F  switch on orbital magnetization
   LCHIMAG   =     F  perturbation theory with respect to B field
   DQ        =  0.001000  dq finite difference perturbation B field
   LLRAUG    =     F  two centre corrections for induced B field



--------------------------------------------------------------------------------------------------------


 conjugate gradient relaxation of ions
 charge density and potential will be updated during run
 spin polarized calculation
 Variant of blocked Davidson
 Davidson routine will perform the subspace rotation
 perform sub-space diagonalisation
    after iterative eigenvector-optimisation
 modified Broyden-mixing scheme, WC =      100.0
 initial mixing is a Kerker type mixing with AMIX =  0.4000 and BMIX =      1.0000
 Hartree-type preconditioning will be used
 using additional bands            9
 reciprocal scheme for non local part
 use partial core corrections
 calculate Harris-corrections to forces 
   (improved forces if not selfconsistent)
 use of overlap-Matrix (Vanderbilt PP)
 Gauss-broadening in eV      SIGMA  =   0.02


--------------------------------------------------------------------------------------------------------


  energy-cutoff  :      600.00
  volume of cell :       74.70
      direct lattice vectors                 reciprocal lattice vectors
     4.795904286  0.000000000  0.000000000     0.208511251  0.000000000  0.000000000
     0.000000000  4.795904286  0.000000000     0.000000000  0.208511251  0.000000000
     0.000000000  0.000000000  3.247883034     0.000000000  0.000000000  0.307892861

  length of vectors
     4.795904286  4.795904286  3.247883034     0.208511251  0.208511251  0.307892861


 
 k-points in units of 2pi/SCALE and weight: KPOINTS created by Atomic Simulation Env
   0.00000000  0.00000000  0.07697322       1.000
 
 k-points in reciprocal lattice and weights: KPOINTS created by Atomic Simulation Env
   0.00000000  0.00000000  0.25000000       1.000
 
 position of ions in fractional coordinates (direct lattice) 
   0.50000000  0.50000000  0.50000000
   0.00000000  0.00000000  0.00000000
   0.19593145  0.80406855  0.50000000
   0.80406855  0.19593145  0.50000000
   0.30406855  0.30406855  0.00000000
   0.69593145  0.69593145  0.00000000
 
 position of ions in cartesian coordinates  (Angst):
   2.39795214  2.39795214  1.62394152
   0.00000000  0.00000000  0.00000000
   0.93966849  3.85623580  1.62394152
   3.85623580  0.93966849  1.62394152
   1.45828365  1.45828365  0.00000000
   3.33762063  3.33762063  0.00000000
 


--------------------------------------------------------------------------------------------------------


 k-point  1 :   0.0000 0.0000 0.2500  plane waves:    2529

 maximum and minimum number of plane-waves per node :      2529     2529

 maximum number of plane-waves:      2529
 maximum index in each direction: 
   IXMAX=    9   IYMAX=    9   IZMAX=    6
   IXMIN=   -9   IYMIN=   -9   IZMIN=   -6


 serial   3D FFT for wavefunctions
 parallel 3D FFT for charge:
    minimum data exchange during FFTs selected (reduces bandwidth)


 total amount of memory used by VASP MPI-rank0    35749. kBytes
=======================================================================

   base      :      30000. kBytes
   nonl-proj :        972. kBytes
   fftplans  :       1875. kBytes
   grid      :       2467. kBytes
   one-center:        186. kBytes
   wavefun   :        249. kBytes
 
     INWAV:  cpu time    0.0000: real time    0.0000
 Broyden mixing: mesh for mixing (old mesh)
   NGX = 19   NGY = 19   NGZ = 13
  (NGX  = 60   NGY  = 60   NGZ  = 40)
  gives a total of   4693 points

 initial charge density was supplied:
 charge density of overlapping atoms calculated
 number of electron      54.0000000 magnetization       0.0000000
 keeping initial charge density in first step


--------------------------------------------------------------------------------------------------------


 Maximum index for augmentation-charges         4435 (set IRDMAX)


--------------------------------------------------------------------------------------------------------


 First call to EWALD:  gamma=   0.421
 Maximum number of real-space cells 2x 2x 3
 Maximum number of reciprocal cells 3x 3x 2

    FEWALD:  cpu time    0.0010: real time    0.0010


--------------------------------------- Iteration      1(   1)  ---------------------------------------


    POTLOK:  cpu time    0.0070: real time    0.0070
    SETDIJ:  cpu time    0.2296: real time    0.2296
atom =   1  type =  1  l = 2
 
 onsite density matrix
 
spin component  1
 
  0.2837  0.0000  0.0000  0.0000  0.0000
  0.0000  0.2837  0.0000  0.0000  0.0000
  0.0000  0.0000  0.2837  0.0000  0.0000
  0.0000  0.0000  0.0000  0.2837  0.0000
  0.0000  0.0000  0.0000  0.0000  0.2837
 
spin component  2
 
  0.7701  0.0000  0.0000  0.0000  0.0000
  0.0000  0.7701  0.0000  0.0000  0.0000
  0.0000  0.0000  0.7701  0.0000  0.0000
  0.0000  0.0000  0.0000  0.7701  0.0000
  0.0000  0.0000  0.0000  0.0000  0.7701
 
 occupancies and eigenvectors
 
  o =  0.2837  v =  1.0000  0.0000  0.0000  0.0000  0.0000  0.0000  0.0000  0.0000  0.0000  0.0000      0.0000  0.0000  0.0000  0.0000  0.0000  0.0000  0.0000  0.0000  0.0000  0.0000
  o =  0.2837  v =  0.0000  1.0000  0.0000  0.0000  0.0000  0.0000  0.0000  0.0000  0.0000  0.0000      0.0000  0.0000  0.0000  0.0000  0.0000  0.0000  0.0000  0.0000  0.0000  0.0000
  o =  0.2837  v =  0.0000  0.0000  1.0000  0.0000  0.0000  0.0000  0.0000  0.0000  0.0000  0.0000      0.0000  0.0000  0.0000  0.0000  0.0000  0.0000  0.0000  0.0000  0.0000  0.0000
  o =  0.2837  v =  0.0000  0.0000  0.0000  1.0000  0.0000  0.0000  0.0000  0.0000  0.0000  0.0000      0.0000  0.0000  0.0000  0.0000  0.0000  0.0000  0.0000  0.0000  0.0000  0.0000
  o =  0.2837  v =  0.0000  0.0000  0.0000  0.0000  1.0000  0.0000  0.0000  0.0000  0.0000  0.0000      0.0000  0.0000  0.0000  0.0000  0.0000  0.0000  0.0000  0.0000  0.0000  0.0000
  o =  0.7701  v =  0.0000  0.0000  0.0000  0.0000  0.0000  1.0000  0.0000  0.0000  0.0000  0.0000      0.0000  0.0000  0.0000  0.0000  0.0000  0.0000  0.0000  0.0000  0.0000  0.0000
  o =  0.7701  v =  0.0000  0.0000  0.0000  0.0000  0.0000  0.0000  1.0000  0.0000  0.0000  0.0000      0.0000  0.0000  0.0000  0.0000  0.0000  0.0000  0.0000  0.0000  0.0000  0.0000
  o =  0.7701  v =  0.0000  0.0000  0.0000  0.0000  0.0000  0.0000  0.0000  1.0000  0.0000  0.0000      0.0000  0.0000  0.0000  0.0000  0.0000  0.0000  0.0000  0.0000  0.0000  0.0000
  o =  0.7701  v =  0.0000  0.0000  0.0000  0.0000  0.0000  0.0000  0.0000  0.0000  1.0000  0.0000      0.0000  0.0000  0.0000  0.0000  0.0000  0.0000  0.0000  0.0000  0.0000  0.0000
  o =  0.7701  v =  0.0000  0.0000  0.0000  0.0000  0.0000  0.0000  0.0000  0.0000  0.0000  1.0000      0.0000  0.0000  0.0000  0.0000  0.0000  0.0000  0.0000  0.0000  0.0000  0.0000
atom =   2  type =  1  l = 2
 
 onsite density matrix
 
spin component  1
 
  0.7701  0.0000  0.0000  0.0000  0.0000
  0.0000  0.7701  0.0000  0.0000  0.0000
  0.0000  0.0000  0.7701  0.0000  0.0000
  0.0000  0.0000  0.0000  0.7701  0.0000
  0.0000  0.0000  0.0000  0.0000  0.7701
 
spin component  2
 
  0.2837  0.0000  0.0000  0.0000  0.0000
  0.0000  0.2837  0.0000  0.0000  0.0000
  0.0000  0.0000  0.2837  0.0000  0.0000
  0.0000  0.0000  0.0000  0.2837  0.0000
  0.0000  0.0000  0.0000  0.0000  0.2837
 
 occupancies and eigenvectors
 
  o =  0.2837  v =  0.0000  0.0000  0.0000  0.0000  0.0000  1.0000  0.0000  0.0000  0.0000  0.0000      0.0000  0.0000  0.0000  0.0000  0.0000  0.0000  0.0000  0.0000  0.0000  0.0000
  o =  0.2837  v =  0.0000  0.0000  0.0000  0.0000  0.0000  0.0000  1.0000  0.0000  0.0000  0.0000      0.0000  0.0000  0.0000  0.0000  0.0000  0.0000  0.0000  0.0000  0.0000  0.0000
  o =  0.2837  v =  0.0000  0.0000  0.0000  0.0000  0.0000  0.0000  0.0000  1.0000  0.0000  0.0000      0.0000  0.0000  0.0000  0.0000  0.0000  0.0000  0.0000  0.0000  0.0000  0.0000
  o =  0.2837  v =  0.0000  0.0000  0.0000  0.0000  0.0000  0.0000  0.0000  0.0000  1.0000  0.0000      0.0000  0.0000  0.0000  0.0000  0.0000  0.0000  0.0000  0.0000  0.0000  0.0000
  o =  0.2837  v =  0.0000  0.0000  0.0000  0.0000  0.0000  0.0000  0.0000  0.0000  0.0000  1.0000      0.0000  0.0000  0.0000  0.0000  0.0000  0.0000  0.0000  0.0000  0.0000  0.0000
  o =  0.7701  v =  1.0000  0.0000  0.0000  0.0000  0.0000  0.0000  0.0000  0.0000  0.0000  0.0000      0.0000  0.0000  0.0000  0.0000  0.0000  0.0000  0.0000  0.0000  0.0000  0.0000
  o =  0.7701  v =  0.0000  1.0000  0.0000  0.0000  0.0000  0.0000  0.0000  0.0000  0.0000  0.0000      0.0000  0.0000  0.0000  0.0000  0.0000  0.0000  0.0000  0.0000  0.0000  0.0000
  o =  0.7701  v =  0.0000  0.0000  1.0000  0.0000  0.0000  0.0000  0.0000  0.0000  0.0000  0.0000      0.0000  0.0000  0.0000  0.0000  0.0000  0.0000  0.0000  0.0000  0.0000  0.0000
  o =  0.7701  v =  0.0000  0.0000  0.0000  1.0000  0.0000  0.0000  0.0000  0.0000  0.0000  0.0000      0.0000  0.0000  0.0000  0.0000  0.0000  0.0000  0.0000  0.0000  0.0000  0.0000
  o =  0.7701  v =  0.0000  0.0000  0.0000  0.0000  1.0000  0.0000  0.0000  0.0000  0.0000  0.0000      0.0000  0.0000  0.0000  0.0000  0.0000  0.0000  0.0000  0.0000  0.0000  0.0000
     EDDAV:  cpu time    0.0388: real time    0.0575
       DOS:  cpu time    0.0001: real time    0.0001
    --------------------------------------------
      LOOP:  cpu time    0.2756: real time    0.2943

 eigenvalue-minimisations  :   144
 total energy-change (2. order) : 0.6989106E+03  (-0.3412850E+04)
 number of electron      54.0000000 magnetization       0.0000000
 augmentation part       54.0000000 magnetization       0.0000000

 Free energy of the ion-electron system (eV)
  ---------------------------------------------------
  alpha Z        PSCENC =       203.95051221
  Ewald energy   TEWEN  =     -4253.05950503
  -Hartree energ DENC   =     -2091.75274385
  -exchange      EXHF   =         0.00000000
  -V(xc)+E(xc)   XCENC  =       295.21122973
  PAW double counting   =      5431.03059579    -5549.10764102
  entropy T*S    EENTRO =        -0.00000000
  eigenvalues    EBANDS =       -26.81863976
  atomic energy  EATOM  =      6689.45677594
  Solvation  Ediel_sol  =         0.00000000
  ---------------------------------------------------
  free energy    TOTEN  =       698.91058402 eV

  energy without entropy =      698.91058402  energy(sigma->0) =      698.91058402


--------------------------------------------------------------------------------------------------------




--------------------------------------- Iteration      1(   2)  ---------------------------------------


     EDDAV:  cpu time    0.0395: real time    0.0395
       DOS:  cpu time    0.0001: real time    0.0001
    --------------------------------------------
      LOOP:  cpu time    0.0396: real time    0.0396

 eigenvalue-minimisations  :   156
 total energy-change (2. order) :-0.6874085E+03  (-0.6611751E+03)
 number of electron      54.0000000 magnetization       0.0000000
 augmentation part       54.0000000 magnetization       0.0000000

 Free energy of the ion-electron system (eV)
  ---------------------------------------------------
  alpha Z        PSCENC =       203.95051221
  Ewald energy   TEWEN  =     -4253.05950503
  -Hartree energ DENC   =     -2091.75274385
  -exchange      EXHF   =         0.00000000
  -V(xc)+E(xc)   XCENC  =       295.21122973
  PAW double counting   =      5431.03059579    -5549.10764102
  entropy T*S    EENTRO =        -0.00000000
  eigenvalues    EBANDS =      -714.22716213
  atomic energy  EATOM  =      6689.45677594
  Solvation  Ediel_sol  =         0.00000000
  ---------------------------------------------------
  free energy    TOTEN  =        11.50206165 eV

  energy without entropy =       11.50206165  energy(sigma->0) =       11.50206165


--------------------------------------------------------------------------------------------------------




--------------------------------------- Iteration      1(   3)  ---------------------------------------


     EDDAV:  cpu time    0.0449: real time    0.0449
       DOS:  cpu time    0.0002: real time    0.0002
    --------------------------------------------
      LOOP:  cpu time    0.0451: real time    0.0451

 eigenvalue-minimisations  :   168
 total energy-change (2. order) :-0.5219839E+02  (-0.5189100E+02)
 number of electron      54.0000000 magnetization       0.0000000
 augmentation part       54.0000000 magnetization       0.0000000

 Free energy of the ion-electron system (eV)
  ---------------------------------------------------
  alpha Z        PSCENC =       203.95051221
  Ewald energy   TEWEN  =     -4253.05950503
  -Hartree energ DENC   =     -2091.75274385
  -exchange      EXHF   =         0.00000000
  -V(xc)+E(xc)   XCENC  =       295.21122973
  PAW double counting   =      5431.03059579    -5549.10764102
  entropy T*S    EENTRO =        -0.00000000
  eigenvalues    EBANDS =      -766.42554793
  atomic energy  EATOM  =      6689.45677594
  Solvation  Ediel_sol  =         0.00000000
  ---------------------------------------------------
  free energy    TOTEN  =       -40.69632416 eV

  energy without entropy =      -40.69632416  energy(sigma->0) =      -40.69632416


--------------------------------------------------------------------------------------------------------




--------------------------------------- Iteration      1(   4)  ---------------------------------------


     EDDAV:  cpu time    0.0443: real time    0.0443
       DOS:  cpu time    0.0001: real time    0.0001
    --------------------------------------------
      LOOP:  cpu time    0.0445: real time    0.0445

 eigenvalue-minimisations  :   168
 total energy-change (2. order) :-0.7581067E+00  (-0.7577089E+00)
 number of electron      54.0000000 magnetization       0.0000000
 augmentation part       54.0000000 magnetization       0.0000000

 Free energy of the ion-electron system (eV)
  ---------------------------------------------------
  alpha Z        PSCENC =       203.95051221
  Ewald energy   TEWEN  =     -4253.05950503
  -Hartree energ DENC   =     -2091.75274385
  -exchange      EXHF   =         0.00000000
  -V(xc)+E(xc)   XCENC  =       295.21122973
  PAW double counting   =      5431.03059579    -5549.10764102
  entropy T*S    EENTRO =        -0.00000000
  eigenvalues    EBANDS =      -767.18365461
  atomic energy  EATOM  =      6689.45677594
  Solvation  Ediel_sol  =         0.00000000
  ---------------------------------------------------
  free energy    TOTEN  =       -41.45443083 eV

  energy without entropy =      -41.45443083  energy(sigma->0) =      -41.45443083


--------------------------------------------------------------------------------------------------------




--------------------------------------- Iteration      1(   5)  ---------------------------------------


     EDDAV:  cpu time    0.0418: real time    0.0419
       DOS:  cpu time    0.0001: real time    0.0001
    CHARGE:  cpu time    0.0244: real time    0.0244
    MIXING:  cpu time    0.0005: real time    0.0005
    --------------------------------------------
      LOOP:  cpu time    0.0668: real time    0.0669

 eigenvalue-minimisations  :   168
 total energy-change (2. order) :-0.1035147E-01  (-0.1035140E-01)
 number of electron      53.9999998 magnetization      -0.0000000
 augmentation part       20.1122084 magnetization      -0.0000000

 Broyden mixing:
  rms(total) = 0.24649E+01    rms(broyden)= 0.24648E+01
  rms(prec ) = 0.32065E+01
  weight for this iteration     100.00

 Free energy of the ion-electron system (eV)
  ---------------------------------------------------
  alpha Z        PSCENC =       203.95051221
  Ewald energy   TEWEN  =     -4253.05950503
  -Hartree energ DENC   =     -2091.75274385
  -exchange      EXHF   =         0.00000000
  -V(xc)+E(xc)   XCENC  =       295.21122973
  PAW double counting   =      5431.03059579    -5549.10764102
  entropy T*S    EENTRO =        -0.00000000
  eigenvalues    EBANDS =      -767.19400608
  atomic energy  EATOM  =      6689.45677594
  Solvation  Ediel_sol  =         0.00000000
  ---------------------------------------------------
  free energy    TOTEN  =       -41.46478230 eV

  energy without entropy =      -41.46478230  energy(sigma->0) =      -41.46478230


--------------------------------------------------------------------------------------------------------




--------------------------------------- Iteration      1(   6)  ---------------------------------------


    POTLOK:  cpu time    0.0051: real time    0.0051
    SETDIJ:  cpu time    0.2294: real time    0.2294
atom =   1  type =  1  l = 2
 
 onsite density matrix
 
spin component  1
 
 -0.0787  0.0000  0.0059  0.0000  0.0000
  0.0000 -0.0744  0.0000  0.0019  0.0000
  0.0059  0.0000 -0.0625  0.0000 -0.0000
  0.0000  0.0019  0.0000 -0.0744  0.0000
  0.0000  0.0000 -0.0000  0.0000 -0.0805
 
spin component  2
 
  1.1086  0.0000  0.0132  0.0000  0.0000
  0.0000  1.0963  0.0000  0.0134  0.0000
  0.0132  0.0000  1.0773  0.0000  0.0000
  0.0000  0.0134  0.0000  1.0963  0.0000
  0.0000  0.0000  0.0000  0.0000  1.0859
 
 occupancies and eigenvectors
 
  o = -0.0806  v =  0.9511  0.0000 -0.3090  0.0000 -0.0000  0.0000  0.0000  0.0000  0.0000  0.0000      0.0000  0.0000  0.0000  0.0000  0.0000  0.0000  0.0000  0.0000  0.0000  0.0000
  o = -0.0805  v = -0.0000  0.0000  0.0000  0.0000 -1.0000  0.0000  0.0000  0.0000  0.0000  0.0000      0.0000  0.0000  0.0000  0.0000  0.0000  0.0000  0.0000  0.0000  0.0000  0.0000
  o = -0.0763  v =  0.0000  0.7071  0.0000 -0.7071  0.0000  0.0000  0.0000  0.0000  0.0000  0.0000      0.0000  0.0000  0.0000  0.0000  0.0000  0.0000  0.0000  0.0000  0.0000  0.0000
  o = -0.0725  v =  0.0000 -0.7071  0.0000 -0.7071 -0.0000  0.0000  0.0000  0.0000  0.0000  0.0000      0.0000  0.0000  0.0000  0.0000  0.0000  0.0000  0.0000  0.0000  0.0000  0.0000
  o = -0.0606  v =  0.3090  0.0000  0.9511  0.0000 -0.0000  0.0000  0.0000  0.0000  0.0000  0.0000      0.0000  0.0000  0.0000  0.0000  0.0000  0.0000  0.0000  0.0000  0.0000  0.0000
  o =  1.0725  v =  0.0000  0.0000  0.0000  0.0000  0.0000 -0.3430  0.0000  0.9393 -0.0000 -0.0000      0.0000  0.0000  0.0000  0.0000  0.0000  0.0000  0.0000  0.0000  0.0000  0.0000
  o =  1.0829  v =  0.0000  0.0000  0.0000  0.0000  0.0000 -0.0000 -0.7071  0.0000  0.7071 -0.0000      0.0000  0.0000  0.0000  0.0000  0.0000  0.0000  0.0000  0.0000  0.0000  0.0000
  o =  1.0859  v =  0.0000  0.0000  0.0000  0.0000  0.0000 -0.0000 -0.0000  0.0000  0.0000  1.0000      0.0000  0.0000  0.0000  0.0000  0.0000  0.0000  0.0000  0.0000  0.0000  0.0000
  o =  1.1097  v =  0.0000  0.0000  0.0000  0.0000  0.0000 -0.0000 -0.7071 -0.0000 -0.7071  0.0000      0.0000  0.0000  0.0000  0.0000  0.0000  0.0000  0.0000  0.0000  0.0000  0.0000
  o =  1.1135  v =  0.0000  0.0000  0.0000  0.0000  0.0000 -0.9393  0.0000 -0.3430  0.0000 -0.0000      0.0000  0.0000  0.0000  0.0000  0.0000  0.0000  0.0000  0.0000  0.0000  0.0000
atom =   2  type =  1  l = 2
 
 onsite density matrix
 
spin component  1
 
  1.1086  0.0000 -0.0132  0.0000 -0.0000
  0.0000  1.0963  0.0000 -0.0134  0.0000
 -0.0132  0.0000  1.0773  0.0000 -0.0000
  0.0000 -0.0134  0.0000  1.0963  0.0000
 -0.0000  0.0000 -0.0000  0.0000  1.0859
 
spin component  2
 
 -0.0787  0.0000 -0.0059  0.0000  0.0000
  0.0000 -0.0744  0.0000 -0.0019  0.0000
 -0.0059  0.0000 -0.0625  0.0000  0.0000
  0.0000 -0.0019  0.0000 -0.0744  0.0000
  0.0000  0.0000  0.0000  0.0000 -0.0805
 
 occupancies and eigenvectors
 
  o = -0.0806  v =  0.0000  0.0000  0.0000  0.0000  0.0000  0.9511  0.0000  0.3090  0.0000 -0.0000      0.0000  0.0000  0.0000  0.0000  0.0000  0.0000  0.0000  0.0000  0.0000  0.0000
  o = -0.0805  v =  0.0000  0.0000  0.0000  0.0000  0.0000 -0.0000  0.0000 -0.0000  0.0000 -1.0000      0.0000  0.0000  0.0000  0.0000  0.0000  0.0000  0.0000  0.0000  0.0000  0.0000
  o = -0.0763  v =  0.0000  0.0000  0.0000  0.0000  0.0000  0.0000 -0.7071  0.0000 -0.7071 -0.0000      0.0000  0.0000  0.0000  0.0000  0.0000  0.0000  0.0000  0.0000  0.0000  0.0000
  o = -0.0725  v =  0.0000  0.0000  0.0000  0.0000  0.0000  0.0000  0.7071  0.0000 -0.7071  0.0000      0.0000  0.0000  0.0000  0.0000  0.0000  0.0000  0.0000  0.0000  0.0000  0.0000
  o = -0.0606  v =  0.0000  0.0000  0.0000  0.0000  0.0000  0.3090  0.0000 -0.9511  0.0000 -0.0000      0.0000  0.0000  0.0000  0.0000  0.0000  0.0000  0.0000  0.0000  0.0000  0.0000
  o =  1.0725  v = -0.3430 -0.0000 -0.9393  0.0000 -0.0000  0.0000  0.0000  0.0000  0.0000  0.0000      0.0000  0.0000  0.0000  0.0000  0.0000  0.0000  0.0000  0.0000  0.0000  0.0000
  o =  1.0829  v = -0.0000  0.7071 -0.0000  0.7071  0.0000  0.0000  0.0000  0.0000  0.0000  0.0000      0.0000  0.0000  0.0000  0.0000  0.0000  0.0000  0.0000  0.0000  0.0000  0.0000
  o =  1.0859  v =  0.0000  0.0000  0.0000  0.0000 -1.0000  0.0000  0.0000  0.0000  0.0000  0.0000      0.0000  0.0000  0.0000  0.0000  0.0000  0.0000  0.0000  0.0000  0.0000  0.0000
  o =  1.1097  v =  0.0000  0.7071  0.0000 -0.7071 -0.0000  0.0000  0.0000  0.0000  0.0000  0.0000      0.0000  0.0000  0.0000  0.0000  0.0000  0.0000  0.0000  0.0000  0.0000  0.0000
  o =  1.1135  v = -0.9393 -0.0000  0.3430  0.0000 -0.0000  0.0000  0.0000  0.0000  0.0000  0.0000      0.0000  0.0000  0.0000  0.0000  0.0000  0.0000  0.0000  0.0000  0.0000  0.0000
     EDDAV:  cpu time    0.0522: real time    0.0522
       DOS:  cpu time    0.0001: real time    0.0001
    CHARGE:  cpu time    0.0243: real time    0.0243
    MIXING:  cpu time    0.0005: real time    0.0005
    --------------------------------------------
      LOOP:  cpu time    0.3116: real time    0.3116

 eigenvalue-minimisations  :   216
 total energy-change (2. order) : 0.2061459E+01  (-0.1619879E+01)
 number of electron      53.9999998 magnetization       0.0000000
 augmentation part       19.9658672 magnetization       0.0000000

 Broyden mixing:
  rms(total) = 0.16070E+01    rms(broyden)= 0.16069E+01
  rms(prec ) = 0.16569E+01
  weight for this iteration     100.00

 eigenvalues of (default mixing * dielectric matrix)
  average eigenvalue GAMMA=   0.8045
  0.8045

 Free energy of the ion-electron system (eV)
  ---------------------------------------------------
  alpha Z        PSCENC =       203.95051221
  Ewald energy   TEWEN  =     -4253.05950503
  -Hartree energ DENC   =     -2113.81538593
  -exchange      EXHF   =         0.00000000
  -V(xc)+E(xc)   XCENC  =       295.75723084
  PAW double counting   =      5719.62123702    -5829.30643677
  entropy T*S    EENTRO =        -0.00000000
  eigenvalues    EBANDS =      -752.00775140
  atomic energy  EATOM  =      6689.45677594
  Solvation  Ediel_sol  =         0.00000000
  ---------------------------------------------------
  free energy    TOTEN  =       -39.40332313 eV

  energy without entropy =      -39.40332313  energy(sigma->0) =      -39.40332313


--------------------------------------------------------------------------------------------------------




--------------------------------------- Iteration      1(   7)  ---------------------------------------


    POTLOK:  cpu time    0.0047: real time    0.0047
    SETDIJ:  cpu time    0.2317: real time    0.2317
atom =   1  type =  1  l = 2
 
 onsite density matrix
 
spin component  1
 
  0.1202  0.0000  0.0225  0.0000 -0.0000
  0.0000  0.1145  0.0000  0.0172  0.0000
  0.0225  0.0000  0.1102  0.0000 -0.0000
  0.0000  0.0172  0.0000  0.1145  0.0000
 -0.0000  0.0000 -0.0000  0.0000  0.0951
 
spin component  2
 
  0.9044  0.0000  0.0072  0.0000  0.0000
  0.0000  0.8995  0.0000  0.0060  0.0000
  0.0072  0.0000  0.8951  0.0000 -0.0000
  0.0000  0.0060  0.0000  0.8995  0.0000
  0.0000  0.0000 -0.0000  0.0000  0.8935
 
 occupancies and eigenvectors
 
  o =  0.0922  v = -0.6249  0.0000  0.7807  0.0000  0.0000  0.0000  0.0000  0.0000  0.0000  0.0000      0.0000  0.0000  0.0000  0.0000  0.0000  0.0000  0.0000  0.0000  0.0000  0.0000
  o =  0.0951  v = -0.0000 -0.0000  0.0000  0.0000 -1.0000  0.0000  0.0000  0.0000  0.0000  0.0000      0.0000  0.0000  0.0000  0.0000  0.0000  0.0000  0.0000  0.0000  0.0000  0.0000
  o =  0.0972  v =  0.0000 -0.7071  0.0000  0.7071 -0.0000  0.0000  0.0000  0.0000  0.0000  0.0000      0.0000  0.0000  0.0000  0.0000  0.0000  0.0000  0.0000  0.0000  0.0000  0.0000
  o =  0.1317  v =  0.0000  0.7071  0.0000  0.7071  0.0000  0.0000  0.0000  0.0000  0.0000  0.0000      0.0000  0.0000  0.0000  0.0000  0.0000  0.0000  0.0000  0.0000  0.0000  0.0000
  o =  0.1382  v = -0.7807  0.0000 -0.6249  0.0000  0.0000  0.0000  0.0000  0.0000  0.0000  0.0000      0.0000  0.0000  0.0000  0.0000  0.0000  0.0000  0.0000  0.0000  0.0000  0.0000
  o =  0.8912  v =  0.0000  0.0000  0.0000  0.0000  0.0000 -0.4776  0.0000  0.8786  0.0000  0.0000      0.0000  0.0000  0.0000  0.0000  0.0000  0.0000  0.0000  0.0000  0.0000  0.0000
  o =  0.8935  v =  0.0000  0.0000  0.0000  0.0000  0.0000  0.0000  0.7071  0.0000 -0.7071  0.0000      0.0000  0.0000  0.0000  0.0000  0.0000  0.0000  0.0000  0.0000  0.0000  0.0000
  o =  0.8935  v =  0.0000  0.0000  0.0000  0.0000  0.0000  0.0000  0.0000  0.0000  0.0000 -1.0000      0.0000  0.0000  0.0000  0.0000  0.0000  0.0000  0.0000  0.0000  0.0000  0.0000
  o =  0.9055  v =  0.0000  0.0000  0.0000  0.0000  0.0000  0.0000  0.7071  0.0000  0.7071  0.0000      0.0000  0.0000  0.0000  0.0000  0.0000  0.0000  0.0000  0.0000  0.0000  0.0000
  o =  0.9084  v =  0.0000  0.0000  0.0000  0.0000  0.0000 -0.8786  0.0000 -0.4776  0.0000 -0.0000      0.0000  0.0000  0.0000  0.0000  0.0000  0.0000  0.0000  0.0000  0.0000  0.0000
atom =   2  type =  1  l = 2
 
 onsite density matrix
 
spin component  1
 
  0.9044  0.0000 -0.0072  0.0000  0.0000
  0.0000  0.8995  0.0000 -0.0060  0.0000
 -0.0072  0.0000  0.8951  0.0000  0.0000
  0.0000 -0.0060  0.0000  0.8995  0.0000
  0.0000  0.0000  0.0000  0.0000  0.8935
 
spin component  2
 
  0.1202  0.0000 -0.0225  0.0000 -0.0000
  0.0000  0.1145  0.0000 -0.0172  0.0000
 -0.0225  0.0000  0.1102  0.0000 -0.0000
  0.0000 -0.0172  0.0000  0.1145  0.0000
 -0.0000  0.0000 -0.0000  0.0000  0.0951
 
 occupancies and eigenvectors
 
  o =  0.0922  v =  0.0000  0.0000  0.0000  0.0000  0.0000 -0.6249  0.0000 -0.7807  0.0000 -0.0000      0.0000  0.0000  0.0000  0.0000  0.0000  0.0000  0.0000  0.0000  0.0000  0.0000
  o =  0.0951  v =  0.0000  0.0000  0.0000  0.0000  0.0000 -0.0000  0.0000 -0.0000  0.0000  1.0000      0.0000  0.0000  0.0000  0.0000  0.0000  0.0000  0.0000  0.0000  0.0000  0.0000
  o =  0.0972  v =  0.0000  0.0000  0.0000  0.0000  0.0000  0.0000  0.7071  0.0000  0.7071 -0.0000      0.0000  0.0000  0.0000  0.0000  0.0000  0.0000  0.0000  0.0000  0.0000  0.0000
  o =  0.1317  v =  0.0000  0.0000  0.0000  0.0000  0.0000 -0.0000 -0.7071  0.0000  0.7071  0.0000      0.0000  0.0000  0.0000  0.0000  0.0000  0.0000  0.0000  0.0000  0.0000  0.0000
  o =  0.1382  v =  0.0000  0.0000  0.0000  0.0000  0.0000 -0.7807  0.0000  0.6249 -0.0000 -0.0000      0.0000  0.0000  0.0000  0.0000  0.0000  0.0000  0.0000  0.0000  0.0000  0.0000
  o =  0.8912  v = -0.4776 -0.0000 -0.8786  0.0000  0.0000  0.0000  0.0000  0.0000  0.0000  0.0000      0.0000  0.0000  0.0000  0.0000  0.0000  0.0000  0.0000  0.0000  0.0000  0.0000
  o =  0.8935  v =  0.0000  0.7071  0.0000  0.7071  0.0000  0.0000  0.0000  0.0000  0.0000  0.0000      0.0000  0.0000  0.0000  0.0000  0.0000  0.0000  0.0000  0.0000  0.0000  0.0000
  o =  0.8935  v = -0.0000  0.0000 -0.0000  0.0000 -1.0000  0.0000  0.0000  0.0000  0.0000  0.0000      0.0000  0.0000  0.0000  0.0000  0.0000  0.0000  0.0000  0.0000  0.0000  0.0000
  o =  0.9055  v =  0.0000  0.7071  0.0000 -0.7071  0.0000  0.0000  0.0000  0.0000  0.0000  0.0000      0.0000  0.0000  0.0000  0.0000  0.0000  0.0000  0.0000  0.0000  0.0000  0.0000
  o =  0.9084  v = -0.8786 -0.0000  0.4776  0.0000  0.0000  0.0000  0.0000  0.0000  0.0000  0.0000      0.0000  0.0000  0.0000  0.0000  0.0000  0.0000  0.0000  0.0000  0.0000  0.0000
     EDDAV:  cpu time    0.0418: real time    0.0418
       DOS:  cpu time    0.0001: real time    0.0001
    CHARGE:  cpu time    0.0242: real time    0.0242
    MIXING:  cpu time    0.0006: real time    0.0006
    --------------------------------------------
      LOOP:  cpu time    0.3032: real time    0.3032

 eigenvalue-minimisations  :   168
 total energy-change (2. order) :-0.6343663E+00  (-0.1428656E+00)
 number of electron      53.9999998 magnetization       0.0000000
 augmentation part       19.9434066 magnetization       0.0000000

 Broyden mixing:
  rms(total) = 0.11685E+01    rms(broyden)= 0.11685E+01
  rms(prec ) = 0.11970E+01
  weight for this iteration     100.00

 eigenvalues of (default mixing * dielectric matrix)
  average eigenvalue GAMMA=   1.3508
  0.7046  1.9969

 Free energy of the ion-electron system (eV)
  ---------------------------------------------------
  alpha Z        PSCENC =       203.95051221
  Ewald energy   TEWEN  =     -4253.05950503
  -Hartree energ DENC   =     -2109.96373095
  -exchange      EXHF   =         0.00000000
  -V(xc)+E(xc)   XCENC  =       296.38590903
  PAW double counting   =      5973.84413449    -6093.09400858
  entropy T*S    EENTRO =        -0.00000000
  eigenvalues    EBANDS =      -747.55777656
  atomic energy  EATOM  =      6689.45677594
  Solvation  Ediel_sol  =         0.00000000
  ---------------------------------------------------
  free energy    TOTEN  =       -40.03768945 eV

  energy without entropy =      -40.03768945  energy(sigma->0) =      -40.03768945


--------------------------------------------------------------------------------------------------------




--------------------------------------- Iteration      1(   8)  ---------------------------------------


    POTLOK:  cpu time    0.0047: real time    0.0047
    SETDIJ:  cpu time    0.2306: real time    0.2306
atom =   1  type =  1  l = 2
 
 onsite density matrix
 
spin component  1
 
 -0.0340  0.0000  0.0253  0.0000  0.0000
  0.0000 -0.0333  0.0000  0.0148  0.0000
  0.0253  0.0000 -0.0248  0.0000  0.0000
  0.0000  0.0148  0.0000 -0.0333  0.0000
  0.0000  0.0000  0.0000  0.0000 -0.0552
 
spin component  2
 
  1.0581  0.0000  0.0185  0.0000 -0.0000
  0.0000  1.0434  0.0000  0.0198  0.0000
  0.0185  0.0000  1.0237  0.0000 -0.0000
  0.0000  0.0198  0.0000  1.0434  0.0000
 -0.0000  0.0000 -0.0000  0.0000  1.0277
 
 occupancies and eigenvectors
 
  o = -0.0552  v =  0.0000 -0.0000 -0.0000  0.0000  1.0000  0.0000  0.0000  0.0000  0.0000  0.0000      0.0000  0.0000  0.0000  0.0000  0.0000  0.0000  0.0000  0.0000  0.0000  0.0000
  o = -0.0551  v =  0.7672  0.0000 -0.6414 -0.0000 -0.0000  0.0000  0.0000  0.0000  0.0000  0.0000      0.0000  0.0000  0.0000  0.0000  0.0000  0.0000  0.0000  0.0000  0.0000  0.0000
  o = -0.0481  v = -0.0000  0.7071 -0.0000 -0.7071  0.0000  0.0000  0.0000  0.0000  0.0000  0.0000      0.0000  0.0000  0.0000  0.0000  0.0000  0.0000  0.0000  0.0000  0.0000  0.0000
  o = -0.0185  v =  0.0000 -0.7071  0.0000 -0.7071 -0.0000  0.0000  0.0000  0.0000  0.0000  0.0000      0.0000  0.0000  0.0000  0.0000  0.0000  0.0000  0.0000  0.0000  0.0000  0.0000
  o = -0.0037  v = -0.6414 -0.0000 -0.7672 -0.0000 -0.0000  0.0000  0.0000  0.0000  0.0000  0.0000      0.0000  0.0000  0.0000  0.0000  0.0000  0.0000  0.0000  0.0000  0.0000  0.0000
  o =  1.0157  v =  0.0000  0.0000  0.0000  0.0000  0.0000 -0.3994 -0.0000  0.9168  0.0000  0.0000      0.0000  0.0000  0.0000  0.0000  0.0000  0.0000  0.0000  0.0000  0.0000  0.0000
  o =  1.0236  v =  0.0000  0.0000  0.0000  0.0000  0.0000 -0.0000  0.7071  0.0000 -0.7071 -0.0000      0.0000  0.0000  0.0000  0.0000  0.0000  0.0000  0.0000  0.0000  0.0000  0.0000
  o =  1.0277  v =  0.0000  0.0000  0.0000  0.0000  0.0000 -0.0000 -0.0000  0.0000  0.0000 -1.0000      0.0000  0.0000  0.0000  0.0000  0.0000  0.0000  0.0000  0.0000  0.0000  0.0000
  o =  1.0632  v =  0.0000  0.0000  0.0000  0.0000  0.0000  0.0000  0.7071  0.0000  0.7071  0.0000      0.0000  0.0000  0.0000  0.0000  0.0000  0.0000  0.0000  0.0000  0.0000  0.0000
  o =  1.0662  v =  0.0000  0.0000  0.0000  0.0000  0.0000 -0.9168  0.0000 -0.3994  0.0000  0.0000      0.0000  0.0000  0.0000  0.0000  0.0000  0.0000  0.0000  0.0000  0.0000  0.0000
atom =   2  type =  1  l = 2
 
 onsite density matrix
 
spin component  1
 
  1.0581  0.0000 -0.0185  0.0000 -0.0000
  0.0000  1.0434  0.0000 -0.0198  0.0000
 -0.0185  0.0000  1.0237  0.0000 -0.0000
  0.0000 -0.0198  0.0000  1.0434  0.0000
 -0.0000  0.0000 -0.0000  0.0000  1.0277
 
spin component  2
 
 -0.0340  0.0000 -0.0253  0.0000  0.0000
  0.0000 -0.0333  0.0000 -0.0148  0.0000
 -0.0253  0.0000 -0.0248  0.0000  0.0000
  0.0000 -0.0148  0.0000 -0.0333  0.0000
  0.0000  0.0000  0.0000  0.0000 -0.0552
 
 occupancies and eigenvectors
 
  o = -0.0552  v =  0.0000  0.0000  0.0000  0.0000  0.0000 -0.0000  0.0000 -0.0000  0.0000  1.0000      0.0000  0.0000  0.0000  0.0000  0.0000  0.0000  0.0000  0.0000  0.0000  0.0000
  o = -0.0551  v =  0.0000  0.0000  0.0000  0.0000  0.0000  0.7672  0.0000  0.6414  0.0000  0.0000      0.0000  0.0000  0.0000  0.0000  0.0000  0.0000  0.0000  0.0000  0.0000  0.0000
  o = -0.0481  v =  0.0000  0.0000  0.0000  0.0000  0.0000  0.0000 -0.7071 -0.0000 -0.7071  0.0000      0.0000  0.0000  0.0000  0.0000  0.0000  0.0000  0.0000  0.0000  0.0000  0.0000
  o = -0.0185  v =  0.0000  0.0000  0.0000  0.0000  0.0000 -0.0000  0.7071  0.0000 -0.7071 -0.0000      0.0000  0.0000  0.0000  0.0000  0.0000  0.0000  0.0000  0.0000  0.0000  0.0000
  o = -0.0037  v =  0.0000  0.0000  0.0000  0.0000  0.0000 -0.6414 -0.0000  0.7672  0.0000  0.0000      0.0000  0.0000  0.0000  0.0000  0.0000  0.0000  0.0000  0.0000  0.0000  0.0000
  o =  1.0157  v = -0.3994 -0.0000 -0.9168  0.0000 -0.0000  0.0000  0.0000  0.0000  0.0000  0.0000      0.0000  0.0000  0.0000  0.0000  0.0000  0.0000  0.0000  0.0000  0.0000  0.0000
  o =  1.0236  v =  0.0000 -0.7071  0.0000 -0.7071  0.0000  0.0000  0.0000  0.0000  0.0000  0.0000      0.0000  0.0000  0.0000  0.0000  0.0000  0.0000  0.0000  0.0000  0.0000  0.0000
  o =  1.0277  v = -0.0000  0.0000 -0.0000  0.0000  1.0000  0.0000  0.0000  0.0000  0.0000  0.0000      0.0000  0.0000  0.0000  0.0000  0.0000  0.0000  0.0000  0.0000  0.0000  0.0000
  o =  1.0632  v =  0.0000  0.7071  0.0000 -0.7071 -0.0000  0.0000  0.0000  0.0000  0.0000  0.0000      0.0000  0.0000  0.0000  0.0000  0.0000  0.0000  0.0000  0.0000  0.0000  0.0000
  o =  1.0662  v = -0.9168 -0.0000  0.3994  0.0000 -0.0000  0.0000  0.0000  0.0000  0.0000  0.0000      0.0000  0.0000  0.0000  0.0000  0.0000  0.0000  0.0000  0.0000  0.0000  0.0000
     EDDAV:  cpu time    0.0420: real time    0.0420
       DOS:  cpu time    0.0001: real time    0.0001
    CHARGE:  cpu time    0.0242: real time    0.0242
    MIXING:  cpu time    0.0006: real time    0.0006
    --------------------------------------------
      LOOP:  cpu time    0.3023: real time    0.3023

 eigenvalue-minimisations  :   168
 total energy-change (2. order) : 0.1150003E+00  (-0.5610304E-01)
 number of electron      53.9999998 magnetization       0.0000000
 augmentation part       19.9821771 magnetization       0.0000000

 Broyden mixing:
  rms(total) = 0.43299E+00    rms(broyden)= 0.43299E+00
  rms(prec ) = 0.46973E+00
  weight for this iteration     100.00

 eigenvalues of (default mixing * dielectric matrix)
  average eigenvalue GAMMA=   1.2694
  2.0493  1.1025  0.6564

 Free energy of the ion-electron system (eV)
  ---------------------------------------------------
  alpha Z        PSCENC =       203.95051221
  Ewald energy   TEWEN  =     -4253.05950503
  -Hartree energ DENC   =     -2104.27804274
  -exchange      EXHF   =         0.00000000
  -V(xc)+E(xc)   XCENC  =       295.68048812
  PAW double counting   =      6245.17901897    -6361.18274678
  entropy T*S    EENTRO =        -0.00000000
  eigenvalues    EBANDS =      -755.66918983
  atomic energy  EATOM  =      6689.45677594
  Solvation  Ediel_sol  =         0.00000000
  ---------------------------------------------------
  free energy    TOTEN  =       -39.92268914 eV

  energy without entropy =      -39.92268914  energy(sigma->0) =      -39.92268914


--------------------------------------------------------------------------------------------------------




--------------------------------------- Iteration      1(   9)  ---------------------------------------


    POTLOK:  cpu time    0.0046: real time    0.0046
    SETDIJ:  cpu time    0.2301: real time    0.2301
atom =   1  type =  1  l = 2
 
 onsite density matrix
 
spin component  1
 
  0.0535  0.0000  0.0276  0.0000 -0.0000
  0.0000  0.0475  0.0000  0.0209  0.0000
  0.0276  0.0000  0.0454  0.0000 -0.0000
  0.0000  0.0209  0.0000  0.0475  0.0000
 -0.0000  0.0000 -0.0000  0.0000  0.0232
 
spin component  2
 
  0.9688  0.0000  0.0226  0.0000 -0.0000
  0.0000  0.9592  0.0000  0.0192  0.0000
  0.0226  0.0000  0.9487  0.0000 -0.0000
  0.0000  0.0192  0.0000  0.9592  0.0000
 -0.0000  0.0000 -0.0000  0.0000  0.9405
 
 occupancies and eigenvectors
 
  o =  0.0215  v = -0.6534  0.0000  0.7570  0.0000 -0.0000  0.0000  0.0000  0.0000  0.0000  0.0000      0.0000  0.0000  0.0000  0.0000  0.0000  0.0000  0.0000  0.0000  0.0000  0.0000
  o =  0.0232  v =  0.0000 -0.0000 -0.0000  0.0000 -1.0000  0.0000  0.0000  0.0000  0.0000  0.0000      0.0000  0.0000  0.0000  0.0000  0.0000  0.0000  0.0000  0.0000  0.0000  0.0000
  o =  0.0266  v =  0.0000 -0.7071  0.0000  0.7071  0.0000  0.0000  0.0000  0.0000  0.0000  0.0000      0.0000  0.0000  0.0000  0.0000  0.0000  0.0000  0.0000  0.0000  0.0000  0.0000
  o =  0.0684  v =  0.0000 -0.7071  0.0000 -0.7071  0.0000  0.0000  0.0000  0.0000  0.0000  0.0000      0.0000  0.0000  0.0000  0.0000  0.0000  0.0000  0.0000  0.0000  0.0000  0.0000
  o =  0.0774  v = -0.7570  0.0000 -0.6534  0.0000  0.0000  0.0000  0.0000  0.0000  0.0000  0.0000      0.0000  0.0000  0.0000  0.0000  0.0000  0.0000  0.0000  0.0000  0.0000  0.0000
  o =  0.9340  v =  0.0000  0.0000  0.0000  0.0000  0.0000 -0.5445  0.0000  0.8387 -0.0000  0.0000      0.0000  0.0000  0.0000  0.0000  0.0000  0.0000  0.0000  0.0000  0.0000  0.0000
  o =  0.9400  v =  0.0000  0.0000  0.0000  0.0000  0.0000 -0.0000 -0.7071  0.0000  0.7071  0.0000      0.0000  0.0000  0.0000  0.0000  0.0000  0.0000  0.0000  0.0000  0.0000  0.0000
  o =  0.9405  v =  0.0000  0.0000  0.0000  0.0000  0.0000  0.0000  0.0000 -0.0000 -0.0000  1.0000      0.0000  0.0000  0.0000  0.0000  0.0000  0.0000  0.0000  0.0000  0.0000  0.0000
  o =  0.9783  v =  0.0000  0.0000  0.0000  0.0000  0.0000 -0.0000 -0.7071 -0.0000 -0.7071  0.0000      0.0000  0.0000  0.0000  0.0000  0.0000  0.0000  0.0000  0.0000  0.0000  0.0000
  o =  0.9835  v =  0.0000  0.0000  0.0000  0.0000  0.0000 -0.8387  0.0000 -0.5445  0.0000  0.0000      0.0000  0.0000  0.0000  0.0000  0.0000  0.0000  0.0000  0.0000  0.0000  0.0000
atom =   2  type =  1  l = 2
 
 onsite density matrix
 
spin component  1
 
  0.9688  0.0000 -0.0226  0.0000  0.0000
  0.0000  0.9592  0.0000 -0.0192  0.0000
 -0.0226  0.0000  0.9487  0.0000  0.0000
  0.0000 -0.0192  0.0000  0.9592  0.0000
  0.0000  0.0000  0.0000  0.0000  0.9405
 
spin component  2
 
  0.0535  0.0000 -0.0276  0.0000  0.0000
  0.0000  0.0475  0.0000 -0.0209  0.0000
 -0.0276  0.0000  0.0454  0.0000 -0.0000
  0.0000 -0.0209  0.0000  0.0475  0.0000
  0.0000  0.0000 -0.0000  0.0000  0.0232
 
 occupancies and eigenvectors
 
  o =  0.0215  v =  0.0000  0.0000  0.0000  0.0000  0.0000 -0.6534  0.0000 -0.7570  0.0000 -0.0000      0.0000  0.0000  0.0000  0.0000  0.0000  0.0000  0.0000  0.0000  0.0000  0.0000
  o =  0.0232  v =  0.0000  0.0000  0.0000  0.0000  0.0000 -0.0000 -0.0000 -0.0000  0.0000  1.0000      0.0000  0.0000  0.0000  0.0000  0.0000  0.0000  0.0000  0.0000  0.0000  0.0000
  o =  0.0266  v =  0.0000  0.0000  0.0000  0.0000  0.0000  0.0000 -0.7071  0.0000 -0.7071 -0.0000      0.0000  0.0000  0.0000  0.0000  0.0000  0.0000  0.0000  0.0000  0.0000  0.0000
  o =  0.0684  v =  0.0000  0.0000  0.0000  0.0000  0.0000  0.0000  0.7071  0.0000 -0.7071  0.0000      0.0000  0.0000  0.0000  0.0000  0.0000  0.0000  0.0000  0.0000  0.0000  0.0000
  o =  0.0774  v =  0.0000  0.0000  0.0000  0.0000  0.0000 -0.7570  0.0000  0.6534  0.0000 -0.0000      0.0000  0.0000  0.0000  0.0000  0.0000  0.0000  0.0000  0.0000  0.0000  0.0000
  o =  0.9340  v = -0.5445  0.0000 -0.8387  0.0000  0.0000  0.0000  0.0000  0.0000  0.0000  0.0000      0.0000  0.0000  0.0000  0.0000  0.0000  0.0000  0.0000  0.0000  0.0000  0.0000
  o =  0.9400  v =  0.0000  0.7071  0.0000  0.7071  0.0000  0.0000  0.0000  0.0000  0.0000  0.0000      0.0000  0.0000  0.0000  0.0000  0.0000  0.0000  0.0000  0.0000  0.0000  0.0000
  o =  0.9405  v =  0.0000  0.0000 -0.0000  0.0000 -1.0000  0.0000  0.0000  0.0000  0.0000  0.0000      0.0000  0.0000  0.0000  0.0000  0.0000  0.0000  0.0000  0.0000  0.0000  0.0000
  o =  0.9783  v =  0.0000  0.7071  0.0000 -0.7071  0.0000  0.0000  0.0000  0.0000  0.0000  0.0000      0.0000  0.0000  0.0000  0.0000  0.0000  0.0000  0.0000  0.0000  0.0000  0.0000
  o =  0.9835  v = -0.8387  0.0000  0.5445  0.0000 -0.0000  0.0000  0.0000  0.0000  0.0000  0.0000      0.0000  0.0000  0.0000  0.0000  0.0000  0.0000  0.0000  0.0000  0.0000  0.0000
     EDDAV:  cpu time    0.0391: real time    0.0391
       DOS:  cpu time    0.0001: real time    0.0001
    CHARGE:  cpu time    0.0243: real time    0.0243
    MIXING:  cpu time    0.0007: real time    0.0007
    --------------------------------------------
      LOOP:  cpu time    0.2990: real time    0.2990

 eigenvalue-minimisations  :   156
 total energy-change (2. order) :-0.2811453E+00  (-0.9692841E-02)
 number of electron      53.9999998 magnetization       0.0000000
 augmentation part       19.9698023 magnetization       0.0000000

 Broyden mixing:
  rms(total) = 0.12795E+00    rms(broyden)= 0.12795E+00
  rms(prec ) = 0.13475E+00
  weight for this iteration     100.00

 eigenvalues of (default mixing * dielectric matrix)
  average eigenvalue GAMMA=   1.2124
  2.6059  0.8066  0.8066  0.6307

 Free energy of the ion-electron system (eV)
  ---------------------------------------------------
  alpha Z        PSCENC =       203.95051221
  Ewald energy   TEWEN  =     -4253.05950503
  -Hartree energ DENC   =     -2104.80819059
  -exchange      EXHF   =         0.00000000
  -V(xc)+E(xc)   XCENC  =       296.03177136
  PAW double counting   =      6369.24839049    -6489.67993768
  entropy T*S    EENTRO =        -0.00000000
  eigenvalues    EBANDS =      -751.34365110
  atomic energy  EATOM  =      6689.45677594
  Solvation  Ediel_sol  =         0.00000000
  ---------------------------------------------------
  free energy    TOTEN  =       -40.20383440 eV

  energy without entropy =      -40.20383440  energy(sigma->0) =      -40.20383440


--------------------------------------------------------------------------------------------------------




--------------------------------------- Iteration      1(  10)  ---------------------------------------


    POTLOK:  cpu time    0.0047: real time    0.0047
    SETDIJ:  cpu time    0.2307: real time    0.2307
atom =   1  type =  1  l = 2
 
 onsite density matrix
 
spin component  1
 
  0.0499  0.0000  0.0304  0.0000 -0.0000
  0.0000  0.0450  0.0000  0.0219  0.0000
  0.0304  0.0000  0.0446  0.0000 -0.0000
  0.0000  0.0219  0.0000  0.0450  0.0000
 -0.0000  0.0000 -0.0000  0.0000  0.0190
 
spin component  2
 
  0.9728  0.0000  0.0198  0.0000  0.0000
  0.0000  0.9621  0.0000  0.0182  0.0000
  0.0198  0.0000  0.9498  0.0000  0.0000
  0.0000  0.0182  0.0000  0.9621  0.0000
  0.0000  0.0000  0.0000  0.0000  0.9452
 
 occupancies and eigenvectors
 
  o =  0.0168  v = -0.6754  0.0000  0.7374  0.0000  0.0000  0.0000  0.0000  0.0000  0.0000  0.0000      0.0000  0.0000  0.0000  0.0000  0.0000  0.0000  0.0000  0.0000  0.0000  0.0000
  o =  0.0190  v = -0.0000 -0.0000  0.0000  0.0000 -1.0000  0.0000  0.0000  0.0000  0.0000  0.0000      0.0000  0.0000  0.0000  0.0000  0.0000  0.0000  0.0000  0.0000  0.0000  0.0000
  o =  0.0231  v =  0.0000  0.7071  0.0000 -0.7071 -0.0000  0.0000  0.0000  0.0000  0.0000  0.0000      0.0000  0.0000  0.0000  0.0000  0.0000  0.0000  0.0000  0.0000  0.0000  0.0000
  o =  0.0669  v =  0.0000  0.7071  0.0000  0.7071 -0.0000  0.0000  0.0000  0.0000  0.0000  0.0000      0.0000  0.0000  0.0000  0.0000  0.0000  0.0000  0.0000  0.0000  0.0000  0.0000
  o =  0.0777  v = -0.7374  0.0000 -0.6754  0.0000  0.0000  0.0000  0.0000  0.0000  0.0000  0.0000      0.0000  0.0000  0.0000  0.0000  0.0000  0.0000  0.0000  0.0000  0.0000  0.0000
  o =  0.9384  v =  0.0000  0.0000  0.0000  0.0000  0.0000 -0.4988  0.0000  0.8667 -0.0000 -0.0000      0.0000  0.0000  0.0000  0.0000  0.0000  0.0000  0.0000  0.0000  0.0000  0.0000
  o =  0.9439  v =  0.0000  0.0000  0.0000  0.0000  0.0000 -0.0000 -0.7071  0.0000  0.7071 -0.0000      0.0000  0.0000  0.0000  0.0000  0.0000  0.0000  0.0000  0.0000  0.0000  0.0000
  o =  0.9452  v =  0.0000  0.0000  0.0000  0.0000  0.0000 -0.0000 -0.0000  0.0000  0.0000  1.0000      0.0000  0.0000  0.0000  0.0000  0.0000  0.0000  0.0000  0.0000  0.0000  0.0000
  o =  0.9803  v =  0.0000  0.0000  0.0000  0.0000  0.0000 -0.0000 -0.7071 -0.0000 -0.7071  0.0000      0.0000  0.0000  0.0000  0.0000  0.0000  0.0000  0.0000  0.0000  0.0000  0.0000
  o =  0.9842  v =  0.0000  0.0000  0.0000  0.0000  0.0000 -0.8667  0.0000 -0.4988  0.0000 -0.0000      0.0000  0.0000  0.0000  0.0000  0.0000  0.0000  0.0000  0.0000  0.0000  0.0000
atom =   2  type =  1  l = 2
 
 onsite density matrix
 
spin component  1
 
  0.9728  0.0000 -0.0198  0.0000  0.0000
  0.0000  0.9621  0.0000 -0.0182  0.0000
 -0.0198  0.0000  0.9498  0.0000 -0.0000
  0.0000 -0.0182  0.0000  0.9621  0.0000
  0.0000  0.0000 -0.0000  0.0000  0.9452
 
spin component  2
 
  0.0499  0.0000 -0.0304  0.0000 -0.0000
  0.0000  0.0450  0.0000 -0.0219  0.0000
 -0.0304  0.0000  0.0446  0.0000 -0.0000
  0.0000 -0.0219  0.0000  0.0450  0.0000
 -0.0000  0.0000 -0.0000  0.0000  0.0190
 
 occupancies and eigenvectors
 
  o =  0.0168  v =  0.0000  0.0000  0.0000  0.0000  0.0000 -0.6754 -0.0000 -0.7374  0.0000 -0.0000      0.0000  0.0000  0.0000  0.0000  0.0000  0.0000  0.0000  0.0000  0.0000  0.0000
  o =  0.0190  v =  0.0000  0.0000  0.0000  0.0000  0.0000 -0.0000  0.0000 -0.0000  0.0000  1.0000      0.0000  0.0000  0.0000  0.0000  0.0000  0.0000  0.0000  0.0000  0.0000  0.0000
  o =  0.0231  v =  0.0000  0.0000  0.0000  0.0000  0.0000  0.0000 -0.7071  0.0000 -0.7071 -0.0000      0.0000  0.0000  0.0000  0.0000  0.0000  0.0000  0.0000  0.0000  0.0000  0.0000
  o =  0.0669  v =  0.0000  0.0000  0.0000  0.0000  0.0000  0.0000 -0.7071  0.0000  0.7071 -0.0000      0.0000  0.0000  0.0000  0.0000  0.0000  0.0000  0.0000  0.0000  0.0000  0.0000
  o =  0.0777  v =  0.0000  0.0000  0.0000  0.0000  0.0000 -0.7374 -0.0000  0.6754  0.0000 -0.0000      0.0000  0.0000  0.0000  0.0000  0.0000  0.0000  0.0000  0.0000  0.0000  0.0000
  o =  0.9384  v = -0.4988  0.0000 -0.8667  0.0000  0.0000  0.0000  0.0000  0.0000  0.0000  0.0000      0.0000  0.0000  0.0000  0.0000  0.0000  0.0000  0.0000  0.0000  0.0000  0.0000
  o =  0.9439  v =  0.0000 -0.7071  0.0000 -0.7071 -0.0000  0.0000  0.0000  0.0000  0.0000  0.0000      0.0000  0.0000  0.0000  0.0000  0.0000  0.0000  0.0000  0.0000  0.0000  0.0000
  o =  0.9452  v =  0.0000 -0.0000  0.0000  0.0000  1.0000  0.0000  0.0000  0.0000  0.0000  0.0000      0.0000  0.0000  0.0000  0.0000  0.0000  0.0000  0.0000  0.0000  0.0000  0.0000
  o =  0.9803  v =  0.0000  0.7071  0.0000 -0.7071  0.0000  0.0000  0.0000  0.0000  0.0000  0.0000      0.0000  0.0000  0.0000  0.0000  0.0000  0.0000  0.0000  0.0000  0.0000  0.0000
  o =  0.9842  v = -0.8667  0.0000  0.4988  0.0000 -0.0000  0.0000  0.0000  0.0000  0.0000  0.0000      0.0000  0.0000  0.0000  0.0000  0.0000  0.0000  0.0000  0.0000  0.0000  0.0000
     EDDAV:  cpu time    0.0417: real time    0.0417
       DOS:  cpu time    0.0001: real time    0.0001
    CHARGE:  cpu time    0.0242: real time    0.0242
    MIXING:  cpu time    0.0007: real time    0.0007
    --------------------------------------------
      LOOP:  cpu time    0.3021: real time    0.3021

 eigenvalue-minimisations  :   168
 total energy-change (2. order) :-0.5295755E-03  (-0.1334799E-02)
 number of electron      53.9999998 magnetization       0.0000000
 augmentation part       19.9654396 magnetization       0.0000000

 Broyden mixing:
  rms(total) = 0.22506E-01    rms(broyden)= 0.22501E-01
  rms(prec ) = 0.25006E-01
  weight for this iteration     100.00

 eigenvalues of (default mixing * dielectric matrix)
  average eigenvalue GAMMA=   1.1480
  2.5378  0.9384  0.9384  0.7179  0.6072

 Free energy of the ion-electron system (eV)
  ---------------------------------------------------
  alpha Z        PSCENC =       203.95051221
  Ewald energy   TEWEN  =     -4253.05950503
  -Hartree energ DENC   =     -2105.46244445
  -exchange      EXHF   =         0.00000000
  -V(xc)+E(xc)   XCENC  =       296.10057688
  PAW double counting   =      6359.41734359    -6479.71556934
  entropy T*S    EENTRO =        -0.00000000
  eigenvalues    EBANDS =      -750.89205377
  atomic energy  EATOM  =      6689.45677594
  Solvation  Ediel_sol  =         0.00000000
  ---------------------------------------------------
  free energy    TOTEN  =       -40.20436398 eV

  energy without entropy =      -40.20436398  energy(sigma->0) =      -40.20436398


--------------------------------------------------------------------------------------------------------




--------------------------------------- Iteration      1(  11)  ---------------------------------------


    POTLOK:  cpu time    0.0047: real time    0.0047
    SETDIJ:  cpu time    0.2306: real time    0.2306
atom =   1  type =  1  l = 2
 
 onsite density matrix
 
spin component  1
 
  0.0492  0.0000  0.0300  0.0000  0.0000
  0.0000  0.0440  0.0000  0.0218  0.0000
  0.0300  0.0000  0.0434  0.0000  0.0000
  0.0000  0.0218  0.0000  0.0440  0.0000
  0.0000  0.0000  0.0000  0.0000  0.0182
 
spin component  2
 
  0.9742  0.0000  0.0200  0.0000 -0.0000
  0.0000  0.9640  0.0000  0.0182  0.0000
  0.0200  0.0000  0.9517  0.0000 -0.0000
  0.0000  0.0182  0.0000  0.9640  0.0000
 -0.0000  0.0000 -0.0000  0.0000  0.9469
 
 occupancies and eigenvectors
 
  o =  0.0162  v = -0.6723  0.0000  0.7403  0.0000 -0.0000  0.0000  0.0000  0.0000  0.0000  0.0000      0.0000  0.0000  0.0000  0.0000  0.0000  0.0000  0.0000  0.0000  0.0000  0.0000
  o =  0.0182  v = -0.0000 -0.0000  0.0000  0.0000  1.0000  0.0000  0.0000  0.0000  0.0000  0.0000      0.0000  0.0000  0.0000  0.0000  0.0000  0.0000  0.0000  0.0000  0.0000  0.0000
  o =  0.0221  v =  0.0000  0.7071  0.0000 -0.7071  0.0000  0.0000  0.0000  0.0000  0.0000  0.0000      0.0000  0.0000  0.0000  0.0000  0.0000  0.0000  0.0000  0.0000  0.0000  0.0000
  o =  0.0658  v =  0.0000 -0.7071  0.0000 -0.7071 -0.0000  0.0000  0.0000  0.0000  0.0000  0.0000      0.0000  0.0000  0.0000  0.0000  0.0000  0.0000  0.0000  0.0000  0.0000  0.0000
  o =  0.0765  v = -0.7403  0.0000 -0.6723  0.0000 -0.0000  0.0000  0.0000  0.0000  0.0000  0.0000      0.0000  0.0000  0.0000  0.0000  0.0000  0.0000  0.0000  0.0000  0.0000  0.0000
  o =  0.9400  v =  0.0000  0.0000  0.0000  0.0000  0.0000 -0.5058  0.0000  0.8627  0.0000  0.0000      0.0000  0.0000  0.0000  0.0000  0.0000  0.0000  0.0000  0.0000  0.0000  0.0000
  o =  0.9458  v =  0.0000  0.0000  0.0000  0.0000  0.0000  0.0000 -0.7071  0.0000  0.7071  0.0000      0.0000  0.0000  0.0000  0.0000  0.0000  0.0000  0.0000  0.0000  0.0000  0.0000
  o =  0.9469  v =  0.0000  0.0000  0.0000  0.0000  0.0000 -0.0000 -0.0000  0.0000  0.0000 -1.0000      0.0000  0.0000  0.0000  0.0000  0.0000  0.0000  0.0000  0.0000  0.0000  0.0000
  o =  0.9821  v =  0.0000  0.0000  0.0000  0.0000  0.0000  0.0000 -0.7071  0.0000 -0.7071  0.0000      0.0000  0.0000  0.0000  0.0000  0.0000  0.0000  0.0000  0.0000  0.0000  0.0000
  o =  0.9859  v =  0.0000  0.0000  0.0000  0.0000  0.0000 -0.8627  0.0000 -0.5058  0.0000  0.0000      0.0000  0.0000  0.0000  0.0000  0.0000  0.0000  0.0000  0.0000  0.0000  0.0000
atom =   2  type =  1  l = 2
 
 onsite density matrix
 
spin component  1
 
  0.9742  0.0000 -0.0200  0.0000 -0.0000
  0.0000  0.9640  0.0000 -0.0182  0.0000
 -0.0200  0.0000  0.9517  0.0000 -0.0000
  0.0000 -0.0182  0.0000  0.9640  0.0000
 -0.0000  0.0000 -0.0000  0.0000  0.9469
 
spin component  2
 
  0.0492  0.0000 -0.0300  0.0000  0.0000
  0.0000  0.0440  0.0000 -0.0218  0.0000
 -0.0300  0.0000  0.0434  0.0000  0.0000
  0.0000 -0.0218  0.0000  0.0440  0.0000
  0.0000  0.0000  0.0000  0.0000  0.0182
 
 occupancies and eigenvectors
 
  o =  0.0162  v =  0.0000  0.0000  0.0000  0.0000  0.0000 -0.6723  0.0000 -0.7403  0.0000  0.0000      0.0000  0.0000  0.0000  0.0000  0.0000  0.0000  0.0000  0.0000  0.0000  0.0000
  o =  0.0182  v =  0.0000  0.0000  0.0000  0.0000  0.0000 -0.0000 -0.0000 -0.0000 -0.0000 -1.0000      0.0000  0.0000  0.0000  0.0000  0.0000  0.0000  0.0000  0.0000  0.0000  0.0000
  o =  0.0221  v =  0.0000  0.0000  0.0000  0.0000  0.0000 -0.0000 -0.7071 -0.0000 -0.7071  0.0000      0.0000  0.0000  0.0000  0.0000  0.0000  0.0000  0.0000  0.0000  0.0000  0.0000
  o =  0.0658  v =  0.0000  0.0000  0.0000  0.0000  0.0000 -0.0000 -0.7071  0.0000  0.7071  0.0000      0.0000  0.0000  0.0000  0.0000  0.0000  0.0000  0.0000  0.0000  0.0000  0.0000
  o =  0.0765  v =  0.0000  0.0000  0.0000  0.0000  0.0000 -0.7403  0.0000  0.6723 -0.0000  0.0000      0.0000  0.0000  0.0000  0.0000  0.0000  0.0000  0.0000  0.0000  0.0000  0.0000
  o =  0.9400  v = -0.5058 -0.0000 -0.8627  0.0000 -0.0000  0.0000  0.0000  0.0000  0.0000  0.0000      0.0000  0.0000  0.0000  0.0000  0.0000  0.0000  0.0000  0.0000  0.0000  0.0000
  o =  0.9458  v =  0.0000 -0.7071  0.0000 -0.7071  0.0000  0.0000  0.0000  0.0000  0.0000  0.0000      0.0000  0.0000  0.0000  0.0000  0.0000  0.0000  0.0000  0.0000  0.0000  0.0000
  o =  0.9469  v = -0.0000  0.0000 -0.0000  0.0000  1.0000  0.0000  0.0000  0.0000  0.0000  0.0000      0.0000  0.0000  0.0000  0.0000  0.0000  0.0000  0.0000  0.0000  0.0000  0.0000
  o =  0.9821  v =  0.0000  0.7071  0.0000 -0.7071 -0.0000  0.0000  0.0000  0.0000  0.0000  0.0000      0.0000  0.0000  0.0000  0.0000  0.0000  0.0000  0.0000  0.0000  0.0000  0.0000
  o =  0.9859  v = -0.8627 -0.0000  0.5058  0.0000 -0.0000  0.0000  0.0000  0.0000  0.0000  0.0000      0.0000  0.0000  0.0000  0.0000  0.0000  0.0000  0.0000  0.0000  0.0000  0.0000
     EDDAV:  cpu time    0.0364: real time    0.0364
       DOS:  cpu time    0.0001: real time    0.0001
    CHARGE:  cpu time    0.0243: real time    0.0243
    MIXING:  cpu time    0.0007: real time    0.0007
    --------------------------------------------
      LOOP:  cpu time    0.2968: real time    0.2968

 eigenvalue-minimisations  :   144
 total energy-change (2. order) : 0.7824637E-05  (-0.1330404E-03)
 number of electron      53.9999998 magnetization       0.0000000
 augmentation part       19.9613754 magnetization       0.0000000

 Broyden mixing:
  rms(total) = 0.12216E-01    rms(broyden)= 0.12214E-01
  rms(prec ) = 0.13727E-01
  weight for this iteration     100.00

 eigenvalues of (default mixing * dielectric matrix)
  average eigenvalue GAMMA=   1.0999
  2.5311  1.2450  0.8081  0.8081  0.6297  0.5776

 Free energy of the ion-electron system (eV)
  ---------------------------------------------------
  alpha Z        PSCENC =       203.95051221
  Ewald energy   TEWEN  =     -4253.05950503
  -Hartree energ DENC   =     -2105.87942408
  -exchange      EXHF   =         0.00000000
  -V(xc)+E(xc)   XCENC  =       296.11443891
  PAW double counting   =      6345.28884155    -6465.49368839
  entropy T*S    EENTRO =        -0.00000000
  eigenvalues    EBANDS =      -750.58230726
  atomic energy  EATOM  =      6689.45677594
  Solvation  Ediel_sol  =         0.00000000
  ---------------------------------------------------
  free energy    TOTEN  =       -40.20435615 eV

  energy without entropy =      -40.20435615  energy(sigma->0) =      -40.20435615


--------------------------------------------------------------------------------------------------------




--------------------------------------- Iteration      1(  12)  ---------------------------------------


    POTLOK:  cpu time    0.0047: real time    0.0047
    SETDIJ:  cpu time    0.2311: real time    0.2311
atom =   1  type =  1  l = 2
 
 onsite density matrix
 
spin component  1
 
  0.0501  0.0000  0.0300  0.0000 -0.0000
  0.0000  0.0450  0.0000  0.0219  0.0000
  0.0300  0.0000  0.0443  0.0000  0.0000
  0.0000  0.0219  0.0000  0.0450  0.0000
 -0.0000  0.0000  0.0000  0.0000  0.0192
 
spin component  2
 
  0.9736  0.0000  0.0201  0.0000 -0.0000
  0.0000  0.9633  0.0000  0.0183  0.0000
  0.0201  0.0000  0.9511  0.0000 -0.0000
  0.0000  0.0183  0.0000  0.9633  0.0000
 -0.0000  0.0000 -0.0000  0.0000  0.9462
 
 occupancies and eigenvectors
 
  o =  0.0170  v = -0.6726  0.0000  0.7400 -0.0000 -0.0000  0.0000  0.0000  0.0000  0.0000  0.0000      0.0000  0.0000  0.0000  0.0000  0.0000  0.0000  0.0000  0.0000  0.0000  0.0000
  o =  0.0192  v = -0.0000 -0.0000  0.0000  0.0000  1.0000  0.0000  0.0000  0.0000  0.0000  0.0000      0.0000  0.0000  0.0000  0.0000  0.0000  0.0000  0.0000  0.0000  0.0000  0.0000
[...]

 Free energy of the ion-electron system (eV)
  ---------------------------------------------------
  alpha Z        PSCENC =       204.94121115
  Ewald energy   TEWEN  =     -4243.88984908
  -Hartree energ DENC   =     -2116.01728667
  -exchange      EXHF   =         0.00000000
  -V(xc)+E(xc)   XCENC  =       296.17982178
  PAW double counting   =      6363.18013652    -6483.50279132
  entropy T*S    EENTRO =        -0.00000000
  eigenvalues    EBANDS =      -750.58631257
  atomic energy  EATOM  =      6689.45677594
  Solvation  Ediel_sol  =         0.00000000
  ---------------------------------------------------
  free energy    TOTEN  =       -40.23829425 eV

  energy without entropy =      -40.23829425  energy(sigma->0) =      -40.23829425


--------------------------------------------------------------------------------------------------------




 average (electrostatic) potential at core
  the test charge radii are     0.9577  0.7167
  (the norm of the test charge is              1.0000)
       1 -71.2272       2 -71.2272       3 -76.7782       4 -76.7782       5 -76.7782
       6 -76.7782
 
 
 
 E-fermi :   1.7079     XC(G=0): -10.7515     alpha+bet : -8.9822


 spin component 1

 k-point     1 :       0.0000    0.0000    0.2500
  band No.  band energies     occupation 
      1     -45.9169      1.00000
      2     -45.9056      1.00000
      3     -45.8815      1.00000
      4     -41.3501      1.00000
      5     -41.3291      1.00000
      6     -41.3147      1.00000
      7     -20.8345      1.00000
      8     -20.4120      1.00000
      9     -20.3907      1.00000
     10     -20.3298      1.00000
     11      -4.6349      1.00000
     12      -4.0510      1.00000
     13      -3.8723      1.00000
     14      -3.3938      1.00000
     15      -3.2788      1.00000
     16      -3.2532      1.00000
     17      -2.7623      1.00000
     18      -2.5737      1.00000
     19      -2.5323      1.00000
     20      -1.8261      1.00000
     21      -1.7312      1.00000
     22      -1.2930      1.00000
     23       0.1278      1.00000
     24       0.2616      1.00000
     25       0.3592      1.00000
     26       1.3585      1.00000
     27       1.4672      1.00000
     28       6.5839      0.00000
     29       7.0992      0.00000
     30       7.1870      0.00000
     31       7.2498      0.00000
     32       8.1556      0.00000
     33       8.3266      0.00000
     34      11.9206      0.00000
     35      12.0202      0.00000
     36      12.6922      0.00000

 spin component 2

 k-point     1 :       0.0000    0.0000    0.2500
  band No.  band energies     occupation 
      1     -45.9169      1.00000
      2     -45.9056      1.00000
      3     -45.8815      1.00000
      4     -41.3501      1.00000
      5     -41.3291      1.00000
      6     -41.3147      1.00000
      7     -20.8345      1.00000
      8     -20.4120      1.00000
      9     -20.3907      1.00000
     10     -20.3298      1.00000
     11      -4.6349      1.00000
     12      -4.0510      1.00000
     13      -3.8723      1.00000
     14      -3.3938      1.00000
     15      -3.2788      1.00000
     16      -3.2532      1.00000
     17      -2.7623      1.00000
     18      -2.5737      1.00000
     19      -2.5323      1.00000
     20      -1.8261      1.00000
     21      -1.7312      1.00000
     22      -1.2930      1.00000
     23       0.1278      1.00000
     24       0.2616      1.00000
     25       0.3592      1.00000
     26       1.3585      1.00000
     27       1.4672      1.00000
     28       6.5839      0.00000
     29       7.0992      0.00000
     30       7.1870      0.00000
     31       7.2498      0.00000
     32       8.1556      0.00000
     33       8.3266      0.00000
     34      11.9206      0.00000
     35      12.0202      0.00000
     36      12.6922      0.00000


--------------------------------------------------------------------------------------------------------


 soft charge-density along one line, spin component           1
         0         1         2         3         4         5         6         7         8         9
 total charge-density along one line
 
 soft charge-density along one line, spin component           2
         0         1         2         3         4         5         6         7         8         9
 total charge-density along one line
 
 pseudopotential strength for first ion, spin component:           1
-41.867  -0.000  -0.006   7.890   0.000   0.002   0.000   0.000
 -0.000 -41.864  -0.000   0.000   7.889   0.000   0.000  -0.000
 -0.006  -0.000 -41.867   0.002   0.000   7.890  -0.000   0.000
  7.890   0.000   0.002   5.350  -0.000  -0.000  -0.000  -0.000
  0.000   7.889   0.000  -0.000   5.353  -0.000  -0.000  -0.000
  0.002   0.000   7.890  -0.000  -0.000   5.350  -0.000  -0.000
  0.000   0.000  -0.000  -0.000  -0.000  -0.000  -1.343  -0.000
  0.000  -0.000   0.000  -0.000  -0.000  -0.000  -0.000  -1.336
  0.000   0.000  -0.000   0.000  -0.000  -0.000  -0.087   0.000
  0.000  -0.000   0.000  -0.000  -0.000  -0.000  -0.000  -0.079
  0.000   0.000  -0.000   0.000  -0.000   0.000   0.000   0.000
  0.000   0.000  -0.000  -0.000  -0.000  -0.000  -1.785  -0.000
  0.000  -0.000   0.000  -0.000  -0.000  -0.000  -0.000  -1.778
  0.000   0.000  -0.000   0.000  -0.000  -0.000  -0.090   0.000
  0.000  -0.000   0.000  -0.000  -0.000  -0.000  -0.000  -0.082
  0.000   0.000  -0.000   0.000  -0.000   0.000   0.000   0.000
 -0.000  -0.000   0.000  -0.000  -0.000   0.000   0.001   0.000
 -0.000  -0.000   0.000  -0.000  -0.000   0.000   0.002   0.000
 pseudopotential strength for first ion, spin component:           2
-44.932  -0.000  -0.013   9.373   0.000   0.006   0.000   0.000
 -0.000 -44.925  -0.000   0.000   9.371   0.000   0.000  -0.000
 -0.013  -0.000 -44.932   0.006   0.000   9.373  -0.000   0.000
  9.373   0.000   0.006   4.857  -0.000  -0.001   0.000  -0.000
  0.000   9.371   0.000  -0.000   4.858  -0.000  -0.000  -0.000
  0.006   0.000   9.373  -0.001  -0.000   4.857  -0.000  -0.000
  0.000   0.000  -0.000   0.000  -0.000  -0.000  -7.367  -0.000
  0.000  -0.000   0.000  -0.000  -0.000  -0.000  -0.000  -7.335
  0.000   0.000  -0.000   0.000  -0.000  -0.000  -0.047   0.000
  0.000  -0.000   0.000  -0.000  -0.000  -0.000  -0.000  -0.072
  0.000   0.000  -0.000   0.000  -0.000  -0.000   0.000   0.000
  0.000   0.000  -0.000   0.000  -0.000  -0.000  -7.861  -0.000
  0.000  -0.000   0.000  -0.000  -0.000  -0.000  -0.000  -7.828
  0.000   0.000  -0.000   0.000  -0.000  -0.000  -0.049   0.000
  0.000  -0.000   0.000  -0.000  -0.000  -0.000  -0.000  -0.074
  0.000   0.000  -0.000   0.000  -0.000  -0.000   0.000   0.000
 -0.000  -0.000   0.000  -0.000  -0.000   0.000   0.003   0.000
 -0.000  -0.000   0.000  -0.000  -0.000   0.000   0.006   0.000
 total augmentation occupancy for first ion, spin component:           1
  1.998   0.000   0.000  -0.013   0.000   0.000   0.000   0.000   0.000   0.000   0.000   0.000   0.000   0.000   0.000   0.000
  0.000   1.998   0.000   0.000  -0.012   0.000   0.000   0.000   0.000   0.000   0.000   0.000   0.000   0.000   0.000   0.000
  0.000   0.000   1.998   0.000   0.000  -0.013   0.000   0.000   0.000   0.000   0.000   0.000   0.000   0.000   0.000   0.000
 -0.013   0.000   0.000   0.103   0.000  -0.005   0.000   0.000   0.000   0.000   0.000   0.000   0.000   0.000   0.000   0.000
  0.000  -0.012   0.000   0.000   0.109   0.000   0.000   0.000   0.000   0.000   0.000   0.000   0.000   0.000   0.000   0.000
  0.000   0.000  -0.013  -0.005   0.000   0.103   0.000   0.000   0.000   0.000   0.000   0.000   0.000   0.000   0.000   0.000
  0.000   0.000   0.000   0.000   0.000   0.000   8.358   0.000   2.965   0.000   0.000  -6.401   0.000  -2.825   0.000  -0.000
  0.000   0.000   0.000   0.000   0.000   0.000   0.000   7.283   0.000   3.181   0.000   0.000  -5.427   0.000  -3.009   0.000
  0.000   0.000   0.000   0.000   0.000   0.000   2.965   0.000   5.883   0.000   0.000  -2.826   0.000  -4.170   0.000  -0.000
  0.000   0.000   0.000   0.000   0.000   0.000   0.000   3.181   0.000   7.283   0.000   0.000  -3.009   0.000  -5.427   0.000
  0.000   0.000   0.000   0.000   0.000   0.000   0.000   0.000   0.000   0.000   4.121  -0.000   0.000  -0.000   0.000  -2.384
  0.000   0.000   0.000   0.000   0.000   0.000  -6.401   0.000  -2.826   0.000  -0.000   5.616   0.000   2.725   0.000   0.000
  0.000   0.000   0.000   0.000   0.000   0.000   0.000  -5.427   0.000  -3.009   0.000   0.000   4.731   0.000   2.874   0.000
  0.000   0.000   0.000   0.000   0.000   0.000  -2.825   0.000  -4.170   0.000  -0.000   2.725   0.000   3.598   0.000   0.000
  0.000   0.000   0.000   0.000   0.000   0.000   0.000  -3.009   0.000  -5.427   0.000   0.000   2.874   0.000   4.731   0.000
  0.000   0.000   0.000   0.000   0.000   0.000  -0.000   0.000  -0.000   0.000  -2.384   0.000   0.000   0.000   0.000   1.770
  0.000   0.000   0.000   0.000   0.000   0.000  -0.047   0.000  -0.321   0.000  -0.000   0.030   0.000   0.320   0.000   0.000
  0.000   0.000   0.000   0.000   0.000   0.000  -0.007   0.000   0.037   0.000  -0.000   0.014   0.000  -0.044   0.000   0.000
 total augmentation occupancy for first ion, spin component:           2
  0.004   0.000  -0.000   0.016   0.000   0.000   0.000   0.000   0.000   0.000   0.000   0.000   0.000   0.000   0.000   0.000
  0.000   0.004   0.000   0.000   0.017   0.000   0.000   0.000   0.000   0.000   0.000   0.000   0.000   0.000   0.000   0.000
 -0.000   0.000   0.004   0.000   0.000   0.016   0.000   0.000   0.000   0.000   0.000   0.000   0.000   0.000   0.000   0.000
  0.016   0.000   0.000  -0.010   0.000  -0.001   0.000   0.000   0.000   0.000   0.000   0.000   0.000   0.000   0.000   0.000
  0.000   0.017   0.000   0.000  -0.006   0.000   0.000   0.000   0.000   0.000   0.000   0.000   0.000   0.000   0.000   0.000
  0.000   0.000   0.016  -0.001   0.000  -0.010   0.000   0.000   0.000   0.000   0.000   0.000   0.000   0.000   0.000   0.000
  0.000   0.000   0.000   0.000   0.000   0.000  -5.648   0.000  -1.575   0.000  -0.000   3.304   0.000   1.231   0.000   0.000
  0.000   0.000   0.000   0.000   0.000   0.000   0.000  -5.002   0.000  -1.749   0.000   0.000   2.792   0.000   1.383   0.000
  0.000   0.000   0.000   0.000   0.000   0.000  -1.575   0.000  -4.060   0.000  -0.000   1.232   0.000   2.043   0.000   0.000
  0.000   0.000   0.000   0.000   0.000   0.000   0.000  -1.749   0.000  -5.002   0.000   0.000   1.383   0.000   2.792   0.000
  0.000   0.000   0.000   0.000   0.000   0.000  -0.000   0.000  -0.000   0.000  -3.347   0.000   0.000   0.000   0.000   1.473
  0.000   0.000   0.000   0.000   0.000   0.000   3.304   0.000   1.232   0.000   0.000  -2.068   0.000  -0.889   0.000  -0.000
  0.000   0.000   0.000   0.000   0.000   0.000   0.000   2.792   0.000   1.383   0.000   0.000  -1.679   0.000  -1.026   0.000
  0.000   0.000   0.000   0.000   0.000   0.000   1.231   0.000   2.043   0.000   0.000  -0.889   0.000  -1.105   0.000  -0.000
  0.000   0.000   0.000   0.000   0.000   0.000   0.000   1.383   0.000   2.792   0.000   0.000  -1.026   0.000  -1.679   0.000
  0.000   0.000   0.000   0.000   0.000   0.000   0.000   0.000   0.000   0.000   1.473  -0.000   0.000  -0.000   0.000  -0.696
  0.000   0.000   0.000   0.000   0.000   0.000   0.068   0.000   0.071   0.000  -0.000  -0.040   0.000  -0.031   0.000  -0.000
  0.000   0.000   0.000   0.000   0.000   0.000  -0.009   0.000   0.008   0.000   0.000   0.002   0.000  -0.007   0.000  -0.000


------------------------ aborting loop because EDIFF is reached ----------------------------------------


 


 total charge     
 
# of ion       s       p       d       tot
------------------------------------------
    1        0.181   6.179   4.990  11.350
    2        0.181   6.179   4.990  11.350
    3        1.721   4.361   0.000   6.081
    4        1.721   4.361   0.000   6.081
    5        1.721   4.361   0.000   6.081
    6        1.721   4.361   0.000   6.081
--------------------------------------------------
tot          7.245  29.801   9.979  47.025
 


 magnetization (x)
 
# of ion       s       p       d       tot
------------------------------------------
    1       -0.014  -0.013  -4.582  -4.609
    2        0.014   0.013   4.582   4.609
    3        0.001   0.019   0.000   0.020
    4        0.001   0.019   0.000   0.020
    5       -0.001  -0.019   0.000  -0.020
    6       -0.001  -0.019   0.000  -0.020
--------------------------------------------------
tot          0.000  -0.000   0.000   0.000
 
    CHARGE:  cpu time    0.0237: real time    0.0237
    FORLOC:  cpu time    0.0010: real time    0.0010
    FORNL :  cpu time    0.1017: real time    0.1017
    STRESS:  cpu time    0.3143: real time    0.3143
    FORCOR:  cpu time    0.0041: real time    0.0041
    FORHAR:  cpu time    0.0021: real time    0.0021
    MIXING:  cpu time    0.0005: real time    0.0005
    OFIELD:  cpu time    0.0000: real time    0.0000

  FORCE on cell =-STRESS in cart. coord.  units (eV):
  Direction    XX          YY          ZZ          XY          YZ          ZX
  --------------------------------------------------------------------------------------
  Alpha Z   204.94121   204.94121   204.94121
  Ewald   -1613.44132 -1613.44132 -1017.01119    -0.00000    -0.00000     0.00000
  Hartree   572.33325   572.33325   971.35255    -0.00000    -0.00000    -0.00000
  E(xc)    -309.51028  -309.51028  -309.56174    -0.00000    -0.00000    -0.00000
  Local     193.25467   193.25467  -790.49348    -0.00000    -0.00000     0.00000
  n-local  -238.41134  -238.41134  -236.45507     0.00000    -0.00000    -0.00000
  augment   267.56156   267.56156   265.63472    -0.00000    -0.00000    -0.00000
  Kinetic   923.26197   923.26197   911.59559    -0.00000     0.00000     0.00000
  Fock        0.00000     0.00000     0.00000     0.00000     0.00000     0.00000
  -------------------------------------------------------------------------------------
  Total      -0.01028    -0.01028     0.00259     0.00000     0.00000     0.00000
  in kB      -0.22156    -0.22156     0.05577     0.00000     0.00000     0.00000
  external pressure =       -0.13 kB  Pullay stress =        0.00 kB


 VOLUME and BASIS-vectors are now :
 -----------------------------------------------------------------------------
  energy-cutoff  :      600.00
  volume of cell :       74.34
      direct lattice vectors                 reciprocal lattice vectors
     4.868215333 -0.000000000  0.000000000     0.205414085  0.000000000  0.000000000
    -0.000000000  4.868215333  0.000000000     0.000000000  0.205414085  0.000000000
     0.000000000  0.000000000  3.136875896     0.000000000  0.000000000  0.318788512

  length of vectors
     4.868215333  4.868215333  3.136875896     0.205414085  0.205414085  0.318788512


 FORCES acting on ions
    electron-ion (+dipol)            ewald-force                    non-local-force                 convergence-correction
 -----------------------------------------------------------------------------------------------
   -.168E-11 0.666E-11 -.506E-12   -.568E-13 -.171E-12 0.755E-15   -.643E-32 0.000E+00 0.000E+00   -.149E-12 -.273E-13 -.900E-13
   0.418E-13 0.310E-13 0.478E-12   0.000E+00 -.284E-13 0.474E-14   0.645E-32 0.000E+00 0.000E+00   0.116E-12 -.601E-14 0.522E-13
   -.440E+02 0.440E+02 -.319E-11   0.465E+02 -.465E+02 0.213E-14   -.253E+01 0.253E+01 -.207E-24   -.636E-03 0.636E-03 0.426E-13
   0.440E+02 -.440E+02 0.109E-10   -.465E+02 0.465E+02 0.227E-14   0.253E+01 -.253E+01 0.207E-24   0.636E-03 -.636E-03 -.254E-12
   0.440E+02 0.440E+02 -.108E-06   -.465E+02 -.465E+02 -.316E-14   0.253E+01 0.253E+01 -.207E-24   0.636E-03 0.636E-03 -.712E-12
   -.440E+02 -.440E+02 0.108E-06   0.465E+02 0.465E+02 -.292E-14   -.253E+01 -.253E+01 0.207E-24   -.636E-03 -.636E-03 0.978E-12
 -----------------------------------------------------------------------------------------------
   -.117E-11 0.130E-10 -.363E-11   0.000E+00 0.711E-14 0.381E-14   0.000E+00 -.444E-15 0.505E-27   -.668E-13 -.377E-13 0.164E-13
 
 
 POSITION                                       TOTAL-FORCE (eV/Angst)
 -----------------------------------------------------------------------------------
      2.43411      2.43411      1.56844         0.000000      0.000000      0.000000
      0.00000      0.00000     -0.00000        -0.000000      0.000000      0.000000
      0.96383      3.90439      1.56844         0.000550     -0.000550      0.000000
      3.90439      0.96383      1.56844        -0.000550      0.000550      0.000000
      1.47028      1.47028      0.00000        -0.000550     -0.000550      0.000000
      3.39794      3.39794     -0.00000         0.000550      0.000550     -0.000000
 -----------------------------------------------------------------------------------
    total drift:                               -0.000000      0.000000     -0.000000


--------------------------------------------------------------------------------------------------------



  FREE ENERGIE OF THE ION-ELECTRON SYSTEM (eV)
  ---------------------------------------------------
  free  energy   TOTEN  =       -40.23829425 eV

  energy  without entropy=      -40.23829425  energy(sigma->0) =      -40.23829425
 
 d Force = 0.2360247E-05[-0.107E-05, 0.579E-05]  d Energy = 0.1193632E-04-0.958E-05
 d Force =-0.9061158E-01[-0.908E-01,-0.904E-01]  d Ewald  = 0.5339991E+00-0.625E+00


--------------------------------------------------------------------------------------------------------


    POTLOK:  cpu time    0.2330: real time    0.2330


--------------------------------------------------------------------------------------------------------




--------------------------------------------------------------------------------------------------------


  
 reached required accuracy - stopping structural energy minimisation
     LOOP+:  cpu time    2.6625: real time    2.6626
    4ORBIT:  cpu time    0.0000: real time    0.0000
 


 total charge     
 
# of ion       s       p       d       tot
------------------------------------------
    1        0.181   6.179   4.990  11.350
    2        0.181   6.179   4.990  11.350
    3        1.721   4.361   0.000   6.081
    4        1.721   4.361   0.000   6.081
    5        1.721   4.361   0.000   6.081
    6        1.721   4.361   0.000   6.081
--------------------------------------------------
tot          7.245  29.801   9.979  47.025
 


 magnetization (x)
 
# of ion       s       p       d       tot
------------------------------------------
    1       -0.014  -0.013  -4.582  -4.609
    2        0.014   0.013   4.582   4.609
    3        0.001   0.019   0.000   0.020
    4        0.001   0.019   0.000   0.020
    5       -0.001  -0.019   0.000  -0.020
    6       -0.001  -0.019   0.000  -0.020
--------------------------------------------------
tot          0.000  -0.000   0.000   0.000
 

 total amount of memory used by VASP MPI-rank0    35749. kBytes
=======================================================================

   base      :      30000. kBytes
   nonl-proj :        972. kBytes
   fftplans  :       1875. kBytes
   grid      :       2467. kBytes
   one-center:        186. kBytes
   wavefun   :        249. kBytes
 
  
  
 General timing and accounting informations for this job:
 ========================================================
  
                  Total CPU time used (sec):       46.254
                            User time (sec):       28.356
                          System time (sec):       17.898
                         Elapsed time (sec):       46.320
  
                   Maximum memory used (kb):       54428.
                   Average memory used (kb):           0.
  
                          Minor page faults:         8838
                          Major page faults:            9
                 Voluntary context switches:          295
