       N       E                     dE             d eps       ncg     rms          rms(c)
DAV:   1     0.100980070246E+04    0.10098E+04   -0.40624E+04  1308   0.225E+03
DAV:   2     0.416990099493E+03   -0.59281E+03   -0.56810E+03  1488   0.554E+02
DAV:   3     0.378844319860E+03   -0.38146E+02   -0.37733E+02  1440   0.145E+02
DAV:   4     0.378292494988E+03   -0.55182E+00   -0.55116E+00  1512   0.190E+01
DAV:   5     0.378283577262E+03   -0.89177E-02   -0.89175E-02  1512   0.234E+00    0.593E+01
DAV:   6    -0.684419731840E+02   -0.44673E+03   -0.30669E+02  1572   0.215E+02    0.635E+01
DAV:   7    -0.712578450880E+02   -0.28159E+01   -0.50913E+01  1380   0.450E+01    0.170E+01
DAV:   8    -0.686159782119E+02    0.26419E+01   -0.73080E+00  1500   0.224E+01    0.622E+00
DAV:   9    -0.681436531887E+02    0.47233E+00   -0.39100E+00  1428   0.172E+01    0.788E+00
DAV:  10    -0.680995056344E+02    0.44148E-01   -0.34181E-01  1464   0.471E+00    0.549E+00
DAV:  11    -0.680579655918E+02    0.41540E-01   -0.56825E-01  1500   0.634E+00    0.144E+00
DAV:  12    -0.680418197025E+02    0.16146E-01   -0.40939E-02  1404   0.197E+00    0.926E-01
DAV:  13    -0.680364344461E+02    0.53853E-02   -0.35860E-02  1560   0.113E+00    0.857E-01
DAV:  14    -0.680318480837E+02    0.45864E-02   -0.37404E-02  1296   0.216E+00    0.287E-01
DAV:  15    -0.680328195582E+02   -0.97147E-03   -0.31503E-03  1416   0.410E-01    0.316E-01
DAV:  16    -0.680325404315E+02    0.27913E-03   -0.34578E-03  1440   0.383E-01    0.108E-01
DAV:  17    -0.680325491992E+02   -0.87677E-05   -0.10197E-03  1320   0.306E-01    0.929E-02
DAV:  18    -0.680322806002E+02    0.26860E-03   -0.28574E-04  1380   0.107E-01    0.307E-02
DAV:  19    -0.680322601285E+02    0.20472E-04   -0.79286E-05  1356   0.722E-02    0.719E-03
DAV:  20    -0.680322867927E+02   -0.26664E-04   -0.86258E-06  1608   0.191E-02    0.816E-03
DAV:  21    -0.680322929024E+02   -0.61097E-05   -0.73760E-07  1320   0.727E-03    0.488E-03
DAV:  22    -0.680322895989E+02    0.33035E-05   -0.10041E-06  1404   0.619E-03    0.247E-03
DAV:  23    -0.680322908791E+02   -0.12802E-05   -0.14388E-07   780   0.235E-03    0.100E-03
DAV:  24    -0.680322918768E+02   -0.99779E-06   -0.33549E-08   648   0.139E-03    0.439E-04
DAV:  25    -0.680322920730E+02   -0.19614E-06   -0.13069E-08   648   0.830E-04    0.309E-04
DAV:  26    -0.680322920485E+02    0.24498E-07   -0.17244E-09   648   0.281E-04
   1 F= -.68032292E+02 E0= -.68032292E+02  d E =-.680323E+02  mag=    -0.0000
