 vasp.5.4.4.18Apr17-6-g9f103f2a35 (build Apr 27 2017 11:13:10) complex          
  
 executed on           IFC91_ompi date 2020.05.13  11:54:25
 running on   12 total cores
 distrk:  each k-point on   12 cores,    1 groups
 distr:  one band on NCORES_PER_BAND=   1 cores,   12 groups


--------------------------------------------------------------------------------------------------------


 INCAR:
 POTCAR:    PAW_PBE Mn_pv 02Aug2007               
 POTCAR:    PAW_PBE F 08Apr2002                   

 ----------------------------------------------------------------------------- 
|                                                                             |
|           W    W    AA    RRRRR   N    N  II  N    N   GGGG   !!!           |
|           W    W   A  A   R    R  NN   N  II  NN   N  G    G  !!!           |
|           W    W  A    A  R    R  N N  N  II  N N  N  G       !!!           |
|           W WW W  AAAAAA  RRRRR   N  N N  II  N  N N  G  GGG   !            |
|           WW  WW  A    A  R   R   N   NN  II  N   NN  G    G                |
|           W    W  A    A  R    R  N    N  II  N    N   GGGG   !!!           |
|                                                                             |
|      For optimal performance we recommend to set                            |
|        NCORE= 4 - approx SQRT( number of cores)                             |
|      NCORE specifies how many cores store one orbital (NPAR=cpu/NCORE).     |
|      This setting can  greatly improve the performance of VASP for DFT.     |
|      The default,   NCORE=1            might be grossly inefficient         |
|      on modern multi-core architectures or massively parallel machines.     |
|      Do your own testing !!!!                                               |
|      Unfortunately you need to use the default for GW and RPA calculations. |
|      (for HF NCORE is supported but not extensively tested yet)             |
|                                                                             |
 ----------------------------------------------------------------------------- 

 POTCAR:    PAW_PBE Mn_pv 02Aug2007               
   VRHFIN =Mn: 3p4s3d                                                           
   LEXCH  = PE                                                                  
   EATOM  =  2025.2664 eV,  148.8529 Ry                                         
                                                                                
   TITEL  = PAW_PBE Mn_pv 02Aug2007                                             
   LULTRA =        F    use ultrasoft PP ?                                      
   IUNSCR =        1    unscreen: 0-lin 1-nonlin 2-no                           
   RPACOR =    2.080    partial core radius                                     
   POMASS =   54.938; ZVAL   =   13.000    mass and valenz                      
   RCORE  =    2.300    outmost cutoff radius                                   
   RWIGS  =    2.500; RWIGS  =    1.323    wigner-seitz radius (au A)           
   ENMAX  =  269.864; ENMIN  =  202.398 eV                                      
   ICORE  =        3    local potential                                         
   LCOR   =        T    correct aug charges                                     
   LPAW   =        T    paw PP                                                  
   EAUG   =  569.085                                                            
   DEXC   =    0.000                                                            
   RMAX   =    2.343    core radius for proj-oper                               
   RAUG   =    1.300    factor for augmentation sphere                          
   RDEP   =    2.338    radius for radial grids                                 
   RDEPT  =    1.798    core radius for aug-charge                              
                                                                                
   Atomic configuration                                                         
    8 entries                                                                   
     n  l   j            E        occ.                                          
     1  0  0.50     -6424.8287   2.0000                                         
     2  0  0.50      -739.1154   2.0000                                         
     2  1  1.50      -625.3949   6.0000                                         
     3  0  0.50       -81.6100   2.0000                                         
     3  1  1.50       -50.4667   6.0000                                         
     3  2  2.50        -3.3745   6.0000                                         
     4  0  0.50        -4.1331   1.0000                                         
     4  3  2.50        -1.3606   0.0000                                         
   Description                                                                  
     l       E           TYP  RCUT    TYP  RCUT                                 
     1    -50.4666628     23  2.000                                             
     1     -1.3605826     23  2.000                                             
     2     -3.3744729     23  2.300                                             
     2     -4.7350555     23  2.300                                             
     0     -4.1331431     23  2.300                                             
     0      7.6656591     23  2.300                                             
     3      9.5240782     23  2.300                                             
  local pseudopotential read in
  partial core-charges read in
  partial kinetic energy density read in
  atomic valenz-charges read in
  non local Contribution for L=           1  read in
    real space projection operators read in
  non local Contribution for L=           1  read in
    real space projection operators read in
  non local Contribution for L=           2  read in
    real space projection operators read in
  non local Contribution for L=           2  read in
    real space projection operators read in
  non local Contribution for L=           0  read in
    real space projection operators read in
  non local Contribution for L=           0  read in
    real space projection operators read in
    PAW grid and wavefunctions read in
 
   number of l-projection  operators is LMAX  =           6
   number of lm-projection operators is LMMAX =          18
 
 POTCAR:    PAW_PBE F 08Apr2002                   
   VRHFIN =F: s2p5                                                              
   LEXCH  = PE                                                                  
   EATOM  =   659.6475 eV,   48.4827 Ry                                         
                                                                                
   TITEL  = PAW_PBE F 08Apr2002                                                 
   LULTRA =        F    use ultrasoft PP ?                                      
   IUNSCR =        1    unscreen: 0-lin 1-nonlin 2-no                           
   RPACOR =    1.200    partial core radius                                     
   POMASS =   18.998; ZVAL   =    7.000    mass and valenz                      
   RCORE  =    1.520    outmost cutoff radius                                   
   RWIGS  =    1.500; RWIGS  =    0.794    wigner-seitz radius (au A)           
   ENMAX  =  400.000; ENMIN  =  300.000 eV                                      
   ICORE  =        2    local potential                                         
   LCOR   =        T    correct aug charges                                     
   LPAW   =        T    paw PP                                                  
   EAUG   =  613.614                                                            
   RMAX   =    1.555    core radius for proj-oper                               
   RAUG   =    1.300    factor for augmentation sphere                          
   RDEP   =    1.539    radius for radial grids                                 
   RDEPT  =    1.299    core radius for aug-charge                              
                                                                                
   Atomic configuration                                                         
    4 entries                                                                   
     n  l   j            E        occ.                                          
     1  0  0.50      -663.3661   2.0000                                         
     2  0  0.50       -29.8995   2.0000                                         
     2  1  0.50       -11.1114   5.0000                                         
     3  2  1.50       -10.8847   0.0000                                         
   Description                                                                  
     l       E           TYP  RCUT    TYP  RCUT                                 
     0    -29.8995018     23  1.200                                             
     0     -9.5240782     23  1.200                                             
     1    -11.1113914     23  1.520                                             
     1      1.3605826     23  1.520                                             
     2    -10.8846608      7  1.500                                             
  local pseudopotential read in
  partial core-charges read in
  partial kinetic energy density read in
  atomic valenz-charges read in
  non local Contribution for L=           0  read in
    real space projection operators read in
  non local Contribution for L=           0  read in
    real space projection operators read in
  non local Contribution for L=           1  read in
    real space projection operators read in
  non local Contribution for L=           1  read in
    real space projection operators read in
    PAW grid and wavefunctions read in
 
   number of l-projection  operators is LMAX  =           4
   number of lm-projection operators is LMMAX =           8
 
  PAW_PBE Mn_pv 02Aug2007               :
 energy of atom  1       EATOM=-2025.2664
 kinetic energy error for atom=    0.0020 (will be added to EATOM!!)
  PAW_PBE F 08Apr2002                   :
 energy of atom  2       EATOM= -659.6475
 kinetic energy error for atom=    0.0140 (will be added to EATOM!!)
 
 
 POSCAR: Mn  F                                   
  positions in cartesian coordinates
  No initial velocities read in

 METAGGA = SCAN     LMAXTAU =  6    LMIXTAU =  F

 exchange correlation table for  LEXCH =        8
   RHO(1)=    0.500       N(1)  =     2000
   RHO(2)=  100.500       N(2)  =     4000
 


--------------------------------------------------------------------------------------------------------


 ion  position               nearest neighbor table
   1  0.500  0.500  0.500-   3 2.08   4 2.08   5 2.12   6 2.12   5 2.12   6 2.12
   2  0.000  0.000  0.000-   5 2.08   6 2.08   3 2.12   4 2.12   3 2.12   4 2.12
   3  0.196  0.804  0.500-   1 2.08   2 2.12   2 2.12
   4  0.804  0.196  0.500-   1 2.08   2 2.12   2 2.12
   5  0.304  0.304  0.000-   2 2.08   1 2.12   1 2.12
   6  0.696  0.696  0.000-   2 2.08   1 2.12   1 2.12
 
  LATTYP: Found a simple tetragonal cell.
 ALAT       =     4.8494215074
 C/A-ratio  =     0.6775669607
  
  Lattice vectors:
  
 A1 = (   4.8494215074,   0.0000000000,   0.0000000000)
 A2 = (   0.0000000000,   4.8494215074,   0.0000000000)
 A3 = (   0.0000000000,   0.0000000000,   3.2858077921)


Analysis of symmetry for initial positions (statically):
=====================================================================
 Subroutine PRICEL returns:
 Original cell was already a primitive cell.
 

 Routine SETGRP: Setting up the symmetry group for a 
 simple tetragonal supercell.


 Subroutine GETGRP returns: Found 16 space group operations
 (whereof  8 operations were pure point group operations)
 out of a pool of 16 trial point group operations.


The static configuration has the point symmetry D_2h.
 The point group associated with its full space group is D_4h.


Analysis of symmetry for dynamics (positions and initial velocities):
=====================================================================
 Subroutine PRICEL returns:
 Original cell was already a primitive cell.
 

 Routine SETGRP: Setting up the symmetry group for a 
 simple tetragonal supercell.


 Subroutine GETGRP returns: Found 16 space group operations
 (whereof  8 operations were pure point group operations)
 out of a pool of 16 trial point group operations.


The dynamic configuration has the point symmetry D_2h.
 The point group associated with its full space group is D_4h.


Analysis of structural, dynamic, and magnetic symmetry:
=====================================================================
 Subroutine PRICEL returns:
 Original cell was already a primitive cell.
 

 Routine SETGRP: Setting up the symmetry group for a 
 simple tetragonal supercell.


 Subroutine GETGRP returns: Found 16 space group operations
 (whereof  8 operations were pure point group operations)
 out of a pool of 16 trial point group operations.


The magnetic configuration has the point symmetry D_2h.
 The point group associated with its full space group is D_4h.


 Subroutine INISYM returns: Found 16 space group operations
 (whereof  8 operations are pure point group operations),
 and found     1 'primitive' translations

 
 
 KPOINTS: KPOINTS created by Atomic Simulation Env

Automatic generation of k-mesh.
Space group operators:
 irot       det(A)        alpha          n_x          n_y          n_z        tau_x        tau_y        tau_z
    1     1.000000     0.000000     1.000000     0.000000     0.000000     0.000000     0.000000     0.000000
    2    -1.000000     0.000000     1.000000     0.000000     0.000000     0.000000     0.000000     0.000000
    3     1.000000   180.000000     0.000000     0.000000     1.000000     0.000000     0.000000     0.000000
    4    -1.000000   180.000000     0.000000     0.000000     1.000000     0.000000     0.000000     0.000000
    5     1.000000   180.000000     0.707107     0.707107     0.000000     0.000000     0.000000     0.000000
    6    -1.000000   180.000000     0.707107     0.707107     0.000000     0.000000     0.000000     0.000000
    7     1.000000   180.000000     0.707107    -0.707107     0.000000     0.000000     0.000000     0.000000
    8    -1.000000   180.000000     0.707107    -0.707107     0.000000     0.000000     0.000000     0.000000
    9     1.000000    90.000000     0.000000     0.000000    -1.000000     0.500000     0.500000     0.500000
   10    -1.000000    90.000000     0.000000     0.000000    -1.000000     0.500000     0.500000     0.500000
   11     1.000000    90.000000     0.000000     0.000000     1.000000     0.500000     0.500000     0.500000
   12    -1.000000    90.000000     0.000000     0.000000     1.000000     0.500000     0.500000     0.500000
   13     1.000000   180.000000     0.000000     1.000000     0.000000     0.500000     0.500000     0.500000
   14    -1.000000   180.000000     0.000000     1.000000     0.000000     0.500000     0.500000     0.500000
   15     1.000000   180.000000     1.000000     0.000000     0.000000     0.500000     0.500000     0.500000
   16    -1.000000   180.000000     1.000000     0.000000     0.000000     0.500000     0.500000     0.500000
 
 Subroutine IBZKPT returns following result:
 ===========================================
 
 Found      9 irreducible k-points:
 
 Following reciprocal coordinates:
            Coordinates               Weight
  0.125000  0.125000  0.083333      8.000000
  0.375000  0.125000  0.083333     16.000000
  0.375000  0.375000  0.083333      8.000000
  0.125000  0.125000  0.250000      8.000000
  0.375000  0.125000  0.250000     16.000000
  0.375000  0.375000  0.250000      8.000000
  0.125000  0.125000  0.416667      8.000000
  0.375000  0.125000  0.416667     16.000000
  0.375000  0.375000  0.416667      8.000000
 
 Following cartesian coordinates:
            Coordinates               Weight
  0.025776  0.025776  0.025362      8.000000
  0.077329  0.025776  0.025362     16.000000
  0.077329  0.077329  0.025362      8.000000
  0.025776  0.025776  0.076085      8.000000
  0.077329  0.025776  0.076085     16.000000
  0.077329  0.077329  0.076085      8.000000
  0.025776  0.025776  0.126808      8.000000
  0.077329  0.025776  0.126808     16.000000
  0.077329  0.077329  0.126808      8.000000
 
 TETIRR: Found    106 inequivalent tetrahedra from      576


--------------------------------------------------------------------------------------------------------




 Dimension of arrays:
   k-points           NKPTS =      9   k-points in BZ     NKDIM =      9   number of bands    NBANDS=     36
   number of dos      NEDOS =    301   number of ions     NIONS =      6
   non local maximal  LDIM  =      6   non local SUM 2l+1 LMDIM =     18
   total plane-waves  NPLWV =  24576
   max r-space proj   IRMAX =      1   max aug-charges    IRDMAX=  77393
   dimension x,y,z NGX =    32 NGY =   32 NGZ =   24
   dimension x,y,z NGXF=    64 NGYF=   64 NGZF=   48
   support grid    NGXF=   128 NGYF=  128 NGZF=   96
   ions per type =               2   4
   NGX,Y,Z   is equivalent  to a cutoff of  10.97, 10.97, 12.14 a.u.
   NGXF,Y,Z  is equivalent  to a cutoff of  21.94, 21.94, 24.29 a.u.

 SYSTEM =  unknown system                          
 POSCAR =  Mn  F                                   

 Startparameter for this run:
   NWRITE =      2    write-flag & timer
   PREC   = normal    normal or accurate (medium, high low for compatibility)
   ISTART =      0    job   : 0-new  1-cont  2-samecut
   ICHARG =      2    charge: 1-file 2-atom 10-const
   ISPIN  =      2    spin polarized calculation?
   LNONCOLLINEAR =      F non collinear calculations
   LSORBIT =      F    spin-orbit coupling
   INIWAV =      1    electr: 0-lowe 1-rand  2-diag
   LASPH  =      T    aspherical Exc in radial PAW
   METAGGA=      F    non-selfconsistent MetaGGA calc.

 Electronic Relaxation 1
   ENCUT  =  700.0 eV  51.45 Ry    7.17 a.u.  10.46 10.46  7.09*2*pi/ulx,y,z
   ENINI  =  700.0     initial cutoff
   ENAUG  =  613.6 eV  augmentation charge cutoff
   NELM   =     60;   NELMIN=  2; NELMDL= -5     # of ELM steps 
   EDIFF  = 0.1E-06   stopping-criterion for ELM
   LREAL  =      F    real-space projection
   NLSPLINE    = F    spline interpolate recip. space projectors
   LCOMPAT=      F    compatible to vasp.4.4
   GGA_COMPAT  = T    GGA compatible to vasp.4.4-vasp.4.6
   LMAXPAW     = -100 max onsite density
   LMAXMIX     =    4 max onsite mixed and CHGCAR
   VOSKOWN=      0    Vosko Wilk Nusair interpolation
   ROPT   =    0.00000   0.00000
 Ionic relaxation
   EDIFFG = -.5E-02   stopping-criterion for IOM
   NSW    =     50    number of steps for IOM
   NBLOCK =      1;   KBLOCK =     50    inner block; outer block 
   IBRION =      2    ionic relax: 0-MD 1-quasi-New 2-CG
   NFREE  =      1    steps in history (QN), initial steepest desc. (CG)
   ISIF   =      3    stress and relaxation
   IWAVPR =     11    prediction:  0-non 1-charg 2-wave 3-comb
   ISYM   =      2    0-nonsym 1-usesym 2-fastsym
   LCORR  =      T    Harris-Foulkes like correction to forces

   POTIM  = 0.5000    time-step for ionic-motion
   TEIN   =    0.0    initial temperature
   TEBEG  =    0.0;   TEEND  =   0.0 temperature during run
   SMASS  =  -3.00    Nose mass-parameter (am)
   estimated Nose-frequenzy (Omega)   =  0.10E-29 period in steps =****** mass=  -0.537E-27a.u.
   SCALEE = 1.0000    scale energy and forces
   NPACO  =    256;   APACO  = 16.0  distance and # of slots for P.C.
   PSTRESS=    0.0 pullay stress

  Mass of Ions in am
   POMASS =  54.94 19.00
  Ionic Valenz
   ZVAL   =  13.00  7.00
  Atomic Wigner-Seitz radii
   RWIGS  =  -1.00 -1.00
  virtual crystal weights 
   VCA    =   1.00  1.00
   NELECT =      54.0000    total number of electrons
   NUPDOWN=      -1.0000    fix difference up-down

 DOS related values:
   EMIN   =  10.00;   EMAX   =-10.00  energy-range for DOS
   EFERMI =   0.00
   ISMEAR =    -5;   SIGMA  =   0.20  broadening in eV -4-tet -1-fermi 0-gaus

 Electronic relaxation 2 (details)
   IALGO  =     38    algorithm
   LDIAG  =      T    sub-space diagonalisation (order eigenvalues)
   LSUBROT=      F    optimize rotation matrix (better conditioning)
   TURBO    =      0    0=normal 1=particle mesh
   IRESTART =      0    0=no restart 2=restart with 2 vectors
   NREBOOT  =      0    no. of reboots
   NMIN     =      0    reboot dimension
   EREF     =   0.00    reference energy to select bands
   IMIX   =      4    mixing-type and parameters
     AMIX     =   0.40;   BMIX     =  1.00
     AMIX_MAG =   1.60;   BMIX_MAG =  1.00
     AMIN     =   0.10
     WC   =   100.;   INIMIX=   1;  MIXPRE=   1;  MAXMIX= -45

 Intra band minimization:
   WEIMIN = 0.0010     energy-eigenvalue tresh-hold
   EBREAK =  0.69E-09  absolut break condition
   DEPER  =   0.30     relativ break condition  

   TIME   =   0.40     timestep for ELM

  volume/ion in A,a.u.               =      12.88        86.91
  Fermi-wavevector in a.u.,A,eV,Ry     =   1.452776  2.745349 28.715898  2.110559
  Thomas-Fermi vector in A             =   2.570119
 
 Write flags
   LWAVE        =      F    write WAVECAR
   LDOWNSAMPLE  =      F    k-point downsampling of WAVECAR
   LCHARG       =      F    write CHGCAR
   LVTOT        =      F    write LOCPOT, total local potential
   LVHAR        =      F    write LOCPOT, Hartree potential only
   LELF         =      F    write electronic localiz. function (ELF)
   LORBIT       =     11    0 simple, 1 ext, 2 COOP (PROOUT), +10 PAW based schemes


 Dipole corrections
   LMONO  =      F    monopole corrections only (constant potential shift)
   LDIPOL =      F    correct potential (dipole corrections)
   IDIPOL =      0    1-x, 2-y, 3-z, 4-all directions 
   EPSILON=  1.0000000 bulk dielectric constant

 LDA+U is selected, type is set to LDAUTYPE =  2
   angular momentum for each species LDAUL =     2   -1
   U (eV)           for each species LDAUU =   0.0  0.0
   J (eV)           for each species LDAUJ =   0.0  0.0
 Exchange correlation treatment:
   GGA     =    --    GGA type
   LEXCH   =     8    internal setting for exchange type
   VOSKOWN=      0    Vosko Wilk Nusair interpolation
   LHFCALC =     F    Hartree Fock is set to
   LHFONE  =     F    Hartree Fock one center treatment
   AEXX    =    0.0000 exact exchange contribution

 Linear response parameters
   LEPSILON=     F    determine dielectric tensor
   LRPA    =     F    only Hartree local field effects (RPA)
   LNABLA  =     F    use nabla operator in PAW spheres
   LVEL    =     F    velocity operator in full k-point grid
   LINTERFAST=   F  fast interpolation
   KINTER  =     0    interpolate to denser k-point grid
   CSHIFT  =0.1000    complex shift for real part using Kramers Kronig
   OMEGAMAX=  -1.0    maximum frequency
   DEG_THRESHOLD= 0.2000000E-02 threshold for treating states as degnerate
   RTIME   =   -0.100 relaxation time in fs
  (WPLASMAI=    0.000 imaginary part of plasma frequency in eV, 0.658/RTIME)
   DFIELD  = 0.0000000 0.0000000 0.0000000 field for delta impulse in time
 
 Orbital magnetization related:
   ORBITALMAG=     F  switch on orbital magnetization
   LCHIMAG   =     F  perturbation theory with respect to B field
   DQ        =  0.001000  dq finite difference perturbation B field
   LLRAUG    =     F  two centre corrections for induced B field



--------------------------------------------------------------------------------------------------------


 conjugate gradient relaxation of ions
 charge density and potential will be updated during run
 spin polarized calculation
 Variant of blocked Davidson
 Davidson routine will perform the subspace rotation
 perform sub-space diagonalisation
    after iterative eigenvector-optimisation
 modified Broyden-mixing scheme, WC =      100.0
 initial mixing is a Kerker type mixing with AMIX =  0.4000 and BMIX =      1.0000
 Hartree-type preconditioning will be used
 using additional bands            9
 reciprocal scheme for non local part
 use partial core corrections
 calculate Harris-corrections to forces 
   (improved forces if not selfconsistent)
 use gradient corrections 
 use of overlap-Matrix (Vanderbilt PP)
 Fermi weights with tetrahedron method with Bloechl corrections


--------------------------------------------------------------------------------------------------------


  energy-cutoff  :      700.00
  volume of cell :       77.27
      direct lattice vectors                 reciprocal lattice vectors
     4.849421507  0.000000000  0.000000000     0.206210163  0.000000000  0.000000000
     0.000000000  4.849421507  0.000000000     0.000000000  0.206210163  0.000000000
     0.000000000  0.000000000  3.285807792     0.000000000  0.000000000  0.304339165

  length of vectors
     4.849421507  4.849421507  3.285807792     0.206210163  0.206210163  0.304339165


 
 k-points in units of 2pi/SCALE and weight: KPOINTS created by Atomic Simulation Env
   0.02577627  0.02577627  0.02536160       0.083
   0.07732881  0.02577627  0.02536160       0.167
   0.07732881  0.07732881  0.02536160       0.083
   0.02577627  0.02577627  0.07608479       0.083
   0.07732881  0.02577627  0.07608479       0.167
   0.07732881  0.07732881  0.07608479       0.083
   0.02577627  0.02577627  0.12680799       0.083
   0.07732881  0.02577627  0.12680799       0.167
   0.07732881  0.07732881  0.12680799       0.083
 
 k-points in reciprocal lattice and weights: KPOINTS created by Atomic Simulation Env
   0.12500000  0.12500000  0.08333333       0.083
   0.37500000  0.12500000  0.08333333       0.167
   0.37500000  0.37500000  0.08333333       0.083
   0.12500000  0.12500000  0.25000000       0.083
   0.37500000  0.12500000  0.25000000       0.167
   0.37500000  0.37500000  0.25000000       0.083
   0.12500000  0.12500000  0.41666667       0.083
   0.37500000  0.12500000  0.41666667       0.167
   0.37500000  0.37500000  0.41666667       0.083
 
 position of ions in fractional coordinates (direct lattice) 
   0.50000000  0.50000000  0.50000000
   0.00000000  0.00000000  0.00000000
   0.19610862  0.80389138  0.50000000
   0.80389138  0.19610862  0.50000000
   0.30389138  0.30389138  0.00000000
   0.69610862  0.69610862  0.00000000
 
 position of ions in cartesian coordinates  (Angst):
   2.42471075  2.42471075  1.64290390
   0.00000000  0.00000000  0.00000000
   0.95101338  3.89840813  1.64290390
   3.89840813  0.95101338  1.64290390
   1.47369737  1.47369737  0.00000000
   3.37572413  3.37572413  0.00000000
 


--------------------------------------------------------------------------------------------------------


 k-point  1 :   0.1250 0.1250 0.0833  plane waves:    3259
 k-point  2 :   0.3750 0.1250 0.0833  plane waves:    3230
 k-point  3 :   0.3750 0.3750 0.0833  plane waves:    3232
 k-point  4 :   0.1250 0.1250 0.2500  plane waves:    3245
 k-point  5 :   0.3750 0.1250 0.2500  plane waves:    3261
 k-point  6 :   0.3750 0.3750 0.2500  plane waves:    3242
 k-point  7 :   0.1250 0.1250 0.4167  plane waves:    3260
 k-point  8 :   0.3750 0.1250 0.4167  plane waves:    3262
 k-point  9 :   0.3750 0.3750 0.4167  plane waves:    3254

 maximum and minimum number of plane-waves per node :      3262     3230

 maximum number of plane-waves:      3262
 maximum index in each direction: 
   IXMAX=   10   IYMAX=   10   IZMAX=    7
   IXMIN=  -10   IYMIN=  -10   IZMIN=   -7


 serial   3D FFT for wavefunctions
 parallel 3D FFT for charge:
    minimum data exchange during FFTs selected (reduces bandwidth)


 total amount of memory used by VASP MPI-rank0    49868. kBytes
=======================================================================

   base      :      30000. kBytes
   nonl-proj :       8773. kBytes
   fftplans  :       2625. kBytes
   grid      :       5402. kBytes
   one-center:        186. kBytes
   wavefun   :       2882. kBytes
 
     INWAV:  cpu time    0.0000: real time    0.0000
 Broyden mixing: mesh for mixing (old mesh)
   NGX = 21   NGY = 21   NGZ = 15
  (NGX  = 64   NGY  = 64   NGZ  = 48)
  gives a total of   6615 points

 initial charge density was supplied:
 charge density of overlapping atoms calculated
 number of electron      54.0000000 magnetization       0.0000000
 keeping initial charge density in first step


--------------------------------------------------------------------------------------------------------


 Maximum index for augmentation-charges         6981 (set IRDMAX)


--------------------------------------------------------------------------------------------------------


 First call to EWALD:  gamma=   0.416
 Maximum number of real-space cells 2x 2x 3
 Maximum number of reciprocal cells 3x 3x 2

    FEWALD:  cpu time    0.0010: real time    0.0010


--------------------------------------- Iteration      1(   1)  ---------------------------------------


    POTLOK:  cpu time    0.0516: real time    0.0516
    SETDIJ:  cpu time    0.8727: real time    0.8727
atom =   1  type =  1  l = 2
 
 onsite density matrix
 
spin component  1
 
  0.2835  0.0000  0.0000  0.0000  0.0000
  0.0000  0.2835  0.0000  0.0000  0.0000
  0.0000  0.0000  0.2835  0.0000  0.0000
  0.0000  0.0000  0.0000  0.2835  0.0000
  0.0000  0.0000  0.0000  0.0000  0.2835
 
spin component  2
 
  0.7694  0.0000  0.0000  0.0000  0.0000
  0.0000  0.7694  0.0000  0.0000  0.0000
  0.0000  0.0000  0.7694  0.0000  0.0000
  0.0000  0.0000  0.0000  0.7694  0.0000
  0.0000  0.0000  0.0000  0.0000  0.7694
 
 occupancies and eigenvectors
 
  o =  0.2835  v =  1.0000  0.0000  0.0000  0.0000  0.0000  0.0000  0.0000  0.0000  0.0000  0.0000      0.0000  0.0000  0.0000  0.0000  0.0000  0.0000  0.0000  0.0000  0.0000  0.0000
  o =  0.2835  v =  0.0000  1.0000  0.0000  0.0000  0.0000  0.0000  0.0000  0.0000  0.0000  0.0000      0.0000  0.0000  0.0000  0.0000  0.0000  0.0000  0.0000  0.0000  0.0000  0.0000
  o =  0.2835  v =  0.0000  0.0000  1.0000  0.0000  0.0000  0.0000  0.0000  0.0000  0.0000  0.0000      0.0000  0.0000  0.0000  0.0000  0.0000  0.0000  0.0000  0.0000  0.0000  0.0000
  o =  0.2835  v =  0.0000  0.0000  0.0000  1.0000  0.0000  0.0000  0.0000  0.0000  0.0000  0.0000      0.0000  0.0000  0.0000  0.0000  0.0000  0.0000  0.0000  0.0000  0.0000  0.0000
  o =  0.2835  v =  0.0000  0.0000  0.0000  0.0000  1.0000  0.0000  0.0000  0.0000  0.0000  0.0000      0.0000  0.0000  0.0000  0.0000  0.0000  0.0000  0.0000  0.0000  0.0000  0.0000
  o =  0.7694  v =  0.0000  0.0000  0.0000  0.0000  0.0000  1.0000  0.0000  0.0000  0.0000  0.0000      0.0000  0.0000  0.0000  0.0000  0.0000  0.0000  0.0000  0.0000  0.0000  0.0000
  o =  0.7694  v =  0.0000  0.0000  0.0000  0.0000  0.0000  0.0000  1.0000  0.0000  0.0000  0.0000      0.0000  0.0000  0.0000  0.0000  0.0000  0.0000  0.0000  0.0000  0.0000  0.0000
  o =  0.7694  v =  0.0000  0.0000  0.0000  0.0000  0.0000  0.0000  0.0000  1.0000  0.0000  0.0000      0.0000  0.0000  0.0000  0.0000  0.0000  0.0000  0.0000  0.0000  0.0000  0.0000
  o =  0.7694  v =  0.0000  0.0000  0.0000  0.0000  0.0000  0.0000  0.0000  0.0000  1.0000  0.0000      0.0000  0.0000  0.0000  0.0000  0.0000  0.0000  0.0000  0.0000  0.0000  0.0000
  o =  0.7694  v =  0.0000  0.0000  0.0000  0.0000  0.0000  0.0000  0.0000  0.0000  0.0000  1.0000      0.0000  0.0000  0.0000  0.0000  0.0000  0.0000  0.0000  0.0000  0.0000  0.0000
atom =   2  type =  1  l = 2
 
 onsite density matrix
 
spin component  1
 
  0.7694  0.0000  0.0000  0.0000  0.0000
  0.0000  0.7694  0.0000  0.0000  0.0000
  0.0000  0.0000  0.7694  0.0000  0.0000
  0.0000  0.0000  0.0000  0.7694  0.0000
  0.0000  0.0000  0.0000  0.0000  0.7694
 
spin component  2
 
  0.2835  0.0000  0.0000  0.0000  0.0000
  0.0000  0.2835  0.0000  0.0000  0.0000
  0.0000  0.0000  0.2835  0.0000  0.0000
  0.0000  0.0000  0.0000  0.2835  0.0000
  0.0000  0.0000  0.0000  0.0000  0.2835
 
 occupancies and eigenvectors
 
  o =  0.2835  v =  0.0000  0.0000  0.0000  0.0000  0.0000  1.0000  0.0000  0.0000  0.0000  0.0000      0.0000  0.0000  0.0000  0.0000  0.0000  0.0000  0.0000  0.0000  0.0000  0.0000
  o =  0.2835  v =  0.0000  0.0000  0.0000  0.0000  0.0000  0.0000  1.0000  0.0000  0.0000  0.0000      0.0000  0.0000  0.0000  0.0000  0.0000  0.0000  0.0000  0.0000  0.0000  0.0000
  o =  0.2835  v =  0.0000  0.0000  0.0000  0.0000  0.0000  0.0000  0.0000  1.0000  0.0000  0.0000      0.0000  0.0000  0.0000  0.0000  0.0000  0.0000  0.0000  0.0000  0.0000  0.0000
  o =  0.2835  v =  0.0000  0.0000  0.0000  0.0000  0.0000  0.0000  0.0000  0.0000  1.0000  0.0000      0.0000  0.0000  0.0000  0.0000  0.0000  0.0000  0.0000  0.0000  0.0000  0.0000
  o =  0.2835  v =  0.0000  0.0000  0.0000  0.0000  0.0000  0.0000  0.0000  0.0000  0.0000  1.0000      0.0000  0.0000  0.0000  0.0000  0.0000  0.0000  0.0000  0.0000  0.0000  0.0000
  o =  0.7694  v =  1.0000  0.0000  0.0000  0.0000  0.0000  0.0000  0.0000  0.0000  0.0000  0.0000      0.0000  0.0000  0.0000  0.0000  0.0000  0.0000  0.0000  0.0000  0.0000  0.0000
  o =  0.7694  v =  0.0000  1.0000  0.0000  0.0000  0.0000  0.0000  0.0000  0.0000  0.0000  0.0000      0.0000  0.0000  0.0000  0.0000  0.0000  0.0000  0.0000  0.0000  0.0000  0.0000
  o =  0.7694  v =  0.0000  0.0000  1.0000  0.0000  0.0000  0.0000  0.0000  0.0000  0.0000  0.0000      0.0000  0.0000  0.0000  0.0000  0.0000  0.0000  0.0000  0.0000  0.0000  0.0000
  o =  0.7694  v =  0.0000  0.0000  0.0000  1.0000  0.0000  0.0000  0.0000  0.0000  0.0000  0.0000      0.0000  0.0000  0.0000  0.0000  0.0000  0.0000  0.0000  0.0000  0.0000  0.0000
  o =  0.7694  v =  0.0000  0.0000  0.0000  0.0000  1.0000  0.0000  0.0000  0.0000  0.0000  0.0000      0.0000  0.0000  0.0000  0.0000  0.0000  0.0000  0.0000  0.0000  0.0000  0.0000
     EDDAV:  cpu time    0.9412: real time    0.9610
 BZINTS: Fermi energy: 26.641778; 54.000000 electrons
         Band energy: 421.370066;  BLOECHL correction: -0.160193
       DOS:  cpu time    0.0100: real time    0.0100
    --------------------------------------------
      LOOP:  cpu time    1.8755: real time    1.8954

 eigenvalue-minimisations  :  1308
 total energy-change (2. order) : 0.1009801E+04  (-0.4062449E+04)
 number of electron      54.0000000 magnetization      -0.0000000
 augmentation part       54.0000000 magnetization      -0.0000000

 Free energy of the ion-electron system (eV)
  ---------------------------------------------------
  alpha Z        PSCENC =       199.78117992
  Ewald energy   TEWEN  =     -4205.83021026
  -Hartree energ DENC   =     -2128.92742265
  -exchange      EXHF   =         0.00000000
  -V(xc)+E(xc)   XCENC  =        -3.96114394
  PAW double counting   =      5566.43601843    -5528.13058630
  entropy T*S    EENTRO =         0.00000000
  eigenvalues    EBANDS =       421.37006591
  atomic energy  EATOM  =      6689.06280133
  Solvation  Ediel_sol  =         0.00000000
  ---------------------------------------------------
  free energy    TOTEN  =      1009.80070246 eV

  energy without entropy =     1009.80070246  energy(sigma->0) =     1009.80070246


--------------------------------------------------------------------------------------------------------




--------------------------------------- Iteration      1(   2)  ---------------------------------------


     EDDAV:  cpu time    0.9995: real time    0.9995
 BZINTS: Fermi energy: 12.068408; 54.000000 electrons
         Band energy:-171.440537;  BLOECHL correction: -0.012410
       DOS:  cpu time    0.0104: real time    0.0104
    --------------------------------------------
      LOOP:  cpu time    1.0098: real time    1.0098

 eigenvalue-minimisations  :  1488
 total energy-change (2. order) :-0.5928106E+03  (-0.5681009E+03)
 number of electron      54.0000000 magnetization      -0.0000000
 augmentation part       54.0000000 magnetization      -0.0000000

 Free energy of the ion-electron system (eV)
  ---------------------------------------------------
  alpha Z        PSCENC =       199.78117992
  Ewald energy   TEWEN  =     -4205.83021026
  -Hartree energ DENC   =     -2128.92742265
  -exchange      EXHF   =         0.00000000
  -V(xc)+E(xc)   XCENC  =        -3.96114394
  PAW double counting   =      5566.43601843    -5528.13058630
  entropy T*S    EENTRO =         0.00000000
  eigenvalues    EBANDS =      -171.44053705
  atomic energy  EATOM  =      6689.06280133
  Solvation  Ediel_sol  =         0.00000000
  ---------------------------------------------------
  free energy    TOTEN  =       416.99009949 eV

  energy without entropy =      416.99009949  energy(sigma->0) =      416.99009949


--------------------------------------------------------------------------------------------------------




--------------------------------------- Iteration      1(   3)  ---------------------------------------


     EDDAV:  cpu time    0.9795: real time    0.9795
 BZINTS: Fermi energy: 10.159238; 54.000000 electrons
         Band energy:-209.586317;  BLOECHL correction:  0.000000
       DOS:  cpu time    0.0017: real time    0.0017
    --------------------------------------------
      LOOP:  cpu time    0.9812: real time    0.9812

 eigenvalue-minimisations  :  1440
 total energy-change (2. order) :-0.3814578E+02  (-0.3773270E+02)
 number of electron      54.0000000 magnetization      -0.0000000
 augmentation part       54.0000000 magnetization      -0.0000000

 Free energy of the ion-electron system (eV)
  ---------------------------------------------------
  alpha Z        PSCENC =       199.78117992
  Ewald energy   TEWEN  =     -4205.83021026
  -Hartree energ DENC   =     -2128.92742265
  -exchange      EXHF   =         0.00000000
  -V(xc)+E(xc)   XCENC  =        -3.96114394
  PAW double counting   =      5566.43601843    -5528.13058630
  entropy T*S    EENTRO =         0.00000000
  eigenvalues    EBANDS =      -209.58631668
  atomic energy  EATOM  =      6689.06280133
  Solvation  Ediel_sol  =         0.00000000
  ---------------------------------------------------
  free energy    TOTEN  =       378.84431986 eV

  energy without entropy =      378.84431986  energy(sigma->0) =      378.84431986


--------------------------------------------------------------------------------------------------------




--------------------------------------- Iteration      1(   4)  ---------------------------------------


     EDDAV:  cpu time    1.0130: real time    1.0130
 BZINTS: Fermi energy: 10.210678; 54.000000 electrons
         Band energy:-210.138142;  BLOECHL correction:  0.000000
       DOS:  cpu time    0.0017: real time    0.0017
    --------------------------------------------
      LOOP:  cpu time    1.0146: real time    1.0147

 eigenvalue-minimisations  :  1512
 total energy-change (2. order) :-0.5518249E+00  (-0.5511587E+00)
 number of electron      54.0000000 magnetization      -0.0000000
 augmentation part       54.0000000 magnetization      -0.0000000

 Free energy of the ion-electron system (eV)
  ---------------------------------------------------
  alpha Z        PSCENC =       199.78117992
  Ewald energy   TEWEN  =     -4205.83021026
  -Hartree energ DENC   =     -2128.92742265
  -exchange      EXHF   =         0.00000000
  -V(xc)+E(xc)   XCENC  =        -3.96114394
  PAW double counting   =      5566.43601843    -5528.13058630
  entropy T*S    EENTRO =         0.00000000
  eigenvalues    EBANDS =      -210.13814155
  atomic energy  EATOM  =      6689.06280133
  Solvation  Ediel_sol  =         0.00000000
  ---------------------------------------------------
  free energy    TOTEN  =       378.29249499 eV

  energy without entropy =      378.29249499  energy(sigma->0) =      378.29249499


--------------------------------------------------------------------------------------------------------




--------------------------------------- Iteration      1(   5)  ---------------------------------------


     EDDAV:  cpu time    1.0126: real time    1.0126
 BZINTS: Fermi energy: 10.161236; 54.000000 electrons
         Band energy:-210.147059;  BLOECHL correction:  0.000000
       DOS:  cpu time    0.0017: real time    0.0017
    CHARGE:  cpu time    0.1960: real time    0.1960
    MIXING:  cpu time    0.0007: real time    0.0007
    --------------------------------------------
      LOOP:  cpu time    1.2111: real time    1.2111

 eigenvalue-minimisations  :  1512
 total energy-change (2. order) :-0.8917726E-02  (-0.8917522E-02)
 number of electron      54.0000001 magnetization       0.0000000
 augmentation part       22.8188852 magnetization       0.0000000

 Broyden mixing:
  rms(total) = 0.59310E+01    rms(broyden)= 0.59309E+01
  rms(prec ) = 0.62040E+01
  weight for this iteration     100.00

 Free energy of the ion-electron system (eV)
  ---------------------------------------------------
  alpha Z        PSCENC =       199.78117992
  Ewald energy   TEWEN  =     -4205.83021026
  -Hartree energ DENC   =     -2128.92742265
  -exchange      EXHF   =         0.00000000
  -V(xc)+E(xc)   XCENC  =        -3.96114394
  PAW double counting   =      5566.43601843    -5528.13058630
  entropy T*S    EENTRO =         0.00000000
  eigenvalues    EBANDS =      -210.14705928
  atomic energy  EATOM  =      6689.06280133
  Solvation  Ediel_sol  =         0.00000000
  ---------------------------------------------------
  free energy    TOTEN  =       378.28357726 eV

  energy without entropy =      378.28357726  energy(sigma->0) =      378.28357726


--------------------------------------------------------------------------------------------------------




--------------------------------------- Iteration      1(   6)  ---------------------------------------


    POTLOK:  cpu time    0.0477: real time    0.0477
    SETDIJ:  cpu time    0.8046: real time    0.8046
atom =   1  type =  1  l = 2
 
 onsite density matrix
 
spin component  1
 
  0.0430  0.0000  0.0708  0.0000 -0.0000
  0.0000  0.0132  0.0000  0.0660  0.0000
  0.0708  0.0000  0.0006  0.0000 -0.0000
  0.0000  0.0660  0.0000  0.0132  0.0000
 -0.0000  0.0000 -0.0000  0.0000 -0.0720
 
spin component  2
 
  1.0524  0.0000 -0.0350  0.0000  0.0000
  0.0000  1.0681  0.0000 -0.0329  0.0000
 -0.0350  0.0000  1.0733  0.0000  0.0000
  0.0000 -0.0329  0.0000  1.0681  0.0000
  0.0000  0.0000  0.0000  0.0000  1.1110
 
 occupancies and eigenvectors
 
  o = -0.0720  v =  0.0000 -0.0000 -0.0000  0.0000 -1.0000  0.0000  0.0000  0.0000  0.0000  0.0000      0.0000  0.0000  0.0000  0.0000  0.0000  0.0000  0.0000  0.0000  0.0000  0.0000
  o = -0.0528  v =  0.0000 -0.7071  0.0000  0.7071  0.0000  0.0000  0.0000  0.0000  0.0000  0.0000      0.0000  0.0000  0.0000  0.0000  0.0000  0.0000  0.0000  0.0000  0.0000  0.0000
  o = -0.0521  v = -0.5974 -0.0000  0.8019  0.0000 -0.0000  0.0000  0.0000  0.0000  0.0000  0.0000      0.0000  0.0000  0.0000  0.0000  0.0000  0.0000  0.0000  0.0000  0.0000  0.0000
  o =  0.0792  v =  0.0000 -0.7071  0.0000 -0.7071  0.0000  0.0000  0.0000  0.0000  0.0000  0.0000      0.0000  0.0000  0.0000  0.0000  0.0000  0.0000  0.0000  0.0000  0.0000  0.0000
  o =  0.0957  v =  0.8019 -0.0000  0.5974  0.0000 -0.0000  0.0000  0.0000  0.0000  0.0000  0.0000      0.0000  0.0000  0.0000  0.0000  0.0000  0.0000  0.0000  0.0000  0.0000  0.0000
  o =  1.0263  v =  0.0000  0.0000  0.0000  0.0000  0.0000  0.8018  0.0000  0.5976  0.0000 -0.0000      0.0000  0.0000  0.0000  0.0000  0.0000  0.0000  0.0000  0.0000  0.0000  0.0000
  o =  1.0352  v =  0.0000  0.0000  0.0000  0.0000  0.0000  0.0000  0.7071  0.0000  0.7071  0.0000      0.0000  0.0000  0.0000  0.0000  0.0000  0.0000  0.0000  0.0000  0.0000  0.0000
  o =  1.0993  v =  0.0000  0.0000  0.0000  0.0000  0.0000  0.5976 -0.0000 -0.8018  0.0000  0.0000      0.0000  0.0000  0.0000  0.0000  0.0000  0.0000  0.0000  0.0000  0.0000  0.0000
  o =  1.1010  v =  0.0000  0.0000  0.0000  0.0000  0.0000  0.0000  0.7071  0.0000 -0.7071  0.0000      0.0000  0.0000  0.0000  0.0000  0.0000  0.0000  0.0000  0.0000  0.0000  0.0000
  o =  1.1110  v =  0.0000  0.0000  0.0000  0.0000  0.0000  0.0000  0.0000 -0.0000  0.0000 -1.0000      0.0000  0.0000  0.0000  0.0000  0.0000  0.0000  0.0000  0.0000  0.0000  0.0000
atom =   2  type =  1  l = 2
 
 onsite density matrix
 
spin component  1
 
  1.0524  0.0000  0.0350  0.0000  0.0000
  0.0000  1.0681  0.0000  0.0329  0.0000
  0.0350  0.0000  1.0733  0.0000  0.0000
  0.0000  0.0329  0.0000  1.0681  0.0000
  0.0000  0.0000  0.0000  0.0000  1.1110
 
spin component  2
 
  0.0430  0.0000 -0.0708  0.0000 -0.0000
  0.0000  0.0132  0.0000 -0.0660  0.0000
 -0.0708  0.0000  0.0006  0.0000 -0.0000
  0.0000 -0.0660  0.0000  0.0132  0.0000
 -0.0000  0.0000 -0.0000  0.0000 -0.0720
 
 occupancies and eigenvectors
 
  o = -0.0720  v =  0.0000  0.0000  0.0000  0.0000  0.0000  0.0000  0.0000  0.0000  0.0000  1.0000      0.0000  0.0000  0.0000  0.0000  0.0000  0.0000  0.0000  0.0000  0.0000  0.0000
  o = -0.0528  v =  0.0000  0.0000  0.0000  0.0000  0.0000  0.0000 -0.7071  0.0000 -0.7071  0.0000      0.0000  0.0000  0.0000  0.0000  0.0000  0.0000  0.0000  0.0000  0.0000  0.0000
  o = -0.0521  v =  0.0000  0.0000  0.0000  0.0000  0.0000 -0.5974  0.0000 -0.8019  0.0000  0.0000      0.0000  0.0000  0.0000  0.0000  0.0000  0.0000  0.0000  0.0000  0.0000  0.0000
  o =  0.0792  v =  0.0000  0.0000  0.0000  0.0000  0.0000  0.0000  0.7071  0.0000 -0.7071 -0.0000      0.0000  0.0000  0.0000  0.0000  0.0000  0.0000  0.0000  0.0000  0.0000  0.0000
  o =  0.0957  v =  0.0000  0.0000  0.0000  0.0000  0.0000  0.8019  0.0000 -0.5974  0.0000  0.0000      0.0000  0.0000  0.0000  0.0000  0.0000  0.0000  0.0000  0.0000  0.0000  0.0000
  o =  1.0263  v =  0.8018 -0.0000 -0.5976  0.0000  0.0000  0.0000  0.0000  0.0000  0.0000  0.0000      0.0000  0.0000  0.0000  0.0000  0.0000  0.0000  0.0000  0.0000  0.0000  0.0000
  o =  1.0352  v =  0.0000  0.7071  0.0000 -0.7071  0.0000  0.0000  0.0000  0.0000  0.0000  0.0000      0.0000  0.0000  0.0000  0.0000  0.0000  0.0000  0.0000  0.0000  0.0000  0.0000
  o =  1.0993  v =  0.5976  0.0000  0.8018  0.0000 -0.0000  0.0000  0.0000  0.0000  0.0000  0.0000      0.0000  0.0000  0.0000  0.0000  0.0000  0.0000  0.0000  0.0000  0.0000  0.0000
  o =  1.1010  v =  0.0000 -0.7071  0.0000 -0.7071 -0.0000  0.0000  0.0000  0.0000  0.0000  0.0000      0.0000  0.0000  0.0000  0.0000  0.0000  0.0000  0.0000  0.0000  0.0000  0.0000
  o =  1.1110  v =  0.0000 -0.0000  0.0000  0.0000  1.0000  0.0000  0.0000  0.0000  0.0000  0.0000      0.0000  0.0000  0.0000  0.0000  0.0000  0.0000  0.0000  0.0000  0.0000  0.0000
     EDDAV:  cpu time    1.0521: real time    1.0521
 BZINTS: Fermi energy:  7.210489; 54.000000 electrons
         Band energy:-719.760129;  BLOECHL correction: -0.012529
       DOS:  cpu time    0.0104: real time    0.0104
    CHARGE:  cpu time    0.2002: real time    0.2002
    MIXING:  cpu time    0.0007: real time    0.0007
    --------------------------------------------
      LOOP:  cpu time    2.1157: real time    2.1157

 eigenvalue-minimisations  :  1572
 total energy-change (2. order) :-0.4467256E+03  (-0.3066912E+02)
 number of electron      54.0000001 magnetization       0.0000000
 augmentation part       19.6234658 magnetization       0.0000000

 Broyden mixing:
  rms(total) = 0.63474E+01    rms(broyden)= 0.63474E+01
  rms(prec ) = 0.68155E+01
  weight for this iteration     100.00

 eigenvalues of (default mixing * dielectric matrix)
  average eigenvalue GAMMA=   0.4165
  0.4165

 Free energy of the ion-electron system (eV)
  ---------------------------------------------------
  alpha Z        PSCENC =       199.78117992
  Ewald energy   TEWEN  =     -4205.83021026
  -Hartree energ DENC   =     -2210.32924388
  -exchange      EXHF   =         0.00000000
  -V(xc)+E(xc)   XCENC  =       144.97723557
  PAW double counting   =      6448.35511635    -6414.69872347
  entropy T*S    EENTRO =         0.00000000
  eigenvalues    EBANDS =      -719.76012877
  atomic energy  EATOM  =      6689.06280133
  Solvation  Ediel_sol  =         0.00000000
  ---------------------------------------------------
  free energy    TOTEN  =       -68.44197318 eV

  energy without entropy =      -68.44197318  energy(sigma->0) =      -68.44197318


--------------------------------------------------------------------------------------------------------




--------------------------------------- Iteration      1(   7)  ---------------------------------------


    POTLOK:  cpu time    0.0477: real time    0.0477
    SETDIJ:  cpu time    0.7943: real time    0.7943
atom =   1  type =  1  l = 2
 
 onsite density matrix
 
spin component  1
 
  0.0883  0.0000  0.0378  0.0000 -0.0000
  0.0000  0.0581  0.0000  0.0256  0.0000
  0.0378  0.0000  0.0621  0.0000  0.0000
  0.0000  0.0256  0.0000  0.0581  0.0000
 -0.0000  0.0000  0.0000  0.0000  0.0205
 
spin component  2
 
  0.9735  0.0000 -0.0065  0.0000  0.0000
  0.0000  1.0014  0.0000  0.0089  0.0000
 -0.0065  0.0000  0.9852  0.0000  0.0000
  0.0000  0.0089  0.0000  1.0014  0.0000
  0.0000  0.0000  0.0000  0.0000  0.9975
 
 occupancies and eigenvectors
 
  o =  0.0205  v =  0.0000  0.0000 -0.0000  0.0000  1.0000  0.0000  0.0000  0.0000  0.0000  0.0000      0.0000  0.0000  0.0000  0.0000  0.0000  0.0000  0.0000  0.0000  0.0000  0.0000
  o =  0.0325  v =  0.0000  0.7071  0.0000 -0.7071 -0.0000  0.0000  0.0000  0.0000  0.0000  0.0000      0.0000  0.0000  0.0000  0.0000  0.0000  0.0000  0.0000  0.0000  0.0000  0.0000
  o =  0.0352  v = -0.5796  0.0000  0.8149  0.0000  0.0000  0.0000  0.0000  0.0000  0.0000  0.0000      0.0000  0.0000  0.0000  0.0000  0.0000  0.0000  0.0000  0.0000  0.0000  0.0000
  o =  0.0837  v =  0.0000 -0.7071  0.0000 -0.7071  0.0000  0.0000  0.0000  0.0000  0.0000  0.0000      0.0000  0.0000  0.0000  0.0000  0.0000  0.0000  0.0000  0.0000  0.0000  0.0000
  o =  0.1153  v = -0.8149 -0.0000 -0.5796  0.0000 -0.0000  0.0000  0.0000  0.0000  0.0000  0.0000      0.0000  0.0000  0.0000  0.0000  0.0000  0.0000  0.0000  0.0000  0.0000  0.0000
  o =  0.9706  v =  0.0000  0.0000  0.0000  0.0000  0.0000  0.9131  0.0000  0.4077  0.0000 -0.0000      0.0000  0.0000  0.0000  0.0000  0.0000  0.0000  0.0000  0.0000  0.0000  0.0000
  o =  0.9881  v =  0.0000  0.0000  0.0000  0.0000  0.0000  0.4077 -0.0000 -0.9131  0.0000  0.0000      0.0000  0.0000  0.0000  0.0000  0.0000  0.0000  0.0000  0.0000  0.0000  0.0000
  o =  0.9925  v =  0.0000  0.0000  0.0000  0.0000  0.0000  0.0000  0.7071  0.0000 -0.7071  0.0000      0.0000  0.0000  0.0000  0.0000  0.0000  0.0000  0.0000  0.0000  0.0000  0.0000
  o =  0.9975  v =  0.0000  0.0000  0.0000  0.0000  0.0000  0.0000  0.0000 -0.0000  0.0000 -1.0000      0.0000  0.0000  0.0000  0.0000  0.0000  0.0000  0.0000  0.0000  0.0000  0.0000
  o =  1.0102  v =  0.0000  0.0000  0.0000  0.0000  0.0000  0.0000  0.7071  0.0000  0.7071  0.0000      0.0000  0.0000  0.0000  0.0000  0.0000  0.0000  0.0000  0.0000  0.0000  0.0000
atom =   2  type =  1  l = 2
 
 onsite density matrix
 
spin component  1
 
  0.9735  0.0000  0.0065  0.0000  0.0000
  0.0000  1.0014  0.0000 -0.0089  0.0000
  0.0065  0.0000  0.9852  0.0000  0.0000
  0.0000 -0.0089  0.0000  1.0014  0.0000
  0.0000  0.0000  0.0000  0.0000  0.9975
 
spin component  2
 
  0.0883  0.0000 -0.0378  0.0000 -0.0000
  0.0000  0.0581  0.0000 -0.0256  0.0000
 -0.0378  0.0000  0.0621  0.0000 -0.0000
  0.0000 -0.0256  0.0000  0.0581  0.0000
 -0.0000  0.0000 -0.0000  0.0000  0.0205
 
 occupancies and eigenvectors
 
  o =  0.0205  v =  0.0000  0.0000  0.0000  0.0000  0.0000 -0.0000  0.0000 -0.0000  0.0000 -1.0000      0.0000  0.0000  0.0000  0.0000  0.0000  0.0000  0.0000  0.0000  0.0000  0.0000
  o =  0.0325  v =  0.0000  0.0000  0.0000  0.0000  0.0000 -0.0000  0.7071 -0.0000  0.7071  0.0000      0.0000  0.0000  0.0000  0.0000  0.0000  0.0000  0.0000  0.0000  0.0000  0.0000
  o =  0.0352  v =  0.0000  0.0000  0.0000  0.0000  0.0000 -0.5796 -0.0000 -0.8149 -0.0000  0.0000      0.0000  0.0000  0.0000  0.0000  0.0000  0.0000  0.0000  0.0000  0.0000  0.0000
  o =  0.0837  v =  0.0000  0.0000  0.0000  0.0000  0.0000  0.0000  0.7071  0.0000 -0.7071  0.0000      0.0000  0.0000  0.0000  0.0000  0.0000  0.0000  0.0000  0.0000  0.0000  0.0000
  o =  0.1153  v =  0.0000  0.0000  0.0000  0.0000  0.0000 -0.8149  0.0000  0.5796 -0.0000 -0.0000      0.0000  0.0000  0.0000  0.0000  0.0000  0.0000  0.0000  0.0000  0.0000  0.0000
  o =  0.9706  v =  0.9131 -0.0000 -0.4077  0.0000  0.0000  0.0000  0.0000  0.0000  0.0000  0.0000      0.0000  0.0000  0.0000  0.0000  0.0000  0.0000  0.0000  0.0000  0.0000  0.0000
  o =  0.9881  v = -0.4077 -0.0000 -0.9131  0.0000  0.0000  0.0000  0.0000  0.0000  0.0000  0.0000      0.0000  0.0000  0.0000  0.0000  0.0000  0.0000  0.0000  0.0000  0.0000  0.0000
  o =  0.9925  v =  0.0000 -0.7071  0.0000 -0.7071 -0.0000  0.0000  0.0000  0.0000  0.0000  0.0000      0.0000  0.0000  0.0000  0.0000  0.0000  0.0000  0.0000  0.0000  0.0000  0.0000
  o =  0.9975  v =  0.0000 -0.0000  0.0000  0.0000  1.0000  0.0000  0.0000  0.0000  0.0000  0.0000      0.0000  0.0000  0.0000  0.0000  0.0000  0.0000  0.0000  0.0000  0.0000  0.0000
  o =  1.0102  v =  0.0000  0.7071  0.0000 -0.7071  0.0000  0.0000  0.0000  0.0000  0.0000  0.0000      0.0000  0.0000  0.0000  0.0000  0.0000  0.0000  0.0000  0.0000  0.0000  0.0000
     EDDAV:  cpu time    0.9655: real time    0.9655
 BZINTS: Fermi energy:  5.167429; 54.000000 electrons
         Band energy:-768.140450;  BLOECHL correction:  0.000000
       DOS:  cpu time    0.0020: real time    0.0020
    CHARGE:  cpu time    0.2004: real time    0.2004
    MIXING:  cpu time    0.0008: real time    0.0008
    --------------------------------------------
      LOOP:  cpu time    2.0107: real time    2.0107

 eigenvalue-minimisations  :  1380
 total energy-change (2. order) :-0.2815872E+01  (-0.5091335E+01)
 number of electron      54.0000001 magnetization      -0.0000000
 augmentation part       19.6137840 magnetization      -0.0000000

 Broyden mixing:
  rms(total) = 0.17049E+01    rms(broyden)= 0.17049E+01
  rms(prec ) = 0.24477E+01
  weight for this iteration     100.00

 eigenvalues of (default mixing * dielectric matrix)
  average eigenvalue GAMMA=   0.6996
  0.6996  0.6996

 Free energy of the ion-electron system (eV)
  ---------------------------------------------------
  alpha Z        PSCENC =       199.78117992
  Ewald energy   TEWEN  =     -4205.83021026
  -Hartree energ DENC   =     -2187.06431930
  -exchange      EXHF   =         0.00000000
  -V(xc)+E(xc)   XCENC  =       167.60933345
  PAW double counting   =      6500.88665245    -6467.56283258
  entropy T*S    EENTRO =         0.00000000
  eigenvalues    EBANDS =      -768.14045011
  atomic energy  EATOM  =      6689.06280133
  Solvation  Ediel_sol  =         0.00000000
  ---------------------------------------------------
  free energy    TOTEN  =       -71.25784509 eV

  energy without entropy =      -71.25784509  energy(sigma->0) =      -71.25784509


--------------------------------------------------------------------------------------------------------




--------------------------------------- Iteration      1(   8)  ---------------------------------------


    POTLOK:  cpu time    0.0476: real time    0.0476
    SETDIJ:  cpu time    0.7921: real time    0.7922
atom =   1  type =  1  l = 2
 
 onsite density matrix
 
spin component  1
 
  0.0482  0.0000  0.0143  0.0000  0.0000
  0.0000  0.0527  0.0000  0.0230  0.0000
  0.0143  0.0000  0.0428  0.0000  0.0000
  0.0000  0.0230  0.0000  0.0527  0.0000
  0.0000  0.0000  0.0000  0.0000  0.0252
 
spin component  2
 
  0.9909  0.0000  0.0240  0.0000 -0.0000
  0.0000  0.9794  0.0000  0.0121  0.0000
  0.0240  0.0000  0.9789  0.0000  0.0000
  0.0000  0.0121  0.0000  0.9794  0.0000
 -0.0000  0.0000  0.0000  0.0000  0.9662
 
 occupancies and eigenvectors
 
  o =  0.0252  v = -0.0000 -0.0000  0.0000  0.0000 -1.0000  0.0000  0.0000  0.0000  0.0000  0.0000      0.0000  0.0000  0.0000  0.0000  0.0000  0.0000  0.0000  0.0000  0.0000  0.0000
  o =  0.0297  v = -0.0000  0.7071  0.0000 -0.7071 -0.0000  0.0000  0.0000  0.0000  0.0000  0.0000      0.0000  0.0000  0.0000  0.0000  0.0000  0.0000  0.0000  0.0000  0.0000  0.0000
  o =  0.0309  v = -0.6372 -0.0000  0.7707  0.0000  0.0000  0.0000  0.0000  0.0000  0.0000  0.0000      0.0000  0.0000  0.0000  0.0000  0.0000  0.0000  0.0000  0.0000  0.0000  0.0000
  o =  0.0601  v = -0.7707 -0.0000 -0.6372 -0.0000 -0.0000  0.0000  0.0000  0.0000  0.0000  0.0000      0.0000  0.0000  0.0000  0.0000  0.0000  0.0000  0.0000  0.0000  0.0000  0.0000
  o =  0.0757  v = -0.0000  0.7071 -0.0000  0.7071 -0.0000  0.0000  0.0000  0.0000  0.0000  0.0000      0.0000  0.0000  0.0000  0.0000  0.0000  0.0000  0.0000  0.0000  0.0000  0.0000
  o =  0.9601  v =  0.0000  0.0000  0.0000  0.0000  0.0000 -0.6156 -0.0000  0.7880  0.0000 -0.0000      0.0000  0.0000  0.0000  0.0000  0.0000  0.0000  0.0000  0.0000  0.0000  0.0000
  o =  0.9662  v =  0.0000  0.0000  0.0000  0.0000  0.0000 -0.0000  0.0000  0.0000  0.0000  1.0000      0.0000  0.0000  0.0000  0.0000  0.0000  0.0000  0.0000  0.0000  0.0000  0.0000
  o =  0.9673  v =  0.0000  0.0000  0.0000  0.0000  0.0000  0.0000  0.7071  0.0000 -0.7071 -0.0000      0.0000  0.0000  0.0000  0.0000  0.0000  0.0000  0.0000  0.0000  0.0000  0.0000
  o =  0.9916  v =  0.0000  0.0000  0.0000  0.0000  0.0000  0.0000 -0.7071  0.0000 -0.7071  0.0000      0.0000  0.0000  0.0000  0.0000  0.0000  0.0000  0.0000  0.0000  0.0000  0.0000
  o =  1.0096  v =  0.0000  0.0000  0.0000  0.0000  0.0000 -0.7880 -0.0000 -0.6156  0.0000 -0.0000      0.0000  0.0000  0.0000  0.0000  0.0000  0.0000  0.0000  0.0000  0.0000  0.0000
atom =   2  type =  1  l = 2
 
 onsite density matrix
 
spin component  1
 
  0.9909  0.0000 -0.0240  0.0000  0.0000
  0.0000  0.9794  0.0000 -0.0121  0.0000
 -0.0240  0.0000  0.9789  0.0000  0.0000
  0.0000 -0.0121  0.0000  0.9794  0.0000
  0.0000  0.0000  0.0000  0.0000  0.9662
 
spin component  2
 
  0.0482  0.0000 -0.0143  0.0000 -0.0000
  0.0000  0.0527  0.0000 -0.0230  0.0000
 -0.0143  0.0000  0.0428  0.0000 -0.0000
  0.0000 -0.0230  0.0000  0.0527  0.0000
 -0.0000  0.0000 -0.0000  0.0000  0.0252
 
 occupancies and eigenvectors
 
  o =  0.0252  v =  0.0000  0.0000  0.0000  0.0000  0.0000  0.0000  0.0000  0.0000  0.0000  1.0000      0.0000  0.0000  0.0000  0.0000  0.0000  0.0000  0.0000  0.0000  0.0000  0.0000
  o =  0.0297  v =  0.0000  0.0000  0.0000  0.0000  0.0000  0.0000 -0.7071  0.0000 -0.7071  0.0000      0.0000  0.0000  0.0000  0.0000  0.0000  0.0000  0.0000  0.0000  0.0000  0.0000
  o =  0.0309  v =  0.0000  0.0000  0.0000  0.0000  0.0000 -0.6372  0.0000 -0.7707  0.0000  0.0000      0.0000  0.0000  0.0000  0.0000  0.0000  0.0000  0.0000  0.0000  0.0000  0.0000
  o =  0.0601  v =  0.0000  0.0000  0.0000  0.0000  0.0000 -0.7707 -0.0000  0.6372  0.0000 -0.0000      0.0000  0.0000  0.0000  0.0000  0.0000  0.0000  0.0000  0.0000  0.0000  0.0000
  o =  0.0757  v =  0.0000  0.0000  0.0000  0.0000  0.0000  0.0000  0.7071  0.0000 -0.7071 -0.0000      0.0000  0.0000  0.0000  0.0000  0.0000  0.0000  0.0000  0.0000  0.0000  0.0000
  o =  0.9601  v = -0.6156  0.0000 -0.7880  0.0000  0.0000  0.0000  0.0000  0.0000  0.0000  0.0000      0.0000  0.0000  0.0000  0.0000  0.0000  0.0000  0.0000  0.0000  0.0000  0.0000
  o =  0.9662  v =  0.0000  0.0000 -0.0000  0.0000 -1.0000  0.0000  0.0000  0.0000  0.0000  0.0000      0.0000  0.0000  0.0000  0.0000  0.0000  0.0000  0.0000  0.0000  0.0000  0.0000
  o =  0.9673  v =  0.0000 -0.7071  0.0000 -0.7071 -0.0000  0.0000  0.0000  0.0000  0.0000  0.0000      0.0000  0.0000  0.0000  0.0000  0.0000  0.0000  0.0000  0.0000  0.0000  0.0000
  o =  0.9916  v =  0.0000 -0.7071  0.0000  0.7071 -0.0000  0.0000  0.0000  0.0000  0.0000  0.0000      0.0000  0.0000  0.0000  0.0000  0.0000  0.0000  0.0000  0.0000  0.0000  0.0000
  o =  1.0096  v = -0.7880  0.0000  0.6156  0.0000 -0.0000  0.0000  0.0000  0.0000  0.0000  0.0000      0.0000  0.0000  0.0000  0.0000  0.0000  0.0000  0.0000  0.0000  0.0000  0.0000
     EDDAV:  cpu time    1.0168: real time    1.0168
 BZINTS: Fermi energy:  3.279748; 54.000000 electrons
         Band energy:-785.596123;  BLOECHL correction:  0.000000
       DOS:  cpu time    0.0017: real time    0.0017
    CHARGE:  cpu time    0.2003: real time    0.2003
    MIXING:  cpu time    0.0009: real time    0.0009
    --------------------------------------------
      LOOP:  cpu time    2.0594: real time    2.0594

 eigenvalue-minimisations  :  1500
 total energy-change (2. order) : 0.2641867E+01  (-0.7307981E+00)
 number of electron      54.0000001 magnetization       0.0000000
 augmentation part       19.8342229 magnetization       0.0000000

 Broyden mixing:
  rms(total) = 0.62183E+00    rms(broyden)= 0.62180E+00
  rms(prec ) = 0.91916E+00
  weight for this iteration     100.00

 eigenvalues of (default mixing * dielectric matrix)
  average eigenvalue GAMMA=   0.7495
  0.9439  0.6522  0.6522

 Free energy of the ion-electron system (eV)
  ---------------------------------------------------
  alpha Z        PSCENC =       199.78117992
  Ewald energy   TEWEN  =     -4205.83021026
  -Hartree energ DENC   =     -2171.49752851
  -exchange      EXHF   =         0.00000000
  -V(xc)+E(xc)   XCENC  =       170.29331337
  PAW double counting   =      6426.33522542    -6391.16463680
  entropy T*S    EENTRO =         0.00000000
  eigenvalues    EBANDS =      -785.59612269
  atomic energy  EATOM  =      6689.06280133
  Solvation  Ediel_sol  =         0.00000000
  ---------------------------------------------------
  free energy    TOTEN  =       -68.61597821 eV

  energy without entropy =      -68.61597821  energy(sigma->0) =      -68.61597821


--------------------------------------------------------------------------------------------------------




--------------------------------------- Iteration      1(   9)  ---------------------------------------


    POTLOK:  cpu time    0.0476: real time    0.0476
    SETDIJ:  cpu time    0.7908: real time    0.7908
atom =   1  type =  1  l = 2
 
 onsite density matrix
 
spin component  1
 
  0.0691  0.0000  0.0372  0.0000 -0.0000
  0.0000  0.0477  0.0000  0.0192  0.0000
  0.0372  0.0000  0.0504  0.0000  0.0000
  0.0000  0.0192  0.0000  0.0477  0.0000
 -0.0000  0.0000  0.0000  0.0000  0.0234
 
spin component  2
 
  0.9497  0.0000  0.0071  0.0000  0.0000
  0.0000  0.9594  0.0000  0.0177  0.0000
  0.0071  0.0000  0.9461  0.0000 -0.0000
  0.0000  0.0177  0.0000  0.9594  0.0000
  0.0000  0.0000 -0.0000  0.0000  0.9427
 
 occupancies and eigenvectors
 
  o =  0.0214  v = -0.6153 -0.0000  0.7883  0.0000 -0.0000  0.0000  0.0000  0.0000  0.0000  0.0000      0.0000  0.0000  0.0000  0.0000  0.0000  0.0000  0.0000  0.0000  0.0000  0.0000
  o =  0.0234  v = -0.0000  0.0000  0.0000  0.0000  1.0000  0.0000  0.0000  0.0000  0.0000  0.0000      0.0000  0.0000  0.0000  0.0000  0.0000  0.0000  0.0000  0.0000  0.0000  0.0000
  o =  0.0285  v =  0.0000  0.7071  0.0000 -0.7071 -0.0000  0.0000  0.0000  0.0000  0.0000  0.0000      0.0000  0.0000  0.0000  0.0000  0.0000  0.0000  0.0000  0.0000  0.0000  0.0000
  o =  0.0669  v =  0.0000 -0.7071  0.0000 -0.7071  0.0000  0.0000  0.0000  0.0000  0.0000  0.0000      0.0000  0.0000  0.0000  0.0000  0.0000  0.0000  0.0000  0.0000  0.0000  0.0000
  o =  0.0981  v = -0.7883 -0.0000 -0.6153  0.0000 -0.0000  0.0000  0.0000  0.0000  0.0000  0.0000      0.0000  0.0000  0.0000  0.0000  0.0000  0.0000  0.0000  0.0000  0.0000  0.0000
  o =  0.9406  v =  0.0000  0.0000  0.0000  0.0000  0.0000 -0.6132  0.0000  0.7899  0.0000  0.0000      0.0000  0.0000  0.0000  0.0000  0.0000  0.0000  0.0000  0.0000  0.0000  0.0000
  o =  0.9418  v =  0.0000  0.0000  0.0000  0.0000  0.0000  0.0000  0.7071 -0.0000 -0.7071  0.0000      0.0000  0.0000  0.0000  0.0000  0.0000  0.0000  0.0000  0.0000  0.0000  0.0000
  o =  0.9427  v =  0.0000  0.0000  0.0000  0.0000  0.0000  0.0000  0.0000  0.0000 -0.0000 -1.0000      0.0000  0.0000  0.0000  0.0000  0.0000  0.0000  0.0000  0.0000  0.0000  0.0000
  o =  0.9552  v =  0.0000  0.0000  0.0000  0.0000  0.0000 -0.7899  0.0000 -0.6132  0.0000 -0.0000      0.0000  0.0000  0.0000  0.0000  0.0000  0.0000  0.0000  0.0000  0.0000  0.0000
  o =  0.9771  v =  0.0000  0.0000  0.0000  0.0000  0.0000  0.0000 -0.7071 -0.0000 -0.7071  0.0000      0.0000  0.0000  0.0000  0.0000  0.0000  0.0000  0.0000  0.0000  0.0000  0.0000
atom =   2  type =  1  l = 2
 
 onsite density matrix
 
spin component  1
 
  0.9497  0.0000 -0.0071  0.0000 -0.0000
  0.0000  0.9594  0.0000 -0.0177  0.0000
 -0.0071  0.0000  0.9461  0.0000  0.0000
  0.0000 -0.0177  0.0000  0.9594  0.0000
 -0.0000  0.0000  0.0000  0.0000  0.9427
 
spin component  2
 
  0.0691  0.0000 -0.0372  0.0000  0.0000
  0.0000  0.0477  0.0000 -0.0192  0.0000
 -0.0372  0.0000  0.0504  0.0000  0.0000
  0.0000 -0.0192  0.0000  0.0477  0.0000
  0.0000  0.0000  0.0000  0.0000  0.0234
 
 occupancies and eigenvectors
 
  o =  0.0214  v =  0.0000  0.0000  0.0000  0.0000  0.0000 -0.6153 -0.0000 -0.7883  0.0000  0.0000      0.0000  0.0000  0.0000  0.0000  0.0000  0.0000  0.0000  0.0000  0.0000  0.0000
  o =  0.0234  v =  0.0000  0.0000  0.0000  0.0000  0.0000 -0.0000  0.0000 -0.0000  0.0000 -1.0000      0.0000  0.0000  0.0000  0.0000  0.0000  0.0000  0.0000  0.0000  0.0000  0.0000
  o =  0.0285  v =  0.0000  0.0000  0.0000  0.0000  0.0000  0.0000  0.7071  0.0000  0.7071  0.0000      0.0000  0.0000  0.0000  0.0000  0.0000  0.0000  0.0000  0.0000  0.0000  0.0000
  o =  0.0669  v =  0.0000  0.0000  0.0000  0.0000  0.0000  0.0000  0.7071  0.0000 -0.7071  0.0000      0.0000  0.0000  0.0000  0.0000  0.0000  0.0000  0.0000  0.0000  0.0000  0.0000
  o =  0.0981  v =  0.0000  0.0000  0.0000  0.0000  0.0000 -0.7883 -0.0000  0.6153  0.0000  0.0000      0.0000  0.0000  0.0000  0.0000  0.0000  0.0000  0.0000  0.0000  0.0000  0.0000
  o =  0.9406  v = -0.6132  0.0000 -0.7899  0.0000 -0.0000  0.0000  0.0000  0.0000  0.0000  0.0000      0.0000  0.0000  0.0000  0.0000  0.0000  0.0000  0.0000  0.0000  0.0000  0.0000
  o =  0.9418  v =  0.0000  0.7071 -0.0000  0.7071  0.0000  0.0000  0.0000  0.0000  0.0000  0.0000      0.0000  0.0000  0.0000  0.0000  0.0000  0.0000  0.0000  0.0000  0.0000  0.0000
  o =  0.9427  v =  0.0000  0.0000  0.0000  0.0000 -1.0000  0.0000  0.0000  0.0000  0.0000  0.0000      0.0000  0.0000  0.0000  0.0000  0.0000  0.0000  0.0000  0.0000  0.0000  0.0000
  o =  0.9552  v = -0.7899  0.0000  0.6132  0.0000  0.0000  0.0000  0.0000  0.0000  0.0000  0.0000      0.0000  0.0000  0.0000  0.0000  0.0000  0.0000  0.0000  0.0000  0.0000  0.0000
  o =  0.9771  v =  0.0000 -0.7071 -0.0000  0.7071  0.0000  0.0000  0.0000  0.0000  0.0000  0.0000      0.0000  0.0000  0.0000  0.0000  0.0000  0.0000  0.0000  0.0000  0.0000  0.0000
     EDDAV:  cpu time    0.9865: real time    0.9866
 BZINTS: Fermi energy:  2.197392; 54.000000 electrons
         Band energy:-797.484552;  BLOECHL correction:  0.000000
       DOS:  cpu time    0.0017: real time    0.0017
    CHARGE:  cpu time    0.2004: real time    0.2004
    MIXING:  cpu time    0.0009: real time    0.0009
    --------------------------------------------
      LOOP:  cpu time    2.0278: real time    2.0279

 eigenvalue-minimisations  :  1428
 total energy-change (2. order) : 0.4723250E+00  (-0.3909953E+00)
 number of electron      54.0000001 magnetization       0.0000000
 augmentation part       20.0081386 magnetization       0.0000000

 Broyden mixing:
  rms(total) = 0.78787E+00    rms(broyden)= 0.78787E+00
  rms(prec ) = 0.84062E+00
  weight for this iteration     100.00

 eigenvalues of (default mixing * dielectric matrix)
  average eigenvalue GAMMA=   0.9705
  1.7972  0.5772  0.7539  0.7539

 Free energy of the ion-electron system (eV)
  ---------------------------------------------------
  alpha Z        PSCENC =       199.78117992
  Ewald energy   TEWEN  =     -4205.83021026
  -Hartree energ DENC   =     -2158.22223668
  -exchange      EXHF   =         0.00000000
  -V(xc)+E(xc)   XCENC  =       168.36471349
  PAW double counting   =      6448.48303067    -6412.29837936
  entropy T*S    EENTRO =         0.00000000
  eigenvalues    EBANDS =      -797.48455231
  atomic energy  EATOM  =      6689.06280133
  Solvation  Ediel_sol  =         0.00000000
  ---------------------------------------------------
  free energy    TOTEN  =       -68.14365319 eV

  energy without entropy =      -68.14365319  energy(sigma->0) =      -68.14365319


--------------------------------------------------------------------------------------------------------




--------------------------------------- Iteration      1(  10)  ---------------------------------------


    POTLOK:  cpu time    0.0483: real time    0.0483
    SETDIJ:  cpu time    0.7871: real time    0.7871
atom =   1  type =  1  l = 2
 
 onsite density matrix
 
spin component  1
 
  0.0439  0.0000  0.0136  0.0000  0.0000
  0.0000  0.0506  0.0000  0.0217  0.0000
  0.0136  0.0000  0.0379  0.0000 -0.0000
  0.0000  0.0217  0.0000  0.0506  0.0000
  0.0000  0.0000 -0.0000  0.0000  0.0281
 
spin component  2
 
  0.9702  0.0000  0.0326  0.0000 -0.0000
  0.0000  0.9518  0.0000  0.0169  0.0000
  0.0326  0.0000  0.9529  0.0000  0.0000
  0.0000  0.0169  0.0000  0.9518  0.0000
 -0.0000  0.0000  0.0000  0.0000  0.9322
 
 occupancies and eigenvectors
 
  o =  0.0270  v =  0.6263  0.0000 -0.7795 -0.0000 -0.0000  0.0000  0.0000  0.0000  0.0000  0.0000      0.0000  0.0000  0.0000  0.0000  0.0000  0.0000  0.0000  0.0000  0.0000  0.0000
  o =  0.0281  v = -0.0000  0.0000  0.0000 -0.0000 -1.0000  0.0000  0.0000  0.0000  0.0000  0.0000      0.0000  0.0000  0.0000  0.0000  0.0000  0.0000  0.0000  0.0000  0.0000  0.0000
  o =  0.0289  v =  0.0000 -0.7071 -0.0000  0.7071 -0.0000  0.0000  0.0000  0.0000  0.0000  0.0000      0.0000  0.0000  0.0000  0.0000  0.0000  0.0000  0.0000  0.0000  0.0000  0.0000
  o =  0.0548  v =  0.7795 -0.0000  0.6263  0.0000 -0.0000  0.0000  0.0000  0.0000  0.0000  0.0000      0.0000  0.0000  0.0000  0.0000  0.0000  0.0000  0.0000  0.0000  0.0000  0.0000
  o =  0.0723  v =  0.0000  0.7071  0.0000  0.7071  0.0000  0.0000  0.0000  0.0000  0.0000  0.0000      0.0000  0.0000  0.0000  0.0000  0.0000  0.0000  0.0000  0.0000  0.0000  0.0000
  o =  0.9278  v =  0.0000  0.0000  0.0000  0.0000  0.0000 -0.6097 -0.0000  0.7926  0.0000 -0.0000      0.0000  0.0000  0.0000  0.0000  0.0000  0.0000  0.0000  0.0000  0.0000  0.0000
  o =  0.9322  v =  0.0000  0.0000  0.0000  0.0000  0.0000 -0.0000  0.0000  0.0000  0.0000  1.0000      0.0000  0.0000  0.0000  0.0000  0.0000  0.0000  0.0000  0.0000  0.0000  0.0000
  o =  0.9349  v =  0.0000  0.0000  0.0000  0.0000  0.0000  0.0000  0.7071  0.0000 -0.7071 -0.0000      0.0000  0.0000  0.0000  0.0000  0.0000  0.0000  0.0000  0.0000  0.0000  0.0000
  o =  0.9687  v =  0.0000  0.0000  0.0000  0.0000  0.0000  0.0000 -0.7071  0.0000 -0.7071  0.0000      0.0000  0.0000  0.0000  0.0000  0.0000  0.0000  0.0000  0.0000  0.0000  0.0000
  o =  0.9953  v =  0.0000  0.0000  0.0000  0.0000  0.0000 -0.7926 -0.0000 -0.6097  0.0000 -0.0000      0.0000  0.0000  0.0000  0.0000  0.0000  0.0000  0.0000  0.0000  0.0000  0.0000
atom =   2  type =  1  l = 2
 
 onsite density matrix
 
spin component  1
 
  0.9702  0.0000 -0.0326  0.0000 -0.0000
  0.0000  0.9518  0.0000 -0.0169  0.0000
 -0.0326  0.0000  0.9529  0.0000 -0.0000
  0.0000 -0.0169  0.0000  0.9518  0.0000
 -0.0000  0.0000 -0.0000  0.0000  0.9322
 
spin component  2
 
  0.0439  0.0000 -0.0136  0.0000  0.0000
  0.0000  0.0506  0.0000 -0.0217  0.0000
 -0.0136  0.0000  0.0379  0.0000 -0.0000
  0.0000 -0.0217  0.0000  0.0506  0.0000
  0.0000  0.0000 -0.0000  0.0000  0.0281
 
 occupancies and eigenvectors
 
  o =  0.0270  v =  0.0000  0.0000  0.0000  0.0000  0.0000 -0.6263  0.0000 -0.7795  0.0000  0.0000      0.0000  0.0000  0.0000  0.0000  0.0000  0.0000  0.0000  0.0000  0.0000  0.0000
  o =  0.0281  v =  0.0000  0.0000  0.0000  0.0000  0.0000  0.0000 -0.0000  0.0000 -0.0000  1.0000      0.0000  0.0000  0.0000  0.0000  0.0000  0.0000  0.0000  0.0000  0.0000  0.0000
  o =  0.0289  v =  0.0000  0.0000  0.0000  0.0000  0.0000  0.0000  0.7071  0.0000  0.7071  0.0000      0.0000  0.0000  0.0000  0.0000  0.0000  0.0000  0.0000  0.0000  0.0000  0.0000
  o =  0.0548  v =  0.0000  0.0000  0.0000  0.0000  0.0000 -0.7795  0.0000  0.6263  0.0000 -0.0000      0.0000  0.0000  0.0000  0.0000  0.0000  0.0000  0.0000  0.0000  0.0000  0.0000
  o =  0.0723  v =  0.0000  0.0000  0.0000  0.0000  0.0000  0.0000  0.7071 -0.0000 -0.7071  0.0000      0.0000  0.0000  0.0000  0.0000  0.0000  0.0000  0.0000  0.0000  0.0000  0.0000
  o =  0.9278  v = -0.6097  0.0000 -0.7926  0.0000 -0.0000  0.0000  0.0000  0.0000  0.0000  0.0000      0.0000  0.0000  0.0000  0.0000  0.0000  0.0000  0.0000  0.0000  0.0000  0.0000
  o =  0.9322  v =  0.0000 -0.0000 -0.0000 -0.0000  1.0000  0.0000  0.0000  0.0000  0.0000  0.0000      0.0000  0.0000  0.0000  0.0000  0.0000  0.0000  0.0000  0.0000  0.0000  0.0000
  o =  0.9349  v =  0.0000  0.7071 -0.0000  0.7071  0.0000  0.0000  0.0000  0.0000  0.0000  0.0000      0.0000  0.0000  0.0000  0.0000  0.0000  0.0000  0.0000  0.0000  0.0000  0.0000
  o =  0.9687  v =  0.0000  0.7071 -0.0000 -0.7071  0.0000  0.0000  0.0000  0.0000  0.0000  0.0000      0.0000  0.0000  0.0000  0.0000  0.0000  0.0000  0.0000  0.0000  0.0000  0.0000
  o =  0.9953  v = -0.7926  0.0000  0.6097  0.0000  0.0000  0.0000  0.0000  0.0000  0.0000  0.0000      0.0000  0.0000  0.0000  0.0000  0.0000  0.0000  0.0000  0.0000  0.0000  0.0000
     EDDAV:  cpu time    1.0047: real time    1.0047
 BZINTS: Fermi energy:  2.043248; 54.000000 electrons
         Band energy:-799.496882;  BLOECHL correction:  0.000000
       DOS:  cpu time    0.0017: real time    0.0017
    CHARGE:  cpu time    0.2000: real time    0.2000
    MIXING:  cpu time    0.0009: real time    0.0009
    --------------------------------------------
      LOOP:  cpu time    2.0428: real time    2.0428

 eigenvalue-minimisations  :  1464
 total energy-change (2. order) : 0.4414755E-01  (-0.3418137E-01)
 number of electron      54.0000001 magnetization      -0.0000000
 augmentation part       20.0168863 magnetization      -0.0000000

 Broyden mixing:
  rms(total) = 0.54862E+00    rms(broyden)= 0.54862E+00
  rms(prec ) = 0.60165E+00
  weight for this iteration     100.00

 eigenvalues of (default mixing * dielectric matrix)
  average eigenvalue GAMMA=   1.2287
  2.9650  0.9792  0.9792  0.6099  0.6099

 Free energy of the ion-electron system (eV)
  ---------------------------------------------------
  alpha Z        PSCENC =       199.78117992
  Ewald energy   TEWEN  =     -4205.83021026
  -Hartree energ DENC   =     -2152.59260699
  -exchange      EXHF   =         0.00000000
  -V(xc)+E(xc)   XCENC  =       166.04256379
  PAW double counting   =      6521.39191771    -6486.45826937
  entropy T*S    EENTRO =         0.00000000
  eigenvalues    EBANDS =      -799.49688176
  atomic energy  EATOM  =      6689.06280133
  Solvation  Ediel_sol  =         0.00000000
  ---------------------------------------------------
  free energy    TOTEN  =       -68.09950563 eV

  energy without entropy =      -68.09950563  energy(sigma->0) =      -68.09950563


--------------------------------------------------------------------------------------------------------




--------------------------------------- Iteration      1(  11)  ---------------------------------------


    POTLOK:  cpu time    0.0477: real time    0.0477
    SETDIJ:  cpu time    0.7888: real time    0.7888
atom =   1  type =  1  l = 2
 
 onsite density matrix
 
spin component  1
 
  0.0518  0.0000  0.0306  0.0000 -0.0000
  0.0000  0.0436  0.0000  0.0254  0.0000
  0.0306  0.0000  0.0371  0.0000  0.0000
  0.0000  0.0254  0.0000  0.0436  0.0000
 -0.0000  0.0000  0.0000  0.0000  0.0145
 
spin component  2
 
  0.9624  0.0000  0.0183  0.0000  0.0000
  0.0000  0.9586  0.0000  0.0165  0.0000
  0.0183  0.0000  0.9514  0.0000 -0.0000
  0.0000  0.0165  0.0000  0.9586  0.0000
  0.0000  0.0000 -0.0000  0.0000  0.9430
 
 occupancies and eigenvectors
 
  o =  0.0129  v = -0.6192 -0.0000  0.7853  0.0000 -0.0000  0.0000  0.0000  0.0000  0.0000  0.0000      0.0000  0.0000  0.0000  0.0000  0.0000  0.0000  0.0000  0.0000  0.0000  0.0000
  o =  0.0145  v = -0.0000  0.0000  0.0000  0.0000  1.0000  0.0000  0.0000  0.0000  0.0000  0.0000      0.0000  0.0000  0.0000  0.0000  0.0000  0.0000  0.0000  0.0000  0.0000  0.0000
  o =  0.0182  v =  0.0000  0.7071  0.0000 -0.7071 -0.0000  0.0000  0.0000  0.0000  0.0000  0.0000      0.0000  0.0000  0.0000  0.0000  0.0000  0.0000  0.0000  0.0000  0.0000  0.0000
  o =  0.0690  v =  0.0000 -0.7071  0.0000 -0.7071  0.0000  0.0000  0.0000  0.0000  0.0000  0.0000      0.0000  0.0000  0.0000  0.0000  0.0000  0.0000  0.0000  0.0000  0.0000  0.0000
  o =  0.0760  v = -0.7853 -0.0000 -0.6192  0.0000 -0.0000  0.0000  0.0000  0.0000  0.0000  0.0000      0.0000  0.0000  0.0000  0.0000  0.0000  0.0000  0.0000  0.0000  0.0000  0.0000
  o =  0.9378  v =  0.0000  0.0000  0.0000  0.0000  0.0000 -0.5971 -0.0000  0.8022  0.0000  0.0000      0.0000  0.0000  0.0000  0.0000  0.0000  0.0000  0.0000  0.0000  0.0000  0.0000
  o =  0.9421  v =  0.0000  0.0000  0.0000  0.0000  0.0000  0.0000 -0.7071  0.0000  0.7071 -0.0000      0.0000  0.0000  0.0000  0.0000  0.0000  0.0000  0.0000  0.0000  0.0000  0.0000
  o =  0.9430  v =  0.0000  0.0000  0.0000  0.0000  0.0000 -0.0000  0.0000  0.0000  0.0000 -1.0000      0.0000  0.0000  0.0000  0.0000  0.0000  0.0000  0.0000  0.0000  0.0000  0.0000
  o =  0.9751  v =  0.0000  0.0000  0.0000  0.0000  0.0000  0.0000  0.7071  0.0000  0.7071  0.0000      0.0000  0.0000  0.0000  0.0000  0.0000  0.0000  0.0000  0.0000  0.0000  0.0000
  o =  0.9761  v =  0.0000  0.0000  0.0000  0.0000  0.0000 -0.8022 -0.0000 -0.5971  0.0000  0.0000      0.0000  0.0000  0.0000  0.0000  0.0000  0.0000  0.0000  0.0000  0.0000  0.0000
atom =   2  type =  1  l = 2
 
 onsite density matrix
 
spin component  1
 
  0.9624  0.0000 -0.0183  0.0000  0.0000
  0.0000  0.9586  0.0000 -0.0165  0.0000
 -0.0183  0.0000  0.9514  0.0000 -0.0000
  0.0000 -0.0165  0.0000  0.9586  0.0000
  0.0000  0.0000 -0.0000  0.0000  0.9430
 
spin component  2
 
  0.0518  0.0000 -0.0306  0.0000 -0.0000
  0.0000  0.0436  0.0000 -0.0254  0.0000
 -0.0306  0.0000  0.0371  0.0000  0.0000
  0.0000 -0.0254  0.0000  0.0436  0.0000
 -0.0000  0.0000  0.0000  0.0000  0.0145
 
 occupancies and eigenvectors
 
  o =  0.0129  v =  0.0000  0.0000  0.0000  0.0000  0.0000 -0.6192  0.0000 -0.7853  0.0000  0.0000      0.0000  0.0000  0.0000  0.0000  0.0000  0.0000  0.0000  0.0000  0.0000  0.0000
  o =  0.0145  v =  0.0000  0.0000  0.0000  0.0000  0.0000 -0.0000 -0.0000 -0.0000  0.0000 -1.0000      0.0000  0.0000  0.0000  0.0000  0.0000  0.0000  0.0000  0.0000  0.0000  0.0000
  o =  0.0182  v =  0.0000  0.0000  0.0000  0.0000  0.0000  0.0000 -0.7071  0.0000 -0.7071  0.0000      0.0000  0.0000  0.0000  0.0000  0.0000  0.0000  0.0000  0.0000  0.0000  0.0000
  o =  0.0690  v =  0.0000  0.0000  0.0000  0.0000  0.0000  0.0000 -0.7071  0.0000  0.7071  0.0000      0.0000  0.0000  0.0000  0.0000  0.0000  0.0000  0.0000  0.0000  0.0000  0.0000
  o =  0.0760  v =  0.0000  0.0000  0.0000  0.0000  0.0000 -0.7853  0.0000  0.6192  0.0000  0.0000      0.0000  0.0000  0.0000  0.0000  0.0000  0.0000  0.0000  0.0000  0.0000  0.0000
  o =  0.9378  v = -0.5971  0.0000 -0.8022  0.0000  0.0000  0.0000  0.0000  0.0000  0.0000  0.0000      0.0000  0.0000  0.0000  0.0000  0.0000  0.0000  0.0000  0.0000  0.0000  0.0000
  o =  0.9421  v =  0.0000 -0.7071  0.0000 -0.7071 -0.0000  0.0000  0.0000  0.0000  0.0000  0.0000      0.0000  0.0000  0.0000  0.0000  0.0000  0.0000  0.0000  0.0000  0.0000  0.0000
  o =  0.9430  v =  0.0000 -0.0000  0.0000  0.0000  1.0000  0.0000  0.0000  0.0000  0.0000  0.0000      0.0000  0.0000  0.0000  0.0000  0.0000  0.0000  0.0000  0.0000  0.0000  0.0000
[...]
  band No.  band energies     occupation 
      1     -49.2240      1.00000
      2     -49.1837      1.00000
      3     -49.1638      1.00000
      4     -42.7159      1.00000
      5     -42.6722      1.00000
      6     -42.6412      1.00000
      7     -22.6740      1.00000
      8     -22.5389      1.00000
      9     -22.4995      1.00000
     10     -22.4170      1.00000
     11      -4.4612      1.00000
     12      -4.2121      1.00000
     13      -4.0245      1.00000
     14      -3.8421      1.00000
     15      -3.6829      1.00000
     16      -3.4878      1.00000
     17      -3.1056      1.00000
     18      -2.9267      1.00000
     19      -2.7951      1.00000
     20      -2.3872      1.00000
     21      -2.2990      1.00000
     22      -2.2402      1.00000
     23       0.8079      1.00000
     24       0.8509      1.00000
     25       1.0951      1.00000
     26       1.7232      1.00000
     27       2.0724      1.00000
     28       6.4134      0.00000
     29       6.4428      0.00000
     30       6.5461      0.00000
     31       7.4009      0.00000
     32       7.6941      0.00000
     33       9.0090      0.00000
     34      11.3038      0.00000
     35      12.7696      0.00000
     36      13.1291      0.00000

 k-point     8 :       0.3750    0.1250    0.4167
  band No.  band energies     occupation 
      1     -49.2241      1.00000
      2     -49.1837      1.00000
      3     -49.1638      1.00000
      4     -42.7159      1.00000
      5     -42.6722      1.00000
      6     -42.6412      1.00000
      7     -22.6171      1.00000
      8     -22.5603      1.00000
      9     -22.5103      1.00000
     10     -22.4412      1.00000
     11      -4.5012      1.00000
     12      -4.2452      1.00000
     13      -4.1623      1.00000
     14      -3.9840      1.00000
     15      -3.6142      1.00000
     16      -3.3770      1.00000
     17      -3.2035      1.00000
     18      -3.0978      1.00000
     19      -2.5294      1.00000
     20      -2.3689      1.00000
     21      -2.1901      1.00000
     22      -2.0873      1.00000
     23       0.7945      1.00000
     24       0.8239      1.00000
     25       1.0341      1.00000
     26       1.6800      1.00000
     27       2.2012      1.00000
     28       6.4014      0.00000
     29       6.4359      0.00000
     30       6.6023      0.00000
     31       7.3557      0.00000
     32       7.8756      0.00000
     33       9.6347      0.00000
     34      11.1605      0.00000
     35      11.6831      0.00000
     36      12.9935      0.00000

 k-point     9 :       0.3750    0.3750    0.4167
  band No.  band energies     occupation 
      1     -49.2241      1.00000
      2     -49.1837      1.00000
      3     -49.1638      1.00000
      4     -42.7160      1.00000
      5     -42.6722      1.00000
      6     -42.6412      1.00000
      7     -22.6101      1.00000
      8     -22.5690      1.00000
      9     -22.5110      1.00000
     10     -22.4355      1.00000
     11      -4.7366      1.00000
     12      -4.5271      1.00000
     13      -4.1579      1.00000
     14      -4.0971      1.00000
     15      -3.5873      1.00000
     16      -3.3100      1.00000
     17      -3.1400      1.00000
     18      -2.9069      1.00000
     19      -2.3187      1.00000
     20      -2.2238      1.00000
     21      -2.1118      1.00000
     22      -2.0349      1.00000
     23       0.7921      1.00000
     24       0.8166      1.00000
     25       1.0198      1.00000
     26       1.7144      1.00000
     27       2.1768      1.00000
     28       6.4079      0.00000
     29       6.4332      0.00000
     30       6.6202      0.00000
     31       7.3316      0.00000
     32       7.7794      0.00000
     33      10.1304      0.00000
     34      11.7134      0.00000
     35      11.7479      0.00000
     36      11.9812      0.00000


--------------------------------------------------------------------------------------------------------


 soft charge-density along one line, spin component           1
         0         1         2         3         4         5         6         7         8         9
 total charge-density along one line
 
 soft charge-density along one line, spin component           2
         0         1         2         3         4         5         6         7         8         9
 total charge-density along one line
 
 pseudopotential strength for first ion, spin component:           1
-45.212   0.000  -0.038   7.791  -0.000   0.016  -0.000  -0.000
  0.000 -45.178   0.000  -0.000   7.777  -0.000   0.000   0.000
 -0.038   0.000 -45.212   0.016  -0.000   7.791   0.000   0.000
  7.791  -0.000   0.016   5.591   0.000   0.004  -0.000   0.000
 -0.000   7.777  -0.000   0.000   5.586   0.000  -0.000   0.000
  0.016  -0.000   7.791   0.004   0.000   5.591  -0.000  -0.000
 -0.000   0.000   0.000  -0.000  -0.000  -0.000  -2.972   0.000
 -0.000   0.000   0.000   0.000   0.000  -0.000   0.000  -2.954
 -0.000  -0.000   0.000   0.000   0.000   0.000   0.020   0.000
  0.000   0.000  -0.000  -0.000   0.000   0.000   0.000  -0.018
  0.000   0.000  -0.000  -0.000  -0.000  -0.000  -0.000  -0.000
 -0.000   0.000   0.000  -0.000  -0.000  -0.000  -3.487   0.000
 -0.000   0.000   0.000   0.000   0.000  -0.000   0.000  -3.470
 -0.000  -0.000   0.000   0.000   0.000   0.000   0.018   0.000
  0.000   0.000  -0.000  -0.000   0.000   0.000   0.000  -0.018
  0.000   0.000  -0.000  -0.000  -0.000  -0.000  -0.000  -0.000
  0.000   0.000   0.000   0.000   0.000  -0.000   0.011  -0.000
  0.000   0.000   0.000   0.000   0.000  -0.000   0.022  -0.000
 pseudopotential strength for first ion, spin component:           2
-50.965   0.000  -0.005   9.791  -0.000   0.016   0.000  -0.000
  0.000 -50.965   0.000  -0.000   9.776  -0.000   0.000   0.000
 -0.005   0.000 -50.965   0.016  -0.000   9.791  -0.000   0.000
  9.791  -0.000   0.016   4.709   0.000   0.001  -0.000   0.000
 -0.000   9.776  -0.000   0.000   4.708   0.000  -0.000  -0.000
  0.016  -0.000   9.791   0.001   0.000   4.709  -0.000  -0.000
  0.000   0.000  -0.000  -0.000  -0.000  -0.000  -7.324   0.000
 -0.000   0.000   0.000   0.000  -0.000  -0.000   0.000  -7.315
  0.000  -0.000  -0.000  -0.000   0.000   0.000  -0.009   0.000
  0.000  -0.000  -0.000  -0.000   0.000   0.000   0.000  -0.028
 -0.000   0.000   0.000  -0.000  -0.000  -0.000   0.000  -0.000
  0.000   0.000  -0.000  -0.000  -0.000  -0.000  -7.795   0.000
 -0.000   0.000   0.000   0.000  -0.000  -0.000   0.000  -7.786
  0.000  -0.000  -0.000  -0.000   0.000   0.000  -0.009   0.000
  0.000  -0.000  -0.000  -0.000   0.000   0.000   0.000  -0.027
 -0.000   0.000   0.000  -0.000  -0.000  -0.000   0.000  -0.000
  0.000   0.000  -0.000  -0.000   0.000   0.000   0.011  -0.000
  0.000   0.000  -0.000  -0.000   0.000   0.000   0.023  -0.000
 total augmentation occupancy for first ion, spin component:           1
  2.001   0.000   0.000  -0.013   0.000   0.001   0.000   0.000   0.000   0.000   0.000   0.000   0.000   0.000   0.000   0.000
  0.000   2.001   0.000   0.000  -0.013   0.000   0.000   0.000   0.000   0.000   0.000   0.000   0.000   0.000   0.000   0.000
  0.000   0.000   2.001   0.001   0.000  -0.013   0.000   0.000   0.000   0.000   0.000   0.000   0.000   0.000   0.000   0.000
 -0.013   0.000   0.001   0.081   0.000  -0.009   0.000   0.000   0.000   0.000   0.000   0.000   0.000   0.000   0.000   0.000
  0.000  -0.013   0.000   0.000   0.090   0.000   0.000   0.000   0.000   0.000   0.000   0.000   0.000   0.000   0.000   0.000
  0.001   0.000  -0.013  -0.009   0.000   0.081   0.000   0.000   0.000   0.000   0.000   0.000   0.000   0.000   0.000   0.000
  0.000   0.000   0.000   0.000   0.000   0.000   7.777   0.000   3.011   0.000   0.000  -5.805   0.000  -2.832   0.000   0.000
  0.000   0.000   0.000   0.000   0.000   0.000   0.000   6.579   0.000   2.547   0.000   0.000  -4.652   0.000  -2.393   0.000
  0.000   0.000   0.000   0.000   0.000   0.000   3.011   0.000   5.966   0.000   0.000  -2.833   0.000  -4.108   0.000  -0.000
  0.000   0.000   0.000   0.000   0.000   0.000   0.000   2.547   0.000   6.579   0.000   0.000  -2.393   0.000  -4.652   0.000
  0.000   0.000   0.000   0.000   0.000   0.000   0.000   0.000   0.000   0.000   3.895  -0.000   0.000  -0.000   0.000  -2.115
  0.000   0.000   0.000   0.000   0.000   0.000  -5.805   0.000  -2.833   0.000   0.000   5.007   0.000   2.698   0.000   0.000
  0.000   0.000   0.000   0.000   0.000   0.000   0.000  -4.652   0.000  -2.393   0.000   0.000   3.888   0.000   2.276   0.000
  0.000   0.000   0.000   0.000   0.000   0.000  -2.832   0.000  -4.108   0.000  -0.000   2.698   0.000   3.399   0.000   0.000
  0.000   0.000   0.000   0.000   0.000   0.000   0.000  -2.393   0.000  -4.652   0.000   0.000   2.276   0.000   3.888   0.000
  0.000   0.000   0.000   0.000   0.000   0.000   0.000   0.000   0.000   0.000  -2.115  -0.000   0.000   0.000   0.000   1.460
  0.000   0.000   0.000   0.000   0.000   0.000   0.442   0.000  -0.298   0.000   0.000  -0.419   0.000   0.277   0.000   0.000
  0.000   0.000   0.000   0.000   0.000   0.000  -0.092   0.000   0.068   0.000   0.000   0.097   0.000  -0.068   0.000   0.000
 total augmentation occupancy for first ion, spin component:           2
  0.004   0.000  -0.000   0.017   0.000  -0.001   0.000   0.000   0.000   0.000   0.000   0.000   0.000   0.000   0.000   0.000
  0.000   0.004   0.000   0.000   0.018   0.000   0.000   0.000   0.000   0.000   0.000   0.000   0.000   0.000   0.000   0.000
 -0.000   0.000   0.004  -0.001   0.000   0.017   0.000   0.000   0.000   0.000   0.000   0.000   0.000   0.000   0.000   0.000
  0.017   0.000  -0.001  -0.011   0.000  -0.000   0.000   0.000   0.000   0.000   0.000   0.000   0.000   0.000   0.000   0.000
  0.000   0.018   0.000   0.000  -0.010   0.000   0.000   0.000   0.000   0.000   0.000   0.000   0.000   0.000   0.000   0.000
 -0.001   0.000   0.017  -0.000   0.000  -0.011   0.000   0.000   0.000   0.000   0.000   0.000   0.000   0.000   0.000   0.000
  0.000   0.000   0.000   0.000   0.000   0.000  -5.103   0.000  -1.498   0.000   0.000   2.728   0.000   1.100   0.000  -0.000
  0.000   0.000   0.000   0.000   0.000   0.000   0.000  -4.549   0.000  -1.278   0.000   0.000   2.300   0.000   0.940   0.000
  0.000   0.000   0.000   0.000   0.000   0.000  -1.498   0.000  -4.148   0.000   0.000   1.100   0.000   2.012   0.000   0.000
  0.000   0.000   0.000   0.000   0.000   0.000   0.000  -1.278   0.000  -4.549   0.000   0.000   0.940   0.000   2.300   0.000
  0.000   0.000   0.000   0.000   0.000   0.000   0.000   0.000   0.000   0.000  -3.252  -0.000   0.000  -0.000   0.000   1.353
  0.000   0.000   0.000   0.000   0.000   0.000   2.728   0.000   1.100   0.000  -0.000  -1.456   0.000  -0.708   0.000   0.000
  0.000   0.000   0.000   0.000   0.000   0.000   0.000   2.300   0.000   0.940   0.000   0.000  -1.155   0.000  -0.608   0.000
  0.000   0.000   0.000   0.000   0.000   0.000   1.100   0.000   2.012   0.000  -0.000  -0.708   0.000  -0.974   0.000   0.000
  0.000   0.000   0.000   0.000   0.000   0.000   0.000   0.940   0.000   2.300   0.000   0.000  -0.608   0.000  -1.155   0.000
  0.000   0.000   0.000   0.000   0.000   0.000   0.000   0.000   0.000   0.000   1.353   0.000   0.000   0.000   0.000  -0.555
  0.000   0.000   0.000   0.000   0.000   0.000  -0.099   0.000   0.056   0.000   0.000   0.022   0.000   0.001   0.000   0.000
  0.000   0.000   0.000   0.000   0.000   0.000   0.000   0.000  -0.006   0.000  -0.000   0.009   0.000  -0.004   0.000  -0.000


------------------------ aborting loop because EDIFF is reached ----------------------------------------


 


 total charge     
 
# of ion       s       p       d       tot
------------------------------------------
    1        0.168   6.150   4.966  11.283
    2        0.173   6.145   4.972  11.290
    3        1.733   4.404   0.000   6.136
    4        1.733   4.404   0.000   6.136
    5        1.732   4.400   0.000   6.132
    6        1.732   4.400   0.000   6.132
--------------------------------------------------
tot          7.271  29.902   9.938  47.111
 


 magnetization (x)
 
# of ion       s       p       d       tot
------------------------------------------
    1       -0.022  -0.018  -4.581  -4.621
    2        0.023   0.016   4.578   4.617
    3        0.003   0.025   0.000   0.027
    4        0.003   0.025   0.000   0.027
    5       -0.003  -0.021   0.000  -0.024
    6       -0.003  -0.021   0.000  -0.024
--------------------------------------------------
tot         -0.001   0.006  -0.003   0.003
 
    CHARGE:  cpu time    0.0521: real time    0.0521
    FORLOC:  cpu time    0.0011: real time    0.0011
    FORNL :  cpu time    0.2490: real time    0.2490
    STRESS:  cpu time    2.9192: real time    2.9193
    FORCOR:  cpu time    0.0440: real time    0.0440
    FORHAR:  cpu time    0.0030: real time    0.0030
    MIXING:  cpu time    0.0021: real time    0.0021
    OFIELD:  cpu time    0.0000: real time    0.0000

  FORCE on cell =-STRESS in cart. coord.  units (eV):
  Direction    XX          YY          ZZ          XY          YZ          ZX
  --------------------------------------------------------------------------------------
  Alpha Z   199.78118   199.78118   199.78118
  Ewald   -1587.08993 -1587.08993 -1031.65352     0.00000    -0.00000     0.00000
  Hartree   593.54792   593.54792   968.88568    -0.00000    -0.00000    -0.00000
  E(xc)    -150.58404  -150.56080  -150.69516    -0.01644    -0.02610    -0.02785
  Local     164.62102   164.62102  -759.25190    -0.00000    -0.00000     0.00000
  n-local  -310.11559  -310.39383  -309.35113     0.01886     0.11107     0.11136
  augment   158.53326   158.53326   158.04144    -0.00000     0.00000    -0.00000
  Kinetic   931.14110   931.71045   924.25177    -0.43902    -0.81268    -0.84868
  Fock        0.00000     0.00000     0.00000     0.00000     0.00000     0.00000
  -------------------------------------------------------------------------------------
  Total      -0.00790    -0.00790     0.00837     0.00000     0.00000     0.00000
  in kB      -0.16376    -0.16376     0.17345     0.00000     0.00000     0.00000
  external pressure =       -0.05 kB  Pullay stress =        0.00 kB


 VOLUME and BASIS-vectors are now :
 -----------------------------------------------------------------------------
  energy-cutoff  :      700.00
  volume of cell :       77.27
      direct lattice vectors                 reciprocal lattice vectors
     4.849421507  0.000000000  0.000000000     0.206210163  0.000000000  0.000000000
     0.000000000  4.849421507  0.000000000     0.000000000  0.206210163  0.000000000
     0.000000000  0.000000000  3.285807792     0.000000000  0.000000000  0.304339165

  length of vectors
     4.849421507  4.849421507  3.285807792     0.206210163  0.206210163  0.304339165


 FORCES acting on ions
    electron-ion (+dipol)            ewald-force                    non-local-force                 convergence-correction
 -----------------------------------------------------------------------------------------------
   0.305E-11 -.168E-11 -.256E-11   0.853E-13 -.284E-13 0.136E-13   0.000E+00 0.000E+00 0.000E+00   -.106E-12 -.932E-13 0.101E-14
   0.567E-13 0.440E-14 -.271E-13   0.142E-12 0.853E-13 0.127E-13   0.000E+00 0.000E+00 0.000E+00   -.857E-13 -.999E-13 -.222E-13
   -.325E+02 0.325E+02 0.917E-12   0.337E+02 -.337E+02 -.125E-14   -.120E+01 0.120E+01 0.434E-18   0.149E-05 -.149E-05 -.882E-13
   0.325E+02 -.325E+02 0.138E-10   -.337E+02 0.337E+02 -.141E-14   0.120E+01 -.120E+01 -.434E-18   -.149E-05 0.149E-05 0.643E-13
   0.325E+02 0.325E+02 -.453E-07   -.337E+02 -.337E+02 -.753E-14   0.120E+01 0.120E+01 0.407E-18   -.149E-05 -.149E-05 -.157E-12
   -.325E+02 -.325E+02 0.453E-07   0.337E+02 0.337E+02 -.791E-14   -.120E+01 -.120E+01 -.407E-18   0.149E-05 0.149E-05 0.119E-12
 -----------------------------------------------------------------------------------------------
   0.986E-11 -.686E-11 -.118E-11   0.711E-14 -.711E-14 0.822E-14   -.222E-15 0.000E+00 0.000E+00   -.218E-12 -.212E-12 -.828E-13
 
 
 POSITION                                       TOTAL-FORCE (eV/Angst)
 -----------------------------------------------------------------------------------
      2.42471      2.42471      1.64290         0.000000     -0.000000     -0.000000
      0.00000      0.00000      0.00000         0.000000     -0.000000     -0.000000
      0.95101      3.89841      1.64290         0.002433     -0.002433     -0.000000
      3.89841      0.95101      1.64290        -0.002433      0.002433      0.000000
      1.47370      1.47370      0.00000        -0.002433     -0.002433     -0.000000
      3.37572      3.37572      0.00000         0.002433      0.002433      0.000000
 -----------------------------------------------------------------------------------
    total drift:                                0.000000     -0.000000     -0.000000


--------------------------------------------------------------------------------------------------------



  FREE ENERGIE OF THE ION-ELECTRON SYSTEM (eV)
  ---------------------------------------------------
  free  energy   TOTEN  =       -68.03229205 eV

  energy  without entropy=      -68.03229205  energy(sigma->0) =      -68.03229205
 


--------------------------------------------------------------------------------------------------------


    POTLOK:  cpu time    1.5333: real time    1.5333


--------------------------------------------------------------------------------------------------------




--------------------------------------------------------------------------------------------------------


  
 reached required accuracy - stopping structural energy minimisation
     LOOP+:  cpu time   59.6945: real time   59.7155
    4ORBIT:  cpu time    0.0000: real time    0.0000
 


 total charge     
 
# of ion       s       p       d       tot
------------------------------------------
    1        0.168   6.150   4.966  11.283
    2        0.173   6.145   4.972  11.290
    3        1.733   4.404   0.000   6.136
    4        1.733   4.404   0.000   6.136
    5        1.732   4.400   0.000   6.132
    6        1.732   4.400   0.000   6.132
--------------------------------------------------
tot          7.271  29.902   9.938  47.111
 


 magnetization (x)
 
# of ion       s       p       d       tot
------------------------------------------
    1       -0.022  -0.018  -4.581  -4.621
    2        0.023   0.016   4.578   4.617
    3        0.003   0.025   0.000   0.027
    4        0.003   0.025   0.000   0.027
    5       -0.003  -0.021   0.000  -0.024
    6       -0.003  -0.021   0.000  -0.024
--------------------------------------------------
tot         -0.001   0.006  -0.003   0.003
 
 BZINTS: Fermi energy:  2.319693; 54.000000 electrons
         Band energy:-795.709160;  BLOECHL correction:  0.000000

 total amount of memory used by VASP MPI-rank0    49868. kBytes
=======================================================================

   base      :      30000. kBytes
   nonl-proj :       8773. kBytes
   fftplans  :       2625. kBytes
   grid      :       5402. kBytes
   one-center:        186. kBytes
   wavefun   :       2882. kBytes
 
  
  
 General timing and accounting informations for this job:
 ========================================================
  
                  Total CPU time used (sec):       60.842
                            User time (sec):       46.700
                          System time (sec):       14.142
                         Elapsed time (sec):       60.910
  
                   Maximum memory used (kb):       78444.
                   Average memory used (kb):           0.
  
                          Minor page faults:        14911
                          Major page faults:            8
                 Voluntary context switches:          289
