 vasp.5.4.4.18Apr17-6-g9f103f2a35 (build Apr 27 2017 11:13:10) complex          
  
 executed on           IFC91_ompi date 2020.05.13  10:50:47
 running on   12 total cores
 distrk:  each k-point on   12 cores,    1 groups
 distr:  one band on NCORES_PER_BAND=   1 cores,   12 groups


--------------------------------------------------------------------------------------------------------


 INCAR:
 POTCAR:    PAW_PBE Mn_pv 02Aug2007               
 POTCAR:    PAW_PBE F 08Apr2002                   

 ----------------------------------------------------------------------------- 
|                                                                             |
|           W    W    AA    RRRRR   N    N  II  N    N   GGGG   !!!           |
|           W    W   A  A   R    R  NN   N  II  NN   N  G    G  !!!           |
|           W    W  A    A  R    R  N N  N  II  N N  N  G       !!!           |
|           W WW W  AAAAAA  RRRRR   N  N N  II  N  N N  G  GGG   !            |
|           WW  WW  A    A  R   R   N   NN  II  N   NN  G    G                |
|           W    W  A    A  R    R  N    N  II  N    N   GGGG   !!!           |
|                                                                             |
|      For optimal performance we recommend to set                            |
|        NCORE= 4 - approx SQRT( number of cores)                             |
|      NCORE specifies how many cores store one orbital (NPAR=cpu/NCORE).     |
|      This setting can  greatly improve the performance of VASP for DFT.     |
|      The default,   NCORE=1            might be grossly inefficient         |
|      on modern multi-core architectures or massively parallel machines.     |
|      Do your own testing !!!!                                               |
|      Unfortunately you need to use the default for GW and RPA calculations. |
|      (for HF NCORE is supported but not extensively tested yet)             |
|                                                                             |
 ----------------------------------------------------------------------------- 

 POTCAR:    PAW_PBE Mn_pv 02Aug2007               
   VRHFIN =Mn: 3p4s3d                                                           
   LEXCH  = PE                                                                  
   EATOM  =  2025.2664 eV,  148.8529 Ry                                         
                                                                                
   TITEL  = PAW_PBE Mn_pv 02Aug2007                                             
   LULTRA =        F    use ultrasoft PP ?                                      
   IUNSCR =        1    unscreen: 0-lin 1-nonlin 2-no                           
   RPACOR =    2.080    partial core radius                                     
   POMASS =   54.938; ZVAL   =   13.000    mass and valenz                      
   RCORE  =    2.300    outmost cutoff radius                                   
   RWIGS  =    2.500; RWIGS  =    1.323    wigner-seitz radius (au A)           
   ENMAX  =  269.864; ENMIN  =  202.398 eV                                      
   ICORE  =        3    local potential                                         
   LCOR   =        T    correct aug charges                                     
   LPAW   =        T    paw PP                                                  
   EAUG   =  569.085                                                            
   DEXC   =    0.000                                                            
   RMAX   =    2.343    core radius for proj-oper                               
   RAUG   =    1.300    factor for augmentation sphere                          
   RDEP   =    2.338    radius for radial grids                                 
   RDEPT  =    1.798    core radius for aug-charge                              
                                                                                
   Atomic configuration                                                         
    8 entries                                                                   
     n  l   j            E        occ.                                          
     1  0  0.50     -6424.8287   2.0000                                         
     2  0  0.50      -739.1154   2.0000                                         
     2  1  1.50      -625.3949   6.0000                                         
     3  0  0.50       -81.6100   2.0000                                         
     3  1  1.50       -50.4667   6.0000                                         
     3  2  2.50        -3.3745   6.0000                                         
     4  0  0.50        -4.1331   1.0000                                         
     4  3  2.50        -1.3606   0.0000                                         
   Description                                                                  
     l       E           TYP  RCUT    TYP  RCUT                                 
     1    -50.4666628     23  2.000                                             
     1     -1.3605826     23  2.000                                             
     2     -3.3744729     23  2.300                                             
     2     -4.7350555     23  2.300                                             
     0     -4.1331431     23  2.300                                             
     0      7.6656591     23  2.300                                             
     3      9.5240782     23  2.300                                             
  local pseudopotential read in
  partial core-charges read in
  partial kinetic energy density read in
  atomic valenz-charges read in
  non local Contribution for L=           1  read in
    real space projection operators read in
  non local Contribution for L=           1  read in
    real space projection operators read in
  non local Contribution for L=           2  read in
    real space projection operators read in
  non local Contribution for L=           2  read in
    real space projection operators read in
  non local Contribution for L=           0  read in
    real space projection operators read in
  non local Contribution for L=           0  read in
    real space projection operators read in
    PAW grid and wavefunctions read in
 
   number of l-projection  operators is LMAX  =           6
   number of lm-projection operators is LMMAX =          18
 
 POTCAR:    PAW_PBE F 08Apr2002                   
   VRHFIN =F: s2p5                                                              
   LEXCH  = PE                                                                  
   EATOM  =   659.6475 eV,   48.4827 Ry                                         
                                                                                
   TITEL  = PAW_PBE F 08Apr2002                                                 
   LULTRA =        F    use ultrasoft PP ?                                      
   IUNSCR =        1    unscreen: 0-lin 1-nonlin 2-no                           
   RPACOR =    1.200    partial core radius                                     
   POMASS =   18.998; ZVAL   =    7.000    mass and valenz                      
   RCORE  =    1.520    outmost cutoff radius                                   
   RWIGS  =    1.500; RWIGS  =    0.794    wigner-seitz radius (au A)           
   ENMAX  =  400.000; ENMIN  =  300.000 eV                                      
   ICORE  =        2    local potential                                         
   LCOR   =        T    correct aug charges                                     
   LPAW   =        T    paw PP                                                  
   EAUG   =  613.614                                                            
   RMAX   =    1.555    core radius for proj-oper                               
   RAUG   =    1.300    factor for augmentation sphere                          
   RDEP   =    1.539    radius for radial grids                                 
   RDEPT  =    1.299    core radius for aug-charge                              
                                                                                
   Atomic configuration                                                         
    4 entries                                                                   
     n  l   j            E        occ.                                          
     1  0  0.50      -663.3661   2.0000                                         
     2  0  0.50       -29.8995   2.0000                                         
     2  1  0.50       -11.1114   5.0000                                         
     3  2  1.50       -10.8847   0.0000                                         
   Description                                                                  
     l       E           TYP  RCUT    TYP  RCUT                                 
     0    -29.8995018     23  1.200                                             
     0     -9.5240782     23  1.200                                             
     1    -11.1113914     23  1.520                                             
     1      1.3605826     23  1.520                                             
     2    -10.8846608      7  1.500                                             
  local pseudopotential read in
  partial core-charges read in
  partial kinetic energy density read in
  atomic valenz-charges read in
  non local Contribution for L=           0  read in
    real space projection operators read in
  non local Contribution for L=           0  read in
    real space projection operators read in
  non local Contribution for L=           1  read in
    real space projection operators read in
  non local Contribution for L=           1  read in
    real space projection operators read in
    PAW grid and wavefunctions read in
 
   number of l-projection  operators is LMAX  =           4
   number of lm-projection operators is LMMAX =           8
 
  PAW_PBE Mn_pv 02Aug2007               :
 energy of atom  1       EATOM=-2025.2664
 kinetic energy error for atom=    0.0047 (will be added to EATOM!!)
  PAW_PBE F 08Apr2002                   :
 energy of atom  2       EATOM= -659.6475
 kinetic energy error for atom=    0.0256 (will be added to EATOM!!)
 
 
 POSCAR: Mn  F                                   
  positions in cartesian coordinates
  No initial velocities read in

 METAGGA = SCAN     LMAXTAU =  6    LMIXTAU =  F

 exchange correlation table for  LEXCH =        8
   RHO(1)=    0.500       N(1)  =     2000
   RHO(2)=  100.500       N(2)  =     4000
 


--------------------------------------------------------------------------------------------------------


 ion  position               nearest neighbor table
   1  0.500  0.500  0.500-   3 2.11   4 2.11   5 2.14   6 2.14   5 2.14   6 2.14
   2  0.000  0.000  0.000-   5 2.11   6 2.11   3 2.14   4 2.14   3 2.14   4 2.14
   3  0.195  0.805  0.500-   1 2.11   2 2.14   2 2.14
   4  0.805  0.195  0.500-   1 2.11   2 2.14   2 2.14
   5  0.305  0.305  0.000-   2 2.11   1 2.14   1 2.14
   6  0.695  0.695  0.000-   2 2.11   1 2.14   1 2.14
 
  LATTYP: Found a simple tetragonal cell.
 ALAT       =     4.8856680747
 C/A-ratio  =     0.6775540221
  
  Lattice vectors:
  
 A1 = (   4.8856680747,   0.0000000000,   0.0000000000)
 A2 = (   0.0000000000,   4.8856680747,   0.0000000000)
 A3 = (   0.0000000000,   0.0000000000,   3.3103040548)


Analysis of symmetry for initial positions (statically):
=====================================================================
 Subroutine PRICEL returns:
 Original cell was already a primitive cell.
 

 Routine SETGRP: Setting up the symmetry group for a 
 simple tetragonal supercell.


 Subroutine GETGRP returns: Found 16 space group operations
 (whereof  8 operations were pure point group operations)
 out of a pool of 16 trial point group operations.


The static configuration has the point symmetry D_2h.
 The point group associated with its full space group is D_4h.


Analysis of symmetry for dynamics (positions and initial velocities):
=====================================================================
 Subroutine PRICEL returns:
 Original cell was already a primitive cell.
 

 Routine SETGRP: Setting up the symmetry group for a 
 simple tetragonal supercell.


 Subroutine GETGRP returns: Found 16 space group operations
 (whereof  8 operations were pure point group operations)
 out of a pool of 16 trial point group operations.


The dynamic configuration has the point symmetry D_2h.
 The point group associated with its full space group is D_4h.


Analysis of structural, dynamic, and magnetic symmetry:
=====================================================================
 Subroutine PRICEL returns:
 Original cell was already a primitive cell.
 

 Routine SETGRP: Setting up the symmetry group for a 
 simple tetragonal supercell.


 Subroutine GETGRP returns: Found 16 space group operations
 (whereof  8 operations were pure point group operations)
 out of a pool of 16 trial point group operations.


The magnetic configuration has the point symmetry D_2h.
 The point group associated with its full space group is D_4h.


 Subroutine INISYM returns: Found 16 space group operations
 (whereof  8 operations are pure point group operations),
 and found     1 'primitive' translations

 
 
 KPOINTS: KPOINTS created by Atomic Simulation Env

Automatic generation of k-mesh.
Space group operators:
 irot       det(A)        alpha          n_x          n_y          n_z        tau_x        tau_y        tau_z
    1     1.000000     0.000000     1.000000     0.000000     0.000000     0.000000     0.000000     0.000000
    2    -1.000000     0.000000     1.000000     0.000000     0.000000     0.000000     0.000000     0.000000
    3     1.000000   180.000000     0.000000     0.000000     1.000000     0.000000     0.000000     0.000000
    4    -1.000000   180.000000     0.000000     0.000000     1.000000     0.000000     0.000000     0.000000
    5     1.000000   180.000000     0.707107     0.707107     0.000000     0.000000     0.000000     0.000000
    6    -1.000000   180.000000     0.707107     0.707107     0.000000     0.000000     0.000000     0.000000
    7     1.000000   180.000000     0.707107    -0.707107     0.000000     0.000000     0.000000     0.000000
    8    -1.000000   180.000000     0.707107    -0.707107     0.000000     0.000000     0.000000     0.000000
    9     1.000000    90.000000     0.000000     0.000000    -1.000000     0.500000     0.500000     0.500000
   10    -1.000000    90.000000     0.000000     0.000000    -1.000000     0.500000     0.500000     0.500000
   11     1.000000    90.000000     0.000000     0.000000     1.000000     0.500000     0.500000     0.500000
   12    -1.000000    90.000000     0.000000     0.000000     1.000000     0.500000     0.500000     0.500000
   13     1.000000   180.000000     0.000000     1.000000     0.000000     0.500000     0.500000     0.500000
   14    -1.000000   180.000000     0.000000     1.000000     0.000000     0.500000     0.500000     0.500000
   15     1.000000   180.000000     1.000000     0.000000     0.000000     0.500000     0.500000     0.500000
   16    -1.000000   180.000000     1.000000     0.000000     0.000000     0.500000     0.500000     0.500000
 
 Subroutine IBZKPT returns following result:
 ===========================================
 
 Found      9 irreducible k-points:
 
 Following reciprocal coordinates:
            Coordinates               Weight
  0.125000  0.125000  0.083333      8.000000
  0.375000  0.125000  0.083333     16.000000
  0.375000  0.375000  0.083333      8.000000
  0.125000  0.125000  0.250000      8.000000
  0.375000  0.125000  0.250000     16.000000
  0.375000  0.375000  0.250000      8.000000
  0.125000  0.125000  0.416667      8.000000
  0.375000  0.125000  0.416667     16.000000
  0.375000  0.375000  0.416667      8.000000
 
 Following cartesian coordinates:
            Coordinates               Weight
  0.025585  0.025585  0.025174      8.000000
  0.076755  0.025585  0.025174     16.000000
  0.076755  0.076755  0.025174      8.000000
  0.025585  0.025585  0.075522      8.000000
  0.076755  0.025585  0.075522     16.000000
  0.076755  0.076755  0.075522      8.000000
  0.025585  0.025585  0.125870      8.000000
  0.076755  0.025585  0.125870     16.000000
  0.076755  0.076755  0.125870      8.000000
 
 TETIRR: Found    106 inequivalent tetrahedra from      576


--------------------------------------------------------------------------------------------------------




 Dimension of arrays:
   k-points           NKPTS =      9   k-points in BZ     NKDIM =      9   number of bands    NBANDS=     36
   number of dos      NEDOS =    301   number of ions     NIONS =      6
   non local maximal  LDIM  =      6   non local SUM 2l+1 LMDIM =     18
   total plane-waves  NPLWV =  18000
   max r-space proj   IRMAX =      1   max aug-charges    IRDMAX=  55490
   dimension x,y,z NGX =    30 NGY =   30 NGZ =   20
   dimension x,y,z NGXF=    60 NGYF=   60 NGZF=   40
   support grid    NGXF=   120 NGYF=  120 NGZF=   80
   ions per type =               2   4
   NGX,Y,Z   is equivalent  to a cutoff of  10.21, 10.21, 10.04 a.u.
   NGXF,Y,Z  is equivalent  to a cutoff of  20.42, 20.42, 20.09 a.u.

 SYSTEM =  unknown system                          
 POSCAR =  Mn  F                                   

 Startparameter for this run:
   NWRITE =      2    write-flag & timer
   PREC   = normal    normal or accurate (medium, high low for compatibility)
   ISTART =      0    job   : 0-new  1-cont  2-samecut
   ICHARG =      2    charge: 1-file 2-atom 10-const
   ISPIN  =      2    spin polarized calculation?
   LNONCOLLINEAR =      F non collinear calculations
   LSORBIT =      F    spin-orbit coupling
   INIWAV =      1    electr: 0-lowe 1-rand  2-diag
   LASPH  =      T    aspherical Exc in radial PAW
   METAGGA=      F    non-selfconsistent MetaGGA calc.

 Electronic Relaxation 1
   ENCUT  =  600.0 eV  44.10 Ry    6.64 a.u.   9.76  9.76  6.61*2*pi/ulx,y,z
   ENINI  =  600.0     initial cutoff
   ENAUG  =  613.6 eV  augmentation charge cutoff
   NELM   =     60;   NELMIN=  2; NELMDL= -5     # of ELM steps 
   EDIFF  = 0.1E-05   stopping-criterion for ELM
   LREAL  =      F    real-space projection
   NLSPLINE    = F    spline interpolate recip. space projectors
   LCOMPAT=      F    compatible to vasp.4.4
   GGA_COMPAT  = T    GGA compatible to vasp.4.4-vasp.4.6
   LMAXPAW     = -100 max onsite density
   LMAXMIX     =    4 max onsite mixed and CHGCAR
   VOSKOWN=      0    Vosko Wilk Nusair interpolation
   ROPT   =    0.00000   0.00000
 Ionic relaxation
   EDIFFG = 0.1E-04   stopping-criterion for IOM
   NSW    =      0    number of steps for IOM
   NBLOCK =      1;   KBLOCK =      1    inner block; outer block 
   IBRION =     -1    ionic relax: 0-MD 1-quasi-New 2-CG
   NFREE  =      0    steps in history (QN), initial steepest desc. (CG)
   ISIF   =      2    stress and relaxation
   IWAVPR =     10    prediction:  0-non 1-charg 2-wave 3-comb
   ISYM   =      2    0-nonsym 1-usesym 2-fastsym
   LCORR  =      T    Harris-Foulkes like correction to forces

   POTIM  = 0.5000    time-step for ionic-motion
   TEIN   =    0.0    initial temperature
   TEBEG  =    0.0;   TEEND  =   0.0 temperature during run
   SMASS  =  -3.00    Nose mass-parameter (am)
   estimated Nose-frequenzy (Omega)   =  0.10E-29 period in steps =****** mass=  -0.545E-27a.u.
   SCALEE = 1.0000    scale energy and forces
   NPACO  =    256;   APACO  = 16.0  distance and # of slots for P.C.
   PSTRESS=    0.0 pullay stress

  Mass of Ions in am
   POMASS =  54.94 19.00
  Ionic Valenz
   ZVAL   =  13.00  7.00
  Atomic Wigner-Seitz radii
   RWIGS  =  -1.00 -1.00
  virtual crystal weights 
   VCA    =   1.00  1.00
   NELECT =      54.0000    total number of electrons
   NUPDOWN=      -1.0000    fix difference up-down

 DOS related values:
   EMIN   =  10.00;   EMAX   =-10.00  energy-range for DOS
   EFERMI =   0.00
   ISMEAR =    -5;   SIGMA  =   0.20  broadening in eV -4-tet -1-fermi 0-gaus

 Electronic relaxation 2 (details)
   IALGO  =     38    algorithm
   LDIAG  =      T    sub-space diagonalisation (order eigenvalues)
   LSUBROT=      F    optimize rotation matrix (better conditioning)
   TURBO    =      0    0=normal 1=particle mesh
   IRESTART =      0    0=no restart 2=restart with 2 vectors
   NREBOOT  =      0    no. of reboots
   NMIN     =      0    reboot dimension
   EREF     =   0.00    reference energy to select bands
   IMIX   =      4    mixing-type and parameters
     AMIX     =   0.40;   BMIX     =  1.00
     AMIX_MAG =   1.60;   BMIX_MAG =  1.00
     AMIN     =   0.10
     WC   =   100.;   INIMIX=   1;  MIXPRE=   1;  MAXMIX= -45

 Intra band minimization:
   WEIMIN = 0.0000     energy-eigenvalue tresh-hold
   EBREAK =  0.69E-08  absolut break condition
   DEPER  =   0.30     relativ break condition  

   TIME   =   0.40     timestep for ELM

  volume/ion in A,a.u.               =      13.17        88.87
  Fermi-wavevector in a.u.,A,eV,Ry     =   1.442007  2.724999 28.291754  2.079385
  Thomas-Fermi vector in A             =   2.560576
 
 Write flags
   LWAVE        =      T    write WAVECAR
   LDOWNSAMPLE  =      F    k-point downsampling of WAVECAR
   LCHARG       =      T    write CHGCAR
   LVTOT        =      F    write LOCPOT, total local potential
   LVHAR        =      F    write LOCPOT, Hartree potential only
   LELF         =      F    write electronic localiz. function (ELF)
   LORBIT       =     11    0 simple, 1 ext, 2 COOP (PROOUT), +10 PAW based schemes


 Dipole corrections
   LMONO  =      F    monopole corrections only (constant potential shift)
   LDIPOL =      F    correct potential (dipole corrections)
   IDIPOL =      0    1-x, 2-y, 3-z, 4-all directions 
   EPSILON=  1.0000000 bulk dielectric constant

 LDA+U is selected, type is set to LDAUTYPE =  2
   angular momentum for each species LDAUL =     2   -1
   U (eV)           for each species LDAUU =   6.0  0.0
   J (eV)           for each species LDAUJ =   0.0  0.0
 Exchange correlation treatment:
   GGA     =    --    GGA type
   LEXCH   =     8    internal setting for exchange type
   VOSKOWN=      0    Vosko Wilk Nusair interpolation
   LHFCALC =     F    Hartree Fock is set to
   LHFONE  =     F    Hartree Fock one center treatment
   AEXX    =    0.0000 exact exchange contribution

 Linear response parameters
   LEPSILON=     F    determine dielectric tensor
   LRPA    =     F    only Hartree local field effects (RPA)
   LNABLA  =     F    use nabla operator in PAW spheres
   LVEL    =     F    velocity operator in full k-point grid
   LINTERFAST=   F  fast interpolation
   KINTER  =     0    interpolate to denser k-point grid
   CSHIFT  =0.1000    complex shift for real part using Kramers Kronig
   OMEGAMAX=  -1.0    maximum frequency
   DEG_THRESHOLD= 0.2000000E-02 threshold for treating states as degnerate
   RTIME   =   -0.100 relaxation time in fs
  (WPLASMAI=    0.000 imaginary part of plasma frequency in eV, 0.658/RTIME)
   DFIELD  = 0.0000000 0.0000000 0.0000000 field for delta impulse in time
 
 Orbital magnetization related:
   ORBITALMAG=     F  switch on orbital magnetization
   LCHIMAG   =     F  perturbation theory with respect to B field
   DQ        =  0.001000  dq finite difference perturbation B field
   LLRAUG    =     F  two centre corrections for induced B field



--------------------------------------------------------------------------------------------------------


 Static calculation
 charge density and potential will be updated during run
 spin polarized calculation
 Variant of blocked Davidson
 Davidson routine will perform the subspace rotation
 perform sub-space diagonalisation
    after iterative eigenvector-optimisation
 modified Broyden-mixing scheme, WC =      100.0
 initial mixing is a Kerker type mixing with AMIX =  0.4000 and BMIX =      1.0000
 Hartree-type preconditioning will be used
 using additional bands            9
 reciprocal scheme for non local part
 use partial core corrections
 calculate Harris-corrections to forces 
   (improved forces if not selfconsistent)
 use gradient corrections 
 use of overlap-Matrix (Vanderbilt PP)
 Fermi weights with tetrahedron method with Bloechl corrections


--------------------------------------------------------------------------------------------------------


  energy-cutoff  :      600.00
  volume of cell :       79.02
      direct lattice vectors                 reciprocal lattice vectors
     4.885668075  0.000000000  0.000000000     0.204680299  0.000000000  0.000000000
     0.000000000  4.885668075  0.000000000     0.000000000  0.204680299  0.000000000
     0.000000000  0.000000000  3.310304055     0.000000000  0.000000000  0.302087054

  length of vectors
     4.885668075  4.885668075  3.310304055     0.204680299  0.204680299  0.302087054


 
 k-points in units of 2pi/SCALE and weight: KPOINTS created by Atomic Simulation Env
   0.02558504  0.02558504  0.02517392       0.083
   0.07675511  0.02558504  0.02517392       0.167
   0.07675511  0.07675511  0.02517392       0.083
   0.02558504  0.02558504  0.07552176       0.083
   0.07675511  0.02558504  0.07552176       0.167
   0.07675511  0.07675511  0.07552176       0.083
   0.02558504  0.02558504  0.12586961       0.083
   0.07675511  0.02558504  0.12586961       0.167
   0.07675511  0.07675511  0.12586961       0.083
 
 k-points in reciprocal lattice and weights: KPOINTS created by Atomic Simulation Env
   0.12500000  0.12500000  0.08333333       0.083
   0.37500000  0.12500000  0.08333333       0.167
   0.37500000  0.37500000  0.08333333       0.083
   0.12500000  0.12500000  0.25000000       0.083
   0.37500000  0.12500000  0.25000000       0.167
   0.37500000  0.37500000  0.25000000       0.083
   0.12500000  0.12500000  0.41666667       0.083
   0.37500000  0.12500000  0.41666667       0.167
   0.37500000  0.37500000  0.41666667       0.083
 
 position of ions in fractional coordinates (direct lattice) 
   0.50000000  0.50000000  0.50000000
   0.00000000  0.00000000  0.00000000
   0.19519813  0.80480187  0.50000000
   0.80480187  0.19519813  0.50000000
   0.30480187  0.30480187  0.00000000
   0.69519813  0.69519813  0.00000000
 
 position of ions in cartesian coordinates  (Angst):
   2.44283404  2.44283404  1.65515203
   0.00000000  0.00000000  0.00000000
   0.95367325  3.93199482  1.65515203
   3.93199482  0.95367325  1.65515203
   1.48916078  1.48916078  0.00000000
   3.39650729  3.39650729  0.00000000
 


--------------------------------------------------------------------------------------------------------


 k-point  1 :   0.1250 0.1250 0.0833  plane waves:    2642
 k-point  2 :   0.3750 0.1250 0.0833  plane waves:    2641
 k-point  3 :   0.3750 0.3750 0.0833  plane waves:    2636
 k-point  4 :   0.1250 0.1250 0.2500  plane waves:    2639
 k-point  5 :   0.3750 0.1250 0.2500  plane waves:    2640
 k-point  6 :   0.3750 0.3750 0.2500  plane waves:    2644
 k-point  7 :   0.1250 0.1250 0.4167  plane waves:    2636
 k-point  8 :   0.3750 0.1250 0.4167  plane waves:    2631
 k-point  9 :   0.3750 0.3750 0.4167  plane waves:    2621

 maximum and minimum number of plane-waves per node :      2644     2621

 maximum number of plane-waves:      2644
 maximum index in each direction: 
   IXMAX=    9   IYMAX=    9   IZMAX=    6
   IXMIN=  -10   IYMIN=  -10   IZMIN=   -7


 serial   3D FFT for wavefunctions
 parallel 3D FFT for charge:
    minimum data exchange during FFTs selected (reduces bandwidth)


 total amount of memory used by VASP MPI-rank0    45362. kBytes
=======================================================================

   base      :      30000. kBytes
   nonl-proj :       7128. kBytes
   fftplans  :       1875. kBytes
   grid      :       3820. kBytes
   one-center:        186. kBytes
   wavefun   :       2353. kBytes
 
     INWAV:  cpu time    0.0000: real time    0.0000
 Broyden mixing: mesh for mixing (old mesh)
   NGX = 19   NGY = 19   NGZ = 13
  (NGX  = 60   NGY  = 60   NGZ  = 40)
  gives a total of   4693 points

 initial charge density was supplied:
 charge density of overlapping atoms calculated
 number of electron      54.0000000 magnetization       0.0000000
 keeping initial charge density in first step


--------------------------------------------------------------------------------------------------------


 Maximum index for augmentation-charges         4247 (set IRDMAX)


--------------------------------------------------------------------------------------------------------


 First call to EWALD:  gamma=   0.413
 Maximum number of real-space cells 2x 2x 3
 Maximum number of reciprocal cells 3x 3x 2

    FEWALD:  cpu time    0.0010: real time    0.0010


--------------------------------------- Iteration      1(   1)  ---------------------------------------


    POTLOK:  cpu time    0.0348: real time    0.0348
    SETDIJ:  cpu time    0.7850: real time    0.7850
atom =   1  type =  1  l = 2
 
 onsite density matrix
 
spin component  1
 
  0.2835  0.0000  0.0000  0.0000  0.0000
  0.0000  0.2835  0.0000  0.0000  0.0000
  0.0000  0.0000  0.2835  0.0000  0.0000
  0.0000  0.0000  0.0000  0.2835  0.0000
  0.0000  0.0000  0.0000  0.0000  0.2835
 
spin component  2
 
  0.7694  0.0000  0.0000  0.0000  0.0000
  0.0000  0.7694  0.0000  0.0000  0.0000
  0.0000  0.0000  0.7694  0.0000  0.0000
  0.0000  0.0000  0.0000  0.7694  0.0000
  0.0000  0.0000  0.0000  0.0000  0.7694
 
 occupancies and eigenvectors
 
  o =  0.2835  v =  1.0000  0.0000  0.0000  0.0000  0.0000  0.0000  0.0000  0.0000  0.0000  0.0000      0.0000  0.0000  0.0000  0.0000  0.0000  0.0000  0.0000  0.0000  0.0000  0.0000
  o =  0.2835  v =  0.0000  1.0000  0.0000  0.0000  0.0000  0.0000  0.0000  0.0000  0.0000  0.0000      0.0000  0.0000  0.0000  0.0000  0.0000  0.0000  0.0000  0.0000  0.0000  0.0000
  o =  0.2835  v =  0.0000  0.0000  1.0000  0.0000  0.0000  0.0000  0.0000  0.0000  0.0000  0.0000      0.0000  0.0000  0.0000  0.0000  0.0000  0.0000  0.0000  0.0000  0.0000  0.0000
  o =  0.2835  v =  0.0000  0.0000  0.0000  1.0000  0.0000  0.0000  0.0000  0.0000  0.0000  0.0000      0.0000  0.0000  0.0000  0.0000  0.0000  0.0000  0.0000  0.0000  0.0000  0.0000
  o =  0.2835  v =  0.0000  0.0000  0.0000  0.0000  1.0000  0.0000  0.0000  0.0000  0.0000  0.0000      0.0000  0.0000  0.0000  0.0000  0.0000  0.0000  0.0000  0.0000  0.0000  0.0000
  o =  0.7694  v =  0.0000  0.0000  0.0000  0.0000  0.0000  1.0000  0.0000  0.0000  0.0000  0.0000      0.0000  0.0000  0.0000  0.0000  0.0000  0.0000  0.0000  0.0000  0.0000  0.0000
  o =  0.7694  v =  0.0000  0.0000  0.0000  0.0000  0.0000  0.0000  1.0000  0.0000  0.0000  0.0000      0.0000  0.0000  0.0000  0.0000  0.0000  0.0000  0.0000  0.0000  0.0000  0.0000
  o =  0.7694  v =  0.0000  0.0000  0.0000  0.0000  0.0000  0.0000  0.0000  1.0000  0.0000  0.0000      0.0000  0.0000  0.0000  0.0000  0.0000  0.0000  0.0000  0.0000  0.0000  0.0000
  o =  0.7694  v =  0.0000  0.0000  0.0000  0.0000  0.0000  0.0000  0.0000  0.0000  1.0000  0.0000      0.0000  0.0000  0.0000  0.0000  0.0000  0.0000  0.0000  0.0000  0.0000  0.0000
  o =  0.7694  v =  0.0000  0.0000  0.0000  0.0000  0.0000  0.0000  0.0000  0.0000  0.0000  1.0000      0.0000  0.0000  0.0000  0.0000  0.0000  0.0000  0.0000  0.0000  0.0000  0.0000
atom =   2  type =  1  l = 2
 
 onsite density matrix
 
spin component  1
 
  0.7694  0.0000  0.0000  0.0000  0.0000
  0.0000  0.7694  0.0000  0.0000  0.0000
  0.0000  0.0000  0.7694  0.0000  0.0000
  0.0000  0.0000  0.0000  0.7694  0.0000
  0.0000  0.0000  0.0000  0.0000  0.7694
 
spin component  2
 
  0.2835  0.0000  0.0000  0.0000  0.0000
  0.0000  0.2835  0.0000  0.0000  0.0000
  0.0000  0.0000  0.2835  0.0000  0.0000
  0.0000  0.0000  0.0000  0.2835  0.0000
  0.0000  0.0000  0.0000  0.0000  0.2835
 
 occupancies and eigenvectors
 
  o =  0.2835  v =  0.0000  0.0000  0.0000  0.0000  0.0000  1.0000  0.0000  0.0000  0.0000  0.0000      0.0000  0.0000  0.0000  0.0000  0.0000  0.0000  0.0000  0.0000  0.0000  0.0000
  o =  0.2835  v =  0.0000  0.0000  0.0000  0.0000  0.0000  0.0000  1.0000  0.0000  0.0000  0.0000      0.0000  0.0000  0.0000  0.0000  0.0000  0.0000  0.0000  0.0000  0.0000  0.0000
  o =  0.2835  v =  0.0000  0.0000  0.0000  0.0000  0.0000  0.0000  0.0000  1.0000  0.0000  0.0000      0.0000  0.0000  0.0000  0.0000  0.0000  0.0000  0.0000  0.0000  0.0000  0.0000
  o =  0.2835  v =  0.0000  0.0000  0.0000  0.0000  0.0000  0.0000  0.0000  0.0000  1.0000  0.0000      0.0000  0.0000  0.0000  0.0000  0.0000  0.0000  0.0000  0.0000  0.0000  0.0000
  o =  0.2835  v =  0.0000  0.0000  0.0000  0.0000  0.0000  0.0000  0.0000  0.0000  0.0000  1.0000      0.0000  0.0000  0.0000  0.0000  0.0000  0.0000  0.0000  0.0000  0.0000  0.0000
  o =  0.7694  v =  1.0000  0.0000  0.0000  0.0000  0.0000  0.0000  0.0000  0.0000  0.0000  0.0000      0.0000  0.0000  0.0000  0.0000  0.0000  0.0000  0.0000  0.0000  0.0000  0.0000
  o =  0.7694  v =  0.0000  1.0000  0.0000  0.0000  0.0000  0.0000  0.0000  0.0000  0.0000  0.0000      0.0000  0.0000  0.0000  0.0000  0.0000  0.0000  0.0000  0.0000  0.0000  0.0000
  o =  0.7694  v =  0.0000  0.0000  1.0000  0.0000  0.0000  0.0000  0.0000  0.0000  0.0000  0.0000      0.0000  0.0000  0.0000  0.0000  0.0000  0.0000  0.0000  0.0000  0.0000  0.0000
  o =  0.7694  v =  0.0000  0.0000  0.0000  1.0000  0.0000  0.0000  0.0000  0.0000  0.0000  0.0000      0.0000  0.0000  0.0000  0.0000  0.0000  0.0000  0.0000  0.0000  0.0000  0.0000
  o =  0.7694  v =  0.0000  0.0000  0.0000  0.0000  1.0000  0.0000  0.0000  0.0000  0.0000  0.0000      0.0000  0.0000  0.0000  0.0000  0.0000  0.0000  0.0000  0.0000  0.0000  0.0000
     EDDAV:  cpu time    0.6842: real time    0.7025
 BZINTS: Fermi energy: 25.652349; 54.000000 electrons
         Band energy: 363.739223;  BLOECHL correction: -0.276784
       DOS:  cpu time    0.0068: real time    0.0068
    --------------------------------------------
      LOOP:  cpu time    1.5107: real time    1.5290

 eigenvalue-minimisations  :  1308
 total energy-change (2. order) : 0.9799501E+03  (-0.3743530E+04)
 number of electron      54.0000000 magnetization       0.0000000
 augmentation part       54.0000000 magnetization       0.0000000

 Free energy of the ion-electron system (eV)
  ---------------------------------------------------
  alpha Z        PSCENC =       195.37131285
  Ewald energy   TEWEN  =     -4173.42284800
  -Hartree energ DENC   =     -2149.26108698
  -exchange      EXHF   =         0.00000000
  -V(xc)+E(xc)   XCENC  =        -3.96111689
  PAW double counting   =      5566.43601843    -5507.96215856
  entropy T*S    EENTRO =         0.00000000
  eigenvalues    EBANDS =       363.73922276
  atomic energy  EATOM  =      6689.01075358
  Solvation  Ediel_sol  =         0.00000000
  ---------------------------------------------------
  free energy    TOTEN  =       979.95009718 eV

  energy without entropy =      979.95009718  energy(sigma->0) =      979.95009718


--------------------------------------------------------------------------------------------------------




--------------------------------------- Iteration      1(   2)  ---------------------------------------


     EDDAV:  cpu time    0.7489: real time    0.7490
 BZINTS: Fermi energy: 11.897679; 54.000000 electrons
         Band energy:-203.687719;  BLOECHL correction:  0.000000
       DOS:  cpu time    0.0014: real time    0.0014
    --------------------------------------------
      LOOP:  cpu time    0.7503: real time    0.7504

 eigenvalue-minimisations  :  1500
 total energy-change (2. order) :-0.5674269E+03  (-0.5415311E+03)
 number of electron      54.0000000 magnetization       0.0000000
 augmentation part       54.0000000 magnetization       0.0000000

 Free energy of the ion-electron system (eV)
  ---------------------------------------------------
  alpha Z        PSCENC =       195.37131285
  Ewald energy   TEWEN  =     -4173.42284800
  -Hartree energ DENC   =     -2149.26108698
  -exchange      EXHF   =         0.00000000
  -V(xc)+E(xc)   XCENC  =        -3.96111689
  PAW double counting   =      5566.43601843    -5507.96215856
  entropy T*S    EENTRO =         0.00000000
  eigenvalues    EBANDS =      -203.68771889
  atomic energy  EATOM  =      6689.01075358
  Solvation  Ediel_sol  =         0.00000000
  ---------------------------------------------------
  free energy    TOTEN  =       412.52315553 eV

  energy without entropy =      412.52315553  energy(sigma->0) =      412.52315553


--------------------------------------------------------------------------------------------------------




--------------------------------------- Iteration      1(   3)  ---------------------------------------


     EDDAV:  cpu time    0.7516: real time    0.7516
 BZINTS: Fermi energy:  9.697462; 54.000000 electrons
         Band energy:-239.616945;  BLOECHL correction:  0.000000
       DOS:  cpu time    0.0013: real time    0.0013
    --------------------------------------------
      LOOP:  cpu time    0.7530: real time    0.7530

 eigenvalue-minimisations  :  1512
 total energy-change (2. order) :-0.3592923E+02  (-0.3571671E+02)
 number of electron      54.0000000 magnetization       0.0000000
 augmentation part       54.0000000 magnetization       0.0000000

 Free energy of the ion-electron system (eV)
  ---------------------------------------------------
  alpha Z        PSCENC =       195.37131285
  Ewald energy   TEWEN  =     -4173.42284800
  -Hartree energ DENC   =     -2149.26108698
  -exchange      EXHF   =         0.00000000
  -V(xc)+E(xc)   XCENC  =        -3.96111689
  PAW double counting   =      5566.43601843    -5507.96215856
  entropy T*S    EENTRO =         0.00000000
  eigenvalues    EBANDS =      -239.61694505
  atomic energy  EATOM  =      6689.01075358
  Solvation  Ediel_sol  =         0.00000000
  ---------------------------------------------------
  free energy    TOTEN  =       376.59392937 eV

  energy without entropy =      376.59392937  energy(sigma->0) =      376.59392937


--------------------------------------------------------------------------------------------------------




--------------------------------------- Iteration      1(   4)  ---------------------------------------


     EDDAV:  cpu time    0.7358: real time    0.7358
 BZINTS: Fermi energy:  9.669795; 54.000000 electrons
         Band energy:-240.071949;  BLOECHL correction:  0.000000
       DOS:  cpu time    0.0011: real time    0.0011
    --------------------------------------------
      LOOP:  cpu time    0.7369: real time    0.7369

 eigenvalue-minimisations  :  1464
 total energy-change (2. order) :-0.4550039E+00  (-0.4545310E+00)
 number of electron      54.0000000 magnetization       0.0000000
 augmentation part       54.0000000 magnetization       0.0000000

 Free energy of the ion-electron system (eV)
  ---------------------------------------------------
  alpha Z        PSCENC =       195.37131285
  Ewald energy   TEWEN  =     -4173.42284800
  -Hartree energ DENC   =     -2149.26108698
  -exchange      EXHF   =         0.00000000
  -V(xc)+E(xc)   XCENC  =        -3.96111689
  PAW double counting   =      5566.43601843    -5507.96215856
  entropy T*S    EENTRO =         0.00000000
  eigenvalues    EBANDS =      -240.07194892
  atomic energy  EATOM  =      6689.01075358
  Solvation  Ediel_sol  =         0.00000000
  ---------------------------------------------------
  free energy    TOTEN  =       376.13892550 eV

  energy without entropy =      376.13892550  energy(sigma->0) =      376.13892550


--------------------------------------------------------------------------------------------------------




--------------------------------------- Iteration      1(   5)  ---------------------------------------


     EDDAV:  cpu time    0.7639: real time    0.7640
 BZINTS: Fermi energy:  9.626378; 54.000000 electrons
         Band energy:-240.079526;  BLOECHL correction:  0.000000
       DOS:  cpu time    0.0011: real time    0.0011
    CHARGE:  cpu time    0.1449: real time    0.1450
    MIXING:  cpu time    0.0005: real time    0.0005
    --------------------------------------------
      LOOP:  cpu time    0.9105: real time    0.9106

 eigenvalue-minimisations  :  1536
 total energy-change (2. order) :-0.7576865E-02  (-0.7576653E-02)
 number of electron      54.0000011 magnetization       0.0000000
 augmentation part       22.5767906 magnetization       0.0000000

 Broyden mixing:
  rms(total) = 0.59310E+01    rms(broyden)= 0.59305E+01
  rms(prec ) = 0.61213E+01
  weight for this iteration     100.00

 Free energy of the ion-electron system (eV)
  ---------------------------------------------------
  alpha Z        PSCENC =       195.37131285
  Ewald energy   TEWEN  =     -4173.42284800
  -Hartree energ DENC   =     -2149.26108698
  -exchange      EXHF   =         0.00000000
  -V(xc)+E(xc)   XCENC  =        -3.96111689
  PAW double counting   =      5566.43601843    -5507.96215856
  entropy T*S    EENTRO =         0.00000000
  eigenvalues    EBANDS =      -240.07952578
  atomic energy  EATOM  =      6689.01075358
  Solvation  Ediel_sol  =         0.00000000
  ---------------------------------------------------
  free energy    TOTEN  =       376.13134864 eV

  energy without entropy =      376.13134864  energy(sigma->0) =      376.13134864


--------------------------------------------------------------------------------------------------------




--------------------------------------- Iteration      1(   6)  ---------------------------------------


    POTLOK:  cpu time    0.0328: real time    0.0328
    SETDIJ:  cpu time    0.7974: real time    0.7974
atom =   1  type =  1  l = 2
 
 onsite density matrix
 
spin component  1
 
 -0.0236  0.0000  0.0470  0.0000 -0.0000
  0.0000 -0.0433  0.0000  0.0450  0.0000
  0.0470  0.0000 -0.0503  0.0000 -0.0000
  0.0000  0.0450  0.0000 -0.0433  0.0000
 -0.0000  0.0000 -0.0000  0.0000 -0.0947
 
spin component  2
 
  1.0949  0.0000 -0.0198  0.0000  0.0000
  0.0000  1.1040  0.0000 -0.0196  0.0000
 -0.0198  0.0000  1.1061  0.0000  0.0000
  0.0000 -0.0196  0.0000  1.1040  0.0000
  0.0000  0.0000  0.0000  0.0000  1.1261
 
 occupancies and eigenvectors
 
  o = -0.0947  v =  0.0000 -0.0000 -0.0000  0.0000 -1.0000  0.0000  0.0000  0.0000  0.0000  0.0000      0.0000  0.0000  0.0000  0.0000  0.0000  0.0000  0.0000  0.0000  0.0000  0.0000
  o = -0.0883  v =  0.0000 -0.7071  0.0000  0.7071  0.0000  0.0000  0.0000  0.0000  0.0000  0.0000      0.0000  0.0000  0.0000  0.0000  0.0000  0.0000  0.0000  0.0000  0.0000  0.0000
  o = -0.0859  v = -0.6028 -0.0000  0.7979  0.0000 -0.0000  0.0000  0.0000  0.0000  0.0000  0.0000      0.0000  0.0000  0.0000  0.0000  0.0000  0.0000  0.0000  0.0000  0.0000  0.0000
  o =  0.0017  v =  0.0000  0.7071  0.0000  0.7071 -0.0000  0.0000  0.0000  0.0000  0.0000  0.0000      0.0000  0.0000  0.0000  0.0000  0.0000  0.0000  0.0000  0.0000  0.0000  0.0000
  o =  0.0119  v =  0.7979 -0.0000  0.6028  0.0000 -0.0000  0.0000  0.0000  0.0000  0.0000  0.0000      0.0000  0.0000  0.0000  0.0000  0.0000  0.0000  0.0000  0.0000  0.0000  0.0000
  o =  1.0799  v =  0.0000  0.0000  0.0000  0.0000  0.0000  0.7973 -0.0000  0.6036 -0.0000 -0.0000      0.0000  0.0000  0.0000  0.0000  0.0000  0.0000  0.0000  0.0000  0.0000  0.0000
  o =  1.0845  v =  0.0000  0.0000  0.0000  0.0000  0.0000  0.0000  0.7071  0.0000  0.7071  0.0000      0.0000  0.0000  0.0000  0.0000  0.0000  0.0000  0.0000  0.0000  0.0000  0.0000
  o =  1.1210  v =  0.0000  0.0000  0.0000  0.0000  0.0000 -0.6036 -0.0000  0.7973  0.0000 -0.0000      0.0000  0.0000  0.0000  0.0000  0.0000  0.0000  0.0000  0.0000  0.0000  0.0000
  o =  1.1236  v =  0.0000  0.0000  0.0000  0.0000  0.0000 -0.0000  0.7071  0.0000 -0.7071  0.0000      0.0000  0.0000  0.0000  0.0000  0.0000  0.0000  0.0000  0.0000  0.0000  0.0000
  o =  1.1261  v =  0.0000  0.0000  0.0000  0.0000  0.0000  0.0000  0.0000 -0.0000 -0.0000 -1.0000      0.0000  0.0000  0.0000  0.0000  0.0000  0.0000  0.0000  0.0000  0.0000  0.0000
atom =   2  type =  1  l = 2
 
 onsite density matrix
 
spin component  1
 
  1.0949  0.0000  0.0198  0.0000 -0.0000
  0.0000  1.1040  0.0000  0.0196  0.0000
  0.0198  0.0000  1.1061  0.0000 -0.0000
  0.0000  0.0196  0.0000  1.1040  0.0000
 -0.0000  0.0000 -0.0000  0.0000  1.1261
 
spin component  2
 
 -0.0236  0.0000 -0.0470  0.0000  0.0000
  0.0000 -0.0433  0.0000 -0.0450  0.0000
 -0.0470  0.0000 -0.0503  0.0000  0.0000
  0.0000 -0.0450  0.0000 -0.0433  0.0000
  0.0000  0.0000  0.0000  0.0000 -0.0947
 
 occupancies and eigenvectors
 
  o = -0.0947  v =  0.0000  0.0000  0.0000  0.0000  0.0000  0.0000  0.0000  0.0000  0.0000 -1.0000      0.0000  0.0000  0.0000  0.0000  0.0000  0.0000  0.0000  0.0000  0.0000  0.0000
  o = -0.0883  v =  0.0000  0.0000  0.0000  0.0000  0.0000  0.0000 -0.7071  0.0000 -0.7071 -0.0000      0.0000  0.0000  0.0000  0.0000  0.0000  0.0000  0.0000  0.0000  0.0000  0.0000
  o = -0.0859  v =  0.0000  0.0000  0.0000  0.0000  0.0000 -0.6028  0.0000 -0.7979  0.0000 -0.0000      0.0000  0.0000  0.0000  0.0000  0.0000  0.0000  0.0000  0.0000  0.0000  0.0000
  o =  0.0017  v =  0.0000  0.0000  0.0000  0.0000  0.0000  0.0000  0.7071  0.0000 -0.7071  0.0000      0.0000  0.0000  0.0000  0.0000  0.0000  0.0000  0.0000  0.0000  0.0000  0.0000
  o =  0.0119  v =  0.0000  0.0000  0.0000  0.0000  0.0000  0.7979  0.0000 -0.6028  0.0000 -0.0000      0.0000  0.0000  0.0000  0.0000  0.0000  0.0000  0.0000  0.0000  0.0000  0.0000
  o =  1.0799  v =  0.7973 -0.0000 -0.6036  0.0000 -0.0000  0.0000  0.0000  0.0000  0.0000  0.0000      0.0000  0.0000  0.0000  0.0000  0.0000  0.0000  0.0000  0.0000  0.0000  0.0000
  o =  1.0845  v =  0.0000  0.7071  0.0000 -0.7071 -0.0000  0.0000  0.0000  0.0000  0.0000  0.0000      0.0000  0.0000  0.0000  0.0000  0.0000  0.0000  0.0000  0.0000  0.0000  0.0000
  o =  1.1210  v =  0.6036  0.0000  0.7973  0.0000  0.0000  0.0000  0.0000  0.0000  0.0000  0.0000      0.0000  0.0000  0.0000  0.0000  0.0000  0.0000  0.0000  0.0000  0.0000  0.0000
  o =  1.1236  v =  0.0000  0.7071  0.0000  0.7071 -0.0000  0.0000  0.0000  0.0000  0.0000  0.0000      0.0000  0.0000  0.0000  0.0000  0.0000  0.0000  0.0000  0.0000  0.0000  0.0000
  o =  1.1261  v =  0.0000 -0.0000  0.0000  0.0000 -1.0000  0.0000  0.0000  0.0000  0.0000  0.0000      0.0000  0.0000  0.0000  0.0000  0.0000  0.0000  0.0000  0.0000  0.0000  0.0000
     EDDAV:  cpu time    0.8384: real time    0.8384
 BZINTS: Fermi energy:  2.944115; 54.000000 electrons
         Band energy:-776.878528;  BLOECHL correction:  0.000000
       DOS:  cpu time    0.0014: real time    0.0014
    CHARGE:  cpu time    0.1428: real time    0.1428
    MIXING:  cpu time    0.0005: real time    0.0005
    --------------------------------------------
      LOOP:  cpu time    1.8133: real time    1.8134

 eigenvalue-minimisations  :  1776
 total energy-change (2. order) :-0.4394630E+03  (-0.2554589E+02)
 number of electron      54.0000010 magnetization       0.0000000
 augmentation part       20.0635178 magnetization       0.0000000

 Broyden mixing:
  rms(total) = 0.58858E+01    rms(broyden)= 0.58856E+01
  rms(prec ) = 0.61450E+01
  weight for this iteration     100.00

 eigenvalues of (default mixing * dielectric matrix)
  average eigenvalue GAMMA=   0.4333
  0.4333

 Free energy of the ion-electron system (eV)
  ---------------------------------------------------
  alpha Z        PSCENC =       195.37131285
  Ewald energy   TEWEN  =     -4173.42284800
  -Hartree energ DENC   =     -2214.24157834
  -exchange      EXHF   =         0.00000000
  -V(xc)+E(xc)   XCENC  =       145.77903860
  PAW double counting   =      6405.54648256    -6334.49624315
  entropy T*S    EENTRO =         0.00000000
  eigenvalues    EBANDS =      -776.87852803
  atomic energy  EATOM  =      6689.01075358
  Solvation  Ediel_sol  =         0.00000000
  ---------------------------------------------------
  free energy    TOTEN  =       -63.33160993 eV

  energy without entropy =      -63.33160993  energy(sigma->0) =      -63.33160993


--------------------------------------------------------------------------------------------------------




--------------------------------------- Iteration      1(   7)  ---------------------------------------


    POTLOK:  cpu time    0.0321: real time    0.0321
    SETDIJ:  cpu time    0.7838: real time    0.7838
atom =   1  type =  1  l = 2
 
 onsite density matrix
 
spin component  1
 
  0.0348  0.0000  0.0159  0.0000  0.0000
  0.0000  0.0291  0.0000  0.0154  0.0000
  0.0159  0.0000  0.0261  0.0000 -0.0000
  0.0000  0.0154  0.0000  0.0291  0.0000
  0.0000  0.0000 -0.0000  0.0000  0.0095
 
spin component  2
 
  1.0240  0.0000  0.0141  0.0000  0.0000
  0.0000  1.0174  0.0000  0.0126  0.0000
  0.0141  0.0000  1.0159  0.0000  0.0000
  0.0000  0.0126  0.0000  1.0174  0.0000
  0.0000  0.0000  0.0000  0.0000  1.0065
 
 occupancies and eigenvectors
 
  o =  0.0095  v =  0.0000  0.0000 -0.0000  0.0000 -1.0000  0.0000  0.0000  0.0000  0.0000  0.0000      0.0000  0.0000  0.0000  0.0000  0.0000  0.0000  0.0000  0.0000  0.0000  0.0000
  o =  0.0138  v =  0.0000  0.7071  0.0000 -0.7071  0.0000  0.0000  0.0000  0.0000  0.0000  0.0000      0.0000  0.0000  0.0000  0.0000  0.0000  0.0000  0.0000  0.0000  0.0000  0.0000
  o =  0.0140  v = -0.6064  0.0000  0.7952  0.0000 -0.0000  0.0000  0.0000  0.0000  0.0000  0.0000      0.0000  0.0000  0.0000  0.0000  0.0000  0.0000  0.0000  0.0000  0.0000  0.0000
  o =  0.0445  v =  0.0000  0.7071  0.0000  0.7071  0.0000  0.0000  0.0000  0.0000  0.0000  0.0000      0.0000  0.0000  0.0000  0.0000  0.0000  0.0000  0.0000  0.0000  0.0000  0.0000
  o =  0.0469  v = -0.7952 -0.0000 -0.6064  0.0000  0.0000  0.0000  0.0000  0.0000  0.0000  0.0000      0.0000  0.0000  0.0000  0.0000  0.0000  0.0000  0.0000  0.0000  0.0000  0.0000
  o =  1.0048  v =  0.0000  0.0000  0.0000  0.0000  0.0000  0.0000 -0.7071 -0.0000  0.7071  0.0000      0.0000  0.0000  0.0000  0.0000  0.0000  0.0000  0.0000  0.0000  0.0000  0.0000
  o =  1.0053  v =  0.0000  0.0000  0.0000  0.0000  0.0000 -0.6027 -0.0000  0.7980  0.0000 -0.0000      0.0000  0.0000  0.0000  0.0000  0.0000  0.0000  0.0000  0.0000  0.0000  0.0000
  o =  1.0065  v =  0.0000  0.0000  0.0000  0.0000  0.0000 -0.0000  0.0000  0.0000 -0.0000  1.0000      0.0000  0.0000  0.0000  0.0000  0.0000  0.0000  0.0000  0.0000  0.0000  0.0000
  o =  1.0299  v =  0.0000  0.0000  0.0000  0.0000  0.0000 -0.0000 -0.7071 -0.0000 -0.7071  0.0000      0.0000  0.0000  0.0000  0.0000  0.0000  0.0000  0.0000  0.0000  0.0000  0.0000
  o =  1.0346  v =  0.0000  0.0000  0.0000  0.0000  0.0000 -0.7980  0.0000 -0.6027  0.0000 -0.0000      0.0000  0.0000  0.0000  0.0000  0.0000  0.0000  0.0000  0.0000  0.0000  0.0000
atom =   2  type =  1  l = 2
 
 onsite density matrix
 
spin component  1
 
  1.0240  0.0000 -0.0141  0.0000 -0.0000
  0.0000  1.0174  0.0000 -0.0126  0.0000
 -0.0141  0.0000  1.0159  0.0000 -0.0000
  0.0000 -0.0126  0.0000  1.0174  0.0000
 -0.0000  0.0000 -0.0000  0.0000  1.0065
 
spin component  2
 
  0.0348  0.0000 -0.0159  0.0000 -0.0000
  0.0000  0.0291  0.0000 -0.0154  0.0000
 -0.0159  0.0000  0.0261  0.0000  0.0000
  0.0000 -0.0154  0.0000  0.0291  0.0000
 -0.0000  0.0000  0.0000  0.0000  0.0095
 
 occupancies and eigenvectors
 
  o =  0.0095  v =  0.0000  0.0000  0.0000  0.0000  0.0000  0.0000 -0.0000  0.0000  0.0000 -1.0000      0.0000  0.0000  0.0000  0.0000  0.0000  0.0000  0.0000  0.0000  0.0000  0.0000
  o =  0.0138  v =  0.0000  0.0000  0.0000  0.0000  0.0000  0.0000  0.7071  0.0000  0.7071 -0.0000      0.0000  0.0000  0.0000  0.0000  0.0000  0.0000  0.0000  0.0000  0.0000  0.0000
  o =  0.0140  v =  0.0000  0.0000  0.0000  0.0000  0.0000 -0.6064 -0.0000 -0.7952  0.0000 -0.0000      0.0000  0.0000  0.0000  0.0000  0.0000  0.0000  0.0000  0.0000  0.0000  0.0000
  o =  0.0445  v =  0.0000  0.0000  0.0000  0.0000  0.0000  0.0000  0.7071  0.0000 -0.7071 -0.0000      0.0000  0.0000  0.0000  0.0000  0.0000  0.0000  0.0000  0.0000  0.0000  0.0000
  o =  0.0469  v =  0.0000  0.0000  0.0000  0.0000  0.0000 -0.7952  0.0000  0.6064  0.0000  0.0000      0.0000  0.0000  0.0000  0.0000  0.0000  0.0000  0.0000  0.0000  0.0000  0.0000
  o =  1.0048  v =  0.0000  0.7071  0.0000  0.7071 -0.0000  0.0000  0.0000  0.0000  0.0000  0.0000      0.0000  0.0000  0.0000  0.0000  0.0000  0.0000  0.0000  0.0000  0.0000  0.0000
  o =  1.0053  v = -0.6027  0.0000 -0.7980  0.0000 -0.0000  0.0000  0.0000  0.0000  0.0000  0.0000      0.0000  0.0000  0.0000  0.0000  0.0000  0.0000  0.0000  0.0000  0.0000  0.0000
  o =  1.0065  v =  0.0000  0.0000 -0.0000  0.0000  1.0000  0.0000  0.0000  0.0000  0.0000  0.0000      0.0000  0.0000  0.0000  0.0000  0.0000  0.0000  0.0000  0.0000  0.0000  0.0000
  o =  1.0299  v =  0.0000  0.7071 -0.0000 -0.7071  0.0000  0.0000  0.0000  0.0000  0.0000  0.0000      0.0000  0.0000  0.0000  0.0000  0.0000  0.0000  0.0000  0.0000  0.0000  0.0000
  o =  1.0346  v = -0.7980  0.0000  0.6027  0.0000  0.0000  0.0000  0.0000  0.0000  0.0000  0.0000      0.0000  0.0000  0.0000  0.0000  0.0000  0.0000  0.0000  0.0000  0.0000  0.0000
     EDDAV:  cpu time    0.7193: real time    0.7195
 BZINTS: Fermi energy:  1.727223; 54.000000 electrons
         Band energy:-806.805728;  BLOECHL correction:  0.000000
       DOS:  cpu time    0.0013: real time    0.0013
    CHARGE:  cpu time    0.1451: real time    0.1451
    MIXING:  cpu time    0.0006: real time    0.0006
    --------------------------------------------
      LOOP:  cpu time    1.6823: real time    1.6825

 eigenvalue-minimisations  :  1392
 total energy-change (2. order) :-0.5366053E+01  (-0.4995720E+01)
 number of electron      54.0000009 magnetization       0.0000000
 augmentation part       19.8445609 magnetization       0.0000000

 Broyden mixing:
  rms(total) = 0.14356E+01    rms(broyden)= 0.14354E+01
  rms(prec ) = 0.20669E+01
  weight for this iteration     100.00

 eigenvalues of (default mixing * dielectric matrix)
  average eigenvalue GAMMA=   0.7251
  0.7251  0.7251

 Free energy of the ion-electron system (eV)
  ---------------------------------------------------
  alpha Z        PSCENC =       195.37131285
  Ewald energy   TEWEN  =     -4173.42284800
  -Hartree energ DENC   =     -2203.35857916
  -exchange      EXHF   =         0.00000000
  -V(xc)+E(xc)   XCENC  =       165.64065780
  PAW double counting   =      6486.05131951    -6421.18455154
  entropy T*S    EENTRO =         0.00000000
  eigenvalues    EBANDS =      -806.80572792
  atomic energy  EATOM  =      6689.01075358
  Solvation  Ediel_sol  =         0.00000000
  ---------------------------------------------------
  free energy    TOTEN  =       -68.69766288 eV

  energy without entropy =      -68.69766288  energy(sigma->0) =      -68.69766288


--------------------------------------------------------------------------------------------------------




--------------------------------------- Iteration      1(   8)  ---------------------------------------


    POTLOK:  cpu time    0.0327: real time    0.0327
    SETDIJ:  cpu time    0.7847: real time    0.7847
atom =   1  type =  1  l = 2
 
 onsite density matrix
 
spin component  1
 
  0.0421  0.0000  0.0189  0.0000  0.0000
  0.0000  0.0328  0.0000  0.0173  0.0000
  0.0189  0.0000  0.0314  0.0000 -0.0000
  0.0000  0.0173  0.0000  0.0328  0.0000
  0.0000  0.0000 -0.0000  0.0000  0.0143
 
spin component  2
 
  0.9958  0.0000  0.0119  0.0000  0.0000
  0.0000  0.9937  0.0000  0.0105  0.0000
  0.0119  0.0000  0.9894  0.0000  0.0000
  0.0000  0.0105  0.0000  0.9937  0.0000
  0.0000  0.0000  0.0000  0.0000  0.9821
 
 occupancies and eigenvectors
 
  o =  0.0143  v =  0.0000  0.0000 -0.0000  0.0000 -1.0000  0.0000  0.0000  0.0000  0.0000  0.0000      0.0000  0.0000  0.0000  0.0000  0.0000  0.0000  0.0000  0.0000  0.0000  0.0000
  o =  0.0155  v =  0.0000  0.7071  0.0000 -0.7071  0.0000  0.0000  0.0000  0.0000  0.0000  0.0000      0.0000  0.0000  0.0000  0.0000  0.0000  0.0000  0.0000  0.0000  0.0000  0.0000
  o =  0.0171  v = -0.6029  0.0000  0.7978  0.0000 -0.0000  0.0000  0.0000  0.0000  0.0000  0.0000      0.0000  0.0000  0.0000  0.0000  0.0000  0.0000  0.0000  0.0000  0.0000  0.0000
  o =  0.0502  v =  0.0000  0.7071  0.0000  0.7071  0.0000  0.0000  0.0000  0.0000  0.0000  0.0000      0.0000  0.0000  0.0000  0.0000  0.0000  0.0000  0.0000  0.0000  0.0000  0.0000
  o =  0.0564  v = -0.7978 -0.0000 -0.6029  0.0000  0.0000  0.0000  0.0000  0.0000  0.0000  0.0000      0.0000  0.0000  0.0000  0.0000  0.0000  0.0000  0.0000  0.0000  0.0000  0.0000
  o =  0.9803  v =  0.0000  0.0000  0.0000  0.0000  0.0000 -0.6094  0.0000  0.7928  0.0000  0.0000      0.0000  0.0000  0.0000  0.0000  0.0000  0.0000  0.0000  0.0000  0.0000  0.0000
  o =  0.9821  v =  0.0000  0.0000  0.0000  0.0000  0.0000  0.0000  0.0000 -0.0000 -0.0000  1.0000      0.0000  0.0000  0.0000  0.0000  0.0000  0.0000  0.0000  0.0000  0.0000  0.0000
  o =  0.9833  v =  0.0000  0.0000  0.0000  0.0000  0.0000  0.0000 -0.7071 -0.0000  0.7071  0.0000      0.0000  0.0000  0.0000  0.0000  0.0000  0.0000  0.0000  0.0000  0.0000  0.0000
  o =  1.0042  v =  0.0000  0.0000  0.0000  0.0000  0.0000  0.0000 -0.7071 -0.0000 -0.7071  0.0000      0.0000  0.0000  0.0000  0.0000  0.0000  0.0000  0.0000  0.0000  0.0000  0.0000
  o =  1.0049  v =  0.0000  0.0000  0.0000  0.0000  0.0000 -0.7928  0.0000 -0.6094  0.0000 -0.0000      0.0000  0.0000  0.0000  0.0000  0.0000  0.0000  0.0000  0.0000  0.0000  0.0000
atom =   2  type =  1  l = 2
 
 onsite density matrix
 
spin component  1
 
  0.9958  0.0000 -0.0119  0.0000  0.0000
  0.0000  0.9937  0.0000 -0.0105  0.0000
 -0.0119  0.0000  0.9894  0.0000 -0.0000
  0.0000 -0.0105  0.0000  0.9937  0.0000
  0.0000  0.0000 -0.0000  0.0000  0.9821
 
spin component  2
 
  0.0421  0.0000 -0.0189  0.0000  0.0000
  0.0000  0.0328  0.0000 -0.0173  0.0000
 -0.0189  0.0000  0.0314  0.0000 -0.0000
  0.0000 -0.0173  0.0000  0.0328  0.0000
  0.0000  0.0000 -0.0000  0.0000  0.0143
 
 occupancies and eigenvectors
 
  o =  0.0143  v =  0.0000  0.0000  0.0000  0.0000  0.0000  0.0000 -0.0000  0.0000  0.0000  1.0000      0.0000  0.0000  0.0000  0.0000  0.0000  0.0000  0.0000  0.0000  0.0000  0.0000
  o =  0.0155  v =  0.0000  0.0000  0.0000  0.0000  0.0000  0.0000 -0.7071  0.0000 -0.7071 -0.0000      0.0000  0.0000  0.0000  0.0000  0.0000  0.0000  0.0000  0.0000  0.0000  0.0000
  o =  0.0171  v =  0.0000  0.0000  0.0000  0.0000  0.0000 -0.6029 -0.0000 -0.7978  0.0000  0.0000      0.0000  0.0000  0.0000  0.0000  0.0000  0.0000  0.0000  0.0000  0.0000  0.0000
  o =  0.0502  v =  0.0000  0.0000  0.0000  0.0000  0.0000  0.0000  0.7071  0.0000 -0.7071  0.0000      0.0000  0.0000  0.0000  0.0000  0.0000  0.0000  0.0000  0.0000  0.0000  0.0000
  o =  0.0564  v =  0.0000  0.0000  0.0000  0.0000  0.0000 -0.7978  0.0000  0.6029  0.0000 -0.0000      0.0000  0.0000  0.0000  0.0000  0.0000  0.0000  0.0000  0.0000  0.0000  0.0000
  o =  0.9803  v = -0.6094  0.0000 -0.7928  0.0000 -0.0000  0.0000  0.0000  0.0000  0.0000  0.0000      0.0000  0.0000  0.0000  0.0000  0.0000  0.0000  0.0000  0.0000  0.0000  0.0000
  o =  0.9821  v = -0.0000 -0.0000 -0.0000 -0.0000  1.0000  0.0000  0.0000  0.0000  0.0000  0.0000      0.0000  0.0000  0.0000  0.0000  0.0000  0.0000  0.0000  0.0000  0.0000  0.0000
  o =  0.9833  v = -0.0000 -0.7071 -0.0000 -0.7071 -0.0000  0.0000  0.0000  0.0000  0.0000  0.0000      0.0000  0.0000  0.0000  0.0000  0.0000  0.0000  0.0000  0.0000  0.0000  0.0000
  o =  1.0042  v = -0.0000 -0.7071  0.0000  0.7071  0.0000  0.0000  0.0000  0.0000  0.0000  0.0000      0.0000  0.0000  0.0000  0.0000  0.0000  0.0000  0.0000  0.0000  0.0000  0.0000
  o =  1.0049  v = -0.7928  0.0000  0.6094 -0.0000 -0.0000  0.0000  0.0000  0.0000  0.0000  0.0000      0.0000  0.0000  0.0000  0.0000  0.0000  0.0000  0.0000  0.0000  0.0000  0.0000
     EDDAV:  cpu time    0.8206: real time    0.8206
 BZINTS: Fermi energy:  0.736729; 54.000000 electrons
         Band energy:-816.097130;  BLOECHL correction:  0.000000
       DOS:  cpu time    0.0013: real time    0.0013
    CHARGE:  cpu time    0.1446: real time    0.1446
    MIXING:  cpu time    0.0006: real time    0.0006
    --------------------------------------------
      LOOP:  cpu time    1.7845: real time    1.7845

 eigenvalue-minimisations  :  1692
 total energy-change (2. order) : 0.2079394E+01  (-0.4804991E+00)
 number of electron      54.0000009 magnetization       0.0000000
 augmentation part       19.9292680 magnetization       0.0000000

 Broyden mixing:
  rms(total) = 0.50832E+00    rms(broyden)= 0.50813E+00
  rms(prec ) = 0.79810E+00
  weight for this iteration     100.00

 eigenvalues of (default mixing * dielectric matrix)
  average eigenvalue GAMMA=   0.7855
  1.0805  0.6379  0.6379

 Free energy of the ion-electron system (eV)
  ---------------------------------------------------
  alpha Z        PSCENC =       195.37131285
  Ewald energy   TEWEN  =     -4173.42284800
  -Hartree energ DENC   =     -2196.09869965
  -exchange      EXHF   =         0.00000000
  -V(xc)+E(xc)   XCENC  =       169.55926552
  PAW double counting   =      6436.32681016    -6371.26773371
  entropy T*S    EENTRO =         0.00000000
  eigenvalues    EBANDS =      -816.09712983
  atomic energy  EATOM  =      6689.01075358
  Solvation  Ediel_sol  =         0.00000000
  ---------------------------------------------------
  free energy    TOTEN  =       -66.61826908 eV

  energy without entropy =      -66.61826908  energy(sigma->0) =      -66.61826908


--------------------------------------------------------------------------------------------------------




--------------------------------------- Iteration      1(   9)  ---------------------------------------


    POTLOK:  cpu time    0.0324: real time    0.0324
    SETDIJ:  cpu time    0.7798: real time    0.7798
atom =   1  type =  1  l = 2
 
 onsite density matrix
 
spin component  1
 
  0.0413  0.0000  0.0126  0.0000  0.0000
  0.0000  0.0388  0.0000  0.0108  0.0000
  0.0126  0.0000  0.0347  0.0000 -0.0000
  0.0000  0.0108  0.0000  0.0388  0.0000
  0.0000  0.0000 -0.0000  0.0000  0.0256
 
spin component  2
 
  0.9753  0.0000  0.0208  0.0000 -0.0000
  0.0000  0.9669  0.0000  0.0183  0.0000
  0.0208  0.0000  0.9635  0.0000 -0.0000
  0.0000  0.0183  0.0000  0.9669  0.0000
 -0.0000  0.0000 -0.0000  0.0000  0.9490
 
 occupancies and eigenvectors
 
  o =  0.0249  v = -0.6118 -0.0000  0.7910  0.0000  0.0000  0.0000  0.0000  0.0000  0.0000  0.0000      0.0000  0.0000  0.0000  0.0000  0.0000  0.0000  0.0000  0.0000  0.0000  0.0000
  o =  0.0256  v = -0.0000  0.0000  0.0000  0.0000 -1.0000  0.0000  0.0000  0.0000  0.0000  0.0000      0.0000  0.0000  0.0000  0.0000  0.0000  0.0000  0.0000  0.0000  0.0000  0.0000
  o =  0.0280  v =  0.0000  0.7071  0.0000 -0.7071  0.0000  0.0000  0.0000  0.0000  0.0000  0.0000      0.0000  0.0000  0.0000  0.0000  0.0000  0.0000  0.0000  0.0000  0.0000  0.0000
  o =  0.0495  v =  0.0000 -0.7071  0.0000 -0.7071 -0.0000  0.0000  0.0000  0.0000  0.0000  0.0000      0.0000  0.0000  0.0000  0.0000  0.0000  0.0000  0.0000  0.0000  0.0000  0.0000
  o =  0.0510  v = -0.7910 -0.0000 -0.6118  0.0000  0.0000  0.0000  0.0000  0.0000  0.0000  0.0000      0.0000  0.0000  0.0000  0.0000  0.0000  0.0000  0.0000  0.0000  0.0000  0.0000
  o =  0.9478  v =  0.0000  0.0000  0.0000  0.0000  0.0000 -0.6029  0.0000  0.7978  0.0000 -0.0000      0.0000  0.0000  0.0000  0.0000  0.0000  0.0000  0.0000  0.0000  0.0000  0.0000
  o =  0.9486  v =  0.0000  0.0000  0.0000  0.0000  0.0000  0.0000  0.7071  0.0000 -0.7071 -0.0000      0.0000  0.0000  0.0000  0.0000  0.0000  0.0000  0.0000  0.0000  0.0000  0.0000
  o =  0.9490  v =  0.0000  0.0000  0.0000  0.0000  0.0000  0.0000 -0.0000 -0.0000  0.0000 -1.0000      0.0000  0.0000  0.0000  0.0000  0.0000  0.0000  0.0000  0.0000  0.0000  0.0000
  o =  0.9852  v =  0.0000  0.0000  0.0000  0.0000  0.0000  0.0000  0.7071  0.0000  0.7071 -0.0000      0.0000  0.0000  0.0000  0.0000  0.0000  0.0000  0.0000  0.0000  0.0000  0.0000
  o =  0.9910  v =  0.0000  0.0000  0.0000  0.0000  0.0000 -0.7978  0.0000 -0.6029  0.0000  0.0000      0.0000  0.0000  0.0000  0.0000  0.0000  0.0000  0.0000  0.0000  0.0000  0.0000
atom =   2  type =  1  l = 2
 
 onsite density matrix
 
spin component  1
 
  0.9753  0.0000 -0.0208  0.0000  0.0000
  0.0000  0.9669  0.0000 -0.0183  0.0000
 -0.0208  0.0000  0.9635  0.0000  0.0000
  0.0000 -0.0183  0.0000  0.9669  0.0000
  0.0000  0.0000  0.0000  0.0000  0.9490
 
spin component  2
 
  0.0413  0.0000 -0.0126  0.0000 -0.0000
  0.0000  0.0388  0.0000 -0.0108  0.0000
 -0.0126  0.0000  0.0347  0.0000  0.0000
  0.0000 -0.0108  0.0000  0.0388  0.0000
 -0.0000  0.0000  0.0000  0.0000  0.0256
 
 occupancies and eigenvectors
 
  o =  0.0249  v =  0.0000  0.0000  0.0000  0.0000  0.0000 -0.6118  0.0000 -0.7910  0.0000  0.0000      0.0000  0.0000  0.0000  0.0000  0.0000  0.0000  0.0000  0.0000  0.0000  0.0000
  o =  0.0256  v =  0.0000  0.0000  0.0000  0.0000  0.0000 -0.0000 -0.0000 -0.0000  0.0000 -1.0000      0.0000  0.0000  0.0000  0.0000  0.0000  0.0000  0.0000  0.0000  0.0000  0.0000
  o =  0.0280  v =  0.0000  0.0000  0.0000  0.0000  0.0000  0.0000  0.7071  0.0000  0.7071 -0.0000      0.0000  0.0000  0.0000  0.0000  0.0000  0.0000  0.0000  0.0000  0.0000  0.0000
  o =  0.0495  v =  0.0000  0.0000  0.0000  0.0000  0.0000  0.0000  0.7071  0.0000 -0.7071 -0.0000      0.0000  0.0000  0.0000  0.0000  0.0000  0.0000  0.0000  0.0000  0.0000  0.0000
  o =  0.0510  v =  0.0000  0.0000  0.0000  0.0000  0.0000 -0.7910  0.0000  0.6118  0.0000  0.0000      0.0000  0.0000  0.0000  0.0000  0.0000  0.0000  0.0000  0.0000  0.0000  0.0000
  o =  0.9478  v = -0.6029  0.0000 -0.7978  0.0000  0.0000  0.0000  0.0000  0.0000  0.0000  0.0000      0.0000  0.0000  0.0000  0.0000  0.0000  0.0000  0.0000  0.0000  0.0000  0.0000
  o =  0.9486  v =  0.0000  0.7071  0.0000  0.7071  0.0000  0.0000  0.0000  0.0000  0.0000  0.0000      0.0000  0.0000  0.0000  0.0000  0.0000  0.0000  0.0000  0.0000  0.0000  0.0000
  o =  0.9490  v =  0.0000  0.0000 -0.0000  0.0000 -1.0000  0.0000  0.0000  0.0000  0.0000  0.0000      0.0000  0.0000  0.0000  0.0000  0.0000  0.0000  0.0000  0.0000  0.0000  0.0000
  o =  0.9852  v =  0.0000 -0.7071  0.0000  0.7071  0.0000  0.0000  0.0000  0.0000  0.0000  0.0000      0.0000  0.0000  0.0000  0.0000  0.0000  0.0000  0.0000  0.0000  0.0000  0.0000
  o =  0.9910  v = -0.7978  0.0000  0.6029  0.0000 -0.0000  0.0000  0.0000  0.0000  0.0000  0.0000      0.0000  0.0000  0.0000  0.0000  0.0000  0.0000  0.0000  0.0000  0.0000  0.0000
     EDDAV:  cpu time    0.7818: real time    0.7818
 BZINTS: Fermi energy:  0.251930; 54.000000 electrons
         Band energy:-823.178884;  BLOECHL correction:  0.000000
       DOS:  cpu time    0.0013: real time    0.0013
    CHARGE:  cpu time    0.1444: real time    0.1444
    MIXING:  cpu time    0.0007: real time    0.0006
    --------------------------------------------
      LOOP:  cpu time    1.7403: real time    1.7404

 eigenvalue-minimisations  :  1608
 total energy-change (2. order) : 0.3829366E+00  (-0.3570122E+00)
 number of electron      54.0000009 magnetization      -0.0000000
 augmentation part       20.0273225 magnetization      -0.0000000

 Broyden mixing:
  rms(total) = 0.80903E+00    rms(broyden)= 0.80900E+00
  rms(prec ) = 0.86033E+00
  weight for this iteration     100.00

 eigenvalues of (default mixing * dielectric matrix)
  average eigenvalue GAMMA=   0.9805
  1.8230  0.5822  0.7583  0.7583

 Free energy of the ion-electron system (eV)
  ---------------------------------------------------
  alpha Z        PSCENC =       195.37131285
  Ewald energy   TEWEN  =     -4173.42284800
  -Hartree energ DENC   =     -2186.88334360
  -exchange      EXHF   =         0.00000000
  -V(xc)+E(xc)   XCENC  =       168.17126090
  PAW double counting   =      6467.47331346    -6402.77689787
  entropy T*S    EENTRO =         0.00000000
  eigenvalues    EBANDS =      -823.17888377
  atomic energy  EATOM  =      6689.01075358
  Solvation  Ediel_sol  =         0.00000000
  ---------------------------------------------------
  free energy    TOTEN  =       -66.23533246 eV

  energy without entropy =      -66.23533246  energy(sigma->0) =      -66.23533246


--------------------------------------------------------------------------------------------------------




--------------------------------------- Iteration      1(  10)  ---------------------------------------


    POTLOK:  cpu time    0.0323: real time    0.0323
    SETDIJ:  cpu time    0.7788: real time    0.7789
atom =   1  type =  1  l = 2
 
 onsite density matrix
 
spin component  1
 
  0.0431  0.0000  0.0204  0.0000  0.0000
  0.0000  0.0340  0.0000  0.0176  0.0000
  0.0204  0.0000  0.0314  0.0000  0.0000
  0.0000  0.0176  0.0000  0.0340  0.0000
  0.0000  0.0000  0.0000  0.0000  0.0165
 
spin component  2
 
  0.9703  0.0000  0.0149  0.0000 -0.0000
  0.0000  0.9680  0.0000  0.0130  0.0000
  0.0149  0.0000  0.9627  0.0000 -0.0000
  0.0000  0.0130  0.0000  0.9680  0.0000
 -0.0000  0.0000 -0.0000  0.0000  0.9529
 
 occupancies and eigenvectors
 
  o =  0.0160  v = -0.6014  0.0000  0.7989 -0.0000 -0.0000  0.0000  0.0000  0.0000  0.0000  0.0000      0.0000  0.0000  0.0000  0.0000  0.0000  0.0000  0.0000  0.0000  0.0000  0.0000
  o =  0.0164  v =  0.0000  0.7071 -0.0000 -0.7071 -0.0000  0.0000  0.0000  0.0000  0.0000  0.0000      0.0000  0.0000  0.0000  0.0000  0.0000  0.0000  0.0000  0.0000  0.0000  0.0000
  o =  0.0165  v = -0.0000  0.0000  0.0000 -0.0000  1.0000  0.0000  0.0000  0.0000  0.0000  0.0000      0.0000  0.0000  0.0000  0.0000  0.0000  0.0000  0.0000  0.0000  0.0000  0.0000
  o =  0.0516  v = -0.0000 -0.7071 -0.0000 -0.7071 -0.0000  0.0000  0.0000  0.0000  0.0000  0.0000      0.0000  0.0000  0.0000  0.0000  0.0000  0.0000  0.0000  0.0000  0.0000  0.0000
  o =  0.0585  v = -0.7989  0.0000 -0.6014  0.0000 -0.0000  0.0000  0.0000  0.0000  0.0000  0.0000      0.0000  0.0000  0.0000  0.0000  0.0000  0.0000  0.0000  0.0000  0.0000  0.0000
  o =  0.9511  v =  0.0000  0.0000  0.0000  0.0000  0.0000  0.6129  0.0000 -0.7902  0.0000 -0.0000      0.0000  0.0000  0.0000  0.0000  0.0000  0.0000  0.0000  0.0000  0.0000  0.0000
  o =  0.9529  v =  0.0000  0.0000  0.0000  0.0000  0.0000 -0.0000  0.0000  0.0000  0.0000 -1.0000      0.0000  0.0000  0.0000  0.0000  0.0000  0.0000  0.0000  0.0000  0.0000  0.0000
  o =  0.9549  v =  0.0000  0.0000  0.0000  0.0000  0.0000  0.0000  0.7071  0.0000 -0.7071  0.0000      0.0000  0.0000  0.0000  0.0000  0.0000  0.0000  0.0000  0.0000  0.0000  0.0000
  o =  0.9810  v =  0.0000  0.0000  0.0000  0.0000  0.0000  0.0000  0.7071  0.0000  0.7071  0.0000      0.0000  0.0000  0.0000  0.0000  0.0000  0.0000  0.0000  0.0000  0.0000  0.0000
  o =  0.9819  v =  0.0000  0.0000  0.0000  0.0000  0.0000  0.7902 -0.0000  0.6129  0.0000 -0.0000      0.0000  0.0000  0.0000  0.0000  0.0000  0.0000  0.0000  0.0000  0.0000  0.0000
atom =   2  type =  1  l = 2
 
 onsite density matrix
 
spin component  1
 
  0.9703  0.0000 -0.0149  0.0000  0.0000
  0.0000  0.9680  0.0000 -0.0130  0.0000
 -0.0149  0.0000  0.9627  0.0000  0.0000
  0.0000 -0.0130  0.0000  0.9680  0.0000
  0.0000  0.0000  0.0000  0.0000  0.9529
 
spin component  2
 
  0.0431  0.0000 -0.0204  0.0000 -0.0000
  0.0000  0.0340  0.0000 -0.0176  0.0000
 -0.0204  0.0000  0.0314  0.0000 -0.0000
  0.0000 -0.0176  0.0000  0.0340  0.0000
 -0.0000  0.0000 -0.0000  0.0000  0.0165
 
 occupancies and eigenvectors
 
  o =  0.0160  v =  0.0000  0.0000  0.0000  0.0000  0.0000 -0.6014 -0.0000 -0.7989  0.0000 -0.0000      0.0000  0.0000  0.0000  0.0000  0.0000  0.0000  0.0000  0.0000  0.0000  0.0000
  o =  0.0164  v =  0.0000  0.0000  0.0000  0.0000  0.0000  0.0000 -0.7071  0.0000 -0.7071  0.0000      0.0000  0.0000  0.0000  0.0000  0.0000  0.0000  0.0000  0.0000  0.0000  0.0000
  o =  0.0165  v =  0.0000  0.0000  0.0000  0.0000  0.0000 -0.0000  0.0000 -0.0000  0.0000  1.0000      0.0000  0.0000  0.0000  0.0000  0.0000  0.0000  0.0000  0.0000  0.0000  0.0000
  o =  0.0516  v =  0.0000  0.0000  0.0000  0.0000  0.0000  0.0000  0.7071  0.0000 -0.7071 -0.0000      0.0000  0.0000  0.0000  0.0000  0.0000  0.0000  0.0000  0.0000  0.0000  0.0000
  o =  0.0585  v =  0.0000  0.0000  0.0000  0.0000  0.0000 -0.7989 -0.0000  0.6014  0.0000 -0.0000      0.0000  0.0000  0.0000  0.0000  0.0000  0.0000  0.0000  0.0000  0.0000  0.0000
  o =  0.9511  v = -0.6129  0.0000 -0.7902  0.0000  0.0000  0.0000  0.0000  0.0000  0.0000  0.0000      0.0000  0.0000  0.0000  0.0000  0.0000  0.0000  0.0000  0.0000  0.0000  0.0000
  o =  0.9529  v =  0.0000  0.0000 -0.0000  0.0000 -1.0000  0.0000  0.0000  0.0000  0.0000  0.0000      0.0000  0.0000  0.0000  0.0000  0.0000  0.0000  0.0000  0.0000  0.0000  0.0000
  o =  0.9549  v =  0.0000 -0.7071  0.0000 -0.7071 -0.0000  0.0000  0.0000  0.0000  0.0000  0.0000      0.0000  0.0000  0.0000  0.0000  0.0000  0.0000  0.0000  0.0000  0.0000  0.0000
  o =  0.9810  v =  0.0000  0.7071  0.0000 -0.7071  0.0000  0.0000  0.0000  0.0000  0.0000  0.0000      0.0000  0.0000  0.0000  0.0000  0.0000  0.0000  0.0000  0.0000  0.0000  0.0000
  o =  0.9819  v = -0.7902  0.0000  0.6129  0.0000 -0.0000  0.0000  0.0000  0.0000  0.0000  0.0000      0.0000  0.0000  0.0000  0.0000  0.0000  0.0000  0.0000  0.0000  0.0000  0.0000
     EDDAV:  cpu time    0.6921: real time    0.6924
 BZINTS: Fermi energy:  0.204879; 54.000000 electrons
         Band energy:-825.125126;  BLOECHL correction:  0.000000
       DOS:  cpu time    0.0013: real time    0.0013
    CHARGE:  cpu time    0.1437: real time    0.1437
    MIXING:  cpu time    0.0007: real time    0.0007
    --------------------------------------------
      LOOP:  cpu time    1.6490: real time    1.6492

 eigenvalue-minimisations  :  1308
 total energy-change (2. order) : 0.4103653E-01  (-0.5176695E-01)
 number of electron      54.0000009 magnetization      -0.0000000
 augmentation part       20.0003948 magnetization      -0.0000000

 Broyden mixing:
  rms(total) = 0.45607E+00    rms(broyden)= 0.45607E+00
  rms(prec ) = 0.50601E+00
  weight for this iteration     100.00

 eigenvalues of (default mixing * dielectric matrix)
  average eigenvalue GAMMA=   1.1561
  2.4144  1.0371  1.0371  0.6459  0.6459

 Free energy of the ion-electron system (eV)
  ---------------------------------------------------
  alpha Z        PSCENC =       195.37131285
  Ewald energy   TEWEN  =     -4173.42284800
  -Hartree energ DENC   =     -2181.36877028
  -exchange      EXHF   =         0.00000000
  -V(xc)+E(xc)   XCENC  =       165.96493856
  PAW double counting   =      6536.64997317    -6473.27452932
  entropy T*S    EENTRO =         0.00000000
  eigenvalues    EBANDS =      -825.12512648
  atomic energy  EATOM  =      6689.01075358
  Solvation  Ediel_sol  =         0.00000000
  ---------------------------------------------------
  free energy    TOTEN  =       -66.19429593 eV

  energy without entropy =      -66.19429593  energy(sigma->0) =      -66.19429593


--------------------------------------------------------------------------------------------------------




--------------------------------------- Iteration      1(  11)  ---------------------------------------


    POTLOK:  cpu time    0.0323: real time    0.0323
    SETDIJ:  cpu time    0.7800: real time    0.7800
atom =   1  type =  1  l = 2
 
 onsite density matrix
 
spin component  1
 
  0.0308  0.0000  0.0197  0.0000 -0.0000
  0.0000  0.0245  0.0000  0.0172  0.0000
  0.0197  0.0000  0.0203  0.0000 -0.0000
  0.0000  0.0172  0.0000  0.0245  0.0000
 -0.0000  0.0000 -0.0000  0.0000  0.0051
 
spin component  2
 
  0.9840  0.0000  0.0185  0.0000  0.0000
  0.0000  0.9777  0.0000  0.0161  0.0000
  0.0185  0.0000  0.9732  0.0000  0.0000
  0.0000  0.0161  0.0000  0.9777  0.0000
  0.0000  0.0000  0.0000  0.0000  0.9621
 
 occupancies and eigenvectors
 
  o =  0.0051  v = -0.0000 -0.0000  0.0000  0.0000  1.0000  0.0000  0.0000  0.0000  0.0000  0.0000      0.0000  0.0000  0.0000  0.0000  0.0000  0.0000  0.0000  0.0000  0.0000  0.0000
  o =  0.0051  v = -0.6095  0.0000  0.7928 -0.0000 -0.0000  0.0000  0.0000  0.0000  0.0000  0.0000      0.0000  0.0000  0.0000  0.0000  0.0000  0.0000  0.0000  0.0000  0.0000  0.0000
  o =  0.0074  v = -0.0000 -0.7071  0.0000  0.7071 -0.0000  0.0000  0.0000  0.0000  0.0000  0.0000      0.0000  0.0000  0.0000  0.0000  0.0000  0.0000  0.0000  0.0000  0.0000  0.0000
  o =  0.0417  v =  0.0000  0.7071  0.0000  0.7071  0.0000  0.0000  0.0000  0.0000  0.0000  0.0000      0.0000  0.0000  0.0000  0.0000  0.0000  0.0000  0.0000  0.0000  0.0000  0.0000
  o =  0.0460  v = -0.7928  0.0000 -0.6095  0.0000  0.0000  0.0000  0.0000  0.0000  0.0000  0.0000      0.0000  0.0000  0.0000  0.0000  0.0000  0.0000  0.0000  0.0000  0.0000  0.0000
  o =  0.9593  v =  0.0000  0.0000  0.0000  0.0000  0.0000 -0.5996  0.0000  0.8003  0.0000 -0.0000      0.0000  0.0000  0.0000  0.0000  0.0000  0.0000  0.0000  0.0000  0.0000  0.0000
  o =  0.9617  v =  0.0000  0.0000  0.0000  0.0000  0.0000 -0.0000  0.7071  0.0000 -0.7071  0.0000      0.0000  0.0000  0.0000  0.0000  0.0000  0.0000  0.0000  0.0000  0.0000  0.0000
  o =  0.9621  v =  0.0000  0.0000  0.0000  0.0000  0.0000  0.0000  0.0000 -0.0000 -0.0000 -1.0000      0.0000  0.0000  0.0000  0.0000  0.0000  0.0000  0.0000  0.0000  0.0000  0.0000
  o =  0.9938  v =  0.0000  0.0000  0.0000  0.0000  0.0000  0.0000  0.7071 -0.0000  0.7071 -0.0000      0.0000  0.0000  0.0000  0.0000  0.0000  0.0000  0.0000  0.0000  0.0000  0.0000
  o =  0.9979  v =  0.0000  0.0000  0.0000  0.0000  0.0000 -0.8003  0.0000 -0.5996  0.0000 -0.0000      0.0000  0.0000  0.0000  0.0000  0.0000  0.0000  0.0000  0.0000  0.0000  0.0000
atom =   2  type =  1  l = 2
 
 onsite density matrix
 
spin component  1
 
  0.9840  0.0000 -0.0185  0.0000 -0.0000
  0.0000  0.9777  0.0000 -0.0161  0.0000
 -0.0185  0.0000  0.9732  0.0000 -0.0000
  0.0000 -0.0161  0.0000  0.9777  0.0000
 -0.0000  0.0000 -0.0000  0.0000  0.9621
 
spin component  2
 
  0.0308  0.0000 -0.0197  0.0000  0.0000
  0.0000  0.0245  0.0000 -0.0172  0.0000
 -0.0197  0.0000  0.0203  0.0000  0.0000
  0.0000 -0.0172  0.0000  0.0245  0.0000
  0.0000  0.0000  0.0000  0.0000  0.0051
 
 occupancies and eigenvectors
 
  o =  0.0051  v =  0.0000  0.0000  0.0000  0.0000  0.0000  0.0000 -0.0000  0.0000 -0.0000 -1.0000      0.0000  0.0000  0.0000  0.0000  0.0000  0.0000  0.0000  0.0000  0.0000  0.0000
  o =  0.0051  v =  0.0000  0.0000  0.0000  0.0000  0.0000 -0.6095 -0.0000 -0.7928 -0.0000 -0.0000      0.0000  0.0000  0.0000  0.0000  0.0000  0.0000  0.0000  0.0000  0.0000  0.0000
  o =  0.0074  v =  0.0000  0.0000  0.0000  0.0000  0.0000  0.0000 -0.7071  0.0000 -0.7071  0.0000      0.0000  0.0000  0.0000  0.0000  0.0000  0.0000  0.0000  0.0000  0.0000  0.0000
  o =  0.0417  v =  0.0000  0.0000  0.0000  0.0000  0.0000  0.0000 -0.7071 -0.0000  0.7071  0.0000      0.0000  0.0000  0.0000  0.0000  0.0000  0.0000  0.0000  0.0000  0.0000  0.0000
  o =  0.0460  v =  0.0000  0.0000  0.0000  0.0000  0.0000 -0.7928 -0.0000  0.6095  0.0000  0.0000      0.0000  0.0000  0.0000  0.0000  0.0000  0.0000  0.0000  0.0000  0.0000  0.0000
  o =  0.9593  v = -0.5996 -0.0000 -0.8003  0.0000 -0.0000  0.0000  0.0000  0.0000  0.0000  0.0000      0.0000  0.0000  0.0000  0.0000  0.0000  0.0000  0.0000  0.0000  0.0000  0.0000
  o =  0.9617  v =  0.0000  0.7071  0.0000  0.7071 -0.0000  0.0000  0.0000  0.0000  0.0000  0.0000      0.0000  0.0000  0.0000  0.0000  0.0000  0.0000  0.0000  0.0000  0.0000  0.0000
  o =  0.9621  v = -0.0000  0.0000 -0.0000  0.0000  1.0000  0.0000  0.0000  0.0000  0.0000  0.0000      0.0000  0.0000  0.0000  0.0000  0.0000  0.0000  0.0000  0.0000  0.0000  0.0000
[...]
     33       9.7666      0.00000
     34      10.5092      0.00000
     35      10.8983      0.00000
     36      11.7736      0.00000

 k-point     7 :       0.1250    0.1250    0.4167
  band No.  band energies     occupation 
      1     -49.4406      1.00000
      2     -49.4025      1.00000
      3     -49.3871      1.00000
      4     -42.7895      1.00000
      5     -42.7435      1.00000
      6     -42.7228      1.00000
      7     -22.6498      1.00000
      8     -22.5361      1.00000
      9     -22.4937      1.00000
     10     -22.3978      1.00000
     11      -5.0009      1.00000
     12      -4.4092      1.00000
     13      -4.1932      1.00000
     14      -4.0919      1.00000
     15      -4.0064      1.00000
     16      -3.6574      1.00000
     17      -3.2655      1.00000
     18      -3.1580      1.00000
     19      -2.8607      1.00000
     20      -2.5805      1.00000
     21      -2.3219      1.00000
     22      -2.3019      1.00000
     23      -1.9731      1.00000
     24      -1.4626      1.00000
     25      -1.0964      1.00000
     26      -0.6476      1.00000
     27      -0.3295      1.00000
     28       8.3412      0.00000
     29       8.6950      0.00000
     30       8.7553      0.00000
     31       9.1439      0.00000
     32       9.7238      0.00000
     33      10.0231      0.00000
     34      11.4093      0.00000
     35      12.5284      0.00000
     36      12.8580      0.00000

 k-point     8 :       0.3750    0.1250    0.4167
  band No.  band energies     occupation 
      1     -49.4406      1.00000
      2     -49.4025      1.00000
      3     -49.3871      1.00000
      4     -42.7895      1.00000
      5     -42.7435      1.00000
      6     -42.7228      1.00000
      7     -22.5985      1.00000
      8     -22.5486      1.00000
      9     -22.5045      1.00000
     10     -22.4253      1.00000
     11      -4.7907      1.00000
     12      -4.5450      1.00000
     13      -4.4535      1.00000
     14      -4.1659      1.00000
     15      -4.0662      1.00000
     16      -3.4550      1.00000
     17      -3.3334      1.00000
     18      -3.0994      1.00000
     19      -3.0367      1.00000
     20      -2.5284      1.00000
     21      -2.2183      1.00000
     22      -2.1180      1.00000
     23      -1.9588      1.00000
     24      -1.5148      1.00000
     25      -1.2225      1.00000
     26      -0.6861      1.00000
     27      -0.0585      1.00000
     28       8.7124      0.00000
     29       8.7429      0.00000
     30       8.8683      0.00000
     31       9.2739      0.00000
     32       9.8236      0.00000
     33      10.1627      0.00000
     34      11.0232      0.00000
     35      11.5133      0.00000
     36      12.7773      0.00000

 k-point     9 :       0.3750    0.3750    0.4167
  band No.  band energies     occupation 
      1     -49.4406      1.00000
      2     -49.4025      1.00000
      3     -49.3871      1.00000
      4     -42.7895      1.00000
      5     -42.7435      1.00000
      6     -42.7229      1.00000
      7     -22.5780      1.00000
      8     -22.5731      1.00000
      9     -22.5077      1.00000
     10     -22.4151      1.00000
     11      -4.9230      1.00000
     12      -4.5874      1.00000
     13      -4.4705      1.00000
     14      -4.4377      1.00000
     15      -4.2022      1.00000
     16      -3.5347      1.00000
     17      -3.1320      1.00000
     18      -2.9356      1.00000
     19      -2.8330      1.00000
     20      -2.3388      1.00000
     21      -2.1503      1.00000
     22      -2.0635      1.00000
     23      -1.9629      1.00000
     24      -1.4661      1.00000
     25      -1.2874      1.00000
     26      -0.6316      1.00000
     27      -0.1357      1.00000
     28       8.7246      0.00000
     29       8.8406      0.00000
     30       8.9893      0.00000
     31       9.4841      0.00000
     32       9.7125      0.00000
     33      10.2148      0.00000
     34      11.4829      0.00000
     35      11.6969      0.00000
     36      11.8131      0.00000


--------------------------------------------------------------------------------------------------------


 soft charge-density along one line, spin component           1
         0         1         2         3         4         5         6         7         8         9
 total charge-density along one line
 
 soft charge-density along one line, spin component           2
         0         1         2         3         4         5         6         7         8         9
 total charge-density along one line
 
 pseudopotential strength for first ion, spin component:           1
-45.241  -0.000  -0.031   7.824   0.000   0.011  -0.000  -0.000
 -0.000 -45.206  -0.000   0.000   7.811   0.000  -0.000   0.000
 -0.031  -0.000 -45.241   0.011   0.000   7.824   0.000  -0.000
  7.824   0.000   0.011   5.621  -0.000   0.008   0.000   0.000
  0.000   7.811   0.000  -0.000   5.609  -0.000   0.000   0.000
  0.011   0.000   7.824   0.008  -0.000   5.621   0.000   0.000
 -0.000  -0.000   0.000   0.000   0.000   0.000  -0.551  -0.000
 -0.000   0.000  -0.000   0.000   0.000   0.000  -0.000  -0.500
 -0.000  -0.000   0.000  -0.000   0.000  -0.000  -0.081  -0.000
 -0.000   0.000  -0.000   0.000   0.000   0.000  -0.000  -0.098
  0.000  -0.000  -0.000   0.000   0.000  -0.000  -0.000   0.000
 -0.000  -0.000   0.000   0.000   0.000   0.000  -0.991  -0.000
 -0.000   0.000  -0.000   0.000  -0.000   0.000  -0.000  -0.940
 -0.000  -0.000   0.000   0.000   0.000  -0.000  -0.085  -0.000
 -0.000   0.000  -0.000   0.000  -0.000   0.000  -0.000  -0.101
  0.000  -0.000  -0.000   0.000   0.000  -0.000  -0.000   0.000
  0.000   0.000  -0.000  -0.000   0.000   0.000   0.009   0.000
  0.000   0.000  -0.000  -0.000   0.000   0.000   0.018   0.000
 pseudopotential strength for first ion, spin component:           2
-51.117  -0.000  -0.007   9.856   0.000   0.012   0.000  -0.000
 -0.000 -51.115  -0.000   0.000   9.843   0.000  -0.000   0.000
 -0.007  -0.000 -51.117   0.012   0.000   9.856  -0.000  -0.000
  9.856   0.000   0.012   4.692  -0.000   0.000  -0.000   0.000
  0.000   9.843   0.000  -0.000   4.692  -0.000   0.000  -0.000
  0.012   0.000   9.856   0.000  -0.000   4.692  -0.000   0.000
  0.000  -0.000  -0.000  -0.000   0.000  -0.000  -9.984  -0.000
 -0.000   0.000  -0.000   0.000  -0.000   0.000  -0.000  -9.943
  0.000  -0.000  -0.000  -0.000   0.000   0.000  -0.103  -0.000
 -0.000  -0.000  -0.000   0.000  -0.000   0.000  -0.000  -0.110
 -0.000  -0.000  -0.000  -0.000   0.000  -0.000   0.000   0.000
  0.000  -0.000  -0.000  -0.000   0.000  -0.000 -10.529  -0.000
 -0.000   0.000  -0.000   0.000  -0.000   0.000  -0.000 -10.487
  0.000  -0.000  -0.000  -0.000   0.000   0.000  -0.106  -0.000
 -0.000  -0.000  -0.000   0.000  -0.000   0.000  -0.000  -0.112
 -0.000  -0.000  -0.000  -0.000   0.000  -0.000   0.000   0.000
  0.000   0.000  -0.000  -0.000   0.000  -0.000   0.008   0.000
  0.000   0.000  -0.000  -0.000   0.000  -0.000   0.016   0.000
 total augmentation occupancy for first ion, spin component:           1
  2.001   0.000   0.000  -0.012   0.000   0.001   0.000   0.000   0.000   0.000   0.000   0.000   0.000   0.000   0.000   0.000
  0.000   2.001   0.000   0.000  -0.012   0.000   0.000   0.000   0.000   0.000   0.000   0.000   0.000   0.000   0.000   0.000
  0.000   0.000   2.001   0.001   0.000  -0.012   0.000   0.000   0.000   0.000   0.000   0.000   0.000   0.000   0.000   0.000
 -0.012   0.000   0.001   0.078   0.000  -0.008   0.000   0.000   0.000   0.000   0.000   0.000   0.000   0.000   0.000   0.000
  0.000  -0.012   0.000   0.000   0.088   0.000   0.000   0.000   0.000   0.000   0.000   0.000   0.000   0.000   0.000   0.000
  0.001   0.000  -0.012  -0.008   0.000   0.078   0.000   0.000   0.000   0.000   0.000   0.000   0.000   0.000   0.000   0.000
  0.000   0.000   0.000   0.000   0.000   0.000   7.843   0.000   3.025   0.000   0.000  -5.812   0.000  -2.837   0.000   0.000
  0.000   0.000   0.000   0.000   0.000   0.000   0.000   6.714   0.000   2.621   0.000   0.000  -4.737   0.000  -2.459   0.000
  0.000   0.000   0.000   0.000   0.000   0.000   3.025   0.000   6.102   0.000  -0.000  -2.838   0.000  -4.185   0.000  -0.000
  0.000   0.000   0.000   0.000   0.000   0.000   0.000   2.621   0.000   6.714   0.000   0.000  -2.459   0.000  -4.737   0.000
  0.000   0.000   0.000   0.000   0.000   0.000   0.000   0.000  -0.000   0.000   3.936   0.000   0.000   0.000   0.000  -2.120
  0.000   0.000   0.000   0.000   0.000   0.000  -5.812   0.000  -2.838   0.000   0.000   4.951   0.000   2.681   0.000   0.000
  0.000   0.000   0.000   0.000   0.000   0.000   0.000  -4.737   0.000  -2.459   0.000   0.000   3.923   0.000   2.326   0.000
  0.000   0.000   0.000   0.000   0.000   0.000  -2.837   0.000  -4.185   0.000  -0.000   2.681   0.000   3.420   0.000   0.000
  0.000   0.000   0.000   0.000   0.000   0.000   0.000  -2.459   0.000  -4.737   0.000   0.000   2.326   0.000   3.923   0.000
  0.000   0.000   0.000   0.000   0.000   0.000  -0.000   0.000   0.000   0.000  -2.120   0.000   0.000  -0.000   0.000   1.438
  0.000   0.000   0.000   0.000   0.000   0.000   0.363   0.000  -0.328   0.000   0.000  -0.349   0.000   0.311   0.000  -0.000
  0.000   0.000   0.000   0.000   0.000   0.000  -0.077   0.000   0.075   0.000  -0.000   0.082   0.000  -0.075   0.000   0.000
 total augmentation occupancy for first ion, spin component:           2
  0.004   0.000  -0.000   0.017   0.000  -0.000   0.000   0.000   0.000   0.000   0.000   0.000   0.000   0.000   0.000   0.000
  0.000   0.004   0.000   0.000   0.017   0.000   0.000   0.000   0.000   0.000   0.000   0.000   0.000   0.000   0.000   0.000
 -0.000   0.000   0.004  -0.000   0.000   0.017   0.000   0.000   0.000   0.000   0.000   0.000   0.000   0.000   0.000   0.000
  0.017   0.000  -0.000  -0.012   0.000   0.000   0.000   0.000   0.000   0.000   0.000   0.000   0.000   0.000   0.000   0.000
  0.000   0.017   0.000   0.000  -0.012   0.000   0.000   0.000   0.000   0.000   0.000   0.000   0.000   0.000   0.000   0.000
 -0.000   0.000   0.017   0.000   0.000  -0.012   0.000   0.000   0.000   0.000   0.000   0.000   0.000   0.000   0.000   0.000
  0.000   0.000   0.000   0.000   0.000   0.000  -5.581   0.000  -1.732   0.000   0.000   3.264   0.000   1.384   0.000   0.000
  0.000   0.000   0.000   0.000   0.000   0.000   0.000  -4.953   0.000  -1.497   0.000   0.000   2.748   0.000   1.197   0.000
  0.000   0.000   0.000   0.000   0.000   0.000  -1.732   0.000  -4.541   0.000   0.000   1.384   0.000   2.427   0.000   0.000
  0.000   0.000   0.000   0.000   0.000   0.000   0.000  -1.497   0.000  -4.953   0.000   0.000   1.197   0.000   2.748   0.000
  0.000   0.000   0.000   0.000   0.000   0.000   0.000   0.000   0.000   0.000  -3.401   0.000   0.000   0.000   0.000   1.507
  0.000   0.000   0.000   0.000   0.000   0.000   3.264   0.000   1.384   0.000   0.000  -2.078   0.000  -1.047   0.000   0.000
  0.000   0.000   0.000   0.000   0.000   0.000   0.000   2.748   0.000   1.197   0.000   0.000  -1.673   0.000  -0.906   0.000
  0.000   0.000   0.000   0.000   0.000   0.000   1.384   0.000   2.427   0.000  -0.000  -1.047   0.000  -1.439   0.000   0.000
  0.000   0.000   0.000   0.000   0.000   0.000   0.000   1.197   0.000   2.748   0.000   0.000  -0.906   0.000  -1.673   0.000
  0.000   0.000   0.000   0.000   0.000   0.000  -0.000   0.000   0.000   0.000   1.507  -0.000   0.000   0.000   0.000  -0.735
  0.000   0.000   0.000   0.000   0.000   0.000  -0.088   0.000   0.082   0.000   0.000   0.041   0.000  -0.037   0.000   0.000
  0.000   0.000   0.000   0.000   0.000   0.000   0.004   0.000  -0.011   0.000  -0.000   0.000   0.000   0.004   0.000  -0.000


------------------------ aborting loop because EDIFF is reached ----------------------------------------


 


 total charge     
 
# of ion       s       p       d       tot
------------------------------------------
    1        0.165   6.144   4.962  11.271
    2        0.169   6.140   4.967  11.276
    3        1.729   4.411   0.000   6.140
    4        1.729   4.411   0.000   6.140
    5        1.729   4.408   0.000   6.137
    6        1.729   4.408   0.000   6.137
--------------------------------------------------
tot          7.249  29.923   9.929  47.102
 


 magnetization (x)
 
# of ion       s       p       d       tot
------------------------------------------
    1       -0.025  -0.020  -4.723  -4.768
    2        0.025   0.019   4.722   4.766
    3        0.002   0.012   0.000   0.013
    4        0.002   0.012   0.000   0.013
    5       -0.002  -0.009   0.000  -0.011
    6       -0.002  -0.009   0.000  -0.011
--------------------------------------------------
tot         -0.000   0.004  -0.001   0.002
 
    CHARGE:  cpu time    0.0317: real time    0.0317
    FORLOC:  cpu time    0.0011: real time    0.0011
    FORNL :  cpu time    0.1745: real time    0.1745
    STRESS:  cpu time    2.2365: real time    2.2366
    FORCOR:  cpu time    0.0296: real time    0.0296
    FORHAR:  cpu time    0.0021: real time    0.0021
    MIXING:  cpu time    0.0016: real time    0.0016
    OFIELD:  cpu time    0.0000: real time    0.0000

  FORCE on cell =-STRESS in cart. coord.  units (eV):
  Direction    XX          YY          ZZ          XY          YZ          ZX
  --------------------------------------------------------------------------------------
  Alpha Z   195.37131   195.37131   195.37131
  Ewald   -1580.93646 -1580.93646 -1011.55306    -0.00000     0.00000     0.00000
  Hartree   598.45348   598.45348   983.25265    -0.00000    -0.00000    -0.00000
  E(xc)    -150.53808  -150.50780  -150.66213    -0.01330    -0.02492    -0.02687
  Local     158.92912   158.92912  -788.27353    -0.00000    -0.00000    -0.00000
  n-local  -311.24454  -311.56792  -310.11533     0.03664     0.12025     0.12887
  augment   158.32755   158.32755   157.78134    -0.00000    -0.00000    -0.00000
  Kinetic   931.40450   932.20744   924.22621    -0.37063    -0.76093    -0.81122
  Fock        0.00000     0.00000     0.00000     0.00000     0.00000     0.00000
  -------------------------------------------------------------------------------------
  Total       0.02179     0.02179     0.02748    -0.00000     0.00000     0.00000
  in kB       0.44181     0.44181     0.55714    -0.00000     0.00000     0.00000
  external pressure =        0.48 kB  Pullay stress =        0.00 kB


 VOLUME and BASIS-vectors are now :
 -----------------------------------------------------------------------------
  energy-cutoff  :      600.00
  volume of cell :       79.02
      direct lattice vectors                 reciprocal lattice vectors
     4.885668075  0.000000000  0.000000000     0.204680299  0.000000000  0.000000000
     0.000000000  4.885668075  0.000000000     0.000000000  0.204680299  0.000000000
     0.000000000  0.000000000  3.310304055     0.000000000  0.000000000  0.302087054

  length of vectors
     4.885668075  4.885668075  3.310304055     0.204680299  0.204680299  0.302087054


 FORCES acting on ions
    electron-ion (+dipol)            ewald-force                    non-local-force                 convergence-correction
 -----------------------------------------------------------------------------------------------
   -.176E-11 0.658E-11 -.709E-13   0.114E-12 0.142E-12 -.247E-13   0.000E+00 0.000E+00 0.000E+00   -.221E-13 0.458E-14 0.131E-12
   -.255E-13 -.272E-13 0.387E-13   -.284E-13 -.284E-13 -.261E-13   0.000E+00 0.000E+00 0.000E+00   -.512E-14 0.748E-14 -.168E-12
   -.342E+02 0.342E+02 0.137E-12   0.355E+02 -.355E+02 0.169E-13   -.135E+01 0.135E+01 0.000E+00   -.288E-05 0.288E-05 0.562E-13
   0.342E+02 -.342E+02 -.343E-11   -.355E+02 0.355E+02 0.169E-13   0.135E+01 -.135E+01 0.000E+00   0.288E-05 -.288E-05 0.443E-13
   0.342E+02 0.342E+02 0.502E-07   -.355E+02 -.355E+02 0.103E-13   0.135E+01 0.135E+01 0.000E+00   0.288E-05 0.288E-05 -.536E-11
   -.342E+02 -.342E+02 -.501E-07   0.355E+02 0.355E+02 0.106E-13   -.135E+01 -.135E+01 0.000E+00   -.288E-05 -.288E-05 0.525E-11
 -----------------------------------------------------------------------------------------------
   -.120E-12 0.783E-11 0.359E-11   0.000E+00 -.711E-14 0.397E-14   -.222E-15 -.222E-15 0.000E+00   0.275E-14 0.331E-13 -.502E-13
 
 
 POSITION                                       TOTAL-FORCE (eV/Angst)
 -----------------------------------------------------------------------------------
      2.44283      2.44283      1.65515         0.000000      0.000000      0.000000
      0.00000      0.00000      0.00000         0.000000      0.000000      0.000000
      0.95367      3.93199      1.65515        -0.000730      0.000730      0.000000
      3.93199      0.95367      1.65515         0.000730     -0.000730      0.000000
      1.48916      1.48916      0.00000         0.000730      0.000730     -0.000000
      3.39651      3.39651      0.00000        -0.000730     -0.000730      0.000000
 -----------------------------------------------------------------------------------
    total drift:                               -0.000000      0.000000      0.000000


--------------------------------------------------------------------------------------------------------



  FREE ENERGIE OF THE ION-ELECTRON SYSTEM (eV)
  ---------------------------------------------------
  free  energy   TOTEN  =       -66.13208818 eV

  energy  without entropy=      -66.13208818  energy(sigma->0) =      -66.13208818
 


--------------------------------------------------------------------------------------------------------


    POTLOK:  cpu time    0.8080: real time    0.8080


--------------------------------------------------------------------------------------------------------


 writing wavefunctions
     LOOP+:  cpu time   45.3295: real time   45.3500
    4ORBIT:  cpu time    0.0000: real time    0.0000
 


 total charge     
 
# of ion       s       p       d       tot
------------------------------------------
    1        0.165   6.144   4.962  11.271
    2        0.169   6.140   4.967  11.276
    3        1.729   4.411   0.000   6.140
    4        1.729   4.411   0.000   6.140
    5        1.729   4.408   0.000   6.137
    6        1.729   4.408   0.000   6.137
--------------------------------------------------
tot          7.249  29.923   9.929  47.102
 


 magnetization (x)
 
# of ion       s       p       d       tot
------------------------------------------
    1       -0.025  -0.020  -4.723  -4.768
    2        0.025   0.019   4.722   4.766
    3        0.002   0.012   0.000   0.013
    4        0.002   0.012   0.000   0.013
    5       -0.002  -0.009   0.000  -0.011
    6       -0.002  -0.009   0.000  -0.011
--------------------------------------------------
tot         -0.000   0.004  -0.001   0.002
 
 BZINTS: Fermi energy:  0.232526; 54.000000 electrons
         Band energy:-826.172257;  BLOECHL correction:  0.000000

 total amount of memory used by VASP MPI-rank0    45362. kBytes
=======================================================================

   base      :      30000. kBytes
   nonl-proj :       7128. kBytes
   fftplans  :       1875. kBytes
   grid      :       3820. kBytes
   one-center:        186. kBytes
   wavefun   :       2353. kBytes
 
  
  
 General timing and accounting informations for this job:
 ========================================================
  
                  Total CPU time used (sec):       46.545
                            User time (sec):       32.502
                          System time (sec):       14.043
                         Elapsed time (sec):       46.671
  
                   Maximum memory used (kb):       63492.
                   Average memory used (kb):           0.
  
                          Minor page faults:        11155
                          Major page faults:            7
                 Voluntary context switches:          395
