 vasp.5.4.4.18Apr17-6-g9f103f2a35 (build Apr 27 2017 11:13:10) complex          
  
 executed on           IFC91_ompi date 2020.05.30  16:49:43
 running on    4 total cores
 distrk:  each k-point on    4 cores,    1 groups
 distr:  one band on NCORES_PER_BAND=   1 cores,    4 groups


--------------------------------------------------------------------------------------------------------


 INCAR:
 POTCAR:    PAW_PBE Mn_pv 02Aug2007               
 POTCAR:    PAW_PBE F 08Apr2002                   
 POTCAR:    PAW_PBE Mn_pv 02Aug2007               
   VRHFIN =Mn: 3p4s3d                                                           
   LEXCH  = PE                                                                  
   EATOM  =  2025.2664 eV,  148.8529 Ry                                         
                                                                                
   TITEL  = PAW_PBE Mn_pv 02Aug2007                                             
   LULTRA =        F    use ultrasoft PP ?                                      
   IUNSCR =        1    unscreen: 0-lin 1-nonlin 2-no                           
   RPACOR =    2.080    partial core radius                                     
   POMASS =   54.938; ZVAL   =   13.000    mass and valenz                      
   RCORE  =    2.300    outmost cutoff radius                                   
   RWIGS  =    2.500; RWIGS  =    1.323    wigner-seitz radius (au A)           
   ENMAX  =  269.864; ENMIN  =  202.398 eV                                      
   ICORE  =        3    local potential                                         
   LCOR   =        T    correct aug charges                                     
   LPAW   =        T    paw PP                                                  
   EAUG   =  569.085                                                            
   DEXC   =    0.000                                                            
   RMAX   =    2.343    core radius for proj-oper                               
   RAUG   =    1.300    factor for augmentation sphere                          
   RDEP   =    2.338    radius for radial grids                                 
   RDEPT  =    1.798    core radius for aug-charge                              
                                                                                
   Atomic configuration                                                         
    8 entries                                                                   
     n  l   j            E        occ.                                          
     1  0  0.50     -6424.8287   2.0000                                         
     2  0  0.50      -739.1154   2.0000                                         
     2  1  1.50      -625.3949   6.0000                                         
     3  0  0.50       -81.6100   2.0000                                         
     3  1  1.50       -50.4667   6.0000                                         
     3  2  2.50        -3.3745   6.0000                                         
     4  0  0.50        -4.1331   1.0000                                         
     4  3  2.50        -1.3606   0.0000                                         
   Description                                                                  
     l       E           TYP  RCUT    TYP  RCUT                                 
     1    -50.4666628     23  2.000                                             
     1     -1.3605826     23  2.000                                             
     2     -3.3744729     23  2.300                                             
     2     -4.7350555     23  2.300                                             
     0     -4.1331431     23  2.300                                             
     0      7.6656591     23  2.300                                             
     3      9.5240782     23  2.300                                             
  local pseudopotential read in
  partial core-charges read in
  partial kinetic energy density read in
  atomic valenz-charges read in
  non local Contribution for L=           1  read in
    real space projection operators read in
  non local Contribution for L=           1  read in
    real space projection operators read in
  non local Contribution for L=           2  read in
    real space projection operators read in
  non local Contribution for L=           2  read in
    real space projection operators read in
  non local Contribution for L=           0  read in
    real space projection operators read in
  non local Contribution for L=           0  read in
    real space projection operators read in
    PAW grid and wavefunctions read in
 
   number of l-projection  operators is LMAX  =           6
   number of lm-projection operators is LMMAX =          18
 
 POTCAR:    PAW_PBE F 08Apr2002                   
   VRHFIN =F: s2p5                                                              
   LEXCH  = PE                                                                  
   EATOM  =   659.6475 eV,   48.4827 Ry                                         
                                                                                
   TITEL  = PAW_PBE F 08Apr2002                                                 
   LULTRA =        F    use ultrasoft PP ?                                      
   IUNSCR =        1    unscreen: 0-lin 1-nonlin 2-no                           
   RPACOR =    1.200    partial core radius                                     
   POMASS =   18.998; ZVAL   =    7.000    mass and valenz                      
   RCORE  =    1.520    outmost cutoff radius                                   
   RWIGS  =    1.500; RWIGS  =    0.794    wigner-seitz radius (au A)           
   ENMAX  =  400.000; ENMIN  =  300.000 eV                                      
   ICORE  =        2    local potential                                         
   LCOR   =        T    correct aug charges                                     
   LPAW   =        T    paw PP                                                  
   EAUG   =  613.614                                                            
   RMAX   =    1.555    core radius for proj-oper                               
   RAUG   =    1.300    factor for augmentation sphere                          
   RDEP   =    1.539    radius for radial grids                                 
   RDEPT  =    1.299    core radius for aug-charge                              
                                                                                
   Atomic configuration                                                         
    4 entries                                                                   
     n  l   j            E        occ.                                          
     1  0  0.50      -663.3661   2.0000                                         
     2  0  0.50       -29.8995   2.0000                                         
     2  1  0.50       -11.1114   5.0000                                         
     3  2  1.50       -10.8847   0.0000                                         
   Description                                                                  
     l       E           TYP  RCUT    TYP  RCUT                                 
     0    -29.8995018     23  1.200                                             
     0     -9.5240782     23  1.200                                             
     1    -11.1113914     23  1.520                                             
     1      1.3605826     23  1.520                                             
     2    -10.8846608      7  1.500                                             
  local pseudopotential read in
  partial core-charges read in
  partial kinetic energy density read in
  atomic valenz-charges read in
  non local Contribution for L=           0  read in
    real space projection operators read in
  non local Contribution for L=           0  read in
    real space projection operators read in
  non local Contribution for L=           1  read in
    real space projection operators read in
  non local Contribution for L=           1  read in
    real space projection operators read in
    PAW grid and wavefunctions read in
 
   number of l-projection  operators is LMAX  =           4
   number of lm-projection operators is LMMAX =           8
 
  PAW_PBE Mn_pv 02Aug2007               :
 energy of atom  1       EATOM=-2025.2664
 kinetic energy error for atom=    0.0020 (will be added to EATOM!!)
  PAW_PBE F 08Apr2002                   :
 energy of atom  2       EATOM= -659.6475
 kinetic energy error for atom=    0.0140 (will be added to EATOM!!)
 
 
 POSCAR: Mn  F                                   
  positions in cartesian coordinates
  No initial velocities read in

 METAGGA = SCAN     LMAXTAU =  6    LMIXTAU =  F

 exchange correlation table for  LEXCH =        8
   RHO(1)=    0.500       N(1)  =     2000
   RHO(2)=  100.500       N(2)  =     4000
 


--------------------------------------------------------------------------------------------------------


 ion  position               nearest neighbor table
   1  0.500  0.500  0.500-   3 2.11   4 2.11   5 2.14   6 2.14   5 2.14   6 2.14
   2  0.000  0.000  0.000-   5 2.11   6 2.11   3 2.14   4 2.14   3 2.14   4 2.14
   3  0.195  0.805  0.500-   1 2.11   2 2.14   2 2.14
   4  0.805  0.195  0.500-   1 2.11   2 2.14   2 2.14
   5  0.305  0.305  0.000-   2 2.11   1 2.14   1 2.14
   6  0.695  0.695  0.000-   2 2.11   1 2.14   1 2.14
 

IMPORTANT INFORMATION: All symmetrisations will be switched off!
NOSYMM: (Re-)initialisation of all symmetry stuff for point group C_1.

 
 
 KPOINTS: KPOINTS created by Atomic Simulation Env
  k-points in reciprocal lattice
Space group operators:
 irot       det(A)        alpha          n_x          n_y          n_z        tau_x        tau_y        tau_z
    1     1.000000     0.000000     1.000000     0.000000     0.000000     0.000000     0.000000     0.000000


--------------------------------------------------------------------------------------------------------




 Dimension of arrays:
   k-points           NKPTS =    152   k-points in BZ     NKDIM =    152   number of bands    NBANDS=     48
   number of dos      NEDOS =    301   number of ions     NIONS =      6
   non local maximal  LDIM  =      6   non local SUM 2l+1 LMDIM =     18
   total plane-waves  NPLWV =  24576
   max r-space proj   IRMAX =      1   max aug-charges    IRDMAX=  75389
   dimension x,y,z NGX =    32 NGY =   32 NGZ =   24
   dimension x,y,z NGXF=    64 NGYF=   64 NGZF=   48
   support grid    NGXF=   128 NGYF=  128 NGZF=   96
   ions per type =               2   4
   NGX,Y,Z   is equivalent  to a cutoff of  10.88, 10.88, 12.04 a.u.
   NGXF,Y,Z  is equivalent  to a cutoff of  21.75, 21.75, 24.07 a.u.

 SYSTEM =  unknown system                          
 POSCAR =  Mn  F                                   

 Startparameter for this run:
   NWRITE =      2    write-flag & timer
   PREC   = normal    normal or accurate (medium, high low for compatibility)
   ISTART =      1    job   : 0-new  1-cont  2-samecut
   ICHARG =     10    charge: 1-file 2-atom 10-const
   ISPIN  =      2    spin polarized calculation?
   LNONCOLLINEAR =      F non collinear calculations
   LSORBIT =      F    spin-orbit coupling
   INIWAV =      1    electr: 0-lowe 1-rand  2-diag
   LASPH  =      T    aspherical Exc in radial PAW
   METAGGA=      F    non-selfconsistent MetaGGA calc.

 Electronic Relaxation 1
   ENCUT  =  700.0 eV  51.45 Ry    7.17 a.u.  10.55 10.55  7.15*2*pi/ulx,y,z
   ENINI  =  700.0     initial cutoff
   ENAUG  =  613.6 eV  augmentation charge cutoff
   NELM   =     60;   NELMIN=  2; NELMDL=  0     # of ELM steps 
   EDIFF  = 0.1E-06   stopping-criterion for ELM
   LREAL  =      F    real-space projection
   NLSPLINE    = F    spline interpolate recip. space projectors
   LCOMPAT=      F    compatible to vasp.4.4
   GGA_COMPAT  = T    GGA compatible to vasp.4.4-vasp.4.6
   LMAXPAW     = -100 max onsite density
   LMAXMIX     =    4 max onsite mixed and CHGCAR
   VOSKOWN=      0    Vosko Wilk Nusair interpolation
   ROPT   =    0.00000   0.00000
 Ionic relaxation
   EDIFFG = 0.1E-05   stopping-criterion for IOM
   NSW    =      0    number of steps for IOM
   NBLOCK =      1;   KBLOCK =      1    inner block; outer block 
   IBRION =     -1    ionic relax: 0-MD 1-quasi-New 2-CG
   NFREE  =      0    steps in history (QN), initial steepest desc. (CG)
   ISIF   =      2    stress and relaxation
   IWAVPR =     10    prediction:  0-non 1-charg 2-wave 3-comb
   ISYM   =      0    0-nonsym 1-usesym 2-fastsym
   LCORR  =      T    Harris-Foulkes like correction to forces

   POTIM  = 0.5000    time-step for ionic-motion
   TEIN   =    0.0    initial temperature
   TEBEG  =    0.0;   TEEND  =   0.0 temperature during run
   SMASS  =  -3.00    Nose mass-parameter (am)
   estimated Nose-frequenzy (Omega)   =  0.10E-29 period in steps =****** mass=  -0.547E-27a.u.
   SCALEE = 1.0000    scale energy and forces
   NPACO  =    256;   APACO  = 16.0  distance and # of slots for P.C.
   PSTRESS=    0.0 pullay stress

  Mass of Ions in am
   POMASS =  54.94 19.00
  Ionic Valenz
   ZVAL   =  13.00  7.00
  Atomic Wigner-Seitz radii
   RWIGS  =  -1.00 -1.00
  virtual crystal weights 
   VCA    =   1.00  1.00
   NELECT =      54.0000    total number of electrons
   NUPDOWN=      -1.0000    fix difference up-down

 DOS related values:
   EMIN   =  10.00;   EMAX   =-10.00  energy-range for DOS
   EFERMI =   0.00
   ISMEAR =     0;   SIGMA  =   0.01  broadening in eV -4-tet -1-fermi 0-gaus

 Electronic relaxation 2 (details)
   IALGO  =     38    algorithm
   LDIAG  =      T    sub-space diagonalisation (order eigenvalues)
   LSUBROT=      F    optimize rotation matrix (better conditioning)
   TURBO    =      0    0=normal 1=particle mesh
   IRESTART =      0    0=no restart 2=restart with 2 vectors
   NREBOOT  =      0    no. of reboots
   NMIN     =      0    reboot dimension
   EREF     =   0.00    reference energy to select bands
   IMIX   =      4    mixing-type and parameters
     AMIX     =   0.40;   BMIX     =  1.00
     AMIX_MAG =   1.60;   BMIX_MAG =  1.00
     AMIN     =   0.10
     WC   =   100.;   INIMIX=   1;  MIXPRE=   1;  MAXMIX= -45

 Intra band minimization:
   WEIMIN = 0.0000     energy-eigenvalue tresh-hold
   EBREAK =  0.52E-09  absolut break condition
   DEPER  =   0.30     relativ break condition  

   TIME   =   0.40     timestep for ELM

  volume/ion in A,a.u.               =      13.22        89.23
  Fermi-wavevector in a.u.,A,eV,Ry     =   1.440092  2.721380 28.216662  2.073866
  Thomas-Fermi vector in A             =   2.558875
 
 Write flags
   LWAVE        =      F    write WAVECAR
   LDOWNSAMPLE  =      F    k-point downsampling of WAVECAR
   LCHARG       =      T    write CHGCAR
   LVTOT        =      F    write LOCPOT, total local potential
   LVHAR        =      F    write LOCPOT, Hartree potential only
   LELF         =      F    write electronic localiz. function (ELF)
   LORBIT       =     11    0 simple, 1 ext, 2 COOP (PROOUT), +10 PAW based schemes


 Dipole corrections
   LMONO  =      F    monopole corrections only (constant potential shift)
   LDIPOL =      F    correct potential (dipole corrections)
   IDIPOL =      0    1-x, 2-y, 3-z, 4-all directions 
   EPSILON=  1.0000000 bulk dielectric constant

 LDA+U is selected, type is set to LDAUTYPE =  2
   angular momentum for each species LDAUL =     2   -1
   U (eV)           for each species LDAUU =   4.0  0.0
   J (eV)           for each species LDAUJ =   0.0  0.0
 Exchange correlation treatment:
   GGA     =    --    GGA type
   LEXCH   =     8    internal setting for exchange type
   VOSKOWN=      0    Vosko Wilk Nusair interpolation
   LHFCALC =     F    Hartree Fock is set to
   LHFONE  =     F    Hartree Fock one center treatment
   AEXX    =    0.0000 exact exchange contribution

 Linear response parameters
   LEPSILON=     F    determine dielectric tensor
   LRPA    =     F    only Hartree local field effects (RPA)
   LNABLA  =     F    use nabla operator in PAW spheres
   LVEL    =     F    velocity operator in full k-point grid
   LINTERFAST=   F  fast interpolation
   KINTER  =     0    interpolate to denser k-point grid
   CSHIFT  =0.1000    complex shift for real part using Kramers Kronig
   OMEGAMAX=  -1.0    maximum frequency
   DEG_THRESHOLD= 0.2000000E-02 threshold for treating states as degnerate
   RTIME   =   -0.100 relaxation time in fs
  (WPLASMAI=    0.000 imaginary part of plasma frequency in eV, 0.658/RTIME)
   DFIELD  = 0.0000000 0.0000000 0.0000000 field for delta impulse in time
 
 Orbital magnetization related:
   ORBITALMAG=     F  switch on orbital magnetization
   LCHIMAG   =     F  perturbation theory with respect to B field
   DQ        =  0.001000  dq finite difference perturbation B field
   LLRAUG    =     F  two centre corrections for induced B field



--------------------------------------------------------------------------------------------------------


 Static calculation
 charge density and potential remain constant during run
 spin polarized calculation
 Variant of blocked Davidson
 Davidson routine will perform the subspace rotation
 perform sub-space diagonalisation
    after iterative eigenvector-optimisation
 no mixing
 using additional bands           21
 reciprocal scheme for non local part
 use partial core corrections
 calculate Harris-corrections to forces 
   (improved forces if not selfconsistent)
 use gradient corrections 
 WARNING: stress and forces are not correct
  (second derivative of E(xc) not defined)
 use of overlap-Matrix (Vanderbilt PP)
 Gauss-broadening in eV      SIGMA  =   0.01


--------------------------------------------------------------------------------------------------------


  energy-cutoff  :      700.00
  volume of cell :       79.33
      direct lattice vectors                 reciprocal lattice vectors
     4.891796665  0.000000000  0.000000000     0.204423869  0.000000000  0.000000000
     0.000000000  4.891796665  0.000000000     0.000000000  0.204423869  0.000000000
     0.000000000  0.000000000  3.315204934     0.000000000  0.000000000  0.301640478

  length of vectors
     4.891796665  4.891796665  3.315204934     0.204423869  0.204423869  0.301640478


 
 old parameters found on file WAVECAR:
  energy-cutoff  :      700.00
  volume of cell :       79.33
      direct lattice vectors                 reciprocal lattice vectors
     4.891796665  0.000000000  0.000000000     0.204423869  0.000000000  0.000000000
     0.000000000  4.891796665  0.000000000     0.000000000  0.204423869  0.000000000
     0.000000000  0.000000000  3.315204934     0.000000000  0.000000000  0.301640478

  length of vectors

 
 k-points in units of 2pi/SCALE and weight: KPOINTS created by Atomic Simulation Env
   0.00000000  0.00000000  0.00000000       0.007
   0.00000000  0.00786255  0.00000000       0.007
   0.00000000  0.01572490  0.00000000       0.007
   0.00000000  0.02358745  0.00000000       0.007
   0.00000000  0.03144979  0.00000000       0.007
   0.00000000  0.03931235  0.00000000       0.007
   0.00000000  0.04717469  0.00000000       0.007
   0.00000000  0.05503724  0.00000000       0.007
   0.00000000  0.06289959  0.00000000       0.007
   0.00000000  0.07076214  0.00000000       0.007
   0.00000000  0.07862449  0.00000000       0.007
   0.00000000  0.08648704  0.00000000       0.007
   0.00000000  0.09434938  0.00000000       0.007
   0.00000000  0.10221193  0.00000000       0.007
   0.00786255  0.10221193  0.00000000       0.007
   0.01572490  0.10221193  0.00000000       0.007
   0.02358745  0.10221193  0.00000000       0.007
   0.03144979  0.10221193  0.00000000       0.007
   0.03931235  0.10221193  0.00000000       0.007
   0.04717469  0.10221193  0.00000000       0.007
   0.05503724  0.10221193  0.00000000       0.007
   0.06289959  0.10221193  0.00000000       0.007
   0.07076214  0.10221193  0.00000000       0.007
   0.07862449  0.10221193  0.00000000       0.007
   0.08648704  0.10221193  0.00000000       0.007
   0.09434938  0.10221193  0.00000000       0.007
   0.10221193  0.10221193  0.00000000       0.007
   0.09653345  0.09653345  0.00000000       0.007
   0.09085496  0.09085496  0.00000000       0.007
   0.08517668  0.08517668  0.00000000       0.007
   0.07949819  0.07949819  0.00000000       0.007
   0.07381971  0.07381971  0.00000000       0.007
   0.06814122  0.06814122  0.00000000       0.007
   0.06246294  0.06246294  0.00000000       0.007
   0.05678445  0.05678445  0.00000000       0.007
   0.05110597  0.05110597  0.00000000       0.007
   0.04542748  0.04542748  0.00000000       0.007
   0.03974899  0.03974899  0.00000000       0.007
   0.03407071  0.03407071  0.00000000       0.007
   0.02839223  0.02839223  0.00000000       0.007
   0.02271374  0.02271374  0.00000000       0.007
   0.01703525  0.01703525  0.00000000       0.007
   0.01135697  0.01135697  0.00000000       0.007
   0.00567849  0.00567849  0.00000000       0.007
   0.00000000  0.00000000  0.00000000       0.007
   0.00000000  0.00000000  0.00793797       0.007
   0.00000000  0.00000000  0.01587594       0.007
   0.00000000  0.00000000  0.02381361       0.007
   0.00000000  0.00000000  0.03175158       0.007
   0.00000000  0.00000000  0.03968955       0.007
   0.00000000  0.00000000  0.04762752       0.007
   0.00000000  0.00000000  0.05556549       0.007
   0.00000000  0.00000000  0.06350316       0.007
   0.00000000  0.00000000  0.07144113       0.007
   0.00000000  0.00000000  0.07937910       0.007
   0.00000000  0.00000000  0.08731708       0.007
   0.00000000  0.00000000  0.09525474       0.007
   0.00000000  0.00000000  0.10319272       0.007
   0.00000000  0.00000000  0.11113069       0.007
   0.00000000  0.00000000  0.11906866       0.007
   0.00000000  0.00000000  0.12700663       0.007
   0.00000000  0.00000000  0.13494430       0.007
   0.00000000  0.00000000  0.14288227       0.007
   0.00000000  0.00000000  0.15082024       0.007
   0.00000000  0.00786255  0.15082024       0.007
   0.00000000  0.01572490  0.15082024       0.007
   0.00000000  0.02358745  0.15082024       0.007
   0.00000000  0.03144979  0.15082024       0.007
   0.00000000  0.03931235  0.15082024       0.007
   0.00000000  0.04717469  0.15082024       0.007
   0.00000000  0.05503724  0.15082024       0.007
   0.00000000  0.06289959  0.15082024       0.007
   0.00000000  0.07076214  0.15082024       0.007
   0.00000000  0.07862449  0.15082024       0.007
   0.00000000  0.08648704  0.15082024       0.007
   0.00000000  0.09434938  0.15082024       0.007
   0.00000000  0.10221193  0.15082024       0.007
   0.00786255  0.10221193  0.15082024       0.007
   0.01572490  0.10221193  0.15082024       0.007
   0.02358745  0.10221193  0.15082024       0.007
   0.03144979  0.10221193  0.15082024       0.007
   0.03931235  0.10221193  0.15082024       0.007
   0.04717469  0.10221193  0.15082024       0.007
   0.05503724  0.10221193  0.15082024       0.007
   0.06289959  0.10221193  0.15082024       0.007
   0.07076214  0.10221193  0.15082024       0.007
   0.07862449  0.10221193  0.15082024       0.007
   0.08648704  0.10221193  0.15082024       0.007
   0.09434938  0.10221193  0.15082024       0.007
   0.10221193  0.10221193  0.15082024       0.007
   0.09683232  0.09683232  0.15082024       0.007
   0.09145270  0.09145270  0.15082024       0.007
   0.08607328  0.08607328  0.15082024       0.007
   0.08069366  0.08069366  0.15082024       0.007
   0.07531405  0.07531405  0.15082024       0.007
   0.06993443  0.06993443  0.15082024       0.007
   0.06455481  0.06455481  0.15082024       0.007
   0.05917540  0.05917540  0.15082024       0.007
   0.05379578  0.05379578  0.15082024       0.007
   0.04841616  0.04841616  0.15082024       0.007
   0.04303654  0.04303654  0.15082024       0.007
   0.03765713  0.03765713  0.15082024       0.007
   0.03227751  0.03227751  0.15082024       0.007
   0.02689789  0.02689789  0.15082024       0.007
   0.02151827  0.02151827  0.15082024       0.007
   0.01613865  0.01613865  0.15082024       0.007
   0.01075924  0.01075924  0.15082024       0.007
   0.00537962  0.00537962  0.15082024       0.007
   0.00000000  0.00000000  0.15082024       0.007
   0.00000000  0.10221193  0.00000000       0.007
   0.00000000  0.10221193  0.00754101       0.007
   0.00000000  0.10221193  0.01508202       0.007
   0.00000000  0.10221193  0.02262304       0.007
   0.00000000  0.10221193  0.03016405       0.007
   0.00000000  0.10221193  0.03770506       0.007
   0.00000000  0.10221193  0.04524607       0.007
   0.00000000  0.10221193  0.05278708       0.007
   0.00000000  0.10221193  0.06032810       0.007
   0.00000000  0.10221193  0.06786911       0.007
   0.00000000  0.10221193  0.07541012       0.007
   0.00000000  0.10221193  0.08295113       0.007
   0.00000000  0.10221193  0.09049214       0.007
   0.00000000  0.10221193  0.09803316       0.007
   0.00000000  0.10221193  0.10557417       0.007
   0.00000000  0.10221193  0.11311518       0.007
   0.00000000  0.10221193  0.12065619       0.007
   0.00000000  0.10221193  0.12819720       0.007
   0.00000000  0.10221193  0.13573821       0.007
   0.00000000  0.10221193  0.14327923       0.007
   0.00000000  0.10221193  0.15082024       0.007
   0.10221193  0.10221193  0.00000000       0.007
   0.10221193  0.10221193  0.00718206       0.007
   0.10221193  0.10221193  0.01436382       0.007
   0.10221193  0.10221193  0.02154588       0.007
   0.10221193  0.10221193  0.02872764       0.007
   0.10221193  0.10221193  0.03590970       0.007
   0.10221193  0.10221193  0.04309145       0.007
   0.10221193  0.10221193  0.05027351       0.007
   0.10221193  0.10221193  0.05745527       0.007
   0.10221193  0.10221193  0.06463733       0.007
   0.10221193  0.10221193  0.07181909       0.007
   0.10221193  0.10221193  0.07900115       0.007
   0.10221193  0.10221193  0.08618291       0.007
   0.10221193  0.10221193  0.09336497       0.007
   0.10221193  0.10221193  0.10054673       0.007
   0.10221193  0.10221193  0.10772879       0.007
   0.10221193  0.10221193  0.11491054       0.007
   0.10221193  0.10221193  0.12209260       0.007
   0.10221193  0.10221193  0.12927436       0.007
   0.10221193  0.10221193  0.13645642       0.007
   0.10221193  0.10221193  0.14363818       0.007
   0.10221193  0.10221193  0.15082024       0.007
 
 k-points in reciprocal lattice and weights: KPOINTS created by Atomic Simulation Env
   0.00000000  0.00000000  0.00000000       0.007
   0.00000000  0.03846200  0.00000000       0.007
   0.00000000  0.07692300  0.00000000       0.007
   0.00000000  0.11538500  0.00000000       0.007
   0.00000000  0.15384600  0.00000000       0.007
   0.00000000  0.19230800  0.00000000       0.007
   0.00000000  0.23076900  0.00000000       0.007
   0.00000000  0.26923100  0.00000000       0.007
   0.00000000  0.30769200  0.00000000       0.007
   0.00000000  0.34615400  0.00000000       0.007
   0.00000000  0.38461500  0.00000000       0.007
   0.00000000  0.42307700  0.00000000       0.007
   0.00000000  0.46153800  0.00000000       0.007
   0.00000000  0.50000000  0.00000000       0.007
   0.03846200  0.50000000  0.00000000       0.007
   0.07692300  0.50000000  0.00000000       0.007
   0.11538500  0.50000000  0.00000000       0.007
   0.15384600  0.50000000  0.00000000       0.007
   0.19230800  0.50000000  0.00000000       0.007
   0.23076900  0.50000000  0.00000000       0.007
   0.26923100  0.50000000  0.00000000       0.007
   0.30769200  0.50000000  0.00000000       0.007
   0.34615400  0.50000000  0.00000000       0.007
   0.38461500  0.50000000  0.00000000       0.007
   0.42307700  0.50000000  0.00000000       0.007
   0.46153800  0.50000000  0.00000000       0.007
   0.50000000  0.50000000  0.00000000       0.007
   0.47222200  0.47222200  0.00000000       0.007
   0.44444400  0.44444400  0.00000000       0.007
   0.41666700  0.41666700  0.00000000       0.007
   0.38888900  0.38888900  0.00000000       0.007
   0.36111100  0.36111100  0.00000000       0.007
   0.33333300  0.33333300  0.00000000       0.007
   0.30555600  0.30555600  0.00000000       0.007
   0.27777800  0.27777800  0.00000000       0.007
   0.25000000  0.25000000  0.00000000       0.007
   0.22222200  0.22222200  0.00000000       0.007
   0.19444400  0.19444400  0.00000000       0.007
   0.16666700  0.16666700  0.00000000       0.007
   0.13888900  0.13888900  0.00000000       0.007
   0.11111100  0.11111100  0.00000000       0.007
   0.08333300  0.08333300  0.00000000       0.007
   0.05555600  0.05555600  0.00000000       0.007
   0.02777800  0.02777800  0.00000000       0.007
   0.00000000  0.00000000  0.00000000       0.007
   0.00000000  0.00000000  0.02631600       0.007
   0.00000000  0.00000000  0.05263200       0.007
   0.00000000  0.00000000  0.07894700       0.007
   0.00000000  0.00000000  0.10526300       0.007
   0.00000000  0.00000000  0.13157900       0.007
   0.00000000  0.00000000  0.15789500       0.007
   0.00000000  0.00000000  0.18421100       0.007
   0.00000000  0.00000000  0.21052600       0.007
   0.00000000  0.00000000  0.23684200       0.007
   0.00000000  0.00000000  0.26315800       0.007
   0.00000000  0.00000000  0.28947400       0.007
   0.00000000  0.00000000  0.31578900       0.007
   0.00000000  0.00000000  0.34210500       0.007
   0.00000000  0.00000000  0.36842100       0.007
   0.00000000  0.00000000  0.39473700       0.007
   0.00000000  0.00000000  0.42105300       0.007
   0.00000000  0.00000000  0.44736800       0.007
   0.00000000  0.00000000  0.47368400       0.007
   0.00000000  0.00000000  0.50000000       0.007
   0.00000000  0.03846200  0.50000000       0.007
   0.00000000  0.07692300  0.50000000       0.007
   0.00000000  0.11538500  0.50000000       0.007
   0.00000000  0.15384600  0.50000000       0.007
   0.00000000  0.19230800  0.50000000       0.007
   0.00000000  0.23076900  0.50000000       0.007
   0.00000000  0.26923100  0.50000000       0.007
   0.00000000  0.30769200  0.50000000       0.007
   0.00000000  0.34615400  0.50000000       0.007
   0.00000000  0.38461500  0.50000000       0.007
   0.00000000  0.42307700  0.50000000       0.007
   0.00000000  0.46153800  0.50000000       0.007
   0.00000000  0.50000000  0.50000000       0.007
   0.03846200  0.50000000  0.50000000       0.007
   0.07692300  0.50000000  0.50000000       0.007
   0.11538500  0.50000000  0.50000000       0.007
   0.15384600  0.50000000  0.50000000       0.007
   0.19230800  0.50000000  0.50000000       0.007
   0.23076900  0.50000000  0.50000000       0.007
   0.26923100  0.50000000  0.50000000       0.007
   0.30769200  0.50000000  0.50000000       0.007
   0.34615400  0.50000000  0.50000000       0.007
   0.38461500  0.50000000  0.50000000       0.007
   0.42307700  0.50000000  0.50000000       0.007
   0.46153800  0.50000000  0.50000000       0.007
   0.50000000  0.50000000  0.50000000       0.007
   0.47368400  0.47368400  0.50000000       0.007
   0.44736800  0.44736800  0.50000000       0.007
   0.42105300  0.42105300  0.50000000       0.007
   0.39473700  0.39473700  0.50000000       0.007
   0.36842100  0.36842100  0.50000000       0.007
   0.34210500  0.34210500  0.50000000       0.007
   0.31578900  0.31578900  0.50000000       0.007
   0.28947400  0.28947400  0.50000000       0.007
   0.26315800  0.26315800  0.50000000       0.007
   0.23684200  0.23684200  0.50000000       0.007
   0.21052600  0.21052600  0.50000000       0.007
   0.18421100  0.18421100  0.50000000       0.007
   0.15789500  0.15789500  0.50000000       0.007
   0.13157900  0.13157900  0.50000000       0.007
   0.10526300  0.10526300  0.50000000       0.007
   0.07894700  0.07894700  0.50000000       0.007
   0.05263200  0.05263200  0.50000000       0.007
   0.02631600  0.02631600  0.50000000       0.007
   0.00000000  0.00000000  0.50000000       0.007
   0.00000000  0.50000000  0.00000000       0.007
   0.00000000  0.50000000  0.02500000       0.007
   0.00000000  0.50000000  0.05000000       0.007
   0.00000000  0.50000000  0.07500000       0.007
   0.00000000  0.50000000  0.10000000       0.007
   0.00000000  0.50000000  0.12500000       0.007
   0.00000000  0.50000000  0.15000000       0.007
   0.00000000  0.50000000  0.17500000       0.007
   0.00000000  0.50000000  0.20000000       0.007
   0.00000000  0.50000000  0.22500000       0.007
   0.00000000  0.50000000  0.25000000       0.007
   0.00000000  0.50000000  0.27500000       0.007
   0.00000000  0.50000000  0.30000000       0.007
   0.00000000  0.50000000  0.32500000       0.007
   0.00000000  0.50000000  0.35000000       0.007
   0.00000000  0.50000000  0.37500000       0.007
   0.00000000  0.50000000  0.40000000       0.007
   0.00000000  0.50000000  0.42500000       0.007
   0.00000000  0.50000000  0.45000000       0.007
   0.00000000  0.50000000  0.47500000       0.007
   0.00000000  0.50000000  0.50000000       0.007
   0.50000000  0.50000000  0.00000000       0.007
   0.50000000  0.50000000  0.02381000       0.007
   0.50000000  0.50000000  0.04761900       0.007
   0.50000000  0.50000000  0.07142900       0.007
   0.50000000  0.50000000  0.09523800       0.007
   0.50000000  0.50000000  0.11904800       0.007
   0.50000000  0.50000000  0.14285700       0.007
   0.50000000  0.50000000  0.16666700       0.007
   0.50000000  0.50000000  0.19047600       0.007
   0.50000000  0.50000000  0.21428600       0.007
   0.50000000  0.50000000  0.23809500       0.007
   0.50000000  0.50000000  0.26190500       0.007
   0.50000000  0.50000000  0.28571400       0.007
   0.50000000  0.50000000  0.30952400       0.007
   0.50000000  0.50000000  0.33333300       0.007
   0.50000000  0.50000000  0.35714300       0.007
   0.50000000  0.50000000  0.38095200       0.007
   0.50000000  0.50000000  0.40476200       0.007
   0.50000000  0.50000000  0.42857100       0.007
   0.50000000  0.50000000  0.45238100       0.007
   0.50000000  0.50000000  0.47619000       0.007
   0.50000000  0.50000000  0.50000000       0.007
 
 position of ions in fractional coordinates (direct lattice) 
   0.50000000  0.50000000  0.50000000
   0.00000000  0.00000000  0.00000000
   0.19508961  0.80491039  0.50000000
   0.80491039  0.19508961  0.50000000
   0.30491039  0.30491039  0.00000000
   0.69508961  0.69508961  0.00000000
 
 position of ions in cartesian coordinates  (Angst):
   2.44589833  2.44589833  1.65760247
   0.00000000  0.00000000  0.00000000
   0.95433872  3.93745795  1.65760247
   3.93745795  0.95433872  1.65760247
   1.49155962  1.49155962  0.00000000
   3.40023705  3.40023705  0.00000000
 


--------------------------------------------------------------------------------------------------------


 k-point  1 :   0.0000 0.0000 0.0000  plane waves:    3347
 k-point  2 :   0.0000 0.0385 0.0000  plane waves:    3339
 k-point  3 :   0.0000 0.0769 0.0000  plane waves:    3347
 k-point  4 :   0.0000 0.1154 0.0000  plane waves:    3349
 k-point  5 :   0.0000 0.1538 0.0000  plane waves:    3343
 k-point  6 :   0.0000 0.1923 0.0000  plane waves:    3341
 k-point  7 :   0.0000 0.2308 0.0000  plane waves:    3337
 k-point  8 :   0.0000 0.2692 0.0000  plane waves:    3339
 k-point  9 :   0.0000 0.3077 0.0000  plane waves:    3333
 k-point 10 :   0.0000 0.3462 0.0000  plane waves:    3335
 k-point 11 :   0.0000 0.3846 0.0000  plane waves:    3335
 k-point 12 :   0.0000 0.4231 0.0000  plane waves:    3329
 k-point 13 :   0.0000 0.4615 0.0000  plane waves:    3346
 k-point 14 :   0.0000 0.5000 0.0000  plane waves:    3350
 k-point 15 :   0.0385 0.5000 0.0000  plane waves:    3336
 k-point 16 :   0.0769 0.5000 0.0000  plane waves:    3332
 k-point 17 :   0.1154 0.5000 0.0000  plane waves:    3328
 k-point 18 :   0.1538 0.5000 0.0000  plane waves:    3320
 k-point 19 :   0.1923 0.5000 0.0000  plane waves:    3332
 k-point 20 :   0.2308 0.5000 0.0000  plane waves:    3340
 k-point 21 :   0.2692 0.5000 0.0000  plane waves:    3332
 k-point 22 :   0.3077 0.5000 0.0000  plane waves:    3332
 k-point 23 :   0.3462 0.5000 0.0000  plane waves:    3330
 k-point 24 :   0.3846 0.5000 0.0000  plane waves:    3330
 k-point 25 :   0.4231 0.5000 0.0000  plane waves:    3324
 k-point 26 :   0.4615 0.5000 0.0000  plane waves:    3328
 k-point 27 :   0.5000 0.5000 0.0000  plane waves:    3356
 k-point 28 :   0.4722 0.4722 0.0000  plane waves:    3328
 k-point 29 :   0.4444 0.4444 0.0000  plane waves:    3327
 k-point 30 :   0.4167 0.4167 0.0000  plane waves:    3325
 k-point 31 :   0.3889 0.3889 0.0000  plane waves:    3333
 k-point 32 :   0.3611 0.3611 0.0000  plane waves:    3339
 k-point 33 :   0.3333 0.3333 0.0000  plane waves:    3333
 k-point 34 :   0.3056 0.3056 0.0000  plane waves:    3345
 k-point 35 :   0.2778 0.2778 0.0000  plane waves:    3335
 k-point 36 :   0.2500 0.2500 0.0000  plane waves:    3331
 k-point 37 :   0.2222 0.2222 0.0000  plane waves:    3325
 k-point 38 :   0.1944 0.1944 0.0000  plane waves:    3329
 k-point 39 :   0.1667 0.1667 0.0000  plane waves:    3325
 k-point 40 :   0.1389 0.1389 0.0000  plane waves:    3337
 k-point 41 :   0.1111 0.1111 0.0000  plane waves:    3333
 k-point 42 :   0.0833 0.0833 0.0000  plane waves:    3347
 k-point 43 :   0.0556 0.0556 0.0000  plane waves:    3349
 k-point 44 :   0.0278 0.0278 0.0000  plane waves:    3339
 k-point 45 :   0.0000 0.0000 0.0000  plane waves:    3347
 k-point 46 :   0.0000 0.0000 0.0263  plane waves:    3351
 k-point 47 :   0.0000 0.0000 0.0526  plane waves:    3355
 k-point 48 :   0.0000 0.0000 0.0789  plane waves:    3355
 k-point 49 :   0.0000 0.0000 0.1053  plane waves:    3351
 k-point 50 :   0.0000 0.0000 0.1316  plane waves:    3355
 k-point 51 :   0.0000 0.0000 0.1579  plane waves:    3342
 k-point 52 :   0.0000 0.0000 0.1842  plane waves:    3342
 k-point 53 :   0.0000 0.0000 0.2105  plane waves:    3342
 k-point 54 :   0.0000 0.0000 0.2368  plane waves:    3334
 k-point 55 :   0.0000 0.0000 0.2632  plane waves:    3322
 k-point 56 :   0.0000 0.0000 0.2895  plane waves:    3330
 k-point 57 :   0.0000 0.0000 0.3158  plane waves:    3314
 k-point 58 :   0.0000 0.0000 0.3421  plane waves:    3326
 k-point 59 :   0.0000 0.0000 0.3684  plane waves:    3322
 k-point 60 :   0.0000 0.0000 0.3947  plane waves:    3342
 k-point 61 :   0.0000 0.0000 0.4211  plane waves:    3350
 k-point 62 :   0.0000 0.0000 0.4474  plane waves:    3366
 k-point 63 :   0.0000 0.0000 0.4737  plane waves:    3362
 k-point 64 :   0.0000 0.0000 0.5000  plane waves:    3342
 k-point 65 :   0.0000 0.0385 0.5000  plane waves:    3354
 k-point 66 :   0.0000 0.0769 0.5000  plane waves:    3346
 k-point 67 :   0.0000 0.1154 0.5000  plane waves:    3344
 k-point 68 :   0.0000 0.1538 0.5000  plane waves:    3344
 k-point 69 :   0.0000 0.1923 0.5000  plane waves:    3360
 k-point 70 :   0.0000 0.2308 0.5000  plane waves:    3352
 k-point 71 :   0.0000 0.2692 0.5000  plane waves:    3354
 k-point 72 :   0.0000 0.3077 0.5000  plane waves:    3342
 k-point 73 :   0.0000 0.3462 0.5000  plane waves:    3344
 k-point 74 :   0.0000 0.3846 0.5000  plane waves:    3352
 k-point 75 :   0.0000 0.4231 0.5000  plane waves:    3350
 k-point 76 :   0.0000 0.4615 0.5000  plane waves:    3346
 k-point 77 :   0.0000 0.5000 0.5000  plane waves:    3364
 k-point 78 :   0.0385 0.5000 0.5000  plane waves:    3344
 k-point 79 :   0.0769 0.5000 0.5000  plane waves:    3340
 k-point 80 :   0.1154 0.5000 0.5000  plane waves:    3332
 k-point 81 :   0.1538 0.5000 0.5000  plane waves:    3344
 k-point 82 :   0.1923 0.5000 0.5000  plane waves:    3340
 k-point 83 :   0.2308 0.5000 0.5000  plane waves:    3336
 k-point 84 :   0.2692 0.5000 0.5000  plane waves:    3340
 k-point 85 :   0.3077 0.5000 0.5000  plane waves:    3340
 k-point 86 :   0.3462 0.5000 0.5000  plane waves:    3336
 k-point 87 :   0.3846 0.5000 0.5000  plane waves:    3332
 k-point 88 :   0.4231 0.5000 0.5000  plane waves:    3320
 k-point 89 :   0.4615 0.5000 0.5000  plane waves:    3320
 k-point 90 :   0.5000 0.5000 0.5000  plane waves:    3344
 k-point 91 :   0.4737 0.4737 0.5000  plane waves:    3322
 k-point 92 :   0.4474 0.4474 0.5000  plane waves:    3318
 k-point 93 :   0.4211 0.4211 0.5000  plane waves:    3324
 k-point 94 :   0.3947 0.3947 0.5000  plane waves:    3320
 k-point 95 :   0.3684 0.3684 0.5000  plane waves:    3328
 k-point 96 :   0.3421 0.3421 0.5000  plane waves:    3328
 k-point 97 :   0.3158 0.3158 0.5000  plane waves:    3336
 k-point 98 :   0.2895 0.2895 0.5000  plane waves:    3342
 k-point 99 :   0.2632 0.2632 0.5000  plane waves:    3338
 k-point ** :   0.2368 0.2368 0.5000  plane waves:    3342
 k-point ** :   0.2105 0.2105 0.5000  plane waves:    3340
 k-point ** :   0.1842 0.1842 0.5000  plane waves:    3334
 k-point ** :   0.1579 0.1579 0.5000  plane waves:    3334
 k-point ** :   0.1316 0.1316 0.5000  plane waves:    3338
 k-point ** :   0.1053 0.1053 0.5000  plane waves:    3344
 k-point ** :   0.0789 0.0789 0.5000  plane waves:    3348
 k-point ** :   0.0526 0.0526 0.5000  plane waves:    3352
 k-point ** :   0.0263 0.0263 0.5000  plane waves:    3352
 k-point ** :   0.0000 0.0000 0.5000  plane waves:    3342
 k-point ** :   0.0000 0.5000 0.0000  plane waves:    3350
 k-point ** :   0.0000 0.5000 0.0250  plane waves:    3342
 k-point ** :   0.0000 0.5000 0.0500  plane waves:    3328
 k-point ** :   0.0000 0.5000 0.0750  plane waves:    3330
 k-point ** :   0.0000 0.5000 0.1000  plane waves:    3324
 k-point ** :   0.0000 0.5000 0.1250  plane waves:    3324
 k-point ** :   0.0000 0.5000 0.1500  plane waves:    3326
 k-point ** :   0.0000 0.5000 0.1750  plane waves:    3338
 k-point ** :   0.0000 0.5000 0.2000  plane waves:    3338
 k-point ** :   0.0000 0.5000 0.2250  plane waves:    3346
 k-point ** :   0.0000 0.5000 0.2500  plane waves:    3336
 k-point ** :   0.0000 0.5000 0.2750  plane waves:    3322
 k-point ** :   0.0000 0.5000 0.3000  plane waves:    3336
 k-point ** :   0.0000 0.5000 0.3250  plane waves:    3340
 k-point ** :   0.0000 0.5000 0.3500  plane waves:    3328
 k-point ** :   0.0000 0.5000 0.3750  plane waves:    3334
 k-point ** :   0.0000 0.5000 0.4000  plane waves:    3334
 k-point ** :   0.0000 0.5000 0.4250  plane waves:    3342
 k-point ** :   0.0000 0.5000 0.4500  plane waves:    3342
 k-point ** :   0.0000 0.5000 0.4750  plane waves:    3356
 k-point ** :   0.0000 0.5000 0.5000  plane waves:    3364
 k-point ** :   0.5000 0.5000 0.0000  plane waves:    3356
 k-point ** :   0.5000 0.5000 0.0238  plane waves:    3304
 k-point ** :   0.5000 0.5000 0.0476  plane waves:    3304
 k-point ** :   0.5000 0.5000 0.0714  plane waves:    3320
 k-point ** :   0.5000 0.5000 0.0952  plane waves:    3320
 k-point ** :   0.5000 0.5000 0.1190  plane waves:    3304
 k-point ** :   0.5000 0.5000 0.1429  plane waves:    3316
 k-point ** :   0.5000 0.5000 0.1667  plane waves:    3320
 k-point ** :   0.5000 0.5000 0.1905  plane waves:    3320
 k-point ** :   0.5000 0.5000 0.2143  plane waves:    3320
 k-point ** :   0.5000 0.5000 0.2381  plane waves:    3304
 k-point ** :   0.5000 0.5000 0.2619  plane waves:    3308
 k-point ** :   0.5000 0.5000 0.2857  plane waves:    3324
 k-point ** :   0.5000 0.5000 0.3095  plane waves:    3320
 k-point ** :   0.5000 0.5000 0.3333  plane waves:    3324
 k-point ** :   0.5000 0.5000 0.3571  plane waves:    3324
 k-point ** :   0.5000 0.5000 0.3810  plane waves:    3340
 k-point ** :   0.5000 0.5000 0.4048  plane waves:    3340
 k-point ** :   0.5000 0.5000 0.4286  plane waves:    3340
 k-point ** :   0.5000 0.5000 0.4524  plane waves:    3324
 k-point ** :   0.5000 0.5000 0.4762  plane waves:    3332
 k-point ** :   0.5000 0.5000 0.5000  plane waves:    3344

 maximum and minimum number of plane-waves per node :      3366     3304

 maximum number of plane-waves:      3366
 maximum index in each direction: 
   IXMAX=   10   IYMAX=   10   IZMAX=    7
   IXMIN=  -11   IYMIN=  -11   IZMIN=   -7


 serial   3D FFT for wavefunctions
 parallel 3D FFT for charge:
    minimum data exchange during FFTs selected (reduces bandwidth)


 total amount of memory used by VASP MPI-rank0   394372. kBytes
=======================================================================

   base      :      30000. kBytes
   nonl-proj :     147760. kBytes
   fftplans  :       7420. kBytes
   grid      :       8454. kBytes
   one-center:        186. kBytes
   wavefun   :     200552. kBytes
 
     INWAV:  cpu time    1.9430: real time    1.9430
 charge density for first step will be calculated from the start-wavefunctions


--------------------------------------------------------------------------------------------------------


 Maximum index for augmentation-charges        18257 (set IRDMAX)


--------------------------------------------------------------------------------------------------------


 initial charge from wavefunction
 First call to EWALD:  gamma=   0.413
 Maximum number of real-space cells 2x 2x 3
 Maximum number of reciprocal cells 3x 3x 2

    FEWALD:  cpu time    0.0008: real time    0.0008


--------------------------------------- Iteration      1(   1)  ---------------------------------------


    POTLOK:  cpu time    0.0761: real time    0.0761
    SETDIJ:  cpu time    1.0743: real time    1.0743
atom =   1  type =  1  l = 2
 
 onsite density matrix
 
spin component  1
 
  0.0873  0.0055  0.0077  0.0112  0.0000
  0.0055  0.0871  0.0066  0.0331 -0.0118
  0.0077  0.0066  0.0896  0.0036 -0.0002
  0.0112  0.0331  0.0036  0.0880  0.0073
  0.0000 -0.0118 -0.0002  0.0073  0.0713
 
spin component  2
 
  0.9226 -0.0022  0.0280 -0.0043 -0.0000
 -0.0022  0.9317 -0.0025  0.0133  0.0042
  0.0280 -0.0025  0.9141 -0.0011  0.0001
 -0.0043  0.0133 -0.0011  0.9313 -0.0022
 -0.0000  0.0042  0.0001 -0.0022  0.9119
 
 occupancies and eigenvectors
 
  o =  0.0464  v = -0.0918 -0.6284  0.0592  0.6047 -0.4770  0.0000  0.0000  0.0000  0.0000  0.0000      0.0000  0.0000  0.0000  0.0000  0.0000  0.0000  0.0000  0.0000  0.0000  0.0000
  o =  0.0767  v =  0.4929  0.1411 -0.2866 -0.3325 -0.7379  0.0000  0.0000  0.0000  0.0000  0.0000      0.0000  0.0000  0.0000  0.0000  0.0000  0.0000  0.0000  0.0000  0.0000  0.0000
  o =  0.0823  v =  0.6394 -0.3002 -0.4901  0.2028  0.4687  0.0000  0.0000  0.0000  0.0000  0.0000      0.0000  0.0000  0.0000  0.0000  0.0000  0.0000  0.0000  0.0000  0.0000  0.0000
  o =  0.0908  v =  0.4873 -0.2885  0.7839 -0.2431  0.0753  0.0000  0.0000  0.0000  0.0000  0.0000      0.0000  0.0000  0.0000  0.0000  0.0000  0.0000  0.0000  0.0000  0.0000  0.0000
  o =  0.1269  v = -0.3199 -0.6417 -0.2441 -0.6508  0.0517  0.0000  0.0000  0.0000  0.0000  0.0000      0.0000  0.0000  0.0000  0.0000  0.0000  0.0000  0.0000  0.0000  0.0000  0.0000
  o =  0.8899  v =  0.0000  0.0000  0.0000  0.0000  0.0000  0.6524 -0.0294 -0.7550  0.0571  0.0154      0.0000  0.0000  0.0000  0.0000  0.0000  0.0000  0.0000  0.0000  0.0000  0.0000
  o =  0.9095  v =  0.0000  0.0000  0.0000  0.0000  0.0000  0.0264  0.3451 -0.0313 -0.2965 -0.8895      0.0000  0.0000  0.0000  0.0000  0.0000  0.0000  0.0000  0.0000  0.0000  0.0000
  o =  0.9206  v =  0.0000  0.0000  0.0000  0.0000  0.0000  0.0129  0.6013 -0.0526 -0.6553  0.4540      0.0000  0.0000  0.0000  0.0000  0.0000  0.0000  0.0000  0.0000  0.0000  0.0000
  o =  0.9405  v =  0.0000  0.0000  0.0000  0.0000  0.0000 -0.4766 -0.5614 -0.4303 -0.5202 -0.0434      0.0000  0.0000  0.0000  0.0000  0.0000  0.0000  0.0000  0.0000  0.0000  0.0000
  o =  0.9509  v =  0.0000  0.0000  0.0000  0.0000  0.0000 -0.5885  0.4508 -0.4910  0.4570  0.0224      0.0000  0.0000  0.0000  0.0000  0.0000  0.0000  0.0000  0.0000  0.0000  0.0000
atom =   2  type =  1  l = 2
 
 onsite density matrix
 
spin component  1
 
  0.9242 -0.0019 -0.0190 -0.0042  0.0000
 -0.0019  0.9312 -0.0029 -0.0204  0.0045
 -0.0190 -0.0029  0.9146 -0.0017  0.0001
 -0.0042 -0.0204 -0.0017  0.9308 -0.0028
  0.0000  0.0045  0.0001 -0.0028  0.9115
 
spin component  2
 
  0.0866  0.0060 -0.0329  0.0114 -0.0000
  0.0060  0.0878  0.0065 -0.0120 -0.0109
 -0.0329  0.0065  0.0890  0.0036 -0.0002
  0.0114 -0.0120  0.0036  0.0886  0.0056
 -0.0000 -0.0109 -0.0002  0.0056  0.0711
 
 occupancies and eigenvectors
 
  o =  0.0480  v =  0.0000  0.0000  0.0000  0.0000  0.0000 -0.6566  0.3129 -0.6033  0.3206  0.0647      0.0000  0.0000  0.0000  0.0000  0.0000  0.0000  0.0000  0.0000  0.0000  0.0000
  o =  0.0663  v =  0.0000  0.0000  0.0000  0.0000  0.0000 -0.1129 -0.3429 -0.0912  0.1176 -0.9206      0.0000  0.0000  0.0000  0.0000  0.0000  0.0000  0.0000  0.0000  0.0000  0.0000
  o =  0.0834  v =  0.0000  0.0000  0.0000  0.0000  0.0000  0.2472  0.5521  0.3616  0.6851 -0.1842      0.0000  0.0000  0.0000  0.0000  0.0000  0.0000  0.0000  0.0000  0.0000  0.0000
  o =  0.1035  v =  0.0000  0.0000  0.0000  0.0000  0.0000 -0.1410 -0.6859  0.1580  0.6103  0.3350      0.0000  0.0000  0.0000  0.0000  0.0000  0.0000  0.0000  0.0000  0.0000  0.0000
  o =  0.1219  v =  0.0000  0.0000  0.0000  0.0000  0.0000 -0.6893  0.0964  0.6870 -0.2038 -0.0455      0.0000  0.0000  0.0000  0.0000  0.0000  0.0000  0.0000  0.0000  0.0000  0.0000
  o =  0.8977  v =  0.5786  0.2619  0.7232  0.2690 -0.0362  0.0000  0.0000  0.0000  0.0000  0.0000      0.0000  0.0000  0.0000  0.0000  0.0000  0.0000  0.0000  0.0000  0.0000  0.0000
  o =  0.9104  v =  0.1066 -0.3450  0.1532 -0.1838  0.9013  0.0000  0.0000  0.0000  0.0000  0.0000      0.0000  0.0000  0.0000  0.0000  0.0000  0.0000  0.0000  0.0000  0.0000  0.0000
  o =  0.9131  v =  0.1629 -0.5560  0.2889 -0.6413 -0.4119  0.0000  0.0000  0.0000  0.0000  0.0000      0.0000  0.0000  0.0000  0.0000  0.0000  0.0000  0.0000  0.0000  0.0000  0.0000
  o =  0.9389  v =  0.7848 -0.1261 -0.6038  0.0543 -0.0275  0.0000  0.0000  0.0000  0.0000  0.0000      0.0000  0.0000  0.0000  0.0000  0.0000  0.0000  0.0000  0.0000  0.0000  0.0000
  o =  0.9523  v = -0.1072 -0.6981  0.0746  0.6926 -0.1260  0.0000  0.0000  0.0000  0.0000  0.0000      0.0000  0.0000  0.0000  0.0000  0.0000  0.0000  0.0000  0.0000  0.0000  0.0000
     EDDAV:  cpu time   32.2384: real time   32.2821
       DOS:  cpu time    0.0012: real time    0.0012
    --------------------------------------------
      LOOP:  cpu time   33.3901: real time   33.4337

 eigenvalue-minimisations  : 38192
 total energy-change (2. order) :-0.4833367E+02  (-0.7352300E+02)
 number of electron      53.9999997 magnetization      -0.0000000
 augmentation part       19.9469120 magnetization       0.0007357

 Free energy of the ion-electron system (eV)
  ---------------------------------------------------
  alpha Z        PSCENC =       194.59399051
  Ewald energy   TEWEN  =     -4167.81530784
  -Hartree energ DENC   =     -2167.86213737
  -exchange      EXHF   =         0.00000000
  -V(xc)+E(xc)   XCENC  =       166.71247533
  PAW double counting   =      7404.43452794    -7359.71901441
  entropy T*S    EENTRO =        -0.00000000
  eigenvalues    EBANDS =      -807.74100450
  atomic energy  EATOM  =      6689.06280133
  Solvation  Ediel_sol  =         0.00000000
  ---------------------------------------------------
  free energy    TOTEN  =       -48.33366900 eV

  energy without entropy =      -48.33366900  energy(sigma->0) =      -48.33366900


--------------------------------------------------------------------------------------------------------




--------------------------------------- Iteration      1(   2)  ---------------------------------------


     EDDAV:  cpu time   28.7427: real time   28.7436
       DOS:  cpu time    0.0012: real time    0.0012
    --------------------------------------------
      LOOP:  cpu time   28.7439: real time   28.7448

 eigenvalue-minimisations  : 32120
 total energy-change (2. order) :-0.1800801E+02  (-0.1778340E+02)
 number of electron      53.9999997 magnetization      -0.0000000
 augmentation part       19.9469120 magnetization       0.0007357

 Free energy of the ion-electron system (eV)
  ---------------------------------------------------
  alpha Z        PSCENC =       194.59399051
  Ewald energy   TEWEN  =     -4167.81530784
  -Hartree energ DENC   =     -2167.86213737
  -exchange      EXHF   =         0.00000000
  -V(xc)+E(xc)   XCENC  =       166.71247533
  PAW double counting   =      7404.43452794    -7359.71901441
  entropy T*S    EENTRO =        -0.00000000
  eigenvalues    EBANDS =      -825.74901722
  atomic energy  EATOM  =      6689.06280133
  Solvation  Ediel_sol  =         0.00000000
  ---------------------------------------------------
  free energy    TOTEN  =       -66.34168172 eV

  energy without entropy =      -66.34168172  energy(sigma->0) =      -66.34168172


--------------------------------------------------------------------------------------------------------




--------------------------------------- Iteration      1(   3)  ---------------------------------------


     EDDAV:  cpu time   28.6371: real time   28.6380
       DOS:  cpu time    0.0011: real time    0.0011
    --------------------------------------------
      LOOP:  cpu time   28.6382: real time   28.6391

 eigenvalue-minimisations  : 31912
 total energy-change (2. order) :-0.2326223E+00  (-0.2325189E+00)
 number of electron      53.9999997 magnetization      -0.0000000
 augmentation part       19.9469120 magnetization       0.0007357

 Free energy of the ion-electron system (eV)
  ---------------------------------------------------
  alpha Z        PSCENC =       194.59399051
  Ewald energy   TEWEN  =     -4167.81530784
  -Hartree energ DENC   =     -2167.86213737
  -exchange      EXHF   =         0.00000000
  -V(xc)+E(xc)   XCENC  =       166.71247533
  PAW double counting   =      7404.43452794    -7359.71901441
  entropy T*S    EENTRO =        -0.00000000
  eigenvalues    EBANDS =      -825.98163951
  atomic energy  EATOM  =      6689.06280133
  Solvation  Ediel_sol  =         0.00000000
  ---------------------------------------------------
  free energy    TOTEN  =       -66.57430401 eV

  energy without entropy =      -66.57430401  energy(sigma->0) =      -66.57430401


--------------------------------------------------------------------------------------------------------




--------------------------------------- Iteration      1(   4)  ---------------------------------------


     EDDAV:  cpu time   28.7586: real time   28.7588
       DOS:  cpu time    0.0010: real time    0.0010
    --------------------------------------------
      LOOP:  cpu time   28.7596: real time   28.7599

 eigenvalue-minimisations  : 32160
 total energy-change (2. order) :-0.3065853E-02  (-0.3065764E-02)
 number of electron      53.9999997 magnetization      -0.0000000
 augmentation part       19.9469120 magnetization       0.0007357

 Free energy of the ion-electron system (eV)
  ---------------------------------------------------
  alpha Z        PSCENC =       194.59399051
  Ewald energy   TEWEN  =     -4167.81530784
  -Hartree energ DENC   =     -2167.86213737
  -exchange      EXHF   =         0.00000000
  -V(xc)+E(xc)   XCENC  =       166.71247533
  PAW double counting   =      7404.43452794    -7359.71901441
  entropy T*S    EENTRO =        -0.00000000
  eigenvalues    EBANDS =      -825.98470536
  atomic energy  EATOM  =      6689.06280133
  Solvation  Ediel_sol  =         0.00000000
  ---------------------------------------------------
  free energy    TOTEN  =       -66.57736986 eV

  energy without entropy =      -66.57736986  energy(sigma->0) =      -66.57736986


--------------------------------------------------------------------------------------------------------




--------------------------------------- Iteration      1(   5)  ---------------------------------------


     EDDAV:  cpu time   28.5396: real time   28.5400
       DOS:  cpu time    0.0010: real time    0.0010
    --------------------------------------------
      LOOP:  cpu time   28.5407: real time   28.5411

 eigenvalue-minimisations  : 31704
 total energy-change (2. order) :-0.9922434E-04  (-0.9922330E-04)
 number of electron      53.9999997 magnetization      -0.0000000
 augmentation part       19.9469120 magnetization       0.0007357

 Free energy of the ion-electron system (eV)
  ---------------------------------------------------
  alpha Z        PSCENC =       194.59399051
  Ewald energy   TEWEN  =     -4167.81530784
  -Hartree energ DENC   =     -2167.86213737
  -exchange      EXHF   =         0.00000000
  -V(xc)+E(xc)   XCENC  =       166.71247533
  PAW double counting   =      7404.43452794    -7359.71901441
  entropy T*S    EENTRO =        -0.00000000
  eigenvalues    EBANDS =      -825.98480459
  atomic energy  EATOM  =      6689.06280133
  Solvation  Ediel_sol  =         0.00000000
  ---------------------------------------------------
  free energy    TOTEN  =       -66.57746909 eV

  energy without entropy =      -66.57746909  energy(sigma->0) =      -66.57746909


--------------------------------------------------------------------------------------------------------




--------------------------------------- Iteration      1(   6)  ---------------------------------------


     EDDAV:  cpu time   27.1422: real time   27.1426
       DOS:  cpu time    0.0011: real time    0.0011
    --------------------------------------------
      LOOP:  cpu time   27.1433: real time   27.1437

 eigenvalue-minimisations  : 29120
 total energy-change (2. order) :-0.4010266E-05  (-0.4010281E-05)
 number of electron      53.9999997 magnetization      -0.0000000
 augmentation part       19.9469120 magnetization       0.0007357

 Free energy of the ion-electron system (eV)
  ---------------------------------------------------
  alpha Z        PSCENC =       194.59399051
  Ewald energy   TEWEN  =     -4167.81530784
  -Hartree energ DENC   =     -2167.86213737
  -exchange      EXHF   =         0.00000000
  -V(xc)+E(xc)   XCENC  =       166.71247533
  PAW double counting   =      7404.43452794    -7359.71901441
  entropy T*S    EENTRO =        -0.00000000
  eigenvalues    EBANDS =      -825.98480860
  atomic energy  EATOM  =      6689.06280133
  Solvation  Ediel_sol  =         0.00000000
  ---------------------------------------------------
  free energy    TOTEN  =       -66.57747310 eV

  energy without entropy =      -66.57747310  energy(sigma->0) =      -66.57747310


--------------------------------------------------------------------------------------------------------




--------------------------------------- Iteration      1(   7)  ---------------------------------------


     EDDAV:  cpu time   23.4906: real time   23.4909
       DOS:  cpu time    0.0010: real time    0.0010
    --------------------------------------------
      LOOP:  cpu time   23.4917: real time   23.4920

 eigenvalue-minimisations  : 22168
 total energy-change (2. order) :-0.1796907E-06  (-0.1796955E-06)
 number of electron      53.9999997 magnetization      -0.0000000
 augmentation part       19.9469120 magnetization       0.0007357

 Free energy of the ion-electron system (eV)
  ---------------------------------------------------
  alpha Z        PSCENC =       194.59399051
  Ewald energy   TEWEN  =     -4167.81530784
  -Hartree energ DENC   =     -2167.86213737
  -exchange      EXHF   =         0.00000000
  -V(xc)+E(xc)   XCENC  =       166.71247533
  PAW double counting   =      7404.43452794    -7359.71901441
  entropy T*S    EENTRO =        -0.00000000
  eigenvalues    EBANDS =      -825.98480878
  atomic energy  EATOM  =      6689.06280133
  Solvation  Ediel_sol  =         0.00000000
  ---------------------------------------------------
  free energy    TOTEN  =       -66.57747328 eV

  energy without entropy =      -66.57747328  energy(sigma->0) =      -66.57747328


--------------------------------------------------------------------------------------------------------




--------------------------------------- Iteration      1(   8)  ---------------------------------------


     EDDAV:  cpu time   23.0299: real time   23.0301
       DOS:  cpu time    0.0010: real time    0.0010
    --------------------------------------------
      LOOP:  cpu time   23.0309: real time   23.0311

 eigenvalue-minimisations  : 21408
 total energy-change (2. order) :-0.8541065E-08  (-0.8504071E-08)
 number of electron      53.9999997 magnetization      -0.0000000
 augmentation part       19.9469120 magnetization       0.0007357

 Free energy of the ion-electron system (eV)
  ---------------------------------------------------
  alpha Z        PSCENC =       194.59399051
  Ewald energy   TEWEN  =     -4167.81530784
  -Hartree energ DENC   =     -2167.86213737
  -exchange      EXHF   =         0.00000000
  -V(xc)+E(xc)   XCENC  =       166.71247533
  PAW double counting   =      7404.43452794    -7359.71901441
  entropy T*S    EENTRO =        -0.00000000
  eigenvalues    EBANDS =      -825.98480879
  atomic energy  EATOM  =      6689.06280133
  Solvation  Ediel_sol  =         0.00000000
  ---------------------------------------------------
  free energy    TOTEN  =       -66.57747329 eV

  energy without entropy =      -66.57747329  energy(sigma->0) =      -66.57747329


--------------------------------------------------------------------------------------------------------




 average (electrostatic) potential at core
  the test charge radii are     0.9577  0.7167
  (the norm of the test charge is              1.0000)
       1 -59.3415       2 -59.3296       3 -50.3336       4 -50.3336       5 -50.2900
       6 -50.2900
 
 
 
 E-fermi :   0.5385     XC(G=0):  -9.7989     alpha+bet : -8.4484


 spin component 1

 k-point     1 :       0.0000    0.0000    0.0000
  band No.  band energies     occupation 
      1     -50.3758      1.00000
      2     -50.2675      1.00000
      3     -50.1893      1.00000
      4     -43.9196      1.00000
      5     -43.8307      1.00000
      6     -43.7950      1.00000
      7     -22.6590      1.00000
      8     -22.1724      1.00000
      9     -22.1649      1.00000
     10     -22.0609      1.00000
     11      -5.1194      1.00000
     12      -4.5574      1.00000
     13      -4.3875      1.00000
     14      -3.9019      1.00000
     15      -2.9817      1.00000
     16      -2.9683      1.00000
     17      -2.9587      1.00000
     18      -2.9572      1.00000
     19      -2.0002      1.00000
     20      -1.6791      1.00000
     21      -1.6525      1.00000
     22      -1.6382      1.00000
     23      -1.3952      1.00000
     24      -1.3608      1.00000
     25      -1.1662      1.00000
     26      -0.0068      1.00000
     27       0.3813      1.00000
     28       4.8661      0.00000
     29       6.6579      0.00000
     30       7.2532      0.00000
     31       7.4066      0.00000
     32       8.1735      0.00000
     33       8.2365      0.00000
     34      10.0625      0.00000
     35      10.5447      0.00000
     36      12.2209      0.00000
     37      13.0824      0.00000
     38      14.7767      0.00000
     39      15.6537      0.00000
     40      16.2532      0.00000
     41      16.5523      0.00000
     42      17.5100      0.00000
     43      19.3043      0.00000
     44      19.7269      0.00000
     45      23.0577      0.00000
     46      23.2116      0.00000
     47      24.0987      0.00000
     48      24.2214      0.00000

 k-point     2 :       0.0000    0.0385    0.0000
  band No.  band energies     occupation 
      1     -50.3758      1.00000
      2     -50.2674      1.00000
      3     -50.1893      1.00000
      4     -43.9196      1.00000
      5     -43.8307      1.00000
      6     -43.7950      1.00000
      7     -22.6573      1.00000
      8     -22.1787      1.00000
      9     -22.1599      1.00000
     10     -22.0612      1.00000
     11      -5.1141      1.00000
     12      -4.5560      1.00000
     13      -4.3877      1.00000
     14      -3.8983      1.00000
     15      -2.9889      1.00000
     16      -2.9677      1.00000
     17      -2.9568      1.00000
     18      -2.9550      1.00000
     19      -2.0057      1.00000
     20      -1.6957      1.00000
     21      -1.6479      1.00000
     22      -1.6454      1.00000
     23      -1.3929      1.00000
     24      -1.3636      1.00000
     25      -1.1616      1.00000
     26      -0.0001      1.00000
     27       0.3819      1.00000
     28       4.8843      0.00000
     29       6.6589      0.00000
     30       7.2529      0.00000
     31       7.4062      0.00000
     32       8.1724      0.00000
     33       8.2355      0.00000
     34      10.0472      0.00000
     35      10.5328      0.00000
     36      12.2362      0.00000
     37      13.1046      0.00000
     38      14.7536      0.00000
     39      15.5746      0.00000
     40      16.3355      0.00000
     41      16.5831      0.00000
     42      17.5156      0.00000
     43      19.3049      0.00000
     44      19.7324      0.00000
     45      22.9448      0.00000
     46      23.1956      0.00000
     47      24.0908      0.00000
     48      24.2484      0.00000

 k-point     3 :       0.0000    0.0769    0.0000
  band No.  band energies     occupation 
      1     -50.3758      1.00000
      2     -50.2675      1.00000
      3     -50.1893      1.00000
      4     -43.9196      1.00000
      5     -43.8307      1.00000
      6     -43.7950      1.00000
      7     -22.6526      1.00000
      8     -22.1892      1.00000
      9     -22.1535      1.00000
     10     -22.0625      1.00000
     11      -5.0985      1.00000
     12      -4.5517      1.00000
     13      -4.3883      1.00000
     14      -3.8875      1.00000
     15      -3.0122      1.00000
     16      -2.9649      1.00000
     17      -2.9509      1.00000
     18      -2.9479      1.00000
     19      -2.0217      1.00000
     20      -1.7409      1.00000
     21      -1.6629      1.00000
     22      -1.6405      1.00000
     23      -1.3864      1.00000
     24      -1.3721      1.00000
     25      -1.1493      1.00000
     26       0.0192      1.00000
     27       0.3836      1.00000
     28       4.9382      0.00000
     29       6.6619      0.00000
     30       7.2519      0.00000
     31       7.4048      0.00000
     32       8.1691      0.00000
     33       8.2327      0.00000
     34       9.9912      0.00000
     35      10.5139      0.00000
     36      12.2728      0.00000
     37      13.1732      0.00000
     38      14.6877      0.00000
     39      15.4133      0.00000
     40      16.4757      0.00000
     41      16.7026      0.00000
     42      17.5321      0.00000
     43      19.3069      0.00000
     44      19.7491      0.00000
     45      22.6696      0.00000
     46      23.1445      0.00000
     47      23.7608      0.00000
     48      24.1378      0.00000

 k-point     4 :       0.0000    0.1154    0.0000
  band No.  band energies     occupation 
      1     -50.3758      1.00000
      2     -50.2675      1.00000
      3     -50.1893      1.00000
      4     -43.9196      1.00000
      5     -43.8307      1.00000
      6     -43.7950      1.00000
      7     -22.6447      1.00000
      8     -22.2017      1.00000
      9     -22.1478      1.00000
     10     -22.0643      1.00000
     11      -5.0732      1.00000
     12      -4.5442      1.00000
     13      -4.3892      1.00000
     14      -3.8692      1.00000
     15      -3.0513      1.00000
     16      -2.9593      1.00000
     17      -2.9426      1.00000
     18      -2.9352      1.00000
     19      -2.0471      1.00000
     20      -1.8113      1.00000
     21      -1.6845      1.00000
     22      -1.6327      1.00000
     23      -1.3866      1.00000
     24      -1.3766      1.00000
     25      -1.1326      1.00000
     26       0.0491      1.00000
     27       0.3864      1.00000
     28       5.0262      0.00000
     29       6.6667      0.00000
     30       7.2504      0.00000
     31       7.4026      0.00000
     32       8.1635      0.00000
     33       8.2285      0.00000
     34       9.8783      0.00000
     35      10.5196      0.00000
     36      12.3119      0.00000
     37      13.2909      0.00000
     38      14.5883      0.00000
     39      15.2381      0.00000
     40      16.5839      0.00000
     41      16.9215      0.00000
     42      17.5588      0.00000
     43      19.3100      0.00000
     44      19.7773      0.00000
     45      22.3203      0.00000
     46      23.0506      0.00000
     47      23.2257      0.00000
     48      24.1073      0.00000

 k-point     5 :       0.0000    0.1538    0.0000
  band No.  band energies     occupation 
      1     -50.3758      1.00000
      2     -50.2675      1.00000
      3     -50.1893      1.00000
      4     -43.9196      1.00000
      5     -43.8307      1.00000
      6     -43.7950      1.00000
      7     -22.6339      1.00000
      8     -22.2160      1.00000
      9     -22.1428      1.00000
     10     -22.0666      1.00000
     11      -5.0394      1.00000
     12      -4.5331      1.00000
     13      -4.3904      1.00000
     14      -3.8434      1.00000
     15      -3.1049      1.00000
     16      -2.9502      1.00000
     17      -2.9328      1.00000
     18      -2.9180      1.00000
     19      -2.0799      1.00000
     20      -1.9014      1.00000
     21      -1.7083      1.00000
     22      -1.6244      1.00000
     23      -1.4065      1.00000
     24      -1.3652      1.00000
     25      -1.1145      1.00000
     26       0.0870      1.00000
     27       0.3901      1.00000
     28       5.1460      0.00000
     29       6.6732      0.00000
     30       7.2483      0.00000
     31       7.3997      0.00000
     32       8.1555      0.00000
     33       8.2236      0.00000
     34       9.7105      0.00000
     35      10.5629      0.00000
     36      12.3383      0.00000
     37      13.4541      0.00000
     38      14.4685      0.00000
     39      15.0678      0.00000
     40      16.6884      0.00000
     41      17.1763      0.00000
     42      17.5944      0.00000
     43      19.3138      0.00000
     44      19.8171      0.00000
     45      21.9460      0.00000
     46      22.6936      0.00000
     47      22.9088      0.00000
     48      24.0626      0.00000

 k-point     6 :       0.0000    0.1923    0.0000
  band No.  band energies     occupation 
      1     -50.3757      1.00000
      2     -50.2675      1.00000
      3     -50.1893      1.00000
      4     -43.9196      1.00000
      5     -43.8307      1.00000
      6     -43.7950      1.00000
      7     -22.6202      1.00000
      8     -22.2324      1.00000
      9     -22.1386      1.00000
     10     -22.0692      1.00000
     11      -4.9987      1.00000
     12      -4.5171      1.00000
     13      -4.3918      1.00000
     14      -3.8099      1.00000
     15      -3.1716      1.00000
     16      -2.9377      1.00000
     17      -2.9222      1.00000
     18      -2.8975      1.00000
     19      -2.1184      1.00000
     20      -2.0054      1.00000
     21      -1.7324      1.00000
     22      -1.6156      1.00000
     23      -1.4319      1.00000
     24      -1.3529      1.00000
     25      -1.0968      1.00000
     26       0.1299      1.00000
     27       0.3944      1.00000
     28       5.2943      0.00000
     29       6.6809      0.00000
     30       7.2458      0.00000
     31       7.3962      0.00000
     32       8.1448      0.00000
     33       8.2185      0.00000
     34       9.5040      0.00000
     35      10.6390      0.00000
     36      12.3465      0.00000
     37      13.6496      0.00000
     38      14.3432      0.00000
     39      14.9093      0.00000
     40      16.8067      0.00000
     41      17.4234      0.00000
     42      17.6373      0.00000
     43      19.3180      0.00000
     44      19.8693      0.00000
     45      21.5719      0.00000
     46      22.1984      0.00000
     47      22.7223      0.00000
     48      24.0117      0.00000

 k-point     7 :       0.0000    0.2308    0.0000
  band No.  band energies     occupation 
      1     -50.3757      1.00000
      2     -50.2675      1.00000
      3     -50.1893      1.00000
      4     -43.9196      1.00000
      5     -43.8307      1.00000
      6     -43.7950      1.00000
      7     -22.6039      1.00000
      8     -22.2507      1.00000
      9     -22.1350      1.00000
     10     -22.0719      1.00000
     11      -4.9541      1.00000
     12      -4.4946      1.00000
     13      -4.3933      1.00000
     14      -3.7687      1.00000
     15      -3.2498      1.00000
     16      -2.9220      1.00000
     17      -2.9110      1.00000
     18      -2.8755      1.00000
     19      -2.1607      1.00000
     20      -2.1181      1.00000
     21      -1.7548      1.00000
     22      -1.6068      1.00000
     23      -1.4621      1.00000
     24      -1.3408      1.00000
     25      -1.0804      1.00000
     26       0.1747      1.00000
     27       0.3992      1.00000
     28       5.4676      0.00000
     29       6.6897      0.00000
     30       7.2430      0.00000
     31       7.3924      0.00000
     32       8.1311      0.00000
     33       8.2135      0.00000
     34       9.2739      0.00000
     35      10.7406      0.00000
     36      12.3367      0.00000
     37      13.8452      0.00000
     38      14.2333      0.00000
     39      14.7759      0.00000
     40      16.9422      0.00000
     41      17.6298      0.00000
     42      17.6853      0.00000
     43      19.3223      0.00000
     44      19.9343      0.00000
     45      21.2052      0.00000
     46      21.7769      0.00000
     47      22.5032      0.00000
     48      23.9538      0.00000

 k-point     8 :       0.0000    0.2692    0.0000
  band No.  band energies     occupation 
      1     -50.3757      1.00000
      2     -50.2675      1.00000
      3     -50.1893      1.00000
      4     -43.9197      1.00000
      5     -43.8307      1.00000
      6     -43.7950      1.00000
      7     -22.5853      1.00000
      8     -22.2711      1.00000
      9     -22.1319      1.00000
     10     -22.0745      1.00000
     11      -4.9088      1.00000
     12      -4.4635      1.00000
     13      -4.3947      1.00000
     14      -3.7204      1.00000
     15      -3.3377      1.00000
     16      -2.9034      1.00000
     17      -2.8999      1.00000
     18      -2.8540      1.00000
     19      -2.2346      1.00000
     20      -2.2049      1.00000
     21      -1.7736      1.00000
     22      -1.5983      1.00000
     23      -1.4962      1.00000
     24      -1.3295      1.00000
     25      -1.0659      1.00000
     26       0.2189      1.00000
     27       0.4042      1.00000
     28       5.6618      0.00000
     29       6.6993      0.00000
     30       7.2401      0.00000
     31       7.3885      0.00000
     32       8.1134      0.00000
     33       8.2087      0.00000
     34       9.0316      0.00000
     35      10.8623      0.00000
     36      12.3101      0.00000
     37      13.9416      0.00000
     38      14.1956      0.00000
     39      14.7117      0.00000
     40      17.0940      0.00000
     41      17.7357      0.00000
     42      17.7605      0.00000
     43      19.3265      0.00000
     44      20.0128      0.00000
     45      20.8318      0.00000
     46      21.4865      0.00000
     47      22.2654      0.00000
     48      23.8882      0.00000

 k-point     9 :       0.0000    0.3077    0.0000
  band No.  band energies     occupation 
      1     -50.3757      1.00000
      2     -50.2674      1.00000
      3     -50.1893      1.00000
      4     -43.9197      1.00000
      5     -43.8307      1.00000
      6     -43.7950      1.00000
      7     -22.5646      1.00000
      8     -22.2931      1.00000
      9     -22.1294      1.00000
     10     -22.0768      1.00000
     11      -4.8667      1.00000
     12      -4.4216      1.00000
     13      -4.3952      1.00000
     14      -3.6656      1.00000
     15      -3.4332      1.00000
     16      -2.8900      1.00000
     17      -2.8820      1.00000
     18      -2.8362      1.00000
     19      -2.3488      1.00000
     20      -2.2493      1.00000
     21      -1.7871      1.00000
     22      -1.5908      1.00000
     23      -1.5330      1.00000
     24      -1.3196      1.00000
     25      -1.0533      1.00000
     26       0.2600      1.00000
     27       0.4091      1.00000
     28       5.8723      0.00000
     29       6.7097      0.00000
     30       7.2372      0.00000
     31       7.3847      0.00000
     32       8.0883      0.00000
     33       8.2039      0.00000
     34       8.7881      0.00000
     35      10.9996      0.00000
     36      12.2670      0.00000
     37      13.8833      0.00000
     38      14.1983      0.00000
     39      14.8072      0.00000
     40      17.2559      0.00000
     41      17.7858      0.00000
     42      17.7882      0.00000
     43      19.3303      0.00000
     44      20.1053      0.00000
     45      20.4427      0.00000
     46      21.3739      0.00000
     47      22.0208      0.00000
     48      23.8120      0.00000

 k-point    10 :       0.0000    0.3462    0.0000
  band No.  band energies     occupation 
      1     -50.3757      1.00000
      2     -50.2675      1.00000
      3     -50.1893      1.00000
      4     -43.9197      1.00000
      5     -43.8308      1.00000
      6     -43.7950      1.00000
      7     -22.5424      1.00000
      8     -22.3164      1.00000
      9     -22.1274      1.00000
     10     -22.0788      1.00000
     11      -4.8312      1.00000
     12      -4.3995      1.00000
     13      -4.3625      1.00000
     14      -3.6078      1.00000
     15      -3.5323      1.00000
     16      -2.8808      1.00000
     17      -2.8600      1.00000
     18      -2.8265      1.00000
     19      -2.4535      1.00000
     20      -2.2918      1.00000
     21      -1.7941      1.00000
     22      -1.5863      1.00000
     23      -1.5693      1.00000
     24      -1.3114      1.00000
     25      -1.0429      1.00000
     26       0.2961      1.00000
     27       0.4135      1.00000
     28       6.0934      0.00000
     29       6.7219      0.00000
     30       7.2346      0.00000
     31       7.3812      0.00000
     32       8.0453      0.00000
     33       8.1987      0.00000
     34       8.5604      0.00000
     35      11.1486      0.00000
     36      12.2065      0.00000
     37      13.7890      0.00000
     38      14.1394      0.00000
     39      15.0505      0.00000
     40      17.3905      0.00000
     41      17.7385      0.00000
     42      17.8324      0.00000
     43      19.3335      0.00000
     44      20.0531      0.00000
     45      20.2122      0.00000
     46      21.4366      0.00000
     47      21.7785      0.00000
     48      23.7165      0.00000

 k-point    11 :       0.0000    0.3846    0.0000
  band No.  band energies     occupation 
      1     -50.3757      1.00000
      2     -50.2675      1.00000
      3     -50.1893      1.00000
      4     -43.9197      1.00000
      5     -43.8308      1.00000
      6     -43.7950      1.00000
      7     -22.5193      1.00000
      8     -22.3403      1.00000
      9     -22.1258      1.00000
     10     -22.0804      1.00000
     11      -4.8043      1.00000
     12      -4.4000      1.00000
     13      -4.2939      1.00000
     14      -3.6425      1.00000
     15      -3.5398      1.00000
     16      -2.8732      1.00000
     17      -2.8386      1.00000
     18      -2.8312      1.00000
     19      -2.5381      1.00000
     20      -2.3300      1.00000
     21      -1.7942      1.00000
     22      -1.6118      1.00000
     23      -1.5764      1.00000
     24      -1.3049      1.00000
     25      -1.0347      1.00000
     26       0.3257      1.00000
[...]
     25      -1.0371      1.00000
     26      -0.2973      1.00000
     27       0.2246      1.00000
     28       7.0294      0.00000
     29       7.0708      0.00000
     30       7.3254      0.00000
     31       7.7808      0.00000
     32       8.1124      0.00000
     33      10.2553      0.00000
     34      11.3369      0.00000
     35      11.4235      0.00000
     36      11.6445      0.00000
     37      12.5390      0.00000
     38      12.7208      0.00000
     39      12.8215      0.00000
     40      13.3773      0.00000
     41      18.0346      0.00000
     42      18.8691      0.00000
     43      18.8712      0.00000
     44      20.2533      0.00000
     45      20.4409      0.00000
     46      21.5128      0.00000
     47      22.2126      0.00000
     48      22.2176      0.00000

 k-point   151 :       0.5000    0.5000    0.4762
  band No.  band energies     occupation 
      1     -50.3388      1.00000
      2     -50.3067      1.00000
      3     -50.2318      1.00000
      4     -43.9379      1.00000
      5     -43.8288      1.00000
      6     -43.7640      1.00000
      7     -22.2768      1.00000
      8     -22.2515      1.00000
      9     -22.1924      1.00000
     10     -22.1228      1.00000
     11      -4.6610      1.00000
     12      -4.4047      1.00000
     13      -4.2451      1.00000
     14      -4.1470      1.00000
     15      -3.8473      1.00000
     16      -3.5898      1.00000
     17      -2.8063      1.00000
     18      -2.6419      1.00000
     19      -2.5338      1.00000
     20      -1.9069      1.00000
     21      -1.8518      1.00000
     22      -1.7641      1.00000
     23      -1.5925      1.00000
     24      -1.1949      1.00000
     25      -1.0286      1.00000
     26      -0.3113      1.00000
     27       0.2337      1.00000
     28       7.0250      0.00000
     29       7.0669      0.00000
     30       7.3323      0.00000
     31       7.7807      0.00000
     32       8.1267      0.00000
     33      10.2996      0.00000
     34      11.4066      0.00000
     35      11.5614      0.00000
     36      11.6812      0.00000
     37      12.3858      0.00000
     38      12.6280      0.00000
     39      12.8542      0.00000
     40      13.2108      0.00000
     41      18.1222      0.00000
     42      18.8567      0.00000
     43      18.9397      0.00000
     44      20.2411      0.00000
     45      20.3327      0.00000
     46      21.6358      0.00000
     47      22.0370      0.00000
     48      22.2725      0.00000

 k-point   152 :       0.5000    0.5000    0.5000
  band No.  band energies     occupation 
      1     -50.3388      1.00000
      2     -50.3067      1.00000
      3     -50.2319      1.00000
      4     -43.9379      1.00000
      5     -43.8289      1.00000
      6     -43.7640      1.00000
      7     -22.2761      1.00000
      8     -22.2509      1.00000
      9     -22.1926      1.00000
     10     -22.1228      1.00000
     11      -4.6606      1.00000
     12      -4.4018      1.00000
     13      -4.2484      1.00000
     14      -4.1550      1.00000
     15      -3.8107      1.00000
     16      -3.6314      1.00000
     17      -2.8036      1.00000
     18      -2.6432      1.00000
     19      -2.5303      1.00000
     20      -1.9063      1.00000
     21      -1.8513      1.00000
     22      -1.7564      1.00000
     23      -1.5974      1.00000
     24      -1.1979      1.00000
     25      -1.0258      1.00000
     26      -0.3161      1.00000
     27       0.2367      1.00000
     28       7.0235      0.00000
     29       7.0656      0.00000
     30       7.3346      0.00000
     31       7.7806      0.00000
     32       8.1314      0.00000
     33      10.3152      0.00000
     34      11.4322      0.00000
     35      11.6206      0.00000
     36      11.6916      0.00000
     37      12.3215      0.00000
     38      12.5947      0.00000
     39      12.8918      0.00000
     40      13.1296      0.00000
     41      18.1536      0.00000
     42      18.8525      0.00000
     43      18.9634      0.00000
     44      20.2370      0.00000
     45      20.2941      0.00000
     46      21.7100      0.00000
     47      21.9444      0.00000
     48      22.3096      0.00000


--------------------------------------------------------------------------------------------------------


 soft charge-density along one line, spin component           1
         0         1         2         3         4         5         6         7         8         9
 total charge-density along one line
 
 soft charge-density along one line, spin component           2
         0         1         2         3         4         5         6         7         8         9
 total charge-density along one line
 
 pseudopotential strength for first ion, spin component:           1
-46.213   0.007  -0.053   8.197  -0.008   0.010   0.000   0.000
  0.007 -46.150   0.006  -0.008   8.178  -0.005  -0.000   0.000
 -0.053   0.006 -46.214   0.010  -0.005   8.197  -0.000  -0.000
  8.197  -0.008   0.010   5.425   0.000   0.008   0.000   0.000
 -0.008   8.178  -0.005   0.000   5.410  -0.000  -0.000   0.000
  0.010  -0.005   8.197   0.008  -0.000   5.425  -0.000  -0.000
  0.000  -0.000  -0.000   0.000  -0.000  -0.000  -2.193  -0.015
  0.000   0.000  -0.000   0.000   0.000  -0.000  -0.015  -2.157
  0.000  -0.000  -0.000   0.000  -0.000  -0.000   0.007  -0.022
 -0.000   0.000   0.000  -0.000  -0.000   0.000  -0.036  -0.135
  0.000  -0.000   0.000   0.000  -0.000  -0.000  -0.000   0.038
  0.000  -0.000  -0.000   0.000  -0.000   0.000  -2.651  -0.016
  0.000   0.000  -0.000   0.000   0.000  -0.000  -0.016  -2.616
  0.000  -0.000  -0.000   0.000  -0.000  -0.000   0.005  -0.022
 -0.000   0.000   0.000  -0.000  -0.000   0.000  -0.037  -0.139
  0.000  -0.000   0.000   0.000  -0.000  -0.000  -0.000   0.040
 -0.000   0.000   0.000  -0.000  -0.000  -0.000   0.005  -0.007
 -0.000   0.000   0.000  -0.000  -0.000  -0.000   0.008  -0.015
 pseudopotential strength for first ion, spin component:           2
-51.671   0.032   0.025  10.209  -0.025  -0.006   0.000  -0.000
  0.032 -51.658   0.019  -0.025  10.187  -0.014   0.000   0.000
  0.025   0.019 -51.671  -0.006  -0.014  10.209  -0.000   0.000
 10.209  -0.025  -0.006   4.571   0.000   0.001   0.000  -0.000
 -0.025  10.187  -0.014   0.000   4.570   0.000  -0.000   0.000
 -0.006  -0.014  10.209   0.001   0.000   4.571  -0.000  -0.000
  0.000   0.000  -0.000   0.000  -0.000  -0.000  -9.391   0.021
 -0.000   0.000   0.000  -0.000   0.000  -0.000   0.021  -9.417
 -0.000   0.000  -0.000  -0.000   0.000   0.000  -0.127   0.022
  0.000  -0.000   0.000  -0.000  -0.000   0.000   0.037  -0.058
 -0.000   0.000  -0.000  -0.000   0.000  -0.000   0.000  -0.036
  0.000   0.000  -0.000   0.000  -0.000  -0.000  -9.894   0.021
 -0.000   0.000   0.000  -0.000   0.000  -0.000   0.021  -9.921
 -0.000   0.000  -0.000  -0.000   0.000   0.000  -0.129   0.022
  0.000  -0.000   0.000  -0.000  -0.000   0.000   0.037  -0.060
 -0.000   0.000  -0.000  -0.000   0.000  -0.000   0.000  -0.036
  0.000   0.000  -0.000   0.000  -0.000  -0.000  -0.003  -0.015
  0.000   0.000  -0.000   0.000  -0.000  -0.000  -0.005  -0.032
 total augmentation occupancy for first ion, spin component:           1
  1.879  -0.013  -0.011  -0.005  -0.012  -0.009   0.000   0.000  -0.000   0.000  -0.000  -0.000  -0.000   0.000  -0.000   0.000
 -0.013   1.882  -0.006  -0.013  -0.002  -0.007   0.000  -0.000  -0.000   0.000   0.000  -0.000   0.000   0.000  -0.000  -0.000
 -0.011  -0.006   1.879  -0.009  -0.006  -0.004  -0.000  -0.000   0.000  -0.000  -0.000   0.000   0.000  -0.000   0.000   0.000
 -0.005  -0.013  -0.009   0.168   0.007  -0.012   0.000   0.000   0.000   0.000   0.000  -0.000  -0.000  -0.000  -0.000  -0.000
 -0.012  -0.002  -0.006   0.007   0.181   0.004  -0.000  -0.000  -0.000  -0.000   0.000   0.000   0.000   0.000   0.000  -0.000
 -0.009  -0.007  -0.004  -0.012   0.004   0.169   0.000  -0.000  -0.000   0.000   0.000   0.000   0.000   0.000  -0.000  -0.000
  0.000   0.000  -0.000   0.000  -0.000   0.000  11.974   0.527   2.347   0.923   0.017  -9.073  -0.458  -2.289  -0.783  -0.017
  0.000  -0.000  -0.000   0.000  -0.000  -0.000   0.527  11.873   0.519   3.809  -0.976  -0.440  -8.964  -0.437  -3.529   0.828
 -0.000  -0.000   0.000   0.000  -0.000  -0.000   2.347   0.519  10.840   0.360   0.010  -2.281  -0.422  -8.091  -0.303  -0.011
  0.000   0.000  -0.000   0.000  -0.000   0.000   0.923   3.809   0.360  11.828   0.631  -0.769  -3.529  -0.319  -8.914  -0.549
 -0.000   0.000  -0.000   0.000   0.000   0.000   0.017  -0.976   0.010   0.631   9.292  -0.018   0.830  -0.008  -0.546  -6.503
 -0.000  -0.000   0.000  -0.000   0.000   0.000  -9.073  -0.440  -2.281  -0.769  -0.018   7.369   0.376   2.249   0.640   0.017
 -0.000   0.000   0.000  -0.000   0.000   0.000  -0.458  -8.964  -0.422  -3.529   0.830   0.376   7.263   0.348   3.292  -0.693
  0.000   0.000  -0.000  -0.000   0.000   0.000  -2.289  -0.437  -8.091  -0.319  -0.008   2.249   0.348   6.531   0.266   0.009
 -0.000  -0.000   0.000  -0.000   0.000  -0.000  -0.783  -3.529  -0.303  -8.914  -0.546   0.640   3.292   0.266   7.211   0.471
  0.000  -0.000   0.000  -0.000  -0.000  -0.000  -0.017   0.828  -0.011  -0.549  -6.503   0.017  -0.693   0.009   0.471   4.895
  0.000  -0.000  -0.000   0.000  -0.000  -0.000  -0.368  -1.139  -0.429  -0.575   0.041   0.186   0.923   0.438   0.460  -0.041
 -0.000   0.000   0.000  -0.000   0.000   0.000   0.483   0.641   0.027   0.322  -0.012  -0.367  -0.528  -0.044  -0.262   0.012
 total augmentation occupancy for first ion, spin component:           2
 -0.104  -0.002  -0.003  -0.079  -0.002  -0.003   0.000  -0.000   0.000  -0.000   0.000  -0.000   0.000  -0.000   0.000  -0.000
 -0.002  -0.102  -0.001   0.002  -0.073   0.002  -0.000   0.000   0.000  -0.000  -0.000   0.000  -0.000  -0.000   0.000   0.000
 -0.003  -0.001  -0.105  -0.003  -0.002  -0.081   0.000   0.000  -0.000   0.000   0.000  -0.000  -0.000   0.000  -0.000  -0.000
 -0.079   0.002  -0.003  -0.093   0.001  -0.001   0.000  -0.000   0.000  -0.000  -0.000  -0.000   0.000  -0.000   0.000   0.000
 -0.002  -0.073  -0.002   0.001  -0.086   0.001  -0.000  -0.000   0.000  -0.000  -0.000   0.000   0.000  -0.000   0.000   0.000
 -0.003   0.002  -0.081  -0.001   0.001  -0.095  -0.000   0.000  -0.000   0.000  -0.000   0.000  -0.000   0.000  -0.000   0.000
  0.000  -0.000   0.000   0.000  -0.000  -0.000  -6.468  -0.065  -1.607  -0.109  -0.002   4.035   0.105   1.254   0.147   0.002
 -0.000   0.000   0.000  -0.000  -0.000   0.000  -0.065  -6.508  -0.065  -1.737   0.153   0.040   4.055   0.097   1.449  -0.159
  0.000   0.000  -0.000   0.000   0.000  -0.000  -1.607  -0.065  -5.993  -0.045  -0.018   1.238   0.050   3.668   0.032   0.020
 -0.000  -0.000   0.000  -0.000  -0.000   0.000  -0.109  -1.737  -0.045  -6.485  -0.127   0.092   1.448   0.072   4.031   0.127
  0.000  -0.000   0.000  -0.000  -0.000  -0.000  -0.002   0.153  -0.018  -0.127  -5.174   0.003  -0.151   0.018   0.111   2.980
 -0.000   0.000  -0.000  -0.000   0.000   0.000   4.035   0.040   1.238   0.092   0.003  -2.619  -0.070  -0.922  -0.113  -0.002
  0.000  -0.000  -0.000   0.000   0.000  -0.000   0.105   4.055   0.050   1.448  -0.151  -0.070  -2.630  -0.072  -1.148   0.138
 -0.000  -0.000   0.000  -0.000  -0.000   0.000   1.254   0.097   3.668   0.072   0.018  -0.922  -0.072  -2.343  -0.053  -0.020
  0.000   0.000  -0.000   0.000   0.000  -0.000   0.147   1.449   0.032   4.031   0.111  -0.113  -1.148  -0.053  -2.605  -0.101
 -0.000   0.000  -0.000   0.000   0.000   0.000   0.002  -0.159   0.020   0.127   2.980  -0.002   0.138  -0.020  -0.101  -1.800
 -0.000   0.000  -0.000   0.000   0.000  -0.000  -0.051   0.049   0.089  -0.015  -0.009   0.005  -0.044  -0.039   0.005   0.009
  0.000  -0.000   0.000  -0.000  -0.000   0.000  -0.019   0.046   0.021   0.049   0.001   0.022  -0.029  -0.020  -0.033  -0.000


------------------------ aborting loop because EDIFF is reached ----------------------------------------


 


 total charge     
 
# of ion       s       p       d       tot
------------------------------------------
    1        0.176   6.148   4.989  11.313
    2        0.177   6.147   4.990  11.313
    3        1.735   4.370   0.000   6.104
    4        1.735   4.370   0.000   6.104
    5        1.734   4.366   0.000   6.100
    6        1.734   4.366   0.000   6.100
--------------------------------------------------
tot          7.291  29.765   9.979  47.035
 


 magnetization (x)
 
# of ion       s       p       d       tot
------------------------------------------
    1       -0.027  -0.021  -4.672  -4.721
    2        0.027   0.021   4.672   4.720
    3        0.002   0.020   0.000   0.022
    4        0.002   0.020   0.000   0.022
    5       -0.002  -0.020   0.000  -0.022
    6       -0.002  -0.020   0.000  -0.022
--------------------------------------------------
tot         -0.000   0.001  -0.000   0.000
 
    CHARGE:  cpu time    0.4785: real time    0.4785
    FORLOC:  cpu time    0.0018: real time    0.0018
    FORNL :  cpu time    4.0822: real time    4.0822
    STRESS:  cpu time   84.3617: real time   84.3624
    FORCOR:  cpu time    0.0724: real time    0.0724
    FORHAR:  cpu time    0.0046: real time    0.0046
    OFIELD:  cpu time    0.0003: real time    0.0003

  FORCE on cell =-STRESS in cart. coord.  units (eV):
  Direction    XX          YY          ZZ          XY          YZ          ZX
  --------------------------------------------------------------------------------------
  Alpha Z   194.59399   194.59399   194.59399
  Ewald   -1579.42609 -1579.42609 -1008.96626    -0.00000    -0.00000    -0.00000
  Hartree   598.95263   598.70801   985.52062    -0.37100    -0.04695    -0.02871
  E(xc)    -156.34219  -156.36582  -156.39997     0.02355     0.02794     0.01579
  Local     158.39912   159.37507  -790.71776     0.58108     0.10167     0.06266
  n-local  -316.12572  -315.78641  -314.35709    -0.02768    -0.07875    -0.04074
  augment   164.05780   163.97532   165.30315     0.73896     0.76749     0.42608
  Kinetic   924.53178   923.79975   917.51157     0.09173     0.16167     0.09289
  Fock        0.00000     0.00000     0.00000     0.00000     0.00000     0.00000
  -------------------------------------------------------------------------------------
  Total     -11.35867   -11.12618    -7.51175     1.03664     0.93308     0.52796
  in kB    -229.39868  -224.70323  -151.70665    20.93596    18.84433    10.66272
  external pressure =     -201.94 kB  Pullay stress =        0.00 kB


 VOLUME and BASIS-vectors are now :
 -----------------------------------------------------------------------------
  energy-cutoff  :      700.00
  volume of cell :       79.33
      direct lattice vectors                 reciprocal lattice vectors
     4.891796665  0.000000000  0.000000000     0.204423869  0.000000000  0.000000000
     0.000000000  4.891796665  0.000000000     0.000000000  0.204423869  0.000000000
     0.000000000  0.000000000  3.315204934     0.000000000  0.000000000  0.301640478

  length of vectors
     4.891796665  4.891796665  3.315204934     0.204423869  0.204423869  0.301640478


 FORCES acting on ions
    electron-ion (+dipol)            ewald-force                    non-local-force                 convergence-correction
 -----------------------------------------------------------------------------------------------
   0.796E-05 -.709E-05 -.512E-05   0.000E+00 -.568E-13 -.757E-14   -.495E-05 0.717E-05 0.304E-05   -.229E-05 -.610E-06 0.436E-05
   -.443E-04 0.340E-04 0.192E-04   0.000E+00 0.000E+00 -.937E-14   0.204E-05 -.621E-05 -.340E-05   0.362E-04 -.201E-04 -.117E-04
   -.342E+02 0.342E+02 -.229E-01   0.357E+02 -.357E+02 0.376E-14   -.121E+01 0.124E+01 -.435E-01   -.195E+00 0.167E+00 0.623E-01
   0.342E+02 -.342E+02 0.229E-01   -.357E+02 0.357E+02 0.355E-14   0.121E+01 -.124E+01 0.435E-01   0.195E+00 -.167E+00 -.623E-01
   0.343E+02 0.343E+02 -.779E-01   -.357E+02 -.357E+02 0.688E-14   0.133E+01 0.136E+01 -.149E+00   0.201E-01 0.916E-02 0.213E+00
   -.343E+02 -.343E+02 0.779E-01   0.357E+02 0.357E+02 0.656E-14   -.133E+01 -.136E+01 0.149E+00   -.201E-01 -.916E-02 -.213E+00
 -----------------------------------------------------------------------------------------------
   -.377E-04 0.137E-04 0.178E-04   0.711E-14 0.000E+00 0.381E-14   -.444E-05 0.302E-05 -.101E-04   0.344E-04 -.136E-04 -.675E-05
 
 
 POSITION                                       TOTAL-FORCE (eV/Angst)
 -----------------------------------------------------------------------------------
      2.44590      2.44590      1.65760         0.000002     -0.000001      0.000002
      0.00000      0.00000      0.00000        -0.000004      0.000007      0.000004
      0.95434      3.93746      1.65760         0.033574     -0.010105     -0.004020
      3.93746      0.95434      1.65760        -0.033573      0.010102      0.004018
      1.49156      1.49156      0.00000        -0.020172      0.001758     -0.014302
      3.40024      3.40024      0.00000         0.020174     -0.001761      0.014298
 -----------------------------------------------------------------------------------
    total drift:                               -0.000008      0.000003      0.000001


--------------------------------------------------------------------------------------------------------



  FREE ENERGIE OF THE ION-ELECTRON SYSTEM (eV)
  ---------------------------------------------------
  free  energy   TOTEN  =       -66.57747329 eV

  energy  without entropy=      -66.57747329  energy(sigma->0) =      -66.57747329
 


--------------------------------------------------------------------------------------------------------


    POTLOK:  cpu time    1.1497: real time    1.1498


--------------------------------------------------------------------------------------------------------


     LOOP+:  cpu time  313.2126: real time  313.2604
    4ORBIT:  cpu time    0.0000: real time    0.0000
 


 total charge     
 
# of ion       s       p       d       tot
------------------------------------------
    1        0.176   6.148   4.989  11.313
    2        0.177   6.147   4.990  11.313
    3        1.735   4.370   0.000   6.104
    4        1.735   4.370   0.000   6.104
    5        1.734   4.366   0.000   6.100
    6        1.734   4.366   0.000   6.100
--------------------------------------------------
tot          7.291  29.765   9.979  47.035
 


 magnetization (x)
 
# of ion       s       p       d       tot
------------------------------------------
    1       -0.027  -0.021  -4.672  -4.721
    2        0.027   0.021   4.672   4.720
    3        0.002   0.020   0.000   0.022
    4        0.002   0.020   0.000   0.022
    5       -0.002  -0.020   0.000  -0.022
    6       -0.002  -0.020   0.000  -0.022
--------------------------------------------------
tot         -0.000   0.001  -0.000   0.000
 

 total amount of memory used by VASP MPI-rank0   394372. kBytes
=======================================================================

   base      :      30000. kBytes
   nonl-proj :     147760. kBytes
   fftplans  :       7420. kBytes
   grid      :       8454. kBytes
   one-center:        186. kBytes
   wavefun   :     200552. kBytes
 
  
  
 General timing and accounting informations for this job:
 ========================================================
  
                  Total CPU time used (sec):      322.365
                            User time (sec):      321.606
                          System time (sec):        0.760
                         Elapsed time (sec):      322.432
  
                   Maximum memory used (kb):      400232.
                   Average memory used (kb):           0.
  
                          Minor page faults:        99904
                          Major page faults:            4
                 Voluntary context switches:          167
