       N       E                     dE             d eps       ncg     rms          rms(c)
DAV:   1     0.649461054099E+03    0.64946E+03   -0.32739E+04  1308   0.178E+03
DAV:   2     0.472197806596E+01   -0.64474E+03   -0.62685E+03  1464   0.498E+02
DAV:   3    -0.408069503412E+02   -0.45529E+02   -0.45344E+02  1524   0.147E+02
DAV:   4    -0.414071852073E+02   -0.60023E+00   -0.60011E+00  1452   0.184E+01
DAV:   5    -0.414166131488E+02   -0.94279E-02   -0.94279E-02  1524   0.223E+00    0.248E+01
DAV:   6    -0.393329188902E+02    0.20837E+01   -0.15727E+01  1608   0.319E+01    0.159E+01
DAV:   7    -0.399734384433E+02   -0.64052E+00   -0.15635E+00  1524   0.107E+01    0.118E+01
DAV:   8    -0.398854434058E+02    0.87995E-01   -0.52176E-01  1524   0.597E+00    0.472E+00
DAV:   9    -0.401634277518E+02   -0.27798E+00   -0.74390E-02  1428   0.260E+00    0.137E+00
DAV:  10    -0.401638788689E+02   -0.45112E-03   -0.15958E-02  1524   0.101E+00    0.251E-01
DAV:  11    -0.401638404869E+02    0.38382E-04   -0.15374E-03  1404   0.267E-01    0.136E-01
DAV:  12    -0.401638833948E+02   -0.42908E-04   -0.37901E-05  1776   0.825E-02    0.622E-02
DAV:  13    -0.401638896681E+02   -0.62732E-05   -0.37585E-05  1404   0.335E-02    0.214E-02
DAV:  14    -0.401638911823E+02   -0.15142E-05   -0.19207E-06  1464   0.139E-02    0.389E-03
DAV:  15    -0.401638913687E+02   -0.18642E-06   -0.12951E-07  1020   0.306E-03    0.131E-03
DAV:  16    -0.401638913839E+02   -0.15168E-07   -0.18179E-08   684   0.136E-03
   1 F= -.40163891E+02 E0= -.40163891E+02  d E =-.401639E+02  mag=     0.0000
       N       E                     dE             d eps       ncg     rms          rms(c)
DAV:   1    -0.401681483570E+02   -0.42570E-02   -0.86108E-02  1296   0.266E+00    0.559E-01
DAV:   2    -0.401641777080E+02    0.39706E-02   -0.12576E-02  1296   0.801E-01    0.329E-01
DAV:   3    -0.401640788201E+02    0.98888E-04   -0.88174E-04  1320   0.320E-01    0.128E-01
DAV:   4    -0.401640208702E+02    0.57950E-04   -0.78919E-05  1608   0.737E-02    0.839E-02
DAV:   5    -0.401639974360E+02    0.23434E-04   -0.17934E-05  1536   0.337E-02    0.285E-02
DAV:   6    -0.401639981865E+02   -0.75051E-06   -0.15605E-06  1764   0.133E-02    0.286E-03
DAV:   7    -0.401639982387E+02   -0.52170E-07   -0.19642E-07  1260   0.308E-03
   2 F= -.40163998E+02 E0= -.40163998E+02  d E =-.106855E-03  mag=     0.0000
       N       E                     dE             d eps       ncg     rms          rms(c)
DAV:   1    -0.401640891228E+02   -0.90936E-04   -0.17972E-03  1296   0.384E-01    0.808E-02
DAV:   2    -0.401640061960E+02    0.82927E-04   -0.26252E-04  1296   0.116E-01    0.475E-02
DAV:   3    -0.401640041514E+02    0.20446E-05   -0.18563E-05  1308   0.462E-02    0.184E-02
DAV:   4    -0.401640029347E+02    0.12166E-05   -0.16293E-06  1608   0.105E-02    0.120E-02
DAV:   5    -0.401640024389E+02    0.49583E-06   -0.36856E-07  1500   0.484E-03    0.407E-03
DAV:   6    -0.401640024542E+02   -0.15239E-07   -0.25673E-08   708   0.192E-03
   3 F= -.40164002E+02 E0= -.40164002E+02  d E =-.111070E-03  mag=     0.0000
       N       E                     dE             d eps       ncg     rms          rms(c)
DAV:   1    -0.401640049933E+02   -0.25544E-05   -0.51928E-05  1296   0.651E-02    0.137E-02
DAV:   2    -0.401640026130E+02    0.23803E-05   -0.75671E-06  1296   0.197E-02    0.807E-03
DAV:   3    -0.401640025582E+02    0.54736E-07   -0.52812E-07  1344   0.780E-03
   4 F= -.40164003E+02 E0= -.40164003E+02  d E =-.111174E-03  mag=    -0.0000
       N       E                     dE             d eps       ncg     rms          rms(c)
DAV:   1    -0.401640038399E+02   -0.12270E-05   -0.25673E-05  1296   0.457E-02    0.101E-02
DAV:   2    -0.401640025267E+02    0.13132E-05   -0.38892E-06  1296   0.140E-02    0.608E-03
DAV:   3    -0.401640024723E+02    0.54401E-07   -0.28953E-07  1224   0.585E-03
   5 F= -.40164002E+02 E0= -.40164002E+02  d E =-.111088E-03  mag=     0.0000
       N       E                     dE             d eps       ncg     rms          rms(c)
DAV:   1    -0.401640029432E+02   -0.41645E-06   -0.10661E-05  1296   0.297E-02    0.627E-03
DAV:   2    -0.401640025019E+02    0.44130E-06   -0.15260E-06  1296   0.894E-03    0.351E-03
DAV:   3    -0.401640024984E+02    0.35252E-08   -0.99720E-08   888   0.341E-03
   6 F= -.40164002E+02 E0= -.40164002E+02  d E =-.111114E-03  mag=    -0.0000
       N       E                     dE             d eps       ncg     rms          rms(c)
DAV:   1    -0.401640025658E+02   -0.63912E-07   -0.98503E-07  1296   0.890E-03    0.205E-03
DAV:   2    -0.401640025098E+02    0.56014E-07   -0.15082E-07   864   0.281E-03
   7 F= -.40164003E+02 E0= -.40164003E+02  d E =-.111126E-03  mag=     0.0000
       N       E                     dE             d eps       ncg     rms          rms(c)
DAV:   1    -0.401640025342E+02    0.31605E-07   -0.26915E-07  1080   0.477E-03    0.145E-03
DAV:   2    -0.401640025133E+02    0.20870E-07   -0.39976E-08   648   0.184E-03
   8 F= -.40164003E+02 E0= -.40164003E+02  d E =-.111129E-03  mag=     0.0000
       N       E                     dE             d eps       ncg     rms          rms(c)
DAV:   1    -0.401640025158E+02    0.18439E-07   -0.14253E-08   648   0.117E-03    0.702E-04
DAV:   2    -0.401640025125E+02    0.32442E-08   -0.43481E-09   648   0.604E-04
   9 F= -.40164003E+02 E0= -.40164003E+02  d E =-.111129E-03  mag=     0.0000
       N       E                     dE             d eps       ncg     rms          rms(c)
DAV:   1    -0.401640096172E+02   -0.71014E-05   -0.21666E-03  1296   0.303E-01    0.242E-02
DAV:   2    -0.401640097676E+02   -0.15038E-06   -0.57853E-05  1512   0.513E-02    0.148E-02
DAV:   3    -0.401640081978E+02    0.15698E-05   -0.11756E-06  1560   0.907E-03    0.797E-03
DAV:   4    -0.401640075574E+02    0.64032E-06   -0.84175E-07  1620   0.669E-03    0.255E-03
DAV:   5    -0.401640075399E+02    0.17494E-07   -0.15309E-07  1068   0.261E-03
  10 F= -.40164008E+02 E0= -.40164008E+02  d E =-.502742E-05  mag=    -0.0000
