       N       E                     dE             d eps       ncg     rms          rms(c)
DAV:   1     0.963857327981E+03    0.96386E+03   -0.37522E+04  4344   0.201E+03
DAV:   2     0.403147440098E+03   -0.56071E+03   -0.53737E+03  5040   0.514E+02
DAV:   3     0.369540397624E+03   -0.33607E+02   -0.33299E+02  4836   0.135E+02
DAV:   4     0.369126321448E+03   -0.41408E+00   -0.41374E+00  5124   0.163E+01
DAV:   5     0.369119352452E+03   -0.69690E-02   -0.69688E-02  4956   0.196E+00    0.588E+01
DAV:   6    -0.688132692369E+02   -0.43793E+03   -0.28359E+02  5208   0.213E+02    0.629E+01
DAV:   7    -0.714485409013E+02   -0.26353E+01   -0.50568E+01  4512   0.454E+01    0.172E+01
DAV:   8    -0.686373159249E+02    0.28112E+01   -0.71440E+00  5316   0.218E+01    0.648E+00
DAV:   9    -0.681683479699E+02    0.46897E+00   -0.48550E+00  5064   0.188E+01    0.813E+00
DAV:  10    -0.680982566283E+02    0.70091E-01   -0.43359E-01  4692   0.576E+00    0.582E+00
DAV:  11    -0.680744638887E+02    0.23793E-01   -0.10512E+00  5148   0.742E+00    0.194E+00
DAV:  12    -0.680373023534E+02    0.37162E-01   -0.10011E-01  5472   0.318E+00    0.128E+00
DAV:  13    -0.680293650107E+02    0.79373E-02   -0.73346E-02  5028   0.160E+00    0.109E+00
DAV:  14    -0.680243959116E+02    0.49691E-02   -0.50692E-02  4332   0.254E+00    0.413E-01
DAV:  15    -0.680251881179E+02   -0.79221E-03   -0.39496E-03  4584   0.424E-01    0.391E-01
DAV:  16    -0.680245845267E+02    0.60359E-03   -0.25773E-03  4464   0.374E-01    0.146E-01
DAV:  17    -0.680244545711E+02    0.12996E-03   -0.26705E-03  4884   0.370E-01    0.101E-01
DAV:  18    -0.680242784510E+02    0.17612E-03   -0.10833E-04  4440   0.787E-02    0.349E-02
DAV:  19    -0.680242852956E+02   -0.68446E-05   -0.86194E-05  5160   0.565E-02    0.545E-03
DAV:  20    -0.680242953759E+02   -0.10080E-04   -0.59242E-06  4728   0.164E-02    0.576E-03
DAV:  21    -0.680242997485E+02   -0.43726E-05   -0.80762E-07  4548   0.665E-03    0.273E-03
DAV:  22    -0.680243008125E+02   -0.10640E-05   -0.44052E-07  4368   0.391E-03    0.137E-03
DAV:  23    -0.680243013488E+02   -0.53629E-06   -0.11825E-07  3144   0.243E-03    0.525E-04
DAV:  24    -0.680243028299E+02   -0.14811E-05   -0.11136E-08  2160   0.895E-04    0.340E-04
DAV:  25    -0.680243029533E+02   -0.12342E-06   -0.24430E-09  2160   0.353E-04    0.332E-04
DAV:  26    -0.680243028177E+02    0.13565E-06   -0.16758E-09  2160   0.283E-04    0.241E-04
DAV:  27    -0.680243027869E+02    0.30729E-07   -0.37708E-10  2160   0.116E-04
   1 F= -.68024303E+02 E0= -.68024303E+02  d E =-.680243E+02  mag=     0.0000
