       N       E                     dE             d eps       ncg     rms          rms(c)
DAV:   1     0.708257713847E+03    0.70826E+03   -0.36988E+04  1296   0.211E+03
DAV:   2     0.831939369401E+01   -0.69994E+03   -0.67653E+03  1488   0.543E+02
DAV:   3    -0.407566107710E+02   -0.49076E+02   -0.48870E+02  1572   0.157E+02
DAV:   4    -0.414147383872E+02   -0.65813E+00   -0.65802E+00  1428   0.197E+01
DAV:   5    -0.414255793426E+02   -0.10841E-01   -0.10841E-01  1572   0.244E+00    0.248E+01
DAV:   6    -0.393549458005E+02    0.20706E+01   -0.15622E+01  1608   0.319E+01    0.159E+01
DAV:   7    -0.399920827259E+02   -0.63714E+00   -0.15737E+00  1536   0.108E+01    0.118E+01
DAV:   8    -0.399077236203E+02    0.84359E-01   -0.52178E-01  1524   0.599E+00    0.474E+00
DAV:   9    -0.401818793162E+02   -0.27416E+00   -0.73697E-02  1452   0.259E+00    0.137E+00
DAV:  10    -0.401824001112E+02   -0.52080E-03   -0.15994E-02  1560   0.102E+00    0.253E-01
DAV:  11    -0.401823558377E+02    0.44274E-04   -0.15661E-03  1380   0.273E-01    0.142E-01
DAV:  12    -0.401823996282E+02   -0.43790E-04   -0.40055E-05  1764   0.845E-02    0.641E-02
DAV:  13    -0.401824056308E+02   -0.60026E-05   -0.39814E-05  1392   0.345E-02    0.213E-02
DAV:  14    -0.401824070953E+02   -0.14645E-05   -0.19528E-06  1452   0.142E-02    0.394E-03
DAV:  15    -0.401824072853E+02   -0.19000E-06   -0.13926E-07  1092   0.315E-03    0.139E-03
DAV:  16    -0.401824073015E+02   -0.16223E-07   -0.18934E-08   684   0.138E-03
   1 F= -.40182407E+02 E0= -.40182407E+02  d E =-.401824E+02  mag=    -0.0000
