       N       E                     dE             d eps       ncg     rms          rms(c)
DAV:   1     0.561196983341E+03    0.56120E+03   -0.28049E+04  1320   0.142E+03
DAV:   2    -0.158479216434E+01   -0.56278E+03   -0.54634E+03  1452   0.440E+02
DAV:   3    -0.395808966191E+02   -0.37996E+02   -0.37856E+02  1512   0.130E+02
DAV:   4    -0.400368695082E+02   -0.45597E+00   -0.45587E+00  1428   0.157E+01
DAV:   5    -0.400438741479E+02   -0.70046E-02   -0.70046E-02  1560   0.187E+00    0.224E+01
DAV:   6    -0.382791377879E+02    0.17647E+01   -0.14312E+01  1596   0.302E+01    0.143E+01
DAV:   7    -0.389873084246E+02   -0.70817E+00   -0.18062E+00  1536   0.103E+01    0.112E+01
DAV:   8    -0.390800703874E+02   -0.92762E-01   -0.39001E-01  1488   0.529E+00    0.521E+00
DAV:   9    -0.392248466522E+02   -0.14478E+00   -0.45584E-02  1332   0.206E+00    0.128E+00
DAV:  10    -0.392273944241E+02   -0.25478E-02   -0.18946E-02  1584   0.122E+00    0.269E-01
DAV:  11    -0.392276603488E+02   -0.26592E-03   -0.27023E-03  1380   0.343E-01    0.122E-01
DAV:  12    -0.392278333673E+02   -0.17302E-03   -0.11217E-04  1560   0.125E-01    0.546E-02
DAV:  13    -0.392278834550E+02   -0.50088E-04   -0.82392E-05  1356   0.527E-02    0.208E-02
DAV:  14    -0.392278939545E+02   -0.10500E-04   -0.81496E-06  1512   0.205E-02    0.793E-03
DAV:  15    -0.392278937843E+02    0.17015E-06   -0.10254E-06  1440   0.658E-03    0.261E-03
DAV:  16    -0.392278939896E+02   -0.20528E-06   -0.20291E-07  1464   0.256E-03    0.181E-03
DAV:  17    -0.392278939513E+02    0.38304E-07   -0.16252E-08   876   0.100E-03
   1 F= -.39227894E+02 E0= -.39227894E+02  d E =-.392279E+02  mag=    -0.0000
       N       E                     dE             d eps       ncg     rms          rms(c)
DAV:   1    -0.475967080557E+02   -0.83688E+01   -0.16519E+02  1296   0.112E+02    0.243E+01
DAV:   2    -0.394617256560E+02    0.81350E+01   -0.25541E+01  1296   0.366E+01    0.122E+01
DAV:   3    -0.393578893068E+02    0.10384E+00   -0.25924E+00  1332   0.143E+01    0.535E+00
DAV:   4    -0.392883604900E+02    0.69529E-01   -0.96433E-02  1572   0.229E+00    0.299E+00
DAV:   5    -0.392530924319E+02    0.35268E-01   -0.19936E-02  1572   0.124E+00    0.109E+00
DAV:   6    -0.392577734059E+02   -0.46810E-02   -0.46052E-03  1548   0.546E-01    0.144E-01
DAV:   7    -0.392578784021E+02   -0.10500E-03   -0.17200E-04  1428   0.993E-02    0.596E-02
DAV:   8    -0.392579258180E+02   -0.47416E-04   -0.22761E-05  1584   0.363E-02    0.387E-02
DAV:   9    -0.392579340395E+02   -0.82215E-05   -0.64919E-06  1536   0.209E-02    0.777E-03
DAV:  10    -0.392579345944E+02   -0.55487E-06   -0.67847E-07  1548   0.663E-03    0.226E-03
DAV:  11    -0.392579345918E+02    0.25748E-08   -0.39187E-08   840   0.204E-03
   2 F= -.39257935E+02 E0= -.39257935E+02  d E =-.300406E-01  mag=     0.0000
       N       E                     dE             d eps       ncg     rms          rms(c)
DAV:   1    -0.411314534611E+02   -0.18735E+01   -0.37774E+01  1296   0.564E+01    0.116E+01
DAV:   2    -0.394498874591E+02    0.16816E+01   -0.46109E+00  1296   0.157E+01    0.722E+00
DAV:   3    -0.394019488777E+02    0.47939E-01   -0.41354E-01  1368   0.701E+00    0.291E+00
DAV:   4    -0.393757458607E+02    0.26203E-01   -0.47169E-02  1560   0.191E+00    0.197E+00
DAV:   5    -0.393672148171E+02    0.85310E-02   -0.95375E-03  1548   0.784E-01    0.618E-01
DAV:   6    -0.393676797366E+02   -0.46492E-03   -0.94008E-04  1680   0.336E-01    0.607E-02
DAV:   7    -0.393677194854E+02   -0.39749E-04   -0.10100E-04  1500   0.745E-02    0.274E-02
DAV:   8    -0.393677324020E+02   -0.12917E-04   -0.18003E-05  1500   0.431E-02    0.102E-02
DAV:   9    -0.393677329389E+02   -0.53686E-06   -0.36167E-06  1416   0.190E-02    0.378E-03
DAV:  10    -0.393677330132E+02   -0.74308E-07   -0.23133E-07  1392   0.454E-03
   3 F= -.39367733E+02 E0= -.39367733E+02  d E =-.139839E+00  mag=     0.0000
       N       E                     dE             d eps       ncg     rms          rms(c)
DAV:   1    -0.393678769233E+02   -0.14398E-03   -0.28178E-03  1296   0.477E-01    0.100E-01
DAV:   2    -0.393677463810E+02    0.13054E-03   -0.37448E-04  1296   0.139E-01    0.582E-02
DAV:   3    -0.393677436044E+02    0.27767E-05   -0.35120E-05  1320   0.599E-02    0.238E-02
DAV:   4    -0.393677419120E+02    0.16923E-05   -0.27655E-06  1596   0.134E-02    0.156E-02
DAV:   5    -0.393677415939E+02    0.31818E-06   -0.63900E-07  1536   0.635E-03    0.508E-03
DAV:   6    -0.393677415558E+02    0.38029E-07   -0.55015E-08   924   0.251E-03
   4 F= -.39367742E+02 E0= -.39367742E+02  d E =-.139848E+00  mag=    -0.0000
       N       E                     dE             d eps       ncg     rms          rms(c)
DAV:   1    -0.393756514001E+02   -0.79098E-02   -0.79981E-01  1296   0.615E+00    0.706E-01
DAV:   2    -0.393721067995E+02    0.35446E-02   -0.20415E-02  1572   0.106E+00    0.429E-01
DAV:   3    -0.393705790140E+02    0.15278E-02   -0.13264E-03  1536   0.306E-01    0.238E-01
DAV:   4    -0.393701513748E+02    0.42764E-03   -0.69730E-04  1548   0.182E-01    0.698E-02
DAV:   5    -0.393701520188E+02   -0.64401E-06   -0.87398E-05  1416   0.672E-02    0.380E-02
DAV:   6    -0.393701519413E+02    0.77556E-07   -0.61240E-06  1740   0.214E-02    0.195E-02
DAV:   7    -0.393701526235E+02   -0.68219E-06   -0.11189E-06  1500   0.848E-03    0.560E-03
DAV:   8    -0.393701527972E+02   -0.17370E-06   -0.15488E-07  1200   0.327E-03    0.151E-03
DAV:   9    -0.393701527965E+02    0.64847E-09   -0.26444E-08   768   0.123E-03
   5 F= -.39370153E+02 E0= -.39370153E+02  d E =-.241124E-02  mag=    -0.0000
       N       E                     dE             d eps       ncg     rms          rms(c)
DAV:   1    -0.393714239771E+02   -0.12712E-02   -0.14699E-01  1296   0.264E+00    0.303E-01
DAV:   2    -0.393707716375E+02    0.65234E-03   -0.37426E-03  1560   0.453E-01    0.184E-01
DAV:   3    -0.393704917691E+02    0.27987E-03   -0.24395E-04  1536   0.130E-01    0.102E-01
DAV:   4    -0.393704129617E+02    0.78807E-04   -0.12699E-04  1548   0.779E-02    0.300E-02
DAV:   5    -0.393704130944E+02   -0.13269E-06   -0.16181E-05  1416   0.285E-02    0.162E-02
DAV:   6    -0.393704130472E+02    0.47192E-07   -0.11304E-06  1740   0.912E-03    0.839E-03
DAV:   7    -0.393704131912E+02   -0.14401E-06   -0.20094E-07  1368   0.365E-03    0.250E-03
DAV:   8    -0.393704132219E+02   -0.30680E-07   -0.29474E-08   780   0.141E-03
   6 F= -.39370413E+02 E0= -.39370413E+02  d E =-.267167E-02  mag=     0.0000
       N       E                     dE             d eps       ncg     rms          rms(c)
DAV:   1    -0.393704133650E+02   -0.17384E-06   -0.17007E-05  1296   0.283E-02    0.344E-03
DAV:   2    -0.393704132824E+02    0.82608E-07   -0.42034E-07  1536   0.487E-03
   7 F= -.39370413E+02 E0= -.39370413E+02  d E =-.267173E-02  mag=     0.0000
       N       E                     dE             d eps       ncg     rms          rms(c)
DAV:   1    -0.393704137706E+02   -0.40554E-06   -0.67008E-05  1296   0.563E-02    0.750E-03
DAV:   2    -0.393704133257E+02    0.44492E-06   -0.16564E-06  1596   0.956E-03    0.467E-03
DAV:   3    -0.393704131740E+02    0.15169E-06   -0.12719E-07  1008   0.300E-03    0.275E-03
DAV:   4    -0.393704131193E+02    0.54614E-07   -0.90641E-08   696   0.219E-03
   8 F= -.39370413E+02 E0= -.39370413E+02  d E =-.267156E-02  mag=     0.0000
       N       E                     dE             d eps       ncg     rms          rms(c)
DAV:   1    -0.393704132411E+02   -0.67176E-07   -0.77874E-06  1296   0.193E-02    0.249E-03
DAV:   2    -0.393704132073E+02    0.33843E-07   -0.19693E-07  1164   0.328E-03
   9 F= -.39370413E+02 E0= -.39370413E+02  d E =-.267165E-02  mag=    -0.0000
       N       E                     dE             d eps       ncg     rms          rms(c)
DAV:   1    -0.393704133262E+02   -0.85096E-07   -0.77157E-06  1296   0.191E-02    0.303E-03
DAV:   2    -0.393704132598E+02    0.66398E-07   -0.18300E-07  1320   0.320E-03
  10 F= -.39370413E+02 E0= -.39370413E+02  d E =-.267170E-02  mag=    -0.0000
       N       E                     dE             d eps       ncg     rms          rms(c)
DAV:   1    -0.393704132870E+02    0.39246E-07   -0.17097E-06  1296   0.901E-03    0.220E-03
DAV:   2    -0.393704132536E+02    0.33410E-07   -0.40630E-08   648   0.154E-03
  11 F= -.39370413E+02 E0= -.39370413E+02  d E =-.267170E-02  mag=    -0.0000
       N       E                     dE             d eps       ncg     rms          rms(c)
DAV:   1    -0.393704132537E+02    0.33293E-07   -0.24075E-07  1032   0.341E-03    0.145E-03
DAV:   2    -0.393704132457E+02    0.80354E-08   -0.93525E-09   648   0.718E-04
  12 F= -.39370413E+02 E0= -.39370413E+02  d E =-.267169E-02  mag=     0.0000
       N       E                     dE             d eps       ncg     rms          rms(c)
DAV:   1    -0.393704132461E+02    0.75852E-08   -0.13427E-07   648   0.260E-03    0.119E-03
DAV:   2    -0.393704132442E+02    0.19263E-08   -0.98841E-09   648   0.798E-04
  13 F= -.39370413E+02 E0= -.39370413E+02  d E =-.267169E-02  mag=     0.0000
       N       E                     dE             d eps       ncg     rms          rms(c)
DAV:   1    -0.393704132436E+02    0.25493E-08   -0.36805E-08   648   0.140E-03    0.106E-03
DAV:   2    -0.393704132431E+02    0.42110E-09   -0.33006E-09   648   0.462E-04
  14 F= -.39370413E+02 E0= -.39370413E+02  d E =-.267169E-02  mag=    -0.0000
       N       E                     dE             d eps       ncg     rms          rms(c)
DAV:   1    -0.393704132426E+02    0.10114E-08   -0.68243E-09   648   0.614E-04    0.101E-03
DAV:   2    -0.393704132426E+02   -0.64574E-10   -0.75249E-10   648   0.217E-04
  15 F= -.39370413E+02 E0= -.39370413E+02  d E =-.267169E-02  mag=    -0.0000
       N       E                     dE             d eps       ncg     rms          rms(c)
DAV:   1    -0.393704319713E+02   -0.18729E-04   -0.40477E-03  1296   0.420E-01    0.297E-02
DAV:   2    -0.393704297720E+02    0.21993E-05   -0.83777E-05  1596   0.595E-02    0.175E-02
DAV:   3    -0.393704265550E+02    0.32169E-05   -0.28127E-06  1632   0.140E-02    0.880E-03
DAV:   4    -0.393704260675E+02    0.48751E-06   -0.87341E-07  1560   0.659E-03    0.298E-03
DAV:   5    -0.393704260983E+02   -0.30773E-07   -0.50777E-08   684   0.167E-03
  16 F= -.39370426E+02 E0= -.39370426E+02  d E =-.128557E-04  mag=    -0.0000
