       N       E                     dE             d eps       ncg     rms          rms(c)
DAV:   1     0.680745556879E+03    0.68075E+03   -0.34115E+04  3456   0.190E+03
DAV:   2     0.820346963852E+01   -0.67254E+03   -0.65144E+03  3972   0.516E+02
DAV:   3    -0.407370590278E+02   -0.48941E+02   -0.48723E+02  4092   0.153E+02
DAV:   4    -0.414080993648E+02   -0.67104E+00   -0.67088E+00  3900   0.195E+01
DAV:   5    -0.414185461230E+02   -0.10447E-01   -0.10447E-01  4152   0.237E+00    0.248E+01
DAV:   6    -0.393426523219E+02    0.20759E+01   -0.15742E+01  4452   0.319E+01    0.159E+01
DAV:   7    -0.399806607165E+02   -0.63801E+00   -0.15565E+00  4068   0.107E+01    0.118E+01
DAV:   8    -0.398910137614E+02    0.89647E-01   -0.52358E-01  4056   0.599E+00    0.473E+00
DAV:   9    -0.401701209888E+02   -0.27911E+00   -0.74840E-02  3912   0.260E+00    0.136E+00
DAV:  10    -0.401705915474E+02   -0.47056E-03   -0.15753E-02  4212   0.101E+00    0.252E-01
DAV:  11    -0.401705539516E+02    0.37596E-04   -0.15504E-03  3780   0.269E-01    0.139E-01
DAV:  12    -0.401705964505E+02   -0.42499E-04   -0.39811E-05  4608   0.836E-02    0.624E-02
DAV:  13    -0.401706026120E+02   -0.61615E-05   -0.38258E-05  3816   0.338E-02    0.211E-02
DAV:  14    -0.401706041420E+02   -0.15299E-05   -0.18635E-06  3876   0.137E-02    0.393E-03
DAV:  15    -0.401706043146E+02   -0.17266E-06   -0.13445E-07  2856   0.303E-03    0.137E-03
DAV:  16    -0.401706043301E+02   -0.15443E-07   -0.17953E-08  1836   0.134E-03
   1 F= -.40170604E+02 E0= -.40170604E+02  d E =-.401706E+02  mag=     0.0000
