       N       E                     dE             d eps       ncg     rms          rms(c)
DAV:   1     0.663854375590E+03    0.66385E+03   -0.34081E+04   288   0.186E+03
DAV:   2     0.544693407200E+01   -0.65841E+03   -0.64102E+03   336   0.505E+02
DAV:   3    -0.395276863963E+02   -0.44975E+02   -0.44789E+02   312   0.147E+02
DAV:   4    -0.400996238034E+02   -0.57194E+00   -0.57182E+00   324   0.183E+01
DAV:   5    -0.401092770505E+02   -0.96532E-02   -0.96532E-02   336   0.227E+00    0.225E+01
DAV:   6    -0.382157235547E+02    0.18936E+01   -0.15638E+01   324   0.316E+01    0.143E+01
DAV:   7    -0.389377910475E+02   -0.72207E+00   -0.18484E+00   348   0.108E+01    0.113E+01
DAV:   8    -0.390058943274E+02   -0.68103E-01   -0.41146E-01   336   0.540E+00    0.527E+00
DAV:   9    -0.391584063928E+02   -0.15251E+00   -0.46487E-02   288   0.210E+00    0.125E+00
DAV:  10    -0.391603179428E+02   -0.19115E-02   -0.20699E-02   372   0.125E+00    0.280E-01
DAV:  11    -0.391605619482E+02   -0.24401E-03   -0.27017E-03   312   0.348E-01    0.139E-01
DAV:  12    -0.391607162958E+02   -0.15435E-03   -0.10591E-04   348   0.124E-01    0.550E-02
DAV:  13    -0.391607712267E+02   -0.54931E-04   -0.85394E-05   300   0.536E-02    0.209E-02
DAV:  14    -0.391607789546E+02   -0.77279E-05   -0.76689E-06   348   0.215E-02    0.910E-03
DAV:  15    -0.391607787489E+02    0.20575E-06   -0.15328E-06   336   0.748E-03    0.254E-03
DAV:  16    -0.391607790368E+02   -0.28798E-06   -0.21940E-07   312   0.272E-03    0.197E-03
DAV:  17    -0.391607790082E+02    0.28601E-07   -0.18020E-08   216   0.939E-04
   1 F= -.39160779E+02 E0= -.39160779E+02  d E =-.391608E+02  mag=     0.0000
       N       E                     dE             d eps       ncg     rms          rms(c)
DAV:   1    -0.391608718002E+02   -0.92763E-04   -0.40483E-03   288   0.475E-01    0.762E-02
DAV:   2    -0.391608058772E+02    0.65923E-04   -0.18777E-04   312   0.106E-01    0.449E-02
DAV:   3    -0.391607975046E+02    0.83725E-05   -0.20009E-05   348   0.428E-02    0.227E-02
DAV:   4    -0.391607933918E+02    0.41129E-05   -0.32616E-06   360   0.137E-02    0.111E-02
DAV:   5    -0.391607924550E+02    0.93674E-06   -0.13199E-06   360   0.920E-03    0.417E-03
DAV:   6    -0.391607925322E+02   -0.77201E-07   -0.12769E-07   264   0.260E-03
   2 F= -.39160793E+02 E0= -.39160793E+02  d E =-.135240E-04  mag=     0.0000
