 vasp.5.4.4.18Apr17-6-g9f103f2a35 (build Apr 27 2017 11:13:10) complex          
  
 executed on           IFC91_ompi date 2020.05.13  12:20:13
 running on   12 total cores
 distrk:  each k-point on   12 cores,    1 groups
 distr:  one band on NCORES_PER_BAND=   1 cores,   12 groups


--------------------------------------------------------------------------------------------------------


 INCAR:
 POTCAR:    PAW_PBE Mn_pv 02Aug2007               
 POTCAR:    PAW_PBE F 08Apr2002                   

 ----------------------------------------------------------------------------- 
|                                                                             |
|           W    W    AA    RRRRR   N    N  II  N    N   GGGG   !!!           |
|           W    W   A  A   R    R  NN   N  II  NN   N  G    G  !!!           |
|           W    W  A    A  R    R  N N  N  II  N N  N  G       !!!           |
|           W WW W  AAAAAA  RRRRR   N  N N  II  N  N N  G  GGG   !            |
|           WW  WW  A    A  R   R   N   NN  II  N   NN  G    G                |
|           W    W  A    A  R    R  N    N  II  N    N   GGGG   !!!           |
|                                                                             |
|      For optimal performance we recommend to set                            |
|        NCORE= 4 - approx SQRT( number of cores)                             |
|      NCORE specifies how many cores store one orbital (NPAR=cpu/NCORE).     |
|      This setting can  greatly improve the performance of VASP for DFT.     |
|      The default,   NCORE=1            might be grossly inefficient         |
|      on modern multi-core architectures or massively parallel machines.     |
|      Do your own testing !!!!                                               |
|      Unfortunately you need to use the default for GW and RPA calculations. |
|      (for HF NCORE is supported but not extensively tested yet)             |
|                                                                             |
 ----------------------------------------------------------------------------- 

 POTCAR:    PAW_PBE Mn_pv 02Aug2007               
   VRHFIN =Mn: 3p4s3d                                                           
   LEXCH  = PE                                                                  
   EATOM  =  2025.2664 eV,  148.8529 Ry                                         
                                                                                
   TITEL  = PAW_PBE Mn_pv 02Aug2007                                             
   LULTRA =        F    use ultrasoft PP ?                                      
   IUNSCR =        1    unscreen: 0-lin 1-nonlin 2-no                           
   RPACOR =    2.080    partial core radius                                     
   POMASS =   54.938; ZVAL   =   13.000    mass and valenz                      
   RCORE  =    2.300    outmost cutoff radius                                   
   RWIGS  =    2.500; RWIGS  =    1.323    wigner-seitz radius (au A)           
   ENMAX  =  269.864; ENMIN  =  202.398 eV                                      
   ICORE  =        3    local potential                                         
   LCOR   =        T    correct aug charges                                     
   LPAW   =        T    paw PP                                                  
   EAUG   =  569.085                                                            
   DEXC   =    0.000                                                            
   RMAX   =    2.343    core radius for proj-oper                               
   RAUG   =    1.300    factor for augmentation sphere                          
   RDEP   =    2.338    radius for radial grids                                 
   RDEPT  =    1.798    core radius for aug-charge                              
                                                                                
   Atomic configuration                                                         
    8 entries                                                                   
     n  l   j            E        occ.                                          
     1  0  0.50     -6424.8287   2.0000                                         
     2  0  0.50      -739.1154   2.0000                                         
     2  1  1.50      -625.3949   6.0000                                         
     3  0  0.50       -81.6100   2.0000                                         
     3  1  1.50       -50.4667   6.0000                                         
     3  2  2.50        -3.3745   6.0000                                         
     4  0  0.50        -4.1331   1.0000                                         
     4  3  2.50        -1.3606   0.0000                                         
   Description                                                                  
     l       E           TYP  RCUT    TYP  RCUT                                 
     1    -50.4666628     23  2.000                                             
     1     -1.3605826     23  2.000                                             
     2     -3.3744729     23  2.300                                             
     2     -4.7350555     23  2.300                                             
     0     -4.1331431     23  2.300                                             
     0      7.6656591     23  2.300                                             
     3      9.5240782     23  2.300                                             
  local pseudopotential read in
  partial core-charges read in
  partial kinetic energy density read in
  atomic valenz-charges read in
  non local Contribution for L=           1  read in
    real space projection operators read in
  non local Contribution for L=           1  read in
    real space projection operators read in
  non local Contribution for L=           2  read in
    real space projection operators read in
  non local Contribution for L=           2  read in
    real space projection operators read in
  non local Contribution for L=           0  read in
    real space projection operators read in
  non local Contribution for L=           0  read in
    real space projection operators read in
    PAW grid and wavefunctions read in
 
   number of l-projection  operators is LMAX  =           6
   number of lm-projection operators is LMMAX =          18
 
 POTCAR:    PAW_PBE F 08Apr2002                   
   VRHFIN =F: s2p5                                                              
   LEXCH  = PE                                                                  
   EATOM  =   659.6475 eV,   48.4827 Ry                                         
                                                                                
   TITEL  = PAW_PBE F 08Apr2002                                                 
   LULTRA =        F    use ultrasoft PP ?                                      
   IUNSCR =        1    unscreen: 0-lin 1-nonlin 2-no                           
   RPACOR =    1.200    partial core radius                                     
   POMASS =   18.998; ZVAL   =    7.000    mass and valenz                      
   RCORE  =    1.520    outmost cutoff radius                                   
   RWIGS  =    1.500; RWIGS  =    0.794    wigner-seitz radius (au A)           
   ENMAX  =  400.000; ENMIN  =  300.000 eV                                      
   ICORE  =        2    local potential                                         
   LCOR   =        T    correct aug charges                                     
   LPAW   =        T    paw PP                                                  
   EAUG   =  613.614                                                            
   RMAX   =    1.555    core radius for proj-oper                               
   RAUG   =    1.300    factor for augmentation sphere                          
   RDEP   =    1.539    radius for radial grids                                 
   RDEPT  =    1.299    core radius for aug-charge                              
                                                                                
   Atomic configuration                                                         
    4 entries                                                                   
     n  l   j            E        occ.                                          
     1  0  0.50      -663.3661   2.0000                                         
     2  0  0.50       -29.8995   2.0000                                         
     2  1  0.50       -11.1114   5.0000                                         
     3  2  1.50       -10.8847   0.0000                                         
   Description                                                                  
     l       E           TYP  RCUT    TYP  RCUT                                 
     0    -29.8995018     23  1.200                                             
     0     -9.5240782     23  1.200                                             
     1    -11.1113914     23  1.520                                             
     1      1.3605826     23  1.520                                             
     2    -10.8846608      7  1.500                                             
  local pseudopotential read in
  partial core-charges read in
  partial kinetic energy density read in
  atomic valenz-charges read in
  non local Contribution for L=           0  read in
    real space projection operators read in
  non local Contribution for L=           0  read in
    real space projection operators read in
  non local Contribution for L=           1  read in
    real space projection operators read in
  non local Contribution for L=           1  read in
    real space projection operators read in
    PAW grid and wavefunctions read in
 
   number of l-projection  operators is LMAX  =           4
   number of lm-projection operators is LMMAX =           8
 

 ----------------------------------------------------------------------------- 
|                                                                             |
|  ADVICE TO THIS USER RUNNING 'VASP/VAMP'   (HEAR YOUR MASTER'S VOICE ...):  |
|                                                                             |
|      You enforced a specific xc-type in the INCAR file,                     |
|      a different type was found on the POTCAR file                          |
|          I HOPE YOU KNOW, WHAT YOU ARE  DOING                               |
|                                                                             |
 ----------------------------------------------------------------------------- 

  PAW_PBE Mn_pv 02Aug2007               :
 energy of atom  1       EATOM=-2025.2664
 kinetic energy error for atom=    0.0047 (will be added to EATOM!!)
  PAW_PBE F 08Apr2002                   :
 energy of atom  2       EATOM= -659.6475
 kinetic energy error for atom=    0.0256 (will be added to EATOM!!)
 
 
 POSCAR: Mn  F                                   
  positions in cartesian coordinates
  No initial velocities read in
 exchange correlation table for  LEXCH =       14
   RHO(1)=    0.500       N(1)  =     2000
   RHO(2)=  100.500       N(2)  =     4000
 


--------------------------------------------------------------------------------------------------------


 ion  position               nearest neighbor table
   1  0.500  0.500  0.500-   3 2.10   4 2.10   5 2.13   6 2.13   5 2.13   6 2.13
   2  0.000  0.000  0.000-   5 2.10   6 2.10   3 2.13   4 2.13   3 2.13   4 2.13
   3  0.195  0.805  0.500-   1 2.10   2 2.13   2 2.13
   4  0.805  0.195  0.500-   1 2.10   2 2.13   2 2.13
   5  0.305  0.305  0.000-   2 2.10   1 2.13   1 2.13
   6  0.695  0.695  0.000-   2 2.10   1 2.13   1 2.13
 
  LATTYP: Found a simple tetragonal cell.
 ALAT       =     4.8831441434
 C/A-ratio  =     0.6759574529
  
  Lattice vectors:
  
 A1 = (   4.8831441434,   0.0000000000,   0.0000000000)
 A2 = (   0.0000000000,   4.8831441434,   0.0000000000)
 A3 = (   0.0000000000,   0.0000000000,   3.3007976771)


Analysis of symmetry for initial positions (statically):
=====================================================================
 Subroutine PRICEL returns:
 Original cell was already a primitive cell.
 

 Routine SETGRP: Setting up the symmetry group for a 
 simple tetragonal supercell.


 Subroutine GETGRP returns: Found 16 space group operations
 (whereof  8 operations were pure point group operations)
 out of a pool of 16 trial point group operations.


The static configuration has the point symmetry D_2h.
 The point group associated with its full space group is D_4h.


Analysis of symmetry for dynamics (positions and initial velocities):
=====================================================================
 Subroutine PRICEL returns:
 Original cell was already a primitive cell.
 

 Routine SETGRP: Setting up the symmetry group for a 
 simple tetragonal supercell.


 Subroutine GETGRP returns: Found 16 space group operations
 (whereof  8 operations were pure point group operations)
 out of a pool of 16 trial point group operations.


The dynamic configuration has the point symmetry D_2h.
 The point group associated with its full space group is D_4h.


Analysis of structural, dynamic, and magnetic symmetry:
=====================================================================
 Subroutine PRICEL returns:
 Original cell was already a primitive cell.
 

 Routine SETGRP: Setting up the symmetry group for a 
 simple tetragonal supercell.


 Subroutine GETGRP returns: Found 16 space group operations
 (whereof  8 operations were pure point group operations)
 out of a pool of 16 trial point group operations.


The magnetic configuration has the point symmetry D_2h.
 The point group associated with its full space group is D_4h.


 Subroutine INISYM returns: Found 16 space group operations
 (whereof  8 operations are pure point group operations),
 and found     1 'primitive' translations

 
 
 KPOINTS: KPOINTS created by Atomic Simulation Env

Automatic generation of k-mesh.
Space group operators:
 irot       det(A)        alpha          n_x          n_y          n_z        tau_x        tau_y        tau_z
    1     1.000000     0.000001     1.000000     0.000000     0.000000     0.000000     0.000000     0.000000
    2    -1.000000     0.000001     1.000000     0.000000     0.000000     0.000000     0.000000     0.000000
    3     1.000000   179.999999     0.000000     0.000000     1.000000     0.000000     0.000000     0.000000
    4    -1.000000   179.999999     0.000000     0.000000     1.000000     0.000000     0.000000     0.000000
    5     1.000000   180.000000     0.707107     0.707107     0.000000     0.000000     0.000000     0.000000
    6    -1.000000   180.000000     0.707107     0.707107     0.000000     0.000000     0.000000     0.000000
    7     1.000000   180.000000     0.707107    -0.707107     0.000000     0.000000     0.000000     0.000000
    8    -1.000000   180.000000     0.707107    -0.707107     0.000000     0.000000     0.000000     0.000000
    9     1.000000    90.000000     0.000000     0.000000    -1.000000     0.500000     0.500000     0.500000
   10    -1.000000    90.000000     0.000000     0.000000    -1.000000     0.500000     0.500000     0.500000
   11     1.000000    90.000000     0.000000     0.000000     1.000000     0.500000     0.500000     0.500000
   12    -1.000000    90.000000     0.000000     0.000000     1.000000     0.500000     0.500000     0.500000
   13     1.000000   180.000000     0.000000     1.000000     0.000000     0.500000     0.500000     0.500000
   14    -1.000000   180.000000     0.000000     1.000000     0.000000     0.500000     0.500000     0.500000
   15     1.000000   180.000000     1.000000     0.000000     0.000000     0.500000     0.500000     0.500000
   16    -1.000000   180.000000     1.000000     0.000000     0.000000     0.500000     0.500000     0.500000
 
 Subroutine IBZKPT returns following result:
 ===========================================
 
 Found      2 irreducible k-points:
 
 Following reciprocal coordinates:
            Coordinates               Weight
  0.250000  0.250000  0.000000      4.000000
  0.250000  0.250000  0.333333      8.000000
 
 Following cartesian coordinates:
            Coordinates               Weight
  0.051197  0.051197  0.000000      4.000000
  0.051197  0.051197  0.100986      8.000000
 


--------------------------------------------------------------------------------------------------------




 Dimension of arrays:
   k-points           NKPTS =      2   k-points in BZ     NKDIM =      2   number of bands    NBANDS=     36
   number of dos      NEDOS =    301   number of ions     NIONS =      6
   non local maximal  LDIM  =      6   non local SUM 2l+1 LMDIM =     18
   total plane-waves  NPLWV =  18000
   max r-space proj   IRMAX =      1   max aug-charges    IRDMAX=  55706
   dimension x,y,z NGX =    30 NGY =   30 NGZ =   20
   dimension x,y,z NGXF=    60 NGYF=   60 NGZF=   40
   support grid    NGXF=   120 NGYF=  120 NGZF=   80
   ions per type =               2   4
   NGX,Y,Z   is equivalent  to a cutoff of  10.21, 10.21, 10.07 a.u.
   NGXF,Y,Z  is equivalent  to a cutoff of  20.43, 20.43, 20.15 a.u.

 SYSTEM =  unknown system                          
 POSCAR =  Mn  F                                   

 Startparameter for this run:
   NWRITE =      2    write-flag & timer
   PREC   = normal    normal or accurate (medium, high low for compatibility)
   ISTART =      0    job   : 0-new  1-cont  2-samecut
   ICHARG =      2    charge: 1-file 2-atom 10-const
   ISPIN  =      2    spin polarized calculation?
   LNONCOLLINEAR =      F non collinear calculations
   LSORBIT =      F    spin-orbit coupling
   INIWAV =      1    electr: 0-lowe 1-rand  2-diag
   LASPH  =      T    aspherical Exc in radial PAW
   METAGGA=      F    non-selfconsistent MetaGGA calc.

 Electronic Relaxation 1
   ENCUT  =  600.0 eV  44.10 Ry    6.64 a.u.   9.75  9.75  6.59*2*pi/ulx,y,z
   ENINI  =  600.0     initial cutoff
   ENAUG  =  613.6 eV  augmentation charge cutoff
   NELM   =     60;   NELMIN=  2; NELMDL= -5     # of ELM steps 
   EDIFF  = 0.1E-06   stopping-criterion for ELM
   LREAL  =      F    real-space projection
   NLSPLINE    = F    spline interpolate recip. space projectors
   LCOMPAT=      F    compatible to vasp.4.4
   GGA_COMPAT  = T    GGA compatible to vasp.4.4-vasp.4.6
   LMAXPAW     = -100 max onsite density
   LMAXMIX     =    4 max onsite mixed and CHGCAR
   VOSKOWN=      0    Vosko Wilk Nusair interpolation
   ROPT   =    0.00000   0.00000
 Ionic relaxation
   EDIFFG = -.5E-02   stopping-criterion for IOM
   NSW    =     50    number of steps for IOM
   NBLOCK =      1;   KBLOCK =     50    inner block; outer block 
   IBRION =      2    ionic relax: 0-MD 1-quasi-New 2-CG
   NFREE  =      1    steps in history (QN), initial steepest desc. (CG)
   ISIF   =      3    stress and relaxation
   IWAVPR =     11    prediction:  0-non 1-charg 2-wave 3-comb
   ISYM   =      2    0-nonsym 1-usesym 2-fastsym
   LCORR  =      T    Harris-Foulkes like correction to forces

   POTIM  = 0.5000    time-step for ionic-motion
   TEIN   =    0.0    initial temperature
   TEBEG  =    0.0;   TEEND  =   0.0 temperature during run
   SMASS  =  -3.00    Nose mass-parameter (am)
   estimated Nose-frequenzy (Omega)   =  0.10E-29 period in steps =****** mass=  -0.545E-27a.u.
   SCALEE = 1.0000    scale energy and forces
   NPACO  =    256;   APACO  = 16.0  distance and # of slots for P.C.
   PSTRESS=    0.0 pullay stress

  Mass of Ions in am
   POMASS =  54.94 19.00
  Ionic Valenz
   ZVAL   =  13.00  7.00
  Atomic Wigner-Seitz radii
   RWIGS  =  -1.00 -1.00
  virtual crystal weights 
   VCA    =   1.00  1.00
   NELECT =      54.0000    total number of electrons
   NUPDOWN=      -1.0000    fix difference up-down

 DOS related values:
   EMIN   =  10.00;   EMAX   =-10.00  energy-range for DOS
   EFERMI =   0.00
   ISMEAR =     0;   SIGMA  =   0.02  broadening in eV -4-tet -1-fermi 0-gaus

 Electronic relaxation 2 (details)
   IALGO  =     38    algorithm
   LDIAG  =      T    sub-space diagonalisation (order eigenvalues)
   LSUBROT=      F    optimize rotation matrix (better conditioning)
   TURBO    =      0    0=normal 1=particle mesh
   IRESTART =      0    0=no restart 2=restart with 2 vectors
   NREBOOT  =      0    no. of reboots
   NMIN     =      0    reboot dimension
   EREF     =   0.00    reference energy to select bands
   IMIX   =      4    mixing-type and parameters
     AMIX     =   0.40;   BMIX     =  1.00
     AMIX_MAG =   1.60;   BMIX_MAG =  1.00
     AMIN     =   0.10
     WC   =   100.;   INIMIX=   1;  MIXPRE=   1;  MAXMIX= -45

 Intra band minimization:
   WEIMIN = 0.0010     energy-eigenvalue tresh-hold
   EBREAK =  0.69E-09  absolut break condition
   DEPER  =   0.30     relativ break condition  

   TIME   =   0.40     timestep for ELM

  volume/ion in A,a.u.               =      13.12        88.52
  Fermi-wavevector in a.u.,A,eV,Ry     =   1.443888  2.728552 28.365585  2.084812
  Thomas-Fermi vector in A             =   2.562245
 
 Write flags
   LWAVE        =      F    write WAVECAR
   LDOWNSAMPLE  =      F    k-point downsampling of WAVECAR
   LCHARG       =      F    write CHGCAR
   LVTOT        =      F    write LOCPOT, total local potential
   LVHAR        =      F    write LOCPOT, Hartree potential only
   LELF         =      F    write electronic localiz. function (ELF)
   LORBIT       =     11    0 simple, 1 ext, 2 COOP (PROOUT), +10 PAW based schemes


 Dipole corrections
   LMONO  =      F    monopole corrections only (constant potential shift)
   LDIPOL =      F    correct potential (dipole corrections)
   IDIPOL =      0    1-x, 2-y, 3-z, 4-all directions 
   EPSILON=  1.0000000 bulk dielectric constant

 LDA+U is selected, type is set to LDAUTYPE =  2
   angular momentum for each species LDAUL =     2   -1
   U (eV)           for each species LDAUU =   4.0  0.0
   J (eV)           for each species LDAUJ =   0.0  0.0
 Exchange correlation treatment:
   GGA     =    PS    GGA type
   LEXCH   =    14    internal setting for exchange type
   VOSKOWN=      0    Vosko Wilk Nusair interpolation
   LHFCALC =     F    Hartree Fock is set to
   LHFONE  =     F    Hartree Fock one center treatment
   AEXX    =    0.0000 exact exchange contribution

 Linear response parameters
   LEPSILON=     F    determine dielectric tensor
   LRPA    =     F    only Hartree local field effects (RPA)
   LNABLA  =     F    use nabla operator in PAW spheres
   LVEL    =     F    velocity operator in full k-point grid
   LINTERFAST=   F  fast interpolation
   KINTER  =     0    interpolate to denser k-point grid
   CSHIFT  =0.1000    complex shift for real part using Kramers Kronig
   OMEGAMAX=  -1.0    maximum frequency
   DEG_THRESHOLD= 0.2000000E-02 threshold for treating states as degnerate
   RTIME   =   -0.100 relaxation time in fs
  (WPLASMAI=    0.000 imaginary part of plasma frequency in eV, 0.658/RTIME)
   DFIELD  = 0.0000000 0.0000000 0.0000000 field for delta impulse in time
 
 Orbital magnetization related:
   ORBITALMAG=     F  switch on orbital magnetization
   LCHIMAG   =     F  perturbation theory with respect to B field
   DQ        =  0.001000  dq finite difference perturbation B field
   LLRAUG    =     F  two centre corrections for induced B field



--------------------------------------------------------------------------------------------------------


 conjugate gradient relaxation of ions
 charge density and potential will be updated during run
 spin polarized calculation
 Variant of blocked Davidson
 Davidson routine will perform the subspace rotation
 perform sub-space diagonalisation
    after iterative eigenvector-optimisation
 modified Broyden-mixing scheme, WC =      100.0
 initial mixing is a Kerker type mixing with AMIX =  0.4000 and BMIX =      1.0000
 Hartree-type preconditioning will be used
 using additional bands            9
 reciprocal scheme for non local part
 use partial core corrections
 calculate Harris-corrections to forces 
   (improved forces if not selfconsistent)
 use gradient corrections 
 use of overlap-Matrix (Vanderbilt PP)
 Gauss-broadening in eV      SIGMA  =   0.02


--------------------------------------------------------------------------------------------------------


  energy-cutoff  :      600.00
  volume of cell :       78.71
      direct lattice vectors                 reciprocal lattice vectors
     4.883144143  0.000000000  0.000000000     0.204786091  0.000000000  0.000000000
     0.000000000  4.883144143  0.000000000     0.000000000  0.204786091  0.000000000
     0.000000000  0.000000000  3.300797677     0.000000000  0.000000000  0.302957072

  length of vectors
     4.883144143  4.883144143  3.300797677     0.204786091  0.204786091  0.302957072


 
 k-points in units of 2pi/SCALE and weight: KPOINTS created by Atomic Simulation Env
   0.05119652  0.05119652  0.00000000       0.333
   0.05119652  0.05119652  0.10098569       0.667
 
 k-points in reciprocal lattice and weights: KPOINTS created by Atomic Simulation Env
   0.25000000  0.25000000  0.00000000       0.333
   0.25000000  0.25000000  0.33333333       0.667
 
 position of ions in fractional coordinates (direct lattice) 
   0.50000000  0.50000000  0.50000000
   0.00000000  0.00000000  0.00000000
   0.19544394  0.80455606  0.50000000
   0.80455606  0.19544394  0.50000000
   0.30455606  0.30455606  0.00000000
   0.69544394  0.69544394  0.00000000
 
 position of ions in cartesian coordinates  (Angst):
   2.44157207  2.44157207  1.65039884
   0.00000000  0.00000000  0.00000000
   0.95438093  3.92876321  1.65039884
   3.92876321  0.95438093  1.65039884
   1.48719114  1.48719114  0.00000000
   3.39595300  3.39595300  0.00000000
 


--------------------------------------------------------------------------------------------------------


 k-point  1 :   0.2500 0.2500 0.0000  plane waves:    2618
 k-point  2 :   0.2500 0.2500 0.3333  plane waves:    2625

 maximum and minimum number of plane-waves per node :      2625     2618

 maximum number of plane-waves:      2625
 maximum index in each direction: 
   IXMAX=    9   IYMAX=    9   IZMAX=    6
   IXMIN=   -9   IYMIN=   -9   IZMIN=   -6


 serial   3D FFT for wavefunctions
 parallel 3D FFT for charge:
    minimum data exchange during FFTs selected (reduces bandwidth)


 total amount of memory used by VASP MPI-rank0    36812. kBytes
=======================================================================

   base      :      30000. kBytes
   nonl-proj :       1766. kBytes
   fftplans  :       1875. kBytes
   grid      :       2467. kBytes
   one-center:        186. kBytes
   wavefun   :        518. kBytes
 
     INWAV:  cpu time    0.0000: real time    0.0000
 Broyden mixing: mesh for mixing (old mesh)
   NGX = 19   NGY = 19   NGZ = 13
  (NGX  = 60   NGY  = 60   NGZ  = 40)
  gives a total of   4693 points

 initial charge density was supplied:
 charge density of overlapping atoms calculated
 number of electron      54.0000000 magnetization       0.0000000
 keeping initial charge density in first step


--------------------------------------------------------------------------------------------------------


 Maximum index for augmentation-charges         4263 (set IRDMAX)


--------------------------------------------------------------------------------------------------------


 First call to EWALD:  gamma=   0.414
 Maximum number of real-space cells 2x 2x 3
 Maximum number of reciprocal cells 3x 3x 2

    FEWALD:  cpu time    0.0010: real time    0.0010


--------------------------------------- Iteration      1(   1)  ---------------------------------------


    POTLOK:  cpu time    0.0179: real time    0.0179
    SETDIJ:  cpu time    0.6388: real time    0.6388
atom =   1  type =  1  l = 2
 
 onsite density matrix
 
spin component  1
 
  0.2835  0.0000  0.0000  0.0000  0.0000
  0.0000  0.2835  0.0000  0.0000  0.0000
  0.0000  0.0000  0.2835  0.0000  0.0000
  0.0000  0.0000  0.0000  0.2835  0.0000
  0.0000  0.0000  0.0000  0.0000  0.2835
 
spin component  2
 
  0.7694  0.0000  0.0000  0.0000  0.0000
  0.0000  0.7694  0.0000  0.0000  0.0000
  0.0000  0.0000  0.7694  0.0000  0.0000
  0.0000  0.0000  0.0000  0.7694  0.0000
  0.0000  0.0000  0.0000  0.0000  0.7694
 
 occupancies and eigenvectors
 
  o =  0.2835  v =  1.0000  0.0000  0.0000  0.0000  0.0000  0.0000  0.0000  0.0000  0.0000  0.0000      0.0000  0.0000  0.0000  0.0000  0.0000  0.0000  0.0000  0.0000  0.0000  0.0000
  o =  0.2835  v =  0.0000  1.0000  0.0000  0.0000  0.0000  0.0000  0.0000  0.0000  0.0000  0.0000      0.0000  0.0000  0.0000  0.0000  0.0000  0.0000  0.0000  0.0000  0.0000  0.0000
  o =  0.2835  v =  0.0000  0.0000  1.0000  0.0000  0.0000  0.0000  0.0000  0.0000  0.0000  0.0000      0.0000  0.0000  0.0000  0.0000  0.0000  0.0000  0.0000  0.0000  0.0000  0.0000
  o =  0.2835  v =  0.0000  0.0000  0.0000  1.0000  0.0000  0.0000  0.0000  0.0000  0.0000  0.0000      0.0000  0.0000  0.0000  0.0000  0.0000  0.0000  0.0000  0.0000  0.0000  0.0000
  o =  0.2835  v =  0.0000  0.0000  0.0000  0.0000  1.0000  0.0000  0.0000  0.0000  0.0000  0.0000      0.0000  0.0000  0.0000  0.0000  0.0000  0.0000  0.0000  0.0000  0.0000  0.0000
  o =  0.7694  v =  0.0000  0.0000  0.0000  0.0000  0.0000  1.0000  0.0000  0.0000  0.0000  0.0000      0.0000  0.0000  0.0000  0.0000  0.0000  0.0000  0.0000  0.0000  0.0000  0.0000
  o =  0.7694  v =  0.0000  0.0000  0.0000  0.0000  0.0000  0.0000  1.0000  0.0000  0.0000  0.0000      0.0000  0.0000  0.0000  0.0000  0.0000  0.0000  0.0000  0.0000  0.0000  0.0000
  o =  0.7694  v =  0.0000  0.0000  0.0000  0.0000  0.0000  0.0000  0.0000  1.0000  0.0000  0.0000      0.0000  0.0000  0.0000  0.0000  0.0000  0.0000  0.0000  0.0000  0.0000  0.0000
  o =  0.7694  v =  0.0000  0.0000  0.0000  0.0000  0.0000  0.0000  0.0000  0.0000  1.0000  0.0000      0.0000  0.0000  0.0000  0.0000  0.0000  0.0000  0.0000  0.0000  0.0000  0.0000
  o =  0.7694  v =  0.0000  0.0000  0.0000  0.0000  0.0000  0.0000  0.0000  0.0000  0.0000  1.0000      0.0000  0.0000  0.0000  0.0000  0.0000  0.0000  0.0000  0.0000  0.0000  0.0000
atom =   2  type =  1  l = 2
 
 onsite density matrix
 
spin component  1
 
  0.7694  0.0000  0.0000  0.0000  0.0000
  0.0000  0.7694  0.0000  0.0000  0.0000
  0.0000  0.0000  0.7694  0.0000  0.0000
  0.0000  0.0000  0.0000  0.7694  0.0000
  0.0000  0.0000  0.0000  0.0000  0.7694
 
spin component  2
 
  0.2835  0.0000  0.0000  0.0000  0.0000
  0.0000  0.2835  0.0000  0.0000  0.0000
  0.0000  0.0000  0.2835  0.0000  0.0000
  0.0000  0.0000  0.0000  0.2835  0.0000
  0.0000  0.0000  0.0000  0.0000  0.2835
 
 occupancies and eigenvectors
 
  o =  0.2835  v =  0.0000  0.0000  0.0000  0.0000  0.0000  1.0000  0.0000  0.0000  0.0000  0.0000      0.0000  0.0000  0.0000  0.0000  0.0000  0.0000  0.0000  0.0000  0.0000  0.0000
  o =  0.2835  v =  0.0000  0.0000  0.0000  0.0000  0.0000  0.0000  1.0000  0.0000  0.0000  0.0000      0.0000  0.0000  0.0000  0.0000  0.0000  0.0000  0.0000  0.0000  0.0000  0.0000
  o =  0.2835  v =  0.0000  0.0000  0.0000  0.0000  0.0000  0.0000  0.0000  1.0000  0.0000  0.0000      0.0000  0.0000  0.0000  0.0000  0.0000  0.0000  0.0000  0.0000  0.0000  0.0000
  o =  0.2835  v =  0.0000  0.0000  0.0000  0.0000  0.0000  0.0000  0.0000  0.0000  1.0000  0.0000      0.0000  0.0000  0.0000  0.0000  0.0000  0.0000  0.0000  0.0000  0.0000  0.0000
  o =  0.2835  v =  0.0000  0.0000  0.0000  0.0000  0.0000  0.0000  0.0000  0.0000  0.0000  1.0000      0.0000  0.0000  0.0000  0.0000  0.0000  0.0000  0.0000  0.0000  0.0000  0.0000
  o =  0.7694  v =  1.0000  0.0000  0.0000  0.0000  0.0000  0.0000  0.0000  0.0000  0.0000  0.0000      0.0000  0.0000  0.0000  0.0000  0.0000  0.0000  0.0000  0.0000  0.0000  0.0000
  o =  0.7694  v =  0.0000  1.0000  0.0000  0.0000  0.0000  0.0000  0.0000  0.0000  0.0000  0.0000      0.0000  0.0000  0.0000  0.0000  0.0000  0.0000  0.0000  0.0000  0.0000  0.0000
  o =  0.7694  v =  0.0000  0.0000  1.0000  0.0000  0.0000  0.0000  0.0000  0.0000  0.0000  0.0000      0.0000  0.0000  0.0000  0.0000  0.0000  0.0000  0.0000  0.0000  0.0000  0.0000
  o =  0.7694  v =  0.0000  0.0000  0.0000  1.0000  0.0000  0.0000  0.0000  0.0000  0.0000  0.0000      0.0000  0.0000  0.0000  0.0000  0.0000  0.0000  0.0000  0.0000  0.0000  0.0000
  o =  0.7694  v =  0.0000  0.0000  0.0000  0.0000  1.0000  0.0000  0.0000  0.0000  0.0000  0.0000      0.0000  0.0000  0.0000  0.0000  0.0000  0.0000  0.0000  0.0000  0.0000  0.0000
     EDDAV:  cpu time    0.0732: real time    0.0919
       DOS:  cpu time    0.0002: real time    0.0002
    --------------------------------------------
      LOOP:  cpu time    0.7301: real time    0.7487

 eigenvalue-minimisations  :   288
 total energy-change (2. order) : 0.6638544E+03  (-0.3408050E+04)
 number of electron      54.0000000 magnetization       0.0000000
 augmentation part       54.0000000 magnetization       0.0000000

 Free energy of the ion-electron system (eV)
  ---------------------------------------------------
  alpha Z        PSCENC =       196.13658257
  Ewald energy   TEWEN  =     -4178.31221721
  -Hartree energ DENC   =     -2146.41896641
  -exchange      EXHF   =         0.00000000
  -V(xc)+E(xc)   XCENC  =       293.25934242
  PAW double counting   =      5439.83165491    -5546.16339751
  entropy T*S    EENTRO =        -0.00000000
  eigenvalues    EBANDS =       -72.12717149
  atomic energy  EATOM  =      6677.64854832
  Solvation  Ediel_sol  =         0.00000000
  ---------------------------------------------------
  free energy    TOTEN  =       663.85437559 eV

  energy without entropy =      663.85437559  energy(sigma->0) =      663.85437559


--------------------------------------------------------------------------------------------------------




--------------------------------------- Iteration      1(   2)  ---------------------------------------


     EDDAV:  cpu time    0.0789: real time    0.0790
       DOS:  cpu time    0.0001: real time    0.0001
    --------------------------------------------
      LOOP:  cpu time    0.0791: real time    0.0791

 eigenvalue-minimisations  :   336
 total energy-change (2. order) :-0.6584074E+03  (-0.6410220E+03)
 number of electron      54.0000000 magnetization       0.0000000
 augmentation part       54.0000000 magnetization       0.0000000

 Free energy of the ion-electron system (eV)
  ---------------------------------------------------
  alpha Z        PSCENC =       196.13658257
  Ewald energy   TEWEN  =     -4178.31221721
  -Hartree energ DENC   =     -2146.41896641
  -exchange      EXHF   =         0.00000000
  -V(xc)+E(xc)   XCENC  =       293.25934242
  PAW double counting   =      5439.83165491    -5546.16339751
  entropy T*S    EENTRO =        -0.00000000
  eigenvalues    EBANDS =      -730.53461301
  atomic energy  EATOM  =      6677.64854832
  Solvation  Ediel_sol  =         0.00000000
  ---------------------------------------------------
  free energy    TOTEN  =         5.44693407 eV

  energy without entropy =        5.44693407  energy(sigma->0) =        5.44693407


--------------------------------------------------------------------------------------------------------




--------------------------------------- Iteration      1(   3)  ---------------------------------------


     EDDAV:  cpu time    0.0741: real time    0.0741
       DOS:  cpu time    0.0001: real time    0.0001
    --------------------------------------------
      LOOP:  cpu time    0.0743: real time    0.0743

 eigenvalue-minimisations  :   312
 total energy-change (2. order) :-0.4497462E+02  (-0.4478884E+02)
 number of electron      54.0000000 magnetization       0.0000000
 augmentation part       54.0000000 magnetization       0.0000000

 Free energy of the ion-electron system (eV)
  ---------------------------------------------------
  alpha Z        PSCENC =       196.13658257
  Ewald energy   TEWEN  =     -4178.31221721
  -Hartree energ DENC   =     -2146.41896641
  -exchange      EXHF   =         0.00000000
  -V(xc)+E(xc)   XCENC  =       293.25934242
  PAW double counting   =      5439.83165491    -5546.16339751
  entropy T*S    EENTRO =        -0.00000000
  eigenvalues    EBANDS =      -775.50923348
  atomic energy  EATOM  =      6677.64854832
  Solvation  Ediel_sol  =         0.00000000
  ---------------------------------------------------
  free energy    TOTEN  =       -39.52768640 eV

  energy without entropy =      -39.52768640  energy(sigma->0) =      -39.52768640


--------------------------------------------------------------------------------------------------------




--------------------------------------- Iteration      1(   4)  ---------------------------------------


     EDDAV:  cpu time    0.0764: real time    0.0764
       DOS:  cpu time    0.0001: real time    0.0001
    --------------------------------------------
      LOOP:  cpu time    0.0765: real time    0.0765

 eigenvalue-minimisations  :   324
 total energy-change (2. order) :-0.5719374E+00  (-0.5718170E+00)
 number of electron      54.0000000 magnetization       0.0000000
 augmentation part       54.0000000 magnetization       0.0000000

 Free energy of the ion-electron system (eV)
  ---------------------------------------------------
  alpha Z        PSCENC =       196.13658257
  Ewald energy   TEWEN  =     -4178.31221721
  -Hartree energ DENC   =     -2146.41896641
  -exchange      EXHF   =         0.00000000
  -V(xc)+E(xc)   XCENC  =       293.25934242
  PAW double counting   =      5439.83165491    -5546.16339751
  entropy T*S    EENTRO =        -0.00000000
  eigenvalues    EBANDS =      -776.08117089
  atomic energy  EATOM  =      6677.64854832
  Solvation  Ediel_sol  =         0.00000000
  ---------------------------------------------------
  free energy    TOTEN  =       -40.09962380 eV

  energy without entropy =      -40.09962380  energy(sigma->0) =      -40.09962380


--------------------------------------------------------------------------------------------------------




--------------------------------------- Iteration      1(   5)  ---------------------------------------


     EDDAV:  cpu time    0.0791: real time    0.0791
       DOS:  cpu time    0.0001: real time    0.0001
    CHARGE:  cpu time    0.0246: real time    0.0247
    MIXING:  cpu time    0.0007: real time    0.0007
    --------------------------------------------
      LOOP:  cpu time    0.1046: real time    0.1046

 eigenvalue-minimisations  :   336
 total energy-change (2. order) :-0.9653247E-02  (-0.9653188E-02)
 number of electron      54.0000010 magnetization      -0.0000000
 augmentation part       20.0563481 magnetization      -0.0000000

 Broyden mixing:
  rms(total) = 0.22536E+01    rms(broyden)= 0.22536E+01
  rms(prec ) = 0.30237E+01
  weight for this iteration     100.00

 Free energy of the ion-electron system (eV)
  ---------------------------------------------------
  alpha Z        PSCENC =       196.13658257
  Ewald energy   TEWEN  =     -4178.31221721
  -Hartree energ DENC   =     -2146.41896641
  -exchange      EXHF   =         0.00000000
  -V(xc)+E(xc)   XCENC  =       293.25934242
  PAW double counting   =      5439.83165491    -5546.16339751
  entropy T*S    EENTRO =        -0.00000000
  eigenvalues    EBANDS =      -776.09082413
  atomic energy  EATOM  =      6677.64854832
  Solvation  Ediel_sol  =         0.00000000
  ---------------------------------------------------
  free energy    TOTEN  =       -40.10927705 eV

  energy without entropy =      -40.10927705  energy(sigma->0) =      -40.10927705


--------------------------------------------------------------------------------------------------------




--------------------------------------- Iteration      1(   6)  ---------------------------------------


    POTLOK:  cpu time    0.0157: real time    0.0157
    SETDIJ:  cpu time    0.6353: real time    0.6353
atom =   1  type =  1  l = 2
 
 onsite density matrix
 
spin component  1
 
 -0.0776  0.0000  0.0031  0.0000  0.0000
  0.0000 -0.0809  0.0000  0.0017  0.0000
  0.0031  0.0000 -0.0783  0.0000  0.0000
  0.0000  0.0017  0.0000 -0.0809  0.0000
  0.0000  0.0000  0.0000  0.0000 -0.0851
 
spin component  2
 
  1.1010  0.0000  0.0132  0.0000 -0.0000
  0.0000  1.1000  0.0000  0.0126  0.0000
  0.0132  0.0000  1.0931  0.0000 -0.0000
  0.0000  0.0126  0.0000  1.1000  0.0000
 -0.0000  0.0000 -0.0000  0.0000  1.0894
 
 occupancies and eigenvectors
 
  o = -0.0851  v =  0.0000 -0.0000 -0.0000  0.0000  1.0000  0.0000  0.0000  0.0000  0.0000  0.0000      0.0000  0.0000  0.0000  0.0000  0.0000  0.0000  0.0000  0.0000  0.0000  0.0000
  o = -0.0826  v =  0.0000  0.7071 -0.0000 -0.7071  0.0000  0.0000  0.0000  0.0000  0.0000  0.0000      0.0000  0.0000  0.0000  0.0000  0.0000  0.0000  0.0000  0.0000  0.0000  0.0000
  o = -0.0810  v =  0.6636 -0.0000 -0.7481  0.0000 -0.0000  0.0000  0.0000  0.0000  0.0000  0.0000      0.0000  0.0000  0.0000  0.0000  0.0000  0.0000  0.0000  0.0000  0.0000  0.0000
  o = -0.0792  v =  0.0000 -0.7071 -0.0000 -0.7071 -0.0000  0.0000  0.0000  0.0000  0.0000  0.0000      0.0000  0.0000  0.0000  0.0000  0.0000  0.0000  0.0000  0.0000  0.0000  0.0000
  o = -0.0749  v =  0.7481  0.0000  0.6636  0.0000  0.0000  0.0000  0.0000  0.0000  0.0000  0.0000      0.0000  0.0000  0.0000  0.0000  0.0000  0.0000  0.0000  0.0000  0.0000  0.0000
  o =  1.0833  v =  0.0000  0.0000  0.0000  0.0000  0.0000 -0.5982 -0.0000  0.8014  0.0000  0.0000      0.0000  0.0000  0.0000  0.0000  0.0000  0.0000  0.0000  0.0000  0.0000  0.0000
  o =  1.0875  v =  0.0000  0.0000  0.0000  0.0000  0.0000 -0.0000  0.7071  0.0000 -0.7071  0.0000      0.0000  0.0000  0.0000  0.0000  0.0000  0.0000  0.0000  0.0000  0.0000  0.0000
  o =  1.0894  v =  0.0000  0.0000  0.0000  0.0000  0.0000  0.0000 -0.0000 -0.0000  0.0000  1.0000      0.0000  0.0000  0.0000  0.0000  0.0000  0.0000  0.0000  0.0000  0.0000  0.0000
  o =  1.1109  v =  0.0000  0.0000  0.0000  0.0000  0.0000 -0.8014  0.0000 -0.5982  0.0000  0.0000      0.0000  0.0000  0.0000  0.0000  0.0000  0.0000  0.0000  0.0000  0.0000  0.0000
  o =  1.1126  v =  0.0000  0.0000  0.0000  0.0000  0.0000  0.0000  0.7071  0.0000  0.7071 -0.0000      0.0000  0.0000  0.0000  0.0000  0.0000  0.0000  0.0000  0.0000  0.0000  0.0000
atom =   2  type =  1  l = 2
 
 onsite density matrix
 
spin component  1
 
  1.1010  0.0000 -0.0132  0.0000  0.0000
  0.0000  1.1000  0.0000 -0.0126  0.0000
 -0.0132  0.0000  1.0931  0.0000  0.0000
  0.0000 -0.0126  0.0000  1.1000  0.0000
  0.0000  0.0000  0.0000  0.0000  1.0894
 
spin component  2
 
 -0.0776  0.0000 -0.0031  0.0000 -0.0000
  0.0000 -0.0809  0.0000 -0.0017  0.0000
 -0.0031  0.0000 -0.0783  0.0000 -0.0000
  0.0000 -0.0017  0.0000 -0.0809  0.0000
 -0.0000  0.0000 -0.0000  0.0000 -0.0851
 
 occupancies and eigenvectors
 
  o = -0.0851  v =  0.0000  0.0000  0.0000  0.0000  0.0000  0.0000 -0.0000  0.0000 -0.0000  1.0000      0.0000  0.0000  0.0000  0.0000  0.0000  0.0000  0.0000  0.0000  0.0000  0.0000
  o = -0.0826  v =  0.0000  0.0000  0.0000  0.0000  0.0000  0.0000  0.7071  0.0000  0.7071  0.0000      0.0000  0.0000  0.0000  0.0000  0.0000  0.0000  0.0000  0.0000  0.0000  0.0000
  o = -0.0810  v =  0.0000  0.0000  0.0000  0.0000  0.0000  0.6636 -0.0000  0.7481  0.0000 -0.0000      0.0000  0.0000  0.0000  0.0000  0.0000  0.0000  0.0000  0.0000  0.0000  0.0000
  o = -0.0792  v =  0.0000  0.0000  0.0000  0.0000  0.0000  0.0000 -0.7071 -0.0000  0.7071 -0.0000      0.0000  0.0000  0.0000  0.0000  0.0000  0.0000  0.0000  0.0000  0.0000  0.0000
  o = -0.0749  v =  0.0000  0.0000  0.0000  0.0000  0.0000  0.7481  0.0000 -0.6636 -0.0000  0.0000      0.0000  0.0000  0.0000  0.0000  0.0000  0.0000  0.0000  0.0000  0.0000  0.0000
  o =  1.0833  v = -0.5982 -0.0000 -0.8014 -0.0000  0.0000  0.0000  0.0000  0.0000  0.0000  0.0000      0.0000  0.0000  0.0000  0.0000  0.0000  0.0000  0.0000  0.0000  0.0000  0.0000
  o =  1.0875  v = -0.0000  0.7071 -0.0000  0.7071  0.0000  0.0000  0.0000  0.0000  0.0000  0.0000      0.0000  0.0000  0.0000  0.0000  0.0000  0.0000  0.0000  0.0000  0.0000  0.0000
  o =  1.0894  v =  0.0000 -0.0000  0.0000 -0.0000  1.0000  0.0000  0.0000  0.0000  0.0000  0.0000      0.0000  0.0000  0.0000  0.0000  0.0000  0.0000  0.0000  0.0000  0.0000  0.0000
  o =  1.1109  v = -0.8014  0.0000  0.5982 -0.0000  0.0000  0.0000  0.0000  0.0000  0.0000  0.0000      0.0000  0.0000  0.0000  0.0000  0.0000  0.0000  0.0000  0.0000  0.0000  0.0000
  o =  1.1126  v =  0.0000  0.7071 -0.0000 -0.7071 -0.0000  0.0000  0.0000  0.0000  0.0000  0.0000      0.0000  0.0000  0.0000  0.0000  0.0000  0.0000  0.0000  0.0000  0.0000  0.0000
     EDDAV:  cpu time    0.0771: real time    0.0771
       DOS:  cpu time    0.0001: real time    0.0001
    CHARGE:  cpu time    0.0245: real time    0.0245
    MIXING:  cpu time    0.0008: real time    0.0008
    --------------------------------------------
      LOOP:  cpu time    0.7535: real time    0.7535

 eigenvalue-minimisations  :   324
 total energy-change (2. order) : 0.1893553E+01  (-0.1563756E+01)
 number of electron      54.0000009 magnetization       0.0000000
 augmentation part       19.9240134 magnetization       0.0000000

 Broyden mixing:
  rms(total) = 0.14254E+01    rms(broyden)= 0.14253E+01
  rms(prec ) = 0.14894E+01
  weight for this iteration     100.00

 eigenvalues of (default mixing * dielectric matrix)
  average eigenvalue GAMMA=   0.7880
  0.7880

 Free energy of the ion-electron system (eV)
  ---------------------------------------------------
  alpha Z        PSCENC =       196.13658257
  Ewald energy   TEWEN  =     -4178.31221721
  -Hartree energ DENC   =     -2166.68066258
  -exchange      EXHF   =         0.00000000
  -V(xc)+E(xc)   XCENC  =       293.70790055
  PAW double counting   =      5691.19790987    -5788.38089479
  entropy T*S    EENTRO =        -0.00000000
  eigenvalues    EBANDS =      -763.53289028
  atomic energy  EATOM  =      6677.64854832
  Solvation  Ediel_sol  =         0.00000000
  ---------------------------------------------------
  free energy    TOTEN  =       -38.21572355 eV

  energy without entropy =      -38.21572355  energy(sigma->0) =      -38.21572355


--------------------------------------------------------------------------------------------------------




--------------------------------------- Iteration      1(   7)  ---------------------------------------


    POTLOK:  cpu time    0.0155: real time    0.0155
    SETDIJ:  cpu time    0.6345: real time    0.6345
atom =   1  type =  1  l = 2
 
 onsite density matrix
 
spin component  1
 
  0.1152  0.0000  0.0188  0.0000 -0.0000
  0.0000  0.1098  0.0000  0.0162  0.0000
  0.0188  0.0000  0.1050  0.0000  0.0000
  0.0000  0.0162  0.0000  0.1098  0.0000
 -0.0000  0.0000  0.0000  0.0000  0.0925
 
spin component  2
 
  0.9011  0.0000  0.0066  0.0000  0.0000
  0.0000  0.8997  0.0000  0.0059  0.0000
  0.0066  0.0000  0.8977  0.0000 -0.0000
  0.0000  0.0059  0.0000  0.8997  0.0000
  0.0000  0.0000 -0.0000  0.0000  0.8936
 
 occupancies and eigenvectors
 
  o =  0.0906  v = -0.6066  0.0000  0.7950 -0.0000 -0.0000  0.0000  0.0000  0.0000  0.0000  0.0000      0.0000  0.0000  0.0000  0.0000  0.0000  0.0000  0.0000  0.0000  0.0000  0.0000
  o =  0.0925  v = -0.0000 -0.0000  0.0000  0.0000  1.0000  0.0000  0.0000  0.0000  0.0000  0.0000      0.0000  0.0000  0.0000  0.0000  0.0000  0.0000  0.0000  0.0000  0.0000  0.0000
  o =  0.0935  v =  0.0000  0.7071 -0.0000 -0.7071  0.0000  0.0000  0.0000  0.0000  0.0000  0.0000      0.0000  0.0000  0.0000  0.0000  0.0000  0.0000  0.0000  0.0000  0.0000  0.0000
  o =  0.1260  v = -0.0000 -0.7071 -0.0000 -0.7071  0.0000  0.0000  0.0000  0.0000  0.0000  0.0000      0.0000  0.0000  0.0000  0.0000  0.0000  0.0000  0.0000  0.0000  0.0000  0.0000
  o =  0.1296  v = -0.7950  0.0000 -0.6066  0.0000 -0.0000  0.0000  0.0000  0.0000  0.0000  0.0000      0.0000  0.0000  0.0000  0.0000  0.0000  0.0000  0.0000  0.0000  0.0000  0.0000
  o =  0.8925  v =  0.0000  0.0000  0.0000  0.0000  0.0000 -0.6124  0.0000  0.7905  0.0000  0.0000      0.0000  0.0000  0.0000  0.0000  0.0000  0.0000  0.0000  0.0000  0.0000  0.0000
  o =  0.8936  v =  0.0000  0.0000  0.0000  0.0000  0.0000  0.0000  0.0000  0.0000  0.0000 -1.0000      0.0000  0.0000  0.0000  0.0000  0.0000  0.0000  0.0000  0.0000  0.0000  0.0000
  o =  0.8938  v =  0.0000  0.0000  0.0000  0.0000  0.0000  0.0000  0.7071  0.0000 -0.7071  0.0000      0.0000  0.0000  0.0000  0.0000  0.0000  0.0000  0.0000  0.0000  0.0000  0.0000
  o =  0.9056  v =  0.0000  0.0000  0.0000  0.0000  0.0000  0.0000  0.7071  0.0000  0.7071  0.0000      0.0000  0.0000  0.0000  0.0000  0.0000  0.0000  0.0000  0.0000  0.0000  0.0000
  o =  0.9063  v =  0.0000  0.0000  0.0000  0.0000  0.0000 -0.7905  0.0000 -0.6124  0.0000 -0.0000      0.0000  0.0000  0.0000  0.0000  0.0000  0.0000  0.0000  0.0000  0.0000  0.0000
atom =   2  type =  1  l = 2
 
 onsite density matrix
 
spin component  1
 
  0.9011  0.0000 -0.0066  0.0000  0.0000
  0.0000  0.8997  0.0000 -0.0059  0.0000
 -0.0066  0.0000  0.8977  0.0000 -0.0000
  0.0000 -0.0059  0.0000  0.8997  0.0000
  0.0000  0.0000 -0.0000  0.0000  0.8936
 
spin component  2
 
  0.1152  0.0000 -0.0188  0.0000 -0.0000
  0.0000  0.1098  0.0000 -0.0162  0.0000
 -0.0188  0.0000  0.1050  0.0000  0.0000
  0.0000 -0.0162  0.0000  0.1098  0.0000
 -0.0000  0.0000  0.0000  0.0000  0.0925
 
 occupancies and eigenvectors
 
  o =  0.0906  v =  0.0000  0.0000  0.0000  0.0000  0.0000 -0.6066  0.0000 -0.7950  0.0000  0.0000      0.0000  0.0000  0.0000  0.0000  0.0000  0.0000  0.0000  0.0000  0.0000  0.0000
  o =  0.0925  v =  0.0000  0.0000  0.0000  0.0000  0.0000 -0.0000 -0.0000 -0.0000  0.0000 -1.0000      0.0000  0.0000  0.0000  0.0000  0.0000  0.0000  0.0000  0.0000  0.0000  0.0000
  o =  0.0935  v =  0.0000  0.0000  0.0000  0.0000  0.0000  0.0000 -0.7071  0.0000 -0.7071  0.0000      0.0000  0.0000  0.0000  0.0000  0.0000  0.0000  0.0000  0.0000  0.0000  0.0000
  o =  0.1260  v =  0.0000  0.0000  0.0000  0.0000  0.0000  0.0000 -0.7071  0.0000  0.7071  0.0000      0.0000  0.0000  0.0000  0.0000  0.0000  0.0000  0.0000  0.0000  0.0000  0.0000
  o =  0.1296  v =  0.0000  0.0000  0.0000  0.0000  0.0000 -0.7950  0.0000  0.6066  0.0000  0.0000      0.0000  0.0000  0.0000  0.0000  0.0000  0.0000  0.0000  0.0000  0.0000  0.0000
  o =  0.8925  v = -0.6124  0.0000 -0.7905  0.0000  0.0000  0.0000  0.0000  0.0000  0.0000  0.0000      0.0000  0.0000  0.0000  0.0000  0.0000  0.0000  0.0000  0.0000  0.0000  0.0000
  o =  0.8936  v =  0.0000  0.0000  0.0000  0.0000  1.0000  0.0000  0.0000  0.0000  0.0000  0.0000      0.0000  0.0000  0.0000  0.0000  0.0000  0.0000  0.0000  0.0000  0.0000  0.0000
  o =  0.8938  v =  0.0000 -0.7071  0.0000 -0.7071  0.0000  0.0000  0.0000  0.0000  0.0000  0.0000      0.0000  0.0000  0.0000  0.0000  0.0000  0.0000  0.0000  0.0000  0.0000  0.0000
  o =  0.9056  v =  0.0000 -0.7071  0.0000  0.7071  0.0000  0.0000  0.0000  0.0000  0.0000  0.0000      0.0000  0.0000  0.0000  0.0000  0.0000  0.0000  0.0000  0.0000  0.0000  0.0000
  o =  0.9063  v = -0.7905  0.0000  0.6124  0.0000 -0.0000  0.0000  0.0000  0.0000  0.0000  0.0000      0.0000  0.0000  0.0000  0.0000  0.0000  0.0000  0.0000  0.0000  0.0000  0.0000
     EDDAV:  cpu time    0.0817: real time    0.0817
       DOS:  cpu time    0.0001: real time    0.0001
    CHARGE:  cpu time    0.0245: real time    0.0245
    MIXING:  cpu time    0.0008: real time    0.0008
    --------------------------------------------
      LOOP:  cpu time    0.7572: real time    0.7572

 eigenvalue-minimisations  :   348
 total energy-change (2. order) :-0.7220675E+00  (-0.1848429E+00)
 number of electron      54.0000009 magnetization      -0.0000000
 augmentation part       19.9225144 magnetization      -0.0000000

 Broyden mixing:
  rms(total) = 0.11274E+01    rms(broyden)= 0.11274E+01
  rms(prec ) = 0.11613E+01
  weight for this iteration     100.00

 eigenvalues of (default mixing * dielectric matrix)
  average eigenvalue GAMMA=   1.4033
  0.6930  2.1136

 Free energy of the ion-electron system (eV)
  ---------------------------------------------------
  alpha Z        PSCENC =       196.13658257
  Ewald energy   TEWEN  =     -4178.31221721
  -Hartree energ DENC   =     -2162.22517940
  -exchange      EXHF   =         0.00000000
  -V(xc)+E(xc)   XCENC  =       294.25928971
  PAW double counting   =      5912.38405262    -6019.33323574
  entropy T*S    EENTRO =        -0.00000000
  eigenvalues    EBANDS =      -759.49563192
  atomic energy  EATOM  =      6677.64854832
  Solvation  Ediel_sol  =         0.00000000
  ---------------------------------------------------
  free energy    TOTEN  =       -38.93779105 eV

  energy without entropy =      -38.93779105  energy(sigma->0) =      -38.93779105


--------------------------------------------------------------------------------------------------------




--------------------------------------- Iteration      1(   8)  ---------------------------------------


    POTLOK:  cpu time    0.0155: real time    0.0155
    SETDIJ:  cpu time    0.6350: real time    0.6350
atom =   1  type =  1  l = 2
 
 onsite density matrix
 
spin component  1
 
 -0.0132  0.0000  0.0197  0.0000  0.0000
  0.0000 -0.0194  0.0000  0.0160  0.0000
  0.0197  0.0000 -0.0224  0.0000 -0.0000
  0.0000  0.0160  0.0000 -0.0194  0.0000
  0.0000  0.0000 -0.0000  0.0000 -0.0383
 
spin component  2
 
  1.0286  0.0000  0.0167  0.0000 -0.0000
  0.0000  1.0245  0.0000  0.0159  0.0000
  0.0167  0.0000  1.0178  0.0000 -0.0000
  0.0000  0.0159  0.0000  1.0245  0.0000
 -0.0000  0.0000 -0.0000  0.0000  1.0098
 
 occupancies and eigenvectors
 
  o = -0.0383  v =  0.0000  0.0000 -0.0000  0.0000 -1.0000  0.0000  0.0000  0.0000  0.0000  0.0000      0.0000  0.0000  0.0000  0.0000  0.0000  0.0000  0.0000  0.0000  0.0000  0.0000
  o = -0.0380  v = -0.6208  0.0000  0.7840  0.0000 -0.0000  0.0000  0.0000  0.0000  0.0000  0.0000      0.0000  0.0000  0.0000  0.0000  0.0000  0.0000  0.0000  0.0000  0.0000  0.0000
  o = -0.0354  v =  0.0000  0.7071  0.0000 -0.7071  0.0000  0.0000  0.0000  0.0000  0.0000  0.0000      0.0000  0.0000  0.0000  0.0000  0.0000  0.0000  0.0000  0.0000  0.0000  0.0000
  o = -0.0035  v =  0.0000 -0.7071  0.0000 -0.7071 -0.0000  0.0000  0.0000  0.0000  0.0000  0.0000      0.0000  0.0000  0.0000  0.0000  0.0000  0.0000  0.0000  0.0000  0.0000  0.0000
  o =  0.0024  v =  0.7840  0.0000  0.6208  0.0000 -0.0000  0.0000  0.0000  0.0000  0.0000  0.0000      0.0000  0.0000  0.0000  0.0000  0.0000  0.0000  0.0000  0.0000  0.0000  0.0000
  o =  1.0056  v =  0.0000  0.0000  0.0000  0.0000  0.0000 -0.5883 -0.0000  0.8086  0.0000  0.0000      0.0000  0.0000  0.0000  0.0000  0.0000  0.0000  0.0000  0.0000  0.0000  0.0000
  o =  1.0086  v =  0.0000  0.0000  0.0000  0.0000  0.0000 -0.0000  0.7071  0.0000 -0.7071 -0.0000      0.0000  0.0000  0.0000  0.0000  0.0000  0.0000  0.0000  0.0000  0.0000  0.0000
  o =  1.0098  v =  0.0000  0.0000  0.0000  0.0000  0.0000  0.0000  0.0000 -0.0000 -0.0000  1.0000      0.0000  0.0000  0.0000  0.0000  0.0000  0.0000  0.0000  0.0000  0.0000  0.0000
  o =  1.0405  v =  0.0000  0.0000  0.0000  0.0000  0.0000 -0.0000  0.7071 -0.0000  0.7071  0.0000      0.0000  0.0000  0.0000  0.0000  0.0000  0.0000  0.0000  0.0000  0.0000  0.0000
  o =  1.0408  v =  0.0000  0.0000  0.0000  0.0000  0.0000 -0.8086 -0.0000 -0.5883 -0.0000  0.0000      0.0000  0.0000  0.0000  0.0000  0.0000  0.0000  0.0000  0.0000  0.0000  0.0000
atom =   2  type =  1  l = 2
 
 onsite density matrix
 
spin component  1
 
  1.0286  0.0000 -0.0167  0.0000 -0.0000
  0.0000  1.0245  0.0000 -0.0159  0.0000
 -0.0167  0.0000  1.0178  0.0000  0.0000
  0.0000 -0.0159  0.0000  1.0245  0.0000
 -0.0000  0.0000  0.0000  0.0000  1.0098
 
spin component  2
 
 -0.0132  0.0000 -0.0197  0.0000  0.0000
  0.0000 -0.0194  0.0000 -0.0160  0.0000
 -0.0197  0.0000 -0.0224  0.0000 -0.0000
  0.0000 -0.0160  0.0000 -0.0194  0.0000
  0.0000  0.0000 -0.0000  0.0000 -0.0383
 
 occupancies and eigenvectors
 
  o = -0.0383  v =  0.0000  0.0000  0.0000  0.0000  0.0000 -0.0000 -0.0000 -0.0000 -0.0000 -1.0000      0.0000  0.0000  0.0000  0.0000  0.0000  0.0000  0.0000  0.0000  0.0000  0.0000
  o = -0.0380  v =  0.0000  0.0000  0.0000  0.0000  0.0000  0.6208  0.0000  0.7840  0.0000 -0.0000      0.0000  0.0000  0.0000  0.0000  0.0000  0.0000  0.0000  0.0000  0.0000  0.0000
  o = -0.0354  v =  0.0000  0.0000  0.0000  0.0000  0.0000  0.0000 -0.7071  0.0000 -0.7071  0.0000      0.0000  0.0000  0.0000  0.0000  0.0000  0.0000  0.0000  0.0000  0.0000  0.0000
  o = -0.0035  v =  0.0000  0.0000  0.0000  0.0000  0.0000  0.0000 -0.7071 -0.0000  0.7071  0.0000      0.0000  0.0000  0.0000  0.0000  0.0000  0.0000  0.0000  0.0000  0.0000  0.0000
  o =  0.0024  v =  0.0000  0.0000  0.0000  0.0000  0.0000  0.7840  0.0000 -0.6208 -0.0000  0.0000      0.0000  0.0000  0.0000  0.0000  0.0000  0.0000  0.0000  0.0000  0.0000  0.0000
  o =  1.0056  v = -0.5883  0.0000 -0.8086  0.0000  0.0000  0.0000  0.0000  0.0000  0.0000  0.0000      0.0000  0.0000  0.0000  0.0000  0.0000  0.0000  0.0000  0.0000  0.0000  0.0000
  o =  1.0086  v = -0.0000 -0.7071 -0.0000 -0.7071  0.0000  0.0000  0.0000  0.0000  0.0000  0.0000      0.0000  0.0000  0.0000  0.0000  0.0000  0.0000  0.0000  0.0000  0.0000  0.0000
  o =  1.0098  v =  0.0000  0.0000  0.0000  0.0000  1.0000  0.0000  0.0000  0.0000  0.0000  0.0000      0.0000  0.0000  0.0000  0.0000  0.0000  0.0000  0.0000  0.0000  0.0000  0.0000
  o =  1.0405  v = -0.0000 -0.7071  0.0000  0.7071 -0.0000  0.0000  0.0000  0.0000  0.0000  0.0000      0.0000  0.0000  0.0000  0.0000  0.0000  0.0000  0.0000  0.0000  0.0000  0.0000
  o =  1.0408  v = -0.8086  0.0000  0.5883 -0.0000  0.0000  0.0000  0.0000  0.0000  0.0000  0.0000      0.0000  0.0000  0.0000  0.0000  0.0000  0.0000  0.0000  0.0000  0.0000  0.0000
     EDDAV:  cpu time    0.0799: real time    0.0799
       DOS:  cpu time    0.0001: real time    0.0001
    CHARGE:  cpu time    0.0244: real time    0.0244
    MIXING:  cpu time    0.0009: real time    0.0009
    --------------------------------------------
      LOOP:  cpu time    0.7558: real time    0.7558

 eigenvalue-minimisations  :   336
 total energy-change (2. order) :-0.6810328E-01  (-0.4114562E-01)
 number of electron      54.0000009 magnetization       0.0000000
 augmentation part       19.9536871 magnetization       0.0000000

 Broyden mixing:
  rms(total) = 0.52680E+00    rms(broyden)= 0.52680E+00
  rms(prec ) = 0.55069E+00
  weight for this iteration     100.00

 eigenvalues of (default mixing * dielectric matrix)
  average eigenvalue GAMMA=   1.1928
  2.1107  0.8740  0.5936

 Free energy of the ion-electron system (eV)
  ---------------------------------------------------
  alpha Z        PSCENC =       196.13658257
  Ewald energy   TEWEN  =     -4178.31221721
  -Hartree energ DENC   =     -2157.61509579
  -exchange      EXHF   =         0.00000000
  -V(xc)+E(xc)   XCENC  =       293.77094788
  PAW double counting   =      6122.45522664    -6226.71261548
  entropy T*S    EENTRO =        -0.00000000
  eigenvalues    EBANDS =      -766.37727125
  atomic energy  EATOM  =      6677.64854832
  Solvation  Ediel_sol  =         0.00000000
  ---------------------------------------------------
  free energy    TOTEN  =       -39.00589433 eV

  energy without entropy =      -39.00589433  energy(sigma->0) =      -39.00589433


--------------------------------------------------------------------------------------------------------




--------------------------------------- Iteration      1(   9)  ---------------------------------------


    POTLOK:  cpu time    0.0155: real time    0.0155
    SETDIJ:  cpu time    0.6349: real time    0.6349
atom =   1  type =  1  l = 2
 
 onsite density matrix
 
spin component  1
 
  0.0369  0.0000  0.0231  0.0000  0.0000
  0.0000  0.0294  0.0000  0.0201  0.0000
  0.0231  0.0000  0.0242  0.0000 -0.0000
  0.0000  0.0201  0.0000  0.0294  0.0000
  0.0000  0.0000 -0.0000  0.0000  0.0072
 
spin component  2
 
  0.9765  0.0000  0.0212  0.0000 -0.0000
  0.0000  0.9710  0.0000  0.0188  0.0000
  0.0212  0.0000  0.9645  0.0000 -0.0000
  0.0000  0.0188  0.0000  0.9710  0.0000
 -0.0000  0.0000 -0.0000  0.0000  0.9523
 
 occupancies and eigenvectors
 
  o =  0.0065  v = -0.6063 -0.0000  0.7952  0.0000  0.0000  0.0000  0.0000  0.0000  0.0000  0.0000      0.0000  0.0000  0.0000  0.0000  0.0000  0.0000  0.0000  0.0000  0.0000  0.0000
  o =  0.0072  v = -0.0000  0.0000  0.0000  0.0000 -1.0000  0.0000  0.0000  0.0000  0.0000  0.0000      0.0000  0.0000  0.0000  0.0000  0.0000  0.0000  0.0000  0.0000  0.0000  0.0000
  o =  0.0093  v =  0.0000 -0.7071  0.0000  0.7071 -0.0000  0.0000  0.0000  0.0000  0.0000  0.0000      0.0000  0.0000  0.0000  0.0000  0.0000  0.0000  0.0000  0.0000  0.0000  0.0000
  o =  0.0495  v =  0.0000 -0.7071  0.0000 -0.7071 -0.0000  0.0000  0.0000  0.0000  0.0000  0.0000      0.0000  0.0000  0.0000  0.0000  0.0000  0.0000  0.0000  0.0000  0.0000  0.0000
  o =  0.0545  v = -0.7952 -0.0000 -0.6063  0.0000  0.0000  0.0000  0.0000  0.0000  0.0000  0.0000      0.0000  0.0000  0.0000  0.0000  0.0000  0.0000  0.0000  0.0000  0.0000  0.0000
  o =  0.9484  v =  0.0000  0.0000  0.0000  0.0000  0.0000 -0.6025  0.0000  0.7981  0.0000 -0.0000      0.0000  0.0000  0.0000  0.0000  0.0000  0.0000  0.0000  0.0000  0.0000  0.0000
  o =  0.9523  v =  0.0000  0.0000  0.0000  0.0000  0.0000  0.0000 -0.7071  0.0000  0.7071  0.0000      0.0000  0.0000  0.0000  0.0000  0.0000  0.0000  0.0000  0.0000  0.0000  0.0000
  o =  0.9523  v =  0.0000  0.0000  0.0000  0.0000  0.0000  0.0000 -0.0000 -0.0000  0.0000 -1.0000      0.0000  0.0000  0.0000  0.0000  0.0000  0.0000  0.0000  0.0000  0.0000  0.0000
  o =  0.9898  v =  0.0000  0.0000  0.0000  0.0000  0.0000  0.0000 -0.7071  0.0000 -0.7071  0.0000      0.0000  0.0000  0.0000  0.0000  0.0000  0.0000  0.0000  0.0000  0.0000  0.0000
  o =  0.9926  v =  0.0000  0.0000  0.0000  0.0000  0.0000 -0.7981  0.0000 -0.6025  0.0000  0.0000      0.0000  0.0000  0.0000  0.0000  0.0000  0.0000  0.0000  0.0000  0.0000  0.0000
atom =   2  type =  1  l = 2
 
 onsite density matrix
 
spin component  1
 
  0.9765  0.0000 -0.0212  0.0000 -0.0000
  0.0000  0.9710  0.0000 -0.0188  0.0000
 -0.0212  0.0000  0.9645  0.0000 -0.0000
  0.0000 -0.0188  0.0000  0.9710  0.0000
 -0.0000  0.0000 -0.0000  0.0000  0.9523
 
spin component  2
 
  0.0369  0.0000 -0.0231  0.0000  0.0000
  0.0000  0.0294  0.0000 -0.0201  0.0000
 -0.0231  0.0000  0.0242  0.0000  0.0000
  0.0000 -0.0201  0.0000  0.0294  0.0000
  0.0000  0.0000  0.0000  0.0000  0.0072
 
 occupancies and eigenvectors
 
  o =  0.0065  v =  0.0000  0.0000  0.0000  0.0000  0.0000 -0.6063 -0.0000 -0.7952  0.0000  0.0000      0.0000  0.0000  0.0000  0.0000  0.0000  0.0000  0.0000  0.0000  0.0000  0.0000
  o =  0.0072  v =  0.0000  0.0000  0.0000  0.0000  0.0000 -0.0000  0.0000 -0.0000  0.0000 -1.0000      0.0000  0.0000  0.0000  0.0000  0.0000  0.0000  0.0000  0.0000  0.0000  0.0000
  o =  0.0093  v =  0.0000  0.0000  0.0000  0.0000  0.0000  0.0000 -0.7071  0.0000 -0.7071 -0.0000      0.0000  0.0000  0.0000  0.0000  0.0000  0.0000  0.0000  0.0000  0.0000  0.0000
  o =  0.0495  v =  0.0000  0.0000  0.0000  0.0000  0.0000  0.0000 -0.7071  0.0000  0.7071 -0.0000      0.0000  0.0000  0.0000  0.0000  0.0000  0.0000  0.0000  0.0000  0.0000  0.0000
  o =  0.0545  v =  0.0000  0.0000  0.0000  0.0000  0.0000 -0.7952 -0.0000  0.6063  0.0000  0.0000      0.0000  0.0000  0.0000  0.0000  0.0000  0.0000  0.0000  0.0000  0.0000  0.0000
  o =  0.9484  v = -0.6025  0.0000 -0.7981  0.0000 -0.0000  0.0000  0.0000  0.0000  0.0000  0.0000      0.0000  0.0000  0.0000  0.0000  0.0000  0.0000  0.0000  0.0000  0.0000  0.0000
  o =  0.9523  v =  0.0000  0.7071  0.0000  0.7071 -0.0000  0.0000  0.0000  0.0000  0.0000  0.0000      0.0000  0.0000  0.0000  0.0000  0.0000  0.0000  0.0000  0.0000  0.0000  0.0000
  o =  0.9523  v =  0.0000  0.0000 -0.0000  0.0000  1.0000  0.0000  0.0000  0.0000  0.0000  0.0000      0.0000  0.0000  0.0000  0.0000  0.0000  0.0000  0.0000  0.0000  0.0000  0.0000
  o =  0.9898  v =  0.0000  0.7071 -0.0000 -0.7071  0.0000  0.0000  0.0000  0.0000  0.0000  0.0000      0.0000  0.0000  0.0000  0.0000  0.0000  0.0000  0.0000  0.0000  0.0000  0.0000
  o =  0.9926  v = -0.7981  0.0000  0.6025  0.0000  0.0000  0.0000  0.0000  0.0000  0.0000  0.0000      0.0000  0.0000  0.0000  0.0000  0.0000  0.0000  0.0000  0.0000  0.0000  0.0000
     EDDAV:  cpu time    0.0710: real time    0.0710
       DOS:  cpu time    0.0001: real time    0.0001
    CHARGE:  cpu time    0.0249: real time    0.0249
    MIXING:  cpu time    0.0009: real time    0.0009
    --------------------------------------------
      LOOP:  cpu time    0.7473: real time    0.7473

 eigenvalue-minimisations  :   288
 total energy-change (2. order) :-0.1525121E+00  (-0.4648650E-02)
 number of electron      54.0000009 magnetization       0.0000000
 augmentation part       19.9461570 magnetization       0.0000000

 Broyden mixing:
  rms(total) = 0.12461E+00    rms(broyden)= 0.12460E+00
  rms(prec ) = 0.14052E+00
  weight for this iteration     100.00

 eigenvalues of (default mixing * dielectric matrix)
  average eigenvalue GAMMA=   1.2258
  2.6212  0.8286  0.8286  0.6248

 Free energy of the ion-electron system (eV)
  ---------------------------------------------------
  alpha Z        PSCENC =       196.13658257
  Ewald energy   TEWEN  =     -4178.31221721
  -Hartree energ DENC   =     -2157.26325229
  -exchange      EXHF   =         0.00000000
  -V(xc)+E(xc)   XCENC  =       293.94742331
  PAW double counting   =      6278.77512485    -6386.68807886
  entropy T*S    EENTRO =        -0.00000000
  eigenvalues    EBANDS =      -763.40253708
  atomic energy  EATOM  =      6677.64854832
  Solvation  Ediel_sol  =         0.00000000
  ---------------------------------------------------
  free energy    TOTEN  =       -39.15840639 eV

  energy without entropy =      -39.15840639  energy(sigma->0) =      -39.15840639


--------------------------------------------------------------------------------------------------------




--------------------------------------- Iteration      1(  10)  ---------------------------------------


    POTLOK:  cpu time    0.0156: real time    0.0156
    SETDIJ:  cpu time    0.6354: real time    0.6354
atom =   1  type =  1  l = 2
 
 onsite density matrix
 
spin component  1
 
  0.0460  0.0000  0.0255  0.0000 -0.0000
  0.0000  0.0379  0.0000  0.0218  0.0000
  0.0255  0.0000  0.0323  0.0000 -0.0000
  0.0000  0.0218  0.0000  0.0379  0.0000
 -0.0000  0.0000 -0.0000  0.0000  0.0140
 
spin component  2
 
  0.9677  0.0000  0.0188  0.0000  0.0000
  0.0000  0.9626  0.0000  0.0171  0.0000
  0.0188  0.0000  0.9564  0.0000  0.0000
  0.0000  0.0171  0.0000  0.9626  0.0000
  0.0000  0.0000  0.0000  0.0000  0.9457
 
 occupancies and eigenvectors
 
  o =  0.0127  v = -0.6090  0.0000  0.7931 -0.0000  0.0000  0.0000  0.0000  0.0000  0.0000  0.0000      0.0000  0.0000  0.0000  0.0000  0.0000  0.0000  0.0000  0.0000  0.0000  0.0000
  o =  0.0140  v = -0.0000 -0.0000  0.0000  0.0000 -1.0000  0.0000  0.0000  0.0000  0.0000  0.0000      0.0000  0.0000  0.0000  0.0000  0.0000  0.0000  0.0000  0.0000  0.0000  0.0000
  o =  0.0162  v = -0.0000 -0.7071  0.0000  0.7071  0.0000  0.0000  0.0000  0.0000  0.0000  0.0000      0.0000  0.0000  0.0000  0.0000  0.0000  0.0000  0.0000  0.0000  0.0000  0.0000
  o =  0.0597  v = -0.0000 -0.7071 -0.0000 -0.7071 -0.0000  0.0000  0.0000  0.0000  0.0000  0.0000      0.0000  0.0000  0.0000  0.0000  0.0000  0.0000  0.0000  0.0000  0.0000  0.0000
  o =  0.0656  v = -0.7931  0.0000 -0.6090  0.0000  0.0000  0.0000  0.0000  0.0000  0.0000  0.0000      0.0000  0.0000  0.0000  0.0000  0.0000  0.0000  0.0000  0.0000  0.0000  0.0000
  o =  0.9424  v =  0.0000  0.0000  0.0000  0.0000  0.0000 -0.5977  0.0000  0.8017  0.0000  0.0000      0.0000  0.0000  0.0000  0.0000  0.0000  0.0000  0.0000  0.0000  0.0000  0.0000
  o =  0.9455  v =  0.0000  0.0000  0.0000  0.0000  0.0000  0.0000  0.7071  0.0000 -0.7071  0.0000      0.0000  0.0000  0.0000  0.0000  0.0000  0.0000  0.0000  0.0000  0.0000  0.0000
  o =  0.9457  v =  0.0000  0.0000  0.0000  0.0000  0.0000  0.0000 -0.0000 -0.0000  0.0000  1.0000      0.0000  0.0000  0.0000  0.0000  0.0000  0.0000  0.0000  0.0000  0.0000  0.0000
  o =  0.9798  v =  0.0000  0.0000  0.0000  0.0000  0.0000  0.0000 -0.7071  0.0000 -0.7071 -0.0000      0.0000  0.0000  0.0000  0.0000  0.0000  0.0000  0.0000  0.0000  0.0000  0.0000
  o =  0.9817  v =  0.0000  0.0000  0.0000  0.0000  0.0000 -0.8017  0.0000 -0.5977  0.0000 -0.0000      0.0000  0.0000  0.0000  0.0000  0.0000  0.0000  0.0000  0.0000  0.0000  0.0000
atom =   2  type =  1  l = 2
 
 onsite density matrix
 
spin component  1
 
  0.9677  0.0000 -0.0188  0.0000  0.0000
  0.0000  0.9626  0.0000 -0.0171  0.0000
 -0.0188  0.0000  0.9564  0.0000  0.0000
  0.0000 -0.0171  0.0000  0.9626  0.0000
  0.0000  0.0000  0.0000  0.0000  0.9457
 
spin component  2
 
  0.0460  0.0000 -0.0255  0.0000 -0.0000
  0.0000  0.0379  0.0000 -0.0218  0.0000
 -0.0255  0.0000  0.0323  0.0000 -0.0000
  0.0000 -0.0218  0.0000  0.0379  0.0000
 -0.0000  0.0000 -0.0000  0.0000  0.0140
 
 occupancies and eigenvectors
 
  o =  0.0127  v =  0.0000  0.0000  0.0000  0.0000  0.0000 -0.6090 -0.0000 -0.7931  0.0000 -0.0000      0.0000  0.0000  0.0000  0.0000  0.0000  0.0000  0.0000  0.0000  0.0000  0.0000
  o =  0.0140  v =  0.0000  0.0000  0.0000  0.0000  0.0000 -0.0000  0.0000 -0.0000  0.0000  1.0000      0.0000  0.0000  0.0000  0.0000  0.0000  0.0000  0.0000  0.0000  0.0000  0.0000
  o =  0.0162  v =  0.0000  0.0000  0.0000  0.0000  0.0000  0.0000 -0.7071  0.0000 -0.7071  0.0000      0.0000  0.0000  0.0000  0.0000  0.0000  0.0000  0.0000  0.0000  0.0000  0.0000
  o =  0.0597  v =  0.0000  0.0000  0.0000  0.0000  0.0000  0.0000  0.7071  0.0000 -0.7071 -0.0000      0.0000  0.0000  0.0000  0.0000  0.0000  0.0000  0.0000  0.0000  0.0000  0.0000
  o =  0.0656  v =  0.0000  0.0000  0.0000  0.0000  0.0000 -0.7931 -0.0000  0.6090  0.0000 -0.0000      0.0000  0.0000  0.0000  0.0000  0.0000  0.0000  0.0000  0.0000  0.0000  0.0000
  o =  0.9424  v = -0.5977 -0.0000 -0.8017  0.0000  0.0000  0.0000  0.0000  0.0000  0.0000  0.0000      0.0000  0.0000  0.0000  0.0000  0.0000  0.0000  0.0000  0.0000  0.0000  0.0000
  o =  0.9455  v =  0.0000  0.7071  0.0000  0.7071  0.0000  0.0000  0.0000  0.0000  0.0000  0.0000      0.0000  0.0000  0.0000  0.0000  0.0000  0.0000  0.0000  0.0000  0.0000  0.0000
  o =  0.9457  v = -0.0000  0.0000 -0.0000  0.0000 -1.0000  0.0000  0.0000  0.0000  0.0000  0.0000      0.0000  0.0000  0.0000  0.0000  0.0000  0.0000  0.0000  0.0000  0.0000  0.0000
  o =  0.9798  v =  0.0000  0.7071  0.0000 -0.7071  0.0000  0.0000  0.0000  0.0000  0.0000  0.0000      0.0000  0.0000  0.0000  0.0000  0.0000  0.0000  0.0000  0.0000  0.0000  0.0000
  o =  0.9817  v = -0.8017 -0.0000  0.5977  0.0000  0.0000  0.0000  0.0000  0.0000  0.0000  0.0000      0.0000  0.0000  0.0000  0.0000  0.0000  0.0000  0.0000  0.0000  0.0000  0.0000
     EDDAV:  cpu time    0.0864: real time    0.0864
       DOS:  cpu time    0.0001: real time    0.0001
    CHARGE:  cpu time    0.0245: real time    0.0245
    MIXING:  cpu time    0.0009: real time    0.0009
    --------------------------------------------
      LOOP:  cpu time    0.7629: real time    0.7629

 eigenvalue-minimisations  :   372
 total energy-change (2. order) :-0.1911550E-02  (-0.2069890E-02)
 number of electron      54.0000009 magnetization      -0.0000000
 augmentation part       19.9445074 magnetization      -0.0000000

 Broyden mixing:
  rms(total) = 0.27951E-01    rms(broyden)= 0.27947E-01
  rms(prec ) = 0.30800E-01
  weight for this iteration     100.00

 eigenvalues of (default mixing * dielectric matrix)
  average eigenvalue GAMMA=   1.1616
  2.5248  0.9616  0.9616  0.7491  0.6111

 Free energy of the ion-electron system (eV)
  ---------------------------------------------------
  alpha Z        PSCENC =       196.13658257
  Ewald energy   TEWEN  =     -4178.31221721
  -Hartree energ DENC   =     -2158.03275249
  -exchange      EXHF   =         0.00000000
  -V(xc)+E(xc)   XCENC  =       294.06216013
  PAW double counting   =      6271.07377721    -6379.23176724
  entropy T*S    EENTRO =        -0.00000000
  eigenvalues    EBANDS =      -762.50464923
  atomic energy  EATOM  =      6677.64854832
  Solvation  Ediel_sol  =         0.00000000
  ---------------------------------------------------
  free energy    TOTEN  =       -39.16031794 eV

  energy without entropy =      -39.16031794  energy(sigma->0) =      -39.16031794


--------------------------------------------------------------------------------------------------------




--------------------------------------- Iteration      1(  11)  ---------------------------------------


    POTLOK:  cpu time    0.0155: real time    0.0155
    SETDIJ:  cpu time    0.6350: real time    0.6350
atom =   1  type =  1  l = 2
 
 onsite density matrix
 
spin component  1
 
  0.0444  0.0000  0.0252  0.0000  0.0000
  0.0000  0.0363  0.0000  0.0215  0.0000
  0.0252  0.0000  0.0307  0.0000  0.0000
  0.0000  0.0215  0.0000  0.0363  0.0000
  0.0000  0.0000  0.0000  0.0000  0.0126
 
spin component  2
 
  0.9702  0.0000  0.0189  0.0000 -0.0000
  0.0000  0.9652  0.0000  0.0171  0.0000
  0.0189  0.0000  0.9590  0.0000 -0.0000
  0.0000  0.0171  0.0000  0.9652  0.0000
 -0.0000  0.0000 -0.0000  0.0000  0.9483
 
 occupancies and eigenvectors
 
  o =  0.0114  v = -0.6077  0.0000  0.7942  0.0000 -0.0000  0.0000  0.0000  0.0000  0.0000  0.0000      0.0000  0.0000  0.0000  0.0000  0.0000  0.0000  0.0000  0.0000  0.0000  0.0000
  o =  0.0126  v = -0.0000 -0.0000  0.0000  0.0000  1.0000  0.0000  0.0000  0.0000  0.0000  0.0000      0.0000  0.0000  0.0000  0.0000  0.0000  0.0000  0.0000  0.0000  0.0000  0.0000
  o =  0.0147  v =  0.0000  0.7071 -0.0000 -0.7071  0.0000  0.0000  0.0000  0.0000  0.0000  0.0000      0.0000  0.0000  0.0000  0.0000  0.0000  0.0000  0.0000  0.0000  0.0000  0.0000
  o =  0.0578  v =  0.0000 -0.7071  0.0000 -0.7071 -0.0000  0.0000  0.0000  0.0000  0.0000  0.0000      0.0000  0.0000  0.0000  0.0000  0.0000  0.0000  0.0000  0.0000  0.0000  0.0000
  o =  0.0637  v = -0.7942  0.0000 -0.6077  0.0000 -0.0000  0.0000  0.0000  0.0000  0.0000  0.0000      0.0000  0.0000  0.0000  0.0000  0.0000  0.0000  0.0000  0.0000  0.0000  0.0000
  o =  0.9449  v =  0.0000  0.0000  0.0000  0.0000  0.0000 -0.5986  0.0000  0.8011 -0.0000  0.0000      0.0000  0.0000  0.0000  0.0000  0.0000  0.0000  0.0000  0.0000  0.0000  0.0000
  o =  0.9481  v =  0.0000  0.0000  0.0000  0.0000  0.0000 -0.0000 -0.7071  0.0000  0.7071 -0.0000      0.0000  0.0000  0.0000  0.0000  0.0000  0.0000  0.0000  0.0000  0.0000  0.0000
  o =  0.9483  v =  0.0000  0.0000  0.0000  0.0000  0.0000  0.0000 -0.0000 -0.0000  0.0000  1.0000      0.0000  0.0000  0.0000  0.0000  0.0000  0.0000  0.0000  0.0000  0.0000  0.0000
  o =  0.9823  v =  0.0000  0.0000  0.0000  0.0000  0.0000 -0.0000 -0.7071 -0.0000 -0.7071  0.0000      0.0000  0.0000  0.0000  0.0000  0.0000  0.0000  0.0000  0.0000  0.0000  0.0000
  o =  0.9843  v =  0.0000  0.0000  0.0000  0.0000  0.0000 -0.8011  0.0000 -0.5986  0.0000  0.0000      0.0000  0.0000  0.0000  0.0000  0.0000  0.0000  0.0000  0.0000  0.0000  0.0000
atom =   2  type =  1  l = 2
 
 onsite density matrix
 
spin component  1
 
  0.9702  0.0000 -0.0189  0.0000 -0.0000
  0.0000  0.9652  0.0000 -0.0171  0.0000
 -0.0189  0.0000  0.9590  0.0000  0.0000
  0.0000 -0.0171  0.0000  0.9652  0.0000
 -0.0000  0.0000  0.0000  0.0000  0.9483
 
spin component  2
 
  0.0444  0.0000 -0.0252  0.0000  0.0000
  0.0000  0.0363  0.0000 -0.0215  0.0000
 -0.0252  0.0000  0.0307  0.0000 -0.0000
  0.0000 -0.0215  0.0000  0.0363  0.0000
  0.0000  0.0000 -0.0000  0.0000  0.0126
 
 occupancies and eigenvectors
 
  o =  0.0114  v =  0.0000  0.0000  0.0000  0.0000  0.0000 -0.6077  0.0000 -0.7942  0.0000 -0.0000      0.0000  0.0000  0.0000  0.0000  0.0000  0.0000  0.0000  0.0000  0.0000  0.0000
  o =  0.0126  v =  0.0000  0.0000  0.0000  0.0000  0.0000 -0.0000 -0.0000 -0.0000  0.0000  1.0000      0.0000  0.0000  0.0000  0.0000  0.0000  0.0000  0.0000  0.0000  0.0000  0.0000
  o =  0.0147  v =  0.0000  0.0000  0.0000  0.0000  0.0000  0.0000 -0.7071  0.0000 -0.7071 -0.0000      0.0000  0.0000  0.0000  0.0000  0.0000  0.0000  0.0000  0.0000  0.0000  0.0000
  o =  0.0578  v =  0.0000  0.0000  0.0000  0.0000  0.0000  0.0000  0.7071  0.0000 -0.7071  0.0000      0.0000  0.0000  0.0000  0.0000  0.0000  0.0000  0.0000  0.0000  0.0000  0.0000
  o =  0.0637  v =  0.0000  0.0000  0.0000  0.0000  0.0000 -0.7942  0.0000  0.6077  0.0000 -0.0000      0.0000  0.0000  0.0000  0.0000  0.0000  0.0000  0.0000  0.0000  0.0000  0.0000
  o =  0.9449  v = -0.5986  0.0000 -0.8011  0.0000  0.0000  0.0000  0.0000  0.0000  0.0000  0.0000      0.0000  0.0000  0.0000  0.0000  0.0000  0.0000  0.0000  0.0000  0.0000  0.0000
  o =  0.9481  v = -0.0000 -0.7071 -0.0000 -0.7071 -0.0000  0.0000  0.0000  0.0000  0.0000  0.0000      0.0000  0.0000  0.0000  0.0000  0.0000  0.0000  0.0000  0.0000  0.0000  0.0000
  o =  0.9483  v =  0.0000 -0.0000  0.0000 -0.0000  1.0000  0.0000  0.0000  0.0000  0.0000  0.0000      0.0000  0.0000  0.0000  0.0000  0.0000  0.0000  0.0000  0.0000  0.0000  0.0000
  o =  0.9823  v = -0.0000 -0.7071  0.0000  0.7071  0.0000  0.0000  0.0000  0.0000  0.0000  0.0000      0.0000  0.0000  0.0000  0.0000  0.0000  0.0000  0.0000  0.0000  0.0000  0.0000
  o =  0.9843  v = -0.8011  0.0000  0.5986 -0.0000  0.0000  0.0000  0.0000  0.0000  0.0000  0.0000      0.0000  0.0000  0.0000  0.0000  0.0000  0.0000  0.0000  0.0000  0.0000  0.0000
     EDDAV:  cpu time    0.0745: real time    0.0745
       DOS:  cpu time    0.0001: real time    0.0001
    CHARGE:  cpu time    0.0244: real time    0.0244
    MIXING:  cpu time    0.0010: real time    0.0010
    --------------------------------------------
      LOOP:  cpu time    0.7505: real time    0.7505

 eigenvalue-minimisations  :   312
 total energy-change (2. order) :-0.2440054E-03  (-0.2701692E-03)
 number of electron      54.0000009 magnetization       0.0000000
 augmentation part       19.9391929 magnetization       0.0000000

 Broyden mixing:
  rms(total) = 0.13917E-01    rms(broyden)= 0.13915E-01
  rms(prec ) = 0.15974E-01
  weight for this iteration     100.00

 eigenvalues of (default mixing * dielectric matrix)
  average eigenvalue GAMMA=   1.1197
  2.5212  1.2604  0.8368  0.8368  0.6542  0.6086

 Free energy of the ion-electron system (eV)
  ---------------------------------------------------
  alpha Z        PSCENC =       196.13658257
  Ewald energy   TEWEN  =     -4178.31221721
  -Hartree energ DENC   =     -2158.62851802
  -exchange      EXHF   =         0.00000000
  -V(xc)+E(xc)   XCENC  =       294.08621369
  PAW double counting   =      6257.59381824    -6365.58150746
  entropy T*S    EENTRO =        -0.00000000
  eigenvalues    EBANDS =      -762.10348207
  atomic energy  EATOM  =      6677.64854832
  Solvation  Ediel_sol  =         0.00000000
  ---------------------------------------------------
  free energy    TOTEN  =       -39.16056195 eV

  energy without entropy =      -39.16056195  energy(sigma->0) =      -39.16056195


--------------------------------------------------------------------------------------------------------




--------------------------------------- Iteration      1(  12)  ---------------------------------------


    POTLOK:  cpu time    0.0155: real time    0.0155
    SETDIJ:  cpu time    0.6344: real time    0.6344
atom =   1  type =  1  l = 2
 
 onsite density matrix
 
spin component  1
 
[...]
     13      -3.7386      1.00000
     14      -3.5432      1.00000
     15      -3.4918      1.00000
     16      -3.1561      1.00000
     17      -2.6966      1.00000
     18      -2.5766      1.00000
     19      -2.4007      1.00000
     20      -1.8517      1.00000
     21      -1.7651      1.00000
     22      -1.4745      1.00000
     23      -0.4483      1.00000
     24      -0.3292      1.00000
     25      -0.1061      1.00000
     26       0.7470      1.00000
     27       1.2103      1.00000
     28       7.1994      0.00000
     29       7.2063      0.00000
     30       7.2638      0.00000
     31       7.3754      0.00000
     32       8.1341      0.00000
     33       8.6519      0.00000
     34      10.7661      0.00000
     35      11.0860      0.00000
     36      11.8669      0.00000

 spin component 2

 k-point     1 :       0.2500    0.2500    0.0000
  band No.  band energies     occupation 
      1     -46.7142      1.00000
      2     -46.6572      1.00000
      3     -46.6509      1.00000
      4     -41.7354      1.00000
      5     -41.6763      1.00000
      6     -41.6670      1.00000
      7     -21.0204      1.00000
      8     -20.7807      1.00000
      9     -20.5689      1.00000
     10     -20.5674      1.00000
     11      -4.5483      1.00000
     12      -4.3545      1.00000
     13      -3.8036      1.00000
     14      -3.1767      1.00000
     15      -2.6864      1.00000
     16      -2.6501      1.00000
     17      -2.6126      1.00000
     18      -2.5233      1.00000
     19      -2.0297      1.00000
     20      -2.0243      1.00000
     21      -1.6323      1.00000
     22      -1.3169      1.00000
     23      -0.5774      1.00000
     24      -0.4179      1.00000
     25      -0.0144      1.00000
     26       0.8044      1.00000
     27       1.3177      1.00000
     28       5.9026      0.00000
     29       6.8842      0.00000
     30       7.3971      0.00000
     31       7.4213      0.00000
     32       8.1813      0.00000
     33       8.2836      0.00000
     34       9.0697      0.00000
     35       9.5853      0.00000
     36      11.8814      0.00000

 k-point     2 :       0.2500    0.2500    0.3333
  band No.  band energies     occupation 
      1     -46.7115      1.00000
      2     -46.6675      1.00000
      3     -46.6561      1.00000
      4     -41.7310      1.00000
      5     -41.6905      1.00000
      6     -41.6748      1.00000
      7     -20.8428      1.00000
      8     -20.7137      1.00000
      9     -20.6304      1.00000
     10     -20.5642      1.00000
     11      -4.3386      1.00000
     12      -3.8492      1.00000
     13      -3.7568      1.00000
     14      -3.5779      1.00000
     15      -3.5377      1.00000
     16      -3.0289      1.00000
     17      -2.5103      1.00000
     18      -2.4334      1.00000
     19      -2.3963      1.00000
     20      -1.8639      1.00000
     21      -1.7135      1.00000
     22      -1.4772      1.00000
     23      -0.4227      1.00000
     24      -0.2820      1.00000
     25      -0.0477      1.00000
     26       0.5894      1.00000
     27       0.9563      1.00000
     28       7.1632      0.00000
     29       7.2082      0.00000
     30       7.2452      0.00000
     31       7.8920      0.00000
     32       7.9935      0.00000
     33       8.3242      0.00000
     34      10.7388      0.00000
     35      11.2163      0.00000
     36      11.9614      0.00000


--------------------------------------------------------------------------------------------------------


 soft charge-density along one line, spin component           1
         0         1         2         3         4         5         6         7         8         9
 total charge-density along one line
 
 soft charge-density along one line, spin component           2
         0         1         2         3         4         5         6         7         8         9
 total charge-density along one line
 
 pseudopotential strength for first ion, spin component:           1
-42.474  -0.000  -0.028   7.858   0.000   0.012   0.000  -0.000
 -0.000 -42.445  -0.000   0.000   7.846   0.000  -0.000   0.000
 -0.028  -0.000 -42.474   0.012   0.000   7.858   0.000  -0.000
  7.858   0.000   0.012   5.259  -0.000  -0.002  -0.000   0.000
  0.000   7.846   0.000  -0.000   5.262  -0.000   0.000  -0.000
  0.012   0.000   7.858  -0.002  -0.000   5.259  -0.000   0.000
  0.000  -0.000   0.000  -0.000   0.000  -0.000  -1.447  -0.000
 -0.000   0.000  -0.000   0.000  -0.000   0.000  -0.000  -1.405
 -0.000  -0.000  -0.000   0.000   0.000   0.000  -0.066   0.000
 -0.000   0.000  -0.000   0.000  -0.000   0.000  -0.000  -0.082
 -0.000  -0.000   0.000   0.000   0.000  -0.000  -0.000   0.000
  0.000  -0.000   0.000  -0.000   0.000  -0.000  -1.889  -0.000
 -0.000   0.000  -0.000   0.000  -0.000   0.000  -0.000  -1.846
 -0.000  -0.000  -0.000   0.000   0.000   0.000  -0.069   0.000
 -0.000   0.000  -0.000   0.000  -0.000   0.000  -0.000  -0.085
 -0.000  -0.000   0.000   0.000   0.000  -0.000  -0.000   0.000
 -0.000   0.000  -0.000  -0.000   0.000  -0.000   0.007   0.000
 -0.000   0.000  -0.000  -0.000   0.000  -0.000   0.013   0.000
 pseudopotential strength for first ion, spin component:           2
-45.814  -0.000  -0.020   9.389   0.000   0.007   0.000  -0.000
 -0.000 -45.795  -0.000   0.000   9.383   0.000  -0.000   0.000
 -0.020  -0.000 -45.814   0.007   0.000   9.389   0.000  -0.000
  9.389   0.000   0.007   4.744  -0.000  -0.001  -0.000   0.000
  0.000   9.383   0.000  -0.000   4.746  -0.000   0.000  -0.000
  0.007   0.000   9.389  -0.001  -0.000   4.744  -0.000   0.000
  0.000  -0.000   0.000  -0.000   0.000  -0.000  -7.738  -0.000
 -0.000   0.000  -0.000   0.000  -0.000   0.000  -0.000  -7.710
 -0.000  -0.000  -0.000   0.000   0.000   0.000  -0.045   0.000
 -0.000   0.000  -0.000   0.000  -0.000   0.000  -0.000  -0.066
 -0.000  -0.000   0.000   0.000   0.000  -0.000   0.000   0.000
  0.000  -0.000   0.000  -0.000   0.000  -0.000  -8.234  -0.000
 -0.000   0.000  -0.000   0.000  -0.000   0.000  -0.000  -8.206
 -0.000  -0.000  -0.000   0.000   0.000   0.000  -0.047   0.000
 -0.000   0.000  -0.000   0.000  -0.000   0.000  -0.000  -0.067
 -0.000  -0.000   0.000   0.000   0.000  -0.000   0.000   0.000
 -0.000   0.000  -0.000  -0.000   0.000  -0.000   0.003   0.000
 -0.000   0.000  -0.000  -0.000   0.000  -0.000   0.005   0.000
 total augmentation occupancy for first ion, spin component:           1
  1.998   0.000   0.000  -0.013   0.000   0.000   0.000   0.000   0.000   0.000   0.000   0.000   0.000   0.000   0.000   0.000
  0.000   1.998   0.000   0.000  -0.013   0.000   0.000   0.000   0.000   0.000   0.000   0.000   0.000   0.000   0.000   0.000
  0.000   0.000   1.998   0.000   0.000  -0.013   0.000   0.000   0.000   0.000   0.000   0.000   0.000   0.000   0.000   0.000
 -0.013   0.000   0.000   0.086   0.000  -0.008   0.000   0.000   0.000   0.000   0.000   0.000   0.000   0.000   0.000   0.000
  0.000  -0.013   0.000   0.000   0.098   0.000   0.000   0.000   0.000   0.000   0.000   0.000   0.000   0.000   0.000   0.000
  0.000   0.000  -0.013  -0.008   0.000   0.086   0.000   0.000   0.000   0.000   0.000   0.000   0.000   0.000   0.000   0.000
  0.000   0.000   0.000   0.000   0.000   0.000   7.606   0.000   2.901   0.000   0.000  -5.660   0.000  -2.741   0.000   0.000
  0.000   0.000   0.000   0.000   0.000   0.000   0.000   6.521   0.000   2.560   0.000   0.000  -4.625   0.000  -2.411   0.000
  0.000   0.000   0.000   0.000   0.000   0.000   2.901   0.000   5.888   0.000   0.000  -2.742   0.000  -4.054   0.000   0.000
  0.000   0.000   0.000   0.000   0.000   0.000   0.000   2.560   0.000   6.521   0.000   0.000  -2.411   0.000  -4.625   0.000
  0.000   0.000   0.000   0.000   0.000   0.000   0.000   0.000   0.000   0.000   3.845   0.000   0.000   0.000   0.000  -2.082
  0.000   0.000   0.000   0.000   0.000   0.000  -5.660   0.000  -2.742   0.000   0.000   4.882   0.000   2.620   0.000   0.000
  0.000   0.000   0.000   0.000   0.000   0.000   0.000  -4.625   0.000  -2.411   0.000   0.000   3.888   0.000   2.297   0.000
  0.000   0.000   0.000   0.000   0.000   0.000  -2.741   0.000  -4.054   0.000   0.000   2.620   0.000   3.364   0.000  -0.000
  0.000   0.000   0.000   0.000   0.000   0.000   0.000  -2.411   0.000  -4.625   0.000   0.000   2.297   0.000   3.888   0.000
  0.000   0.000   0.000   0.000   0.000   0.000   0.000   0.000   0.000   0.000  -2.082   0.000   0.000  -0.000   0.000   1.443
  0.000   0.000   0.000   0.000   0.000   0.000   0.205   0.000  -0.211   0.000  -0.000  -0.236   0.000   0.227   0.000   0.000
  0.000   0.000   0.000   0.000   0.000   0.000   0.003   0.000   0.015   0.000  -0.000   0.023   0.000  -0.030   0.000   0.000
 total augmentation occupancy for first ion, spin component:           2
  0.003   0.000  -0.000   0.011   0.000  -0.000   0.000   0.000   0.000   0.000   0.000   0.000   0.000   0.000   0.000   0.000
  0.000   0.003   0.000   0.000   0.012   0.000   0.000   0.000   0.000   0.000   0.000   0.000   0.000   0.000   0.000   0.000
 -0.000   0.000   0.003  -0.000   0.000   0.011   0.000   0.000   0.000   0.000   0.000   0.000   0.000   0.000   0.000   0.000
  0.011   0.000  -0.000  -0.011   0.000  -0.000   0.000   0.000   0.000   0.000   0.000   0.000   0.000   0.000   0.000   0.000
  0.000   0.012   0.000   0.000  -0.011   0.000   0.000   0.000   0.000   0.000   0.000   0.000   0.000   0.000   0.000   0.000
 -0.000   0.000   0.011  -0.000   0.000  -0.011   0.000   0.000   0.000   0.000   0.000   0.000   0.000   0.000   0.000   0.000
  0.000   0.000   0.000   0.000   0.000   0.000  -5.368   0.000  -1.632   0.000   0.000   3.081   0.000   1.284   0.000   0.000
  0.000   0.000   0.000   0.000   0.000   0.000   0.000  -4.772   0.000  -1.460   0.000   0.000   2.599   0.000   1.150   0.000
  0.000   0.000   0.000   0.000   0.000   0.000  -1.632   0.000  -4.328   0.000   0.000   1.284   0.000   2.256   0.000  -0.000
  0.000   0.000   0.000   0.000   0.000   0.000   0.000  -1.460   0.000  -4.772   0.000   0.000   1.150   0.000   2.599   0.000
  0.000   0.000   0.000   0.000   0.000   0.000   0.000   0.000   0.000   0.000  -3.302  -0.000   0.000   0.000   0.000   1.439
  0.000   0.000   0.000   0.000   0.000   0.000   3.081   0.000   1.284   0.000   0.000  -1.904   0.000  -0.942   0.000   0.000
  0.000   0.000   0.000   0.000   0.000   0.000   0.000   2.599   0.000   1.150   0.000   0.000  -1.535   0.000  -0.846   0.000
  0.000   0.000   0.000   0.000   0.000   0.000   1.284   0.000   2.256   0.000   0.000  -0.942   0.000  -1.288   0.000   0.000
  0.000   0.000   0.000   0.000   0.000   0.000   0.000   1.150   0.000   2.599   0.000   0.000  -0.846   0.000  -1.535   0.000
  0.000   0.000   0.000   0.000   0.000   0.000   0.000   0.000  -0.000   0.000   1.439   0.000   0.000   0.000   0.000  -0.680
  0.000   0.000   0.000   0.000   0.000   0.000   0.023   0.000   0.007   0.000  -0.000  -0.024   0.000   0.005   0.000  -0.000
  0.000   0.000   0.000   0.000   0.000   0.000  -0.049   0.000   0.025   0.000   0.000   0.029   0.000  -0.014   0.000   0.000


------------------------ aborting loop because EDIFF is reached ----------------------------------------


 


 total charge     
 
# of ion       s       p       d       tot
------------------------------------------
    1        0.162   6.155   4.947  11.264
    2        0.171   6.145   4.959  11.276
    3        1.727   4.368   0.000   6.095
    4        1.727   4.368   0.000   6.095
    5        1.726   4.360   0.000   6.086
    6        1.726   4.360   0.000   6.086
--------------------------------------------------
tot          7.238  29.757   9.906  46.901
 


 magnetization (x)
 
# of ion       s       p       d       tot
------------------------------------------
    1       -0.018  -0.020  -4.630  -4.668
    2        0.019   0.017   4.625   4.661
    3        0.001   0.019   0.000   0.020
    4        0.001   0.019   0.000   0.020
    5       -0.003  -0.012   0.000  -0.014
    6       -0.003  -0.012   0.000  -0.014
--------------------------------------------------
tot         -0.002   0.012  -0.005   0.005
 
    CHARGE:  cpu time    0.0247: real time    0.0247
    FORLOC:  cpu time    0.0008: real time    0.0008
    FORNL :  cpu time    0.1079: real time    0.1079
    STRESS:  cpu time    0.3334: real time    0.3334
    FORCOR:  cpu time    0.0151: real time    0.0151
    FORHAR:  cpu time    0.0021: real time    0.0021
    MIXING:  cpu time    0.0005: real time    0.0005
    OFIELD:  cpu time    0.0000: real time    0.0000

  FORCE on cell =-STRESS in cart. coord.  units (eV):
  Direction    XX          YY          ZZ          XY          YZ          ZX
  --------------------------------------------------------------------------------------
  Alpha Z   196.08372   196.08372   196.08372
  Ewald   -1581.88171 -1581.88171 -1014.36301    -0.00000    -0.00000    -0.00000
  Hartree   591.61415   591.61415   975.42255    -0.00000    -0.00000    -0.00000
  E(xc)    -314.09718  -314.09718  -313.87853    -0.00000    -0.00000    -0.00000
  Local     160.52589   160.52589  -784.01281    -0.00000     0.00000    -0.00000
  n-local  -242.53589  -242.53589  -241.52352     0.04444     0.13386     0.13199
  augment   265.54899   265.54899   265.07899     0.00000     0.00000     0.00000
  Kinetic   924.72822   924.72822   917.20852    -0.94580    -1.01236    -1.01236
  Fock        0.00000     0.00000     0.00000     0.00000     0.00000     0.00000
  -------------------------------------------------------------------------------------
  Total      -0.01382    -0.01382     0.01591     0.00000     0.00000     0.00000
  in kB      -0.28118    -0.28118     0.32369     0.00000     0.00000     0.00000
  external pressure =       -0.08 kB  Pullay stress =        0.00 kB


 VOLUME and BASIS-vectors are now :
 -----------------------------------------------------------------------------
  energy-cutoff  :      600.00
  volume of cell :       78.73
      direct lattice vectors                 reciprocal lattice vectors
     4.882910252 -0.000000000  0.000000000     0.204795900  0.000000000  0.000000000
    -0.000000000  4.882910252  0.000000000     0.000000000  0.204795900  0.000000000
     0.000000000  0.000000000  3.302003920     0.000000000  0.000000000  0.302846400

  length of vectors
     4.882910252  4.882910252  3.302003920     0.204795900  0.204795900  0.302846400


 FORCES acting on ions
    electron-ion (+dipol)            ewald-force                    non-local-force                 convergence-correction
 -----------------------------------------------------------------------------------------------
   -.177E-11 0.658E-11 -.309E-13   0.568E-13 -.568E-13 0.842E-14   -.320E-28 0.000E+00 0.000E+00   -.140E-12 -.123E-13 0.404E-12
   -.279E-14 -.787E-14 0.302E-13   0.199E-12 0.142E-12 0.883E-14   -.366E-28 0.000E+00 0.000E+00   0.165E-12 -.560E-13 -.426E-12
   -.342E+02 0.342E+02 0.205E-11   0.356E+02 -.356E+02 -.310E-15   -.138E+01 0.138E+01 0.000E+00   0.621E-03 -.621E-03 0.806E-13
   0.342E+02 -.342E+02 -.180E-10   -.356E+02 0.356E+02 -.349E-15   0.138E+01 -.138E+01 0.000E+00   -.621E-03 0.621E-03 0.572E-12
   0.342E+02 0.342E+02 0.281E-07   -.356E+02 -.356E+02 -.407E-14   0.138E+01 0.138E+01 0.000E+00   -.621E-03 -.621E-03 -.983E-11
   -.342E+02 -.342E+02 -.280E-07   0.356E+02 0.356E+02 -.388E-14   -.138E+01 -.138E+01 0.000E+00   0.621E-03 0.621E-03 0.923E-11
 -----------------------------------------------------------------------------------------------
   0.173E-11 0.210E-10 0.162E-11   0.711E-14 -.711E-14 0.863E-14   0.222E-15 0.222E-15 0.000E+00   0.985E-14 -.286E-12 0.315E-13
 
 
 POSITION                                       TOTAL-FORCE (eV/Angst)
 -----------------------------------------------------------------------------------
      2.44146      2.44146      1.65100        -0.000000      0.000000     -0.000000
      0.00000     -0.00000      0.00000        -0.000000      0.000000     -0.000000
      0.95444      3.92847      1.65100         0.000334     -0.000334      0.000000
      3.92847      0.95444      1.65100        -0.000334      0.000334     -0.000000
      1.48701      1.48701     -0.00000        -0.000334     -0.000334      0.000000
      3.39590      3.39590      0.00000         0.000334      0.000334     -0.000000
 -----------------------------------------------------------------------------------
    total drift:                                0.000000      0.000000      0.000000


--------------------------------------------------------------------------------------------------------



  FREE ENERGIE OF THE ION-ELECTRON SYSTEM (eV)
  ---------------------------------------------------
  free  energy   TOTEN  =       -39.16079253 eV

  energy  without entropy=      -39.16079253  energy(sigma->0) =      -39.16079253
 
 d Force = 0.1057408E-05[ 0.281E-06, 0.183E-05]  d Energy = 0.1352400E-04-0.125E-04
 d Force = 0.3002710E-01[ 0.299E-01, 0.301E-01]  d Ewald  =-0.1889139E+00 0.219E+00


--------------------------------------------------------------------------------------------------------


    POTLOK:  cpu time    0.7225: real time    0.7225


--------------------------------------------------------------------------------------------------------


 Steepest descent step on ions:
 trial-energy change:   -0.000014  1 .order   -0.000013   -0.000019   -0.000007
  (g-gl).g = 0.190E-04      g.g   = 0.190E-04  gl.gl    = 0.000E+00
 g(Force)  = 0.183E-05   g(Stress)= 0.172E-04 ortho     = 0.000E+00
 gamma     =   0.00000
 trial     =   1.00000
 opt step  =   1.63955  (harmonic =   1.63955) maximal distance =0.00017243
 next E    =   -39.160795   (d E  =  -0.00002)


--------------------------------------------------------------------------------------------------------


  
 reached required accuracy - stopping structural energy minimisation
     LOOP+:  cpu time    6.6413: real time    6.6417
    4ORBIT:  cpu time    0.0000: real time    0.0000
 


 total charge     
 
# of ion       s       p       d       tot
------------------------------------------
    1        0.162   6.155   4.947  11.264
    2        0.171   6.145   4.959  11.276
    3        1.727   4.368   0.000   6.095
    4        1.727   4.368   0.000   6.095
    5        1.726   4.360   0.000   6.086
    6        1.726   4.360   0.000   6.086
--------------------------------------------------
tot          7.238  29.757   9.906  46.901
 


 magnetization (x)
 
# of ion       s       p       d       tot
------------------------------------------
    1       -0.018  -0.020  -4.630  -4.668
    2        0.019   0.017   4.625   4.661
    3        0.001   0.019   0.000   0.020
    4        0.001   0.019   0.000   0.020
    5       -0.003  -0.012   0.000  -0.014
    6       -0.003  -0.012   0.000  -0.014
--------------------------------------------------
tot         -0.002   0.012  -0.005   0.005
 

 total amount of memory used by VASP MPI-rank0    36812. kBytes
=======================================================================

   base      :      30000. kBytes
   nonl-proj :       1766. kBytes
   fftplans  :       1875. kBytes
   grid      :       2467. kBytes
   one-center:        186. kBytes
   wavefun   :        518. kBytes
 
  
  
 General timing and accounting informations for this job:
 ========================================================
  
                  Total CPU time used (sec):       19.442
                            User time (sec):       11.595
                          System time (sec):        7.846
                         Elapsed time (sec):       19.518
  
                   Maximum memory used (kb):       53024.
                   Average memory used (kb):           0.
  
                          Minor page faults:         7425
                          Major page faults:            5
                 Voluntary context switches:          294
