       N       E                     dE             d eps       ncg     rms          rms(c)
DAV:   1     0.760918485201E+03    0.76092E+03   -0.39819E+04  1296   0.232E+03
DAV:   2     0.171742239639E+02   -0.74374E+03   -0.71819E+03  1488   0.569E+02
DAV:   3    -0.405426734325E+02   -0.57717E+02   -0.57435E+02  1524   0.168E+02
DAV:   4    -0.414181445068E+02   -0.87547E+00   -0.87526E+00  1440   0.222E+01
DAV:   5    -0.414311050606E+02   -0.12961E-01   -0.12960E-01  1536   0.270E+00    0.247E+01
DAV:   6    -0.393610845564E+02    0.20700E+01   -0.15608E+01  1620   0.319E+01    0.159E+01
DAV:   7    -0.399968601727E+02   -0.63578E+00   -0.15698E+00  1524   0.108E+01    0.118E+01
DAV:   8    -0.399107603992E+02    0.86100E-01   -0.52224E-01  1524   0.601E+00    0.473E+00
DAV:   9    -0.401865927127E+02   -0.27583E+00   -0.74227E-02  1440   0.260E+00    0.137E+00
DAV:  10    -0.401870794243E+02   -0.48671E-03   -0.15939E-02  1548   0.102E+00    0.251E-01
DAV:  11    -0.401870343993E+02    0.45025E-04   -0.15659E-03  1380   0.273E-01    0.142E-01
DAV:  12    -0.401870778490E+02   -0.43450E-04   -0.40397E-05  1788   0.846E-02    0.641E-02
DAV:  13    -0.401870837028E+02   -0.58537E-05   -0.40054E-05  1404   0.346E-02    0.211E-02
DAV:  14    -0.401870851495E+02   -0.14468E-05   -0.19565E-06  1464   0.143E-02    0.392E-03
DAV:  15    -0.401870853342E+02   -0.18460E-06   -0.14080E-07  1056   0.314E-03    0.136E-03
DAV:  16    -0.401870853506E+02   -0.16452E-07   -0.18910E-08   684   0.138E-03
   1 F= -.40187085E+02 E0= -.40187085E+02  d E =-.401871E+02  mag=    -0.0000
       N       E                     dE             d eps       ncg     rms          rms(c)
DAV:   1    -0.401934544798E+02   -0.63691E-02   -0.12869E-01  1296   0.327E+00    0.684E-01
DAV:   2    -0.401875081184E+02    0.59464E-02   -0.18867E-02  1296   0.984E-01    0.403E-01
DAV:   3    -0.401873587059E+02    0.14941E-03   -0.13211E-03  1320   0.394E-01    0.157E-01
DAV:   4    -0.401872715498E+02    0.87156E-04   -0.11969E-04  1608   0.912E-02    0.103E-01
DAV:   5    -0.401872362762E+02    0.35274E-04   -0.27236E-05  1536   0.423E-02    0.348E-02
DAV:   6    -0.401872373927E+02   -0.11165E-05   -0.23693E-06  1764   0.166E-02    0.352E-03
DAV:   7    -0.401872374709E+02   -0.78173E-07   -0.30083E-07  1452   0.384E-03
   2 F= -.40187237E+02 E0= -.40187237E+02  d E =-.152120E-03  mag=    -0.0000
       N       E                     dE             d eps       ncg     rms          rms(c)
DAV:   1    -0.401874293553E+02   -0.19196E-03   -0.37901E-03  1296   0.560E-01    0.117E-01
DAV:   2    -0.401872539925E+02    0.17536E-03   -0.55669E-04  1296   0.169E-01    0.689E-02
DAV:   3    -0.401872496455E+02    0.43469E-05   -0.39289E-05  1308   0.674E-02    0.268E-02
DAV:   4    -0.401872470716E+02    0.25739E-05   -0.34736E-06  1608   0.155E-02    0.175E-02
DAV:   5    -0.401872460209E+02    0.10507E-05   -0.79152E-07  1536   0.721E-03    0.592E-03
DAV:   6    -0.401872460534E+02   -0.32448E-07   -0.56165E-08   936   0.282E-03
   3 F= -.40187246E+02 E0= -.40187246E+02  d E =-.160703E-03  mag=     0.0000
       N       E                     dE             d eps       ncg     rms          rms(c)
DAV:   1    -0.401872488089E+02   -0.27879E-05   -0.56192E-05  1296   0.679E-02    0.142E-02
DAV:   2    -0.401872462321E+02    0.25768E-05   -0.82201E-06  1296   0.206E-02    0.840E-03
DAV:   3    -0.401872461738E+02    0.58230E-07   -0.57230E-07  1368   0.816E-03
   4 F= -.40187246E+02 E0= -.40187246E+02  d E =-.160823E-03  mag=     0.0000
       N       E                     dE             d eps       ncg     rms          rms(c)
DAV:   1    -0.401872477405E+02   -0.15084E-05   -0.31298E-05  1296   0.507E-02    0.111E-02
DAV:   2    -0.401872461461E+02    0.15944E-05   -0.47535E-06  1296   0.155E-02    0.669E-03
DAV:   3    -0.401872460819E+02    0.64178E-07   -0.35438E-07  1368   0.648E-03
   5 F= -.40187246E+02 E0= -.40187246E+02  d E =-.160731E-03  mag=     0.0000
       N       E                     dE             d eps       ncg     rms          rms(c)
DAV:   1    -0.401872466611E+02   -0.51508E-06   -0.13127E-05  1296   0.330E-02    0.696E-03
DAV:   2    -0.401872461154E+02    0.54572E-06   -0.18882E-06  1296   0.997E-03    0.390E-03
DAV:   3    -0.401872461110E+02    0.44165E-08   -0.12420E-07  1080   0.379E-03
   6 F= -.40187246E+02 E0= -.40187246E+02  d E =-.160760E-03  mag=    -0.0000
       N       E                     dE             d eps       ncg     rms          rms(c)
DAV:   1    -0.401872461872E+02   -0.71777E-07   -0.11179E-06  1296   0.953E-03    0.220E-03
DAV:   2    -0.401872461228E+02    0.64383E-07   -0.17196E-07   864   0.301E-03
   7 F= -.40187246E+02 E0= -.40187246E+02  d E =-.160772E-03  mag=    -0.0000
       N       E                     dE             d eps       ncg     rms          rms(c)
DAV:   1    -0.401872461516E+02    0.35604E-07   -0.32791E-07  1080   0.529E-03    0.159E-03
DAV:   2    -0.401872461264E+02    0.25208E-07   -0.48387E-08   648   0.203E-03
   8 F= -.40187246E+02 E0= -.40187246E+02  d E =-.160776E-03  mag=    -0.0000
       N       E                     dE             d eps       ncg     rms          rms(c)
DAV:   1    -0.401872461296E+02    0.22023E-07   -0.18745E-08   648   0.136E-03    0.777E-04
DAV:   2    -0.401872461254E+02    0.41236E-08   -0.55091E-09   648   0.684E-04
   9 F= -.40187246E+02 E0= -.40187246E+02  d E =-.160775E-03  mag=    -0.0000
       N       E                     dE             d eps       ncg     rms          rms(c)
DAV:   1    -0.401872565317E+02   -0.10402E-04   -0.26899E-03  1296   0.342E-01    0.286E-02
DAV:   2    -0.401872556633E+02    0.86838E-06   -0.72565E-05  1524   0.587E-02    0.174E-02
DAV:   3    -0.401872534544E+02    0.22089E-05   -0.16813E-06  1572   0.110E-02    0.936E-03
DAV:   4    -0.401872525700E+02    0.88438E-06   -0.11410E-06  1608   0.780E-03    0.300E-03
DAV:   5    -0.401872525437E+02    0.26332E-07   -0.20861E-07  1236   0.310E-03
  10 F= -.40187253E+02 E0= -.40187253E+02  d E =-.641826E-05  mag=     0.0000
