 vasp.5.4.4.18Apr17-6-g9f103f2a35 (build Apr 27 2017 11:13:10) complex          
  
 executed on           IFC91_ompi date 2020.05.13  11:14:41
 running on   12 total cores
 distrk:  each k-point on   12 cores,    1 groups
 distr:  one band on NCORES_PER_BAND=   1 cores,   12 groups


--------------------------------------------------------------------------------------------------------


 INCAR:
 POTCAR:    PAW Mn_pv 02Aug2007                   
 POTCAR:    PAW F 31May2000                       

 ----------------------------------------------------------------------------- 
|                                                                             |
|           W    W    AA    RRRRR   N    N  II  N    N   GGGG   !!!           |
|           W    W   A  A   R    R  NN   N  II  NN   N  G    G  !!!           |
|           W    W  A    A  R    R  N N  N  II  N N  N  G       !!!           |
|           W WW W  AAAAAA  RRRRR   N  N N  II  N  N N  G  GGG   !            |
|           WW  WW  A    A  R   R   N   NN  II  N   NN  G    G                |
|           W    W  A    A  R    R  N    N  II  N    N   GGGG   !!!           |
|                                                                             |
|      For optimal performance we recommend to set                            |
|        NCORE= 4 - approx SQRT( number of cores)                             |
|      NCORE specifies how many cores store one orbital (NPAR=cpu/NCORE).     |
|      This setting can  greatly improve the performance of VASP for DFT.     |
|      The default,   NCORE=1            might be grossly inefficient         |
|      on modern multi-core architectures or massively parallel machines.     |
|      Do your own testing !!!!                                               |
|      Unfortunately you need to use the default for GW and RPA calculations. |
|      (for HF NCORE is supported but not extensively tested yet)             |
|                                                                             |
 ----------------------------------------------------------------------------- 

 POTCAR:    PAW Mn_pv 02Aug2007                   
   VRHFIN =Mn: 3p4s3d                                                           
   LEXCH  = CA                                                                  
   EATOM  =  2028.0466 eV,  149.0572 Ry                                         
                                                                                
   TITEL  = PAW Mn_pv 02Aug2007                                                 
   LULTRA =        F    use ultrasoft PP ?                                      
   IUNSCR =        1    unscreen: 0-lin 1-nonlin 2-no                           
   RPACOR =    2.080    partial core radius                                     
   POMASS =   54.938; ZVAL   =   13.000    mass and valenz                      
   RCORE  =    2.300    outmost cutoff radius                                   
   RWIGS  =    2.500; RWIGS  =    1.323    wigner-seitz radius (au A)           
   ENMAX  =  269.944; ENMIN  =  202.458 eV                                      
   ICORE  =        3    local potential                                         
   LCOR   =        T    correct aug charges                                     
   LPAW   =        T    paw PP                                                  
   EAUG   =  569.085                                                            
   DEXC   =    0.000                                                            
   RMAX   =    2.343    core radius for proj-oper                               
   RAUG   =    1.300    factor for augmentation sphere                          
   RDEP   =    2.338    radius for radial grids                                 
   RDEPT  =    1.798    core radius for aug-charge                              
                                                                                
   Atomic configuration                                                         
    8 entries                                                                   
     n  l   j            E        occ.                                          
     1  0  0.50     -6393.6057   2.0000                                         
     2  0  0.50      -735.9993   2.0000                                         
     2  1  1.50      -624.3417   6.0000                                         
     3  0  0.50       -80.9782   2.0000                                         
     3  1  1.50       -50.3144   6.0000                                         
     3  2  2.50        -3.6171   6.0000                                         
     4  0  0.50        -4.3304   1.0000                                         
     4  3  2.50        -1.3606   0.0000                                         
   Description                                                                  
     l       E           TYP  RCUT    TYP  RCUT                                 
     1    -50.3143634     23  2.000                                             
     1     -1.3605826     23  2.000                                             
     2     -3.6171470     23  2.300                                             
     2     -4.9777296     23  2.300                                             
     0     -4.3303688     23  2.300                                             
     0      7.3408788     23  2.300                                             
     3      9.5240782     23  2.300                                             
  local pseudopotential read in
  partial core-charges read in
  partial kinetic energy density read in
  atomic valenz-charges read in
  non local Contribution for L=           1  read in
    real space projection operators read in
  non local Contribution for L=           1  read in
    real space projection operators read in
  non local Contribution for L=           2  read in
    real space projection operators read in
  non local Contribution for L=           2  read in
    real space projection operators read in
  non local Contribution for L=           0  read in
    real space projection operators read in
  non local Contribution for L=           0  read in
    real space projection operators read in
    PAW grid and wavefunctions read in
 
   number of l-projection  operators is LMAX  =           6
   number of lm-projection operators is LMMAX =          18
 
 POTCAR:    PAW F 31May2000                       
   VRHFIN =F: s2p5                                                              
   LEXCH  = CA                                                                  
   EATOM  =   658.3685 eV,   48.3887 Ry                                         
                                                                                
   TITEL  = PAW F 31May2000                                                     
   LULTRA =        F    use ultrasoft PP ?                                      
   IUNSCR =        1    unscreen: 0-lin 1-nonlin 2-no                           
   RPACOR =    1.200    partial core radius                                     
   POMASS =   18.998; ZVAL   =    7.000    mass and valenz                      
   RCORE  =    1.520    outmost cutoff radius                                   
   RWIGS  =    1.500; RWIGS  =    0.794    wigner-seitz radius (au A)           
   ENMAX  =  400.000; ENMIN  =  300.000 eV                                      
   ICORE  =        2    local potential                                         
   LCOR   =        T    correct aug charges                                     
   LPAW   =        T    paw PP                                                  
   EAUG   =  613.614                                                            
   DEXC   =    0.000                                                            
   RMAX   =    1.555    core radius for proj-oper                               
   RAUG   =    1.300    factor for augmentation sphere                          
   RDEP   =    1.539    radius for radial grids                                 
   RDEPT  =    1.299    core radius for aug-charge                              
                                                                                
   Atomic configuration                                                         
    4 entries                                                                   
     n  l   j            E        occ.                                          
     1  0  0.50      -658.3386   2.0000                                         
     2  0  0.50       -29.6221   2.0000                                         
     2  1  0.50       -11.2952   5.0000                                         
     3  2  1.50       -12.2452   0.0000                                         
   Description                                                                  
     l       E           TYP  RCUT    TYP  RCUT                                 
     0    -29.6221019     23  1.200                                             
     0     -9.5240782     23  1.200                                             
     1    -11.2951545     23  1.520                                             
     1      1.3605826     23  1.520                                             
     2    -12.2452434      7  1.500                                             
  local pseudopotential read in
  partial core-charges read in
  partial kinetic energy density read in
  kinetic energy density of atom read in
  atomic valenz-charges read in
  non local Contribution for L=           0  read in
    real space projection operators read in
  non local Contribution for L=           0  read in
    real space projection operators read in
  non local Contribution for L=           1  read in
    real space projection operators read in
  non local Contribution for L=           1  read in
    real space projection operators read in
    PAW grid and wavefunctions read in
 
   number of l-projection  operators is LMAX  =           4
   number of lm-projection operators is LMMAX =           8
 
  PAW Mn_pv 02Aug2007                   :
 energy of atom  1       EATOM=-2028.0466
 kinetic energy error for atom=    0.0011 (will be added to EATOM!!)
  PAW F 31May2000                       :
 energy of atom  2       EATOM= -658.3685
 kinetic energy error for atom=    0.0062 (will be added to EATOM!!)
 
 
 POSCAR: Mn  F                                   
  positions in cartesian coordinates
  No initial velocities read in
 exchange correlation table for  LEXCH =        2
   RHO(1)=    0.500       N(1)  =     2000
   RHO(2)=  100.500       N(2)  =     4000
 


--------------------------------------------------------------------------------------------------------


 ion  position               nearest neighbor table
   1  0.500  0.500  0.500-   3 2.06   4 2.06   5 2.10   6 2.10   5 2.10   6 2.10
   2  0.000  0.000  0.000-   5 2.06   6 2.06   3 2.10   4 2.10   3 2.10   4 2.10
   3  0.196  0.804  0.500-   1 2.06   2 2.10   2 2.10
   4  0.804  0.196  0.500-   1 2.06   2 2.10   2 2.10
   5  0.304  0.304  0.000-   2 2.06   1 2.10   1 2.10
   6  0.696  0.696  0.000-   2 2.06   1 2.10   1 2.10
 
  LATTYP: Found a simple tetragonal cell.
 ALAT       =     4.7959042861
 C/A-ratio  =     0.6772201529
  
  Lattice vectors:
  
 A1 = (   4.7959042861,   0.0000000000,   0.0000000000)
 A2 = (   0.0000000000,   4.7959042861,   0.0000000000)
 A3 = (   0.0000000000,   0.0000000000,   3.2478830338)


Analysis of symmetry for initial positions (statically):
=====================================================================
 Subroutine PRICEL returns:
 Original cell was already a primitive cell.
 

 Routine SETGRP: Setting up the symmetry group for a 
 simple tetragonal supercell.


 Subroutine GETGRP returns: Found 16 space group operations
 (whereof  8 operations were pure point group operations)
 out of a pool of 16 trial point group operations.


The static configuration has the point symmetry D_2h.
 The point group associated with its full space group is D_4h.


Analysis of symmetry for dynamics (positions and initial velocities):
=====================================================================
 Subroutine PRICEL returns:
 Original cell was already a primitive cell.
 

 Routine SETGRP: Setting up the symmetry group for a 
 simple tetragonal supercell.


 Subroutine GETGRP returns: Found 16 space group operations
 (whereof  8 operations were pure point group operations)
 out of a pool of 16 trial point group operations.


The dynamic configuration has the point symmetry D_2h.
 The point group associated with its full space group is D_4h.


Analysis of structural, dynamic, and magnetic symmetry:
=====================================================================
 Subroutine PRICEL returns:
 Original cell was already a primitive cell.
 

 Routine SETGRP: Setting up the symmetry group for a 
 simple tetragonal supercell.


 Subroutine GETGRP returns: Found 16 space group operations
 (whereof  8 operations were pure point group operations)
 out of a pool of 16 trial point group operations.


The magnetic configuration has the point symmetry D_2h.
 The point group associated with its full space group is D_4h.


 Subroutine INISYM returns: Found 16 space group operations
 (whereof  8 operations are pure point group operations),
 and found     1 'primitive' translations

 
 
 KPOINTS: KPOINTS created by Atomic Simulation Env

Automatic generation of k-mesh.
Space group operators:
 irot       det(A)        alpha          n_x          n_y          n_z        tau_x        tau_y        tau_z
    1     1.000000     0.000000     1.000000     0.000000     0.000000     0.000000     0.000000     0.000000
    2    -1.000000     0.000000     1.000000     0.000000     0.000000     0.000000     0.000000     0.000000
    3     1.000000   180.000000     0.000000     0.000000     1.000000     0.000000     0.000000     0.000000
    4    -1.000000   180.000000     0.000000     0.000000     1.000000     0.000000     0.000000     0.000000
    5     1.000000   180.000000     0.707107     0.707107     0.000000     0.000000     0.000000     0.000000
    6    -1.000000   180.000000     0.707107     0.707107     0.000000     0.000000     0.000000     0.000000
    7     1.000000   180.000000     0.707107    -0.707107     0.000000     0.000000     0.000000     0.000000
    8    -1.000000   180.000000     0.707107    -0.707107     0.000000     0.000000     0.000000     0.000000
    9     1.000000    90.000000     0.000000     0.000000    -1.000000     0.500000     0.500000     0.500000
   10    -1.000000    90.000000     0.000000     0.000000    -1.000000     0.500000     0.500000     0.500000
   11     1.000000    90.000000     0.000000     0.000000     1.000000     0.500000     0.500000     0.500000
   12    -1.000000    90.000000     0.000000     0.000000     1.000000     0.500000     0.500000     0.500000
   13     1.000000   180.000000     0.000000     1.000000     0.000000     0.500000     0.500000     0.500000
   14    -1.000000   180.000000     0.000000     1.000000     0.000000     0.500000     0.500000     0.500000
   15     1.000000   180.000000     1.000000     0.000000     0.000000     0.500000     0.500000     0.500000
   16    -1.000000   180.000000     1.000000     0.000000     0.000000     0.500000     0.500000     0.500000
 
 Subroutine IBZKPT returns following result:
 ===========================================
 
 Found      9 irreducible k-points:
 
 Following reciprocal coordinates:
            Coordinates               Weight
  0.125000  0.125000  0.083333      8.000000
  0.375000  0.125000  0.083333     16.000000
  0.375000  0.375000  0.083333      8.000000
  0.125000  0.125000  0.250000      8.000000
  0.375000  0.125000  0.250000     16.000000
  0.375000  0.375000  0.250000      8.000000
  0.125000  0.125000  0.416667      8.000000
  0.375000  0.125000  0.416667     16.000000
  0.375000  0.375000  0.416667      8.000000
 
 Following cartesian coordinates:
            Coordinates               Weight
  0.026064  0.026064  0.025658      8.000000
  0.078192  0.026064  0.025658     16.000000
  0.078192  0.078192  0.025658      8.000000
  0.026064  0.026064  0.076973      8.000000
  0.078192  0.026064  0.076973     16.000000
  0.078192  0.078192  0.076973      8.000000
  0.026064  0.026064  0.128289      8.000000
  0.078192  0.026064  0.128289     16.000000
  0.078192  0.078192  0.128289      8.000000
 


--------------------------------------------------------------------------------------------------------




 Dimension of arrays:
   k-points           NKPTS =      9   k-points in BZ     NKDIM =      9   number of bands    NBANDS=     36
   number of dos      NEDOS =    301   number of ions     NIONS =      6
   non local maximal  LDIM  =      6   non local SUM 2l+1 LMDIM =     18
   total plane-waves  NPLWV =  31104
   max r-space proj   IRMAX =      1   max aug-charges    IRDMAX= 101257
   dimension x,y,z NGX =    36 NGY =   36 NGZ =   24
   dimension x,y,z NGXF=    72 NGYF=   72 NGZF=   48
   support grid    NGXF=   144 NGYF=  144 NGZF=   96
   ions per type =               2   4
   NGX,Y,Z   is equivalent  to a cutoff of  12.48, 12.48, 12.28 a.u.
   NGXF,Y,Z  is equivalent  to a cutoff of  24.96, 24.96, 24.57 a.u.

 SYSTEM =  unknown system                          
 POSCAR =  Mn  F                                   

 Startparameter for this run:
   NWRITE =      2    write-flag & timer
   PREC   = normal    normal or accurate (medium, high low for compatibility)
   ISTART =      0    job   : 0-new  1-cont  2-samecut
   ICHARG =      2    charge: 1-file 2-atom 10-const
   ISPIN  =      2    spin polarized calculation?
   LNONCOLLINEAR =      F non collinear calculations
   LSORBIT =      F    spin-orbit coupling
   INIWAV =      1    electr: 0-lowe 1-rand  2-diag
   LASPH  =      T    aspherical Exc in radial PAW
   METAGGA=      F    non-selfconsistent MetaGGA calc.

 Electronic Relaxation 1
   ENCUT  =  800.0 eV  58.80 Ry    7.67 a.u.  11.06 11.06  7.49*2*pi/ulx,y,z
   ENINI  =  800.0     initial cutoff
   ENAUG  =  613.6 eV  augmentation charge cutoff
   NELM   =     60;   NELMIN=  2; NELMDL= -5     # of ELM steps 
   EDIFF  = 0.1E-06   stopping-criterion for ELM
   LREAL  =      F    real-space projection
   NLSPLINE    = F    spline interpolate recip. space projectors
   LCOMPAT=      F    compatible to vasp.4.4
   GGA_COMPAT  = T    GGA compatible to vasp.4.4-vasp.4.6
   LMAXPAW     = -100 max onsite density
   LMAXMIX     =    4 max onsite mixed and CHGCAR
   VOSKOWN=      0    Vosko Wilk Nusair interpolation
   ROPT   =    0.00000   0.00000
 Ionic relaxation
   EDIFFG = -.5E-02   stopping-criterion for IOM
   NSW    =     50    number of steps for IOM
   NBLOCK =      1;   KBLOCK =     50    inner block; outer block 
   IBRION =      2    ionic relax: 0-MD 1-quasi-New 2-CG
   NFREE  =      1    steps in history (QN), initial steepest desc. (CG)
   ISIF   =      3    stress and relaxation
   IWAVPR =     11    prediction:  0-non 1-charg 2-wave 3-comb
   ISYM   =      2    0-nonsym 1-usesym 2-fastsym
   LCORR  =      T    Harris-Foulkes like correction to forces

   POTIM  = 0.5000    time-step for ionic-motion
   TEIN   =    0.0    initial temperature
   TEBEG  =    0.0;   TEEND  =   0.0 temperature during run
   SMASS  =  -3.00    Nose mass-parameter (am)
   estimated Nose-frequenzy (Omega)   =  0.10E-29 period in steps =****** mass=  -0.526E-27a.u.
   SCALEE = 1.0000    scale energy and forces
   NPACO  =    256;   APACO  = 16.0  distance and # of slots for P.C.
   PSTRESS=    0.0 pullay stress

  Mass of Ions in am
   POMASS =  54.94 19.00
  Ionic Valenz
   ZVAL   =  13.00  7.00
  Atomic Wigner-Seitz radii
   RWIGS  =  -1.00 -1.00
  virtual crystal weights 
   VCA    =   1.00  1.00
   NELECT =      54.0000    total number of electrons
   NUPDOWN=      -1.0000    fix difference up-down

 DOS related values:
   EMIN   =  10.00;   EMAX   =-10.00  energy-range for DOS
   EFERMI =   0.00
   ISMEAR =     0;   SIGMA  =   0.02  broadening in eV -4-tet -1-fermi 0-gaus

 Electronic relaxation 2 (details)
   IALGO  =     38    algorithm
   LDIAG  =      T    sub-space diagonalisation (order eigenvalues)
   LSUBROT=      F    optimize rotation matrix (better conditioning)
   TURBO    =      0    0=normal 1=particle mesh
   IRESTART =      0    0=no restart 2=restart with 2 vectors
   NREBOOT  =      0    no. of reboots
   NMIN     =      0    reboot dimension
   EREF     =   0.00    reference energy to select bands
   IMIX   =      4    mixing-type and parameters
     AMIX     =   0.40;   BMIX     =  1.00
     AMIX_MAG =   1.60;   BMIX_MAG =  1.00
     AMIN     =   0.10
     WC   =   100.;   INIMIX=   1;  MIXPRE=   1;  MAXMIX= -45

 Intra band minimization:
   WEIMIN = 0.0010     energy-eigenvalue tresh-hold
   EBREAK =  0.69E-09  absolut break condition
   DEPER  =   0.30     relativ break condition  

   TIME   =   0.40     timestep for ELM

  volume/ion in A,a.u.               =      12.45        84.02
  Fermi-wavevector in a.u.,A,eV,Ry     =   1.469238  2.776458 29.370375  2.158662
  Thomas-Fermi vector in A             =   2.584640
 
 Write flags
   LWAVE        =      F    write WAVECAR
   LDOWNSAMPLE  =      F    k-point downsampling of WAVECAR
   LCHARG       =      F    write CHGCAR
   LVTOT        =      F    write LOCPOT, total local potential
   LVHAR        =      F    write LOCPOT, Hartree potential only
   LELF         =      F    write electronic localiz. function (ELF)
   LORBIT       =     11    0 simple, 1 ext, 2 COOP (PROOUT), +10 PAW based schemes


 Dipole corrections
   LMONO  =      F    monopole corrections only (constant potential shift)
   LDIPOL =      F    correct potential (dipole corrections)
   IDIPOL =      0    1-x, 2-y, 3-z, 4-all directions 
   EPSILON=  1.0000000 bulk dielectric constant

 LDA+U is selected, type is set to LDAUTYPE =  2
   angular momentum for each species LDAUL =     2   -1
   U (eV)           for each species LDAUU =   4.0  0.0
   J (eV)           for each species LDAUJ =   0.0  0.0
 Exchange correlation treatment:
   GGA     =    --    GGA type
   LEXCH   =     2    internal setting for exchange type
   VOSKOWN=      0    Vosko Wilk Nusair interpolation
   LHFCALC =     F    Hartree Fock is set to
   LHFONE  =     F    Hartree Fock one center treatment
   AEXX    =    0.0000 exact exchange contribution

 Linear response parameters
   LEPSILON=     F    determine dielectric tensor
   LRPA    =     F    only Hartree local field effects (RPA)
   LNABLA  =     F    use nabla operator in PAW spheres
   LVEL    =     F    velocity operator in full k-point grid
   LINTERFAST=   F  fast interpolation
   KINTER  =     0    interpolate to denser k-point grid
   CSHIFT  =0.1000    complex shift for real part using Kramers Kronig
   OMEGAMAX=  -1.0    maximum frequency
   DEG_THRESHOLD= 0.2000000E-02 threshold for treating states as degnerate
   RTIME   =   -0.100 relaxation time in fs
  (WPLASMAI=    0.000 imaginary part of plasma frequency in eV, 0.658/RTIME)
   DFIELD  = 0.0000000 0.0000000 0.0000000 field for delta impulse in time
 
 Orbital magnetization related:
   ORBITALMAG=     F  switch on orbital magnetization
   LCHIMAG   =     F  perturbation theory with respect to B field
   DQ        =  0.001000  dq finite difference perturbation B field
   LLRAUG    =     F  two centre corrections for induced B field



--------------------------------------------------------------------------------------------------------


 conjugate gradient relaxation of ions
 charge density and potential will be updated during run
 spin polarized calculation
 Variant of blocked Davidson
 Davidson routine will perform the subspace rotation
 perform sub-space diagonalisation
    after iterative eigenvector-optimisation
 modified Broyden-mixing scheme, WC =      100.0
 initial mixing is a Kerker type mixing with AMIX =  0.4000 and BMIX =      1.0000
 Hartree-type preconditioning will be used
 using additional bands            9
 reciprocal scheme for non local part
 use partial core corrections
 calculate Harris-corrections to forces 
   (improved forces if not selfconsistent)
 use of overlap-Matrix (Vanderbilt PP)
 Gauss-broadening in eV      SIGMA  =   0.02


--------------------------------------------------------------------------------------------------------


  energy-cutoff  :      800.00
  volume of cell :       74.70
      direct lattice vectors                 reciprocal lattice vectors
     4.795904286  0.000000000  0.000000000     0.208511251  0.000000000  0.000000000
     0.000000000  4.795904286  0.000000000     0.000000000  0.208511251  0.000000000
     0.000000000  0.000000000  3.247883034     0.000000000  0.000000000  0.307892861

  length of vectors
     4.795904286  4.795904286  3.247883034     0.208511251  0.208511251  0.307892861


 
 k-points in units of 2pi/SCALE and weight: KPOINTS created by Atomic Simulation Env
   0.02606391  0.02606391  0.02565774       0.083
   0.07819172  0.02606391  0.02565774       0.167
   0.07819172  0.07819172  0.02565774       0.083
   0.02606391  0.02606391  0.07697322       0.083
   0.07819172  0.02606391  0.07697322       0.167
   0.07819172  0.07819172  0.07697322       0.083
   0.02606391  0.02606391  0.12828869       0.083
   0.07819172  0.02606391  0.12828869       0.167
   0.07819172  0.07819172  0.12828869       0.083
 
 k-points in reciprocal lattice and weights: KPOINTS created by Atomic Simulation Env
   0.12500000  0.12500000  0.08333333       0.083
   0.37500000  0.12500000  0.08333333       0.167
   0.37500000  0.37500000  0.08333333       0.083
   0.12500000  0.12500000  0.25000000       0.083
   0.37500000  0.12500000  0.25000000       0.167
   0.37500000  0.37500000  0.25000000       0.083
   0.12500000  0.12500000  0.41666667       0.083
   0.37500000  0.12500000  0.41666667       0.167
   0.37500000  0.37500000  0.41666667       0.083
 
 position of ions in fractional coordinates (direct lattice) 
   0.50000000  0.50000000  0.50000000
   0.00000000  0.00000000  0.00000000
   0.19593145  0.80406855  0.50000000
   0.80406855  0.19593145  0.50000000
   0.30406855  0.30406855  0.00000000
   0.69593145  0.69593145  0.00000000
 
 position of ions in cartesian coordinates  (Angst):
   2.39795214  2.39795214  1.62394152
   0.00000000  0.00000000  0.00000000
   0.93966849  3.85623580  1.62394152
   3.85623580  0.93966849  1.62394152
   1.45828365  1.45828365  0.00000000
   3.33762063  3.33762063  0.00000000
 


--------------------------------------------------------------------------------------------------------


 k-point  1 :   0.1250 0.1250 0.0833  plane waves:    3859
 k-point  2 :   0.3750 0.1250 0.0833  plane waves:    3843
 k-point  3 :   0.3750 0.3750 0.0833  plane waves:    3845
 k-point  4 :   0.1250 0.1250 0.2500  plane waves:    3819
 k-point  5 :   0.3750 0.1250 0.2500  plane waves:    3842
 k-point  6 :   0.3750 0.3750 0.2500  plane waves:    3855
 k-point  7 :   0.1250 0.1250 0.4167  plane waves:    3828
 k-point  8 :   0.3750 0.1250 0.4167  plane waves:    3830
 k-point  9 :   0.3750 0.3750 0.4167  plane waves:    3842

 maximum and minimum number of plane-waves per node :      3859     3819

 maximum number of plane-waves:      3859
 maximum index in each direction: 
   IXMAX=   10   IYMAX=   10   IZMAX=    7
   IXMIN=  -11   IYMIN=  -11   IZMIN=   -7


 serial   3D FFT for wavefunctions
 parallel 3D FFT for charge:
    minimum data exchange during FFTs selected (reduces bandwidth)


 total amount of memory used by VASP MPI-rank0    51435. kBytes
=======================================================================

   base      :      30000. kBytes
   nonl-proj :      10386. kBytes
   fftplans  :       3220. kBytes
   grid      :       4243. kBytes
   one-center:        186. kBytes
   wavefun   :       3400. kBytes
 
     INWAV:  cpu time    0.0000: real time    0.0000
 Broyden mixing: mesh for mixing (old mesh)
   NGX = 23   NGY = 23   NGZ = 15
  (NGX  = 72   NGY  = 72   NGZ  = 48)
  gives a total of   7935 points

 initial charge density was supplied:
 charge density of overlapping atoms calculated
 number of electron      54.0000000 magnetization       0.0000000
 keeping initial charge density in first step


--------------------------------------------------------------------------------------------------------


 Maximum index for augmentation-charges         8345 (set IRDMAX)


--------------------------------------------------------------------------------------------------------


 First call to EWALD:  gamma=   0.421
 Maximum number of real-space cells 2x 2x 3
 Maximum number of reciprocal cells 3x 3x 2

    FEWALD:  cpu time    0.0010: real time    0.0010


--------------------------------------- Iteration      1(   1)  ---------------------------------------


    POTLOK:  cpu time    0.0096: real time    0.0096
    SETDIJ:  cpu time    0.2492: real time    0.2492
atom =   1  type =  1  l = 2
 
 onsite density matrix
 
spin component  1
 
  0.2837  0.0000  0.0000  0.0000  0.0000
  0.0000  0.2837  0.0000  0.0000  0.0000
  0.0000  0.0000  0.2837  0.0000  0.0000
  0.0000  0.0000  0.0000  0.2837  0.0000
  0.0000  0.0000  0.0000  0.0000  0.2837
 
spin component  2
 
  0.7701  0.0000  0.0000  0.0000  0.0000
  0.0000  0.7701  0.0000  0.0000  0.0000
  0.0000  0.0000  0.7701  0.0000  0.0000
  0.0000  0.0000  0.0000  0.7701  0.0000
  0.0000  0.0000  0.0000  0.0000  0.7701
 
 occupancies and eigenvectors
 
  o =  0.2837  v =  1.0000  0.0000  0.0000  0.0000  0.0000  0.0000  0.0000  0.0000  0.0000  0.0000      0.0000  0.0000  0.0000  0.0000  0.0000  0.0000  0.0000  0.0000  0.0000  0.0000
  o =  0.2837  v =  0.0000  1.0000  0.0000  0.0000  0.0000  0.0000  0.0000  0.0000  0.0000  0.0000      0.0000  0.0000  0.0000  0.0000  0.0000  0.0000  0.0000  0.0000  0.0000  0.0000
  o =  0.2837  v =  0.0000  0.0000  1.0000  0.0000  0.0000  0.0000  0.0000  0.0000  0.0000  0.0000      0.0000  0.0000  0.0000  0.0000  0.0000  0.0000  0.0000  0.0000  0.0000  0.0000
  o =  0.2837  v =  0.0000  0.0000  0.0000  1.0000  0.0000  0.0000  0.0000  0.0000  0.0000  0.0000      0.0000  0.0000  0.0000  0.0000  0.0000  0.0000  0.0000  0.0000  0.0000  0.0000
  o =  0.2837  v =  0.0000  0.0000  0.0000  0.0000  1.0000  0.0000  0.0000  0.0000  0.0000  0.0000      0.0000  0.0000  0.0000  0.0000  0.0000  0.0000  0.0000  0.0000  0.0000  0.0000
  o =  0.7701  v =  0.0000  0.0000  0.0000  0.0000  0.0000  1.0000  0.0000  0.0000  0.0000  0.0000      0.0000  0.0000  0.0000  0.0000  0.0000  0.0000  0.0000  0.0000  0.0000  0.0000
  o =  0.7701  v =  0.0000  0.0000  0.0000  0.0000  0.0000  0.0000  1.0000  0.0000  0.0000  0.0000      0.0000  0.0000  0.0000  0.0000  0.0000  0.0000  0.0000  0.0000  0.0000  0.0000
  o =  0.7701  v =  0.0000  0.0000  0.0000  0.0000  0.0000  0.0000  0.0000  1.0000  0.0000  0.0000      0.0000  0.0000  0.0000  0.0000  0.0000  0.0000  0.0000  0.0000  0.0000  0.0000
  o =  0.7701  v =  0.0000  0.0000  0.0000  0.0000  0.0000  0.0000  0.0000  0.0000  1.0000  0.0000      0.0000  0.0000  0.0000  0.0000  0.0000  0.0000  0.0000  0.0000  0.0000  0.0000
  o =  0.7701  v =  0.0000  0.0000  0.0000  0.0000  0.0000  0.0000  0.0000  0.0000  0.0000  1.0000      0.0000  0.0000  0.0000  0.0000  0.0000  0.0000  0.0000  0.0000  0.0000  0.0000
atom =   2  type =  1  l = 2
 
 onsite density matrix
 
spin component  1
 
  0.7701  0.0000  0.0000  0.0000  0.0000
  0.0000  0.7701  0.0000  0.0000  0.0000
  0.0000  0.0000  0.7701  0.0000  0.0000
  0.0000  0.0000  0.0000  0.7701  0.0000
  0.0000  0.0000  0.0000  0.0000  0.7701
 
spin component  2
 
  0.2837  0.0000  0.0000  0.0000  0.0000
  0.0000  0.2837  0.0000  0.0000  0.0000
  0.0000  0.0000  0.2837  0.0000  0.0000
  0.0000  0.0000  0.0000  0.2837  0.0000
  0.0000  0.0000  0.0000  0.0000  0.2837
 
 occupancies and eigenvectors
 
  o =  0.2837  v =  0.0000  0.0000  0.0000  0.0000  0.0000  1.0000  0.0000  0.0000  0.0000  0.0000      0.0000  0.0000  0.0000  0.0000  0.0000  0.0000  0.0000  0.0000  0.0000  0.0000
  o =  0.2837  v =  0.0000  0.0000  0.0000  0.0000  0.0000  0.0000  1.0000  0.0000  0.0000  0.0000      0.0000  0.0000  0.0000  0.0000  0.0000  0.0000  0.0000  0.0000  0.0000  0.0000
  o =  0.2837  v =  0.0000  0.0000  0.0000  0.0000  0.0000  0.0000  0.0000  1.0000  0.0000  0.0000      0.0000  0.0000  0.0000  0.0000  0.0000  0.0000  0.0000  0.0000  0.0000  0.0000
  o =  0.2837  v =  0.0000  0.0000  0.0000  0.0000  0.0000  0.0000  0.0000  0.0000  1.0000  0.0000      0.0000  0.0000  0.0000  0.0000  0.0000  0.0000  0.0000  0.0000  0.0000  0.0000
  o =  0.2837  v =  0.0000  0.0000  0.0000  0.0000  0.0000  0.0000  0.0000  0.0000  0.0000  1.0000      0.0000  0.0000  0.0000  0.0000  0.0000  0.0000  0.0000  0.0000  0.0000  0.0000
  o =  0.7701  v =  1.0000  0.0000  0.0000  0.0000  0.0000  0.0000  0.0000  0.0000  0.0000  0.0000      0.0000  0.0000  0.0000  0.0000  0.0000  0.0000  0.0000  0.0000  0.0000  0.0000
  o =  0.7701  v =  0.0000  1.0000  0.0000  0.0000  0.0000  0.0000  0.0000  0.0000  0.0000  0.0000      0.0000  0.0000  0.0000  0.0000  0.0000  0.0000  0.0000  0.0000  0.0000  0.0000
  o =  0.7701  v =  0.0000  0.0000  1.0000  0.0000  0.0000  0.0000  0.0000  0.0000  0.0000  0.0000      0.0000  0.0000  0.0000  0.0000  0.0000  0.0000  0.0000  0.0000  0.0000  0.0000
  o =  0.7701  v =  0.0000  0.0000  0.0000  1.0000  0.0000  0.0000  0.0000  0.0000  0.0000  0.0000      0.0000  0.0000  0.0000  0.0000  0.0000  0.0000  0.0000  0.0000  0.0000  0.0000
  o =  0.7701  v =  0.0000  0.0000  0.0000  0.0000  1.0000  0.0000  0.0000  0.0000  0.0000  0.0000      0.0000  0.0000  0.0000  0.0000  0.0000  0.0000  0.0000  0.0000  0.0000  0.0000
     EDDAV:  cpu time    0.5314: real time    0.5507
       DOS:  cpu time    0.0004: real time    0.0004
    --------------------------------------------
      LOOP:  cpu time    0.7906: real time    0.8099

 eigenvalue-minimisations  :  1296
 total energy-change (2. order) : 0.7609185E+03  (-0.3981920E+04)
 number of electron      54.0000000 magnetization      -0.0000000
 augmentation part       54.0000000 magnetization      -0.0000000

 Free energy of the ion-electron system (eV)
  ---------------------------------------------------
  alpha Z        PSCENC =       203.95051221
  Ewald energy   TEWEN  =     -4253.05950503
  -Hartree energ DENC   =     -2091.75274387
  -exchange      EXHF   =         0.00000000
  -V(xc)+E(xc)   XCENC  =       295.21119751
  PAW double counting   =      5431.03059579    -5549.10764102
  entropy T*S    EENTRO =        -0.00213724
  eigenvalues    EBANDS =        35.10786940
  atomic energy  EATOM  =      6689.54033744
  Solvation  Ediel_sol  =         0.00000000
  ---------------------------------------------------
  free energy    TOTEN  =       760.91848520 eV

  energy without entropy =      760.92062244  energy(sigma->0) =      760.91955382


--------------------------------------------------------------------------------------------------------




--------------------------------------- Iteration      1(   2)  ---------------------------------------


     EDDAV:  cpu time    0.5854: real time    0.5854
       DOS:  cpu time    0.0002: real time    0.0002
    --------------------------------------------
      LOOP:  cpu time    0.5855: real time    0.5855

 eigenvalue-minimisations  :  1488
 total energy-change (2. order) :-0.7437443E+03  (-0.7181912E+03)
 number of electron      54.0000000 magnetization      -0.0000000
 augmentation part       54.0000000 magnetization      -0.0000000

 Free energy of the ion-electron system (eV)
  ---------------------------------------------------
  alpha Z        PSCENC =       203.95051221
  Ewald energy   TEWEN  =     -4253.05950503
  -Hartree energ DENC   =     -2091.75274387
  -exchange      EXHF   =         0.00000000
  -V(xc)+E(xc)   XCENC  =       295.21119751
  PAW double counting   =      5431.03059579    -5549.10764102
  entropy T*S    EENTRO =        -0.00000000
  eigenvalues    EBANDS =      -708.63852908
  atomic energy  EATOM  =      6689.54033744
  Solvation  Ediel_sol  =         0.00000000
  ---------------------------------------------------
  free energy    TOTEN  =        17.17422396 eV

  energy without entropy =       17.17422396  energy(sigma->0) =       17.17422396


--------------------------------------------------------------------------------------------------------




--------------------------------------- Iteration      1(   3)  ---------------------------------------


     EDDAV:  cpu time    0.5969: real time    0.5969
       DOS:  cpu time    0.0002: real time    0.0002
    --------------------------------------------
      LOOP:  cpu time    0.5971: real time    0.5971

 eigenvalue-minimisations  :  1524
 total energy-change (2. order) :-0.5771690E+02  (-0.5743548E+02)
 number of electron      54.0000000 magnetization      -0.0000000
 augmentation part       54.0000000 magnetization      -0.0000000

 Free energy of the ion-electron system (eV)
  ---------------------------------------------------
  alpha Z        PSCENC =       203.95051221
  Ewald energy   TEWEN  =     -4253.05950503
  -Hartree energ DENC   =     -2091.75274387
  -exchange      EXHF   =         0.00000000
  -V(xc)+E(xc)   XCENC  =       295.21119751
  PAW double counting   =      5431.03059579    -5549.10764102
  entropy T*S    EENTRO =        -0.00000000
  eigenvalues    EBANDS =      -766.35542647
  atomic energy  EATOM  =      6689.54033744
  Solvation  Ediel_sol  =         0.00000000
  ---------------------------------------------------
  free energy    TOTEN  =       -40.54267343 eV

  energy without entropy =      -40.54267343  energy(sigma->0) =      -40.54267343


--------------------------------------------------------------------------------------------------------




--------------------------------------- Iteration      1(   4)  ---------------------------------------


     EDDAV:  cpu time    0.5720: real time    0.5720
       DOS:  cpu time    0.0002: real time    0.0002
    --------------------------------------------
      LOOP:  cpu time    0.5722: real time    0.5722

 eigenvalue-minimisations  :  1440
 total energy-change (2. order) :-0.8754711E+00  (-0.8752574E+00)
 number of electron      54.0000000 magnetization      -0.0000000
 augmentation part       54.0000000 magnetization      -0.0000000

 Free energy of the ion-electron system (eV)
  ---------------------------------------------------
  alpha Z        PSCENC =       203.95051221
  Ewald energy   TEWEN  =     -4253.05950503
  -Hartree energ DENC   =     -2091.75274387
  -exchange      EXHF   =         0.00000000
  -V(xc)+E(xc)   XCENC  =       295.21119751
  PAW double counting   =      5431.03059579    -5549.10764102
  entropy T*S    EENTRO =        -0.00000000
  eigenvalues    EBANDS =      -767.23089755
  atomic energy  EATOM  =      6689.54033744
  Solvation  Ediel_sol  =         0.00000000
  ---------------------------------------------------
  free energy    TOTEN  =       -41.41814451 eV

  energy without entropy =      -41.41814451  energy(sigma->0) =      -41.41814451


--------------------------------------------------------------------------------------------------------




--------------------------------------- Iteration      1(   5)  ---------------------------------------


     EDDAV:  cpu time    0.6015: real time    0.6015
       DOS:  cpu time    0.0002: real time    0.0002
    CHARGE:  cpu time    0.0646: real time    0.0646
    MIXING:  cpu time    0.0016: real time    0.0016
    --------------------------------------------
      LOOP:  cpu time    0.6680: real time    0.6680

 eigenvalue-minimisations  :  1536
 total energy-change (2. order) :-0.1296055E-01  (-0.1296046E-01)
 number of electron      54.0000002 magnetization      -0.0000000
 augmentation part       20.1198861 magnetization      -0.0000000

 Broyden mixing:
  rms(total) = 0.24747E+01    rms(broyden)= 0.24747E+01
  rms(prec ) = 0.32089E+01
  weight for this iteration     100.00

 Free energy of the ion-electron system (eV)
  ---------------------------------------------------
  alpha Z        PSCENC =       203.95051221
  Ewald energy   TEWEN  =     -4253.05950503
  -Hartree energ DENC   =     -2091.75274387
  -exchange      EXHF   =         0.00000000
  -V(xc)+E(xc)   XCENC  =       295.21119751
  PAW double counting   =      5431.03059579    -5549.10764102
  entropy T*S    EENTRO =        -0.00000000
  eigenvalues    EBANDS =      -767.24385810
  atomic energy  EATOM  =      6689.54033744
  Solvation  Ediel_sol  =         0.00000000
  ---------------------------------------------------
  free energy    TOTEN  =       -41.43110506 eV

  energy without entropy =      -41.43110506  energy(sigma->0) =      -41.43110506


--------------------------------------------------------------------------------------------------------




--------------------------------------- Iteration      1(   6)  ---------------------------------------


    POTLOK:  cpu time    0.0072: real time    0.0072
    SETDIJ:  cpu time    0.2494: real time    0.2494
atom =   1  type =  1  l = 2
 
 onsite density matrix
 
spin component  1
 
 -0.0728  0.0000  0.0050  0.0000  0.0000
  0.0000 -0.0764  0.0000  0.0034  0.0000
  0.0050  0.0000 -0.0741  0.0000  0.0000
  0.0000  0.0034  0.0000 -0.0764  0.0000
  0.0000  0.0000  0.0000  0.0000 -0.0829
 
spin component  2
 
  1.1008  0.0000  0.0137  0.0000  0.0000
  0.0000  1.0986  0.0000  0.0123  0.0000
  0.0137  0.0000  1.0920  0.0000 -0.0000
  0.0000  0.0123  0.0000  1.0986  0.0000
  0.0000  0.0000 -0.0000  0.0000  1.0887
 
 occupancies and eigenvectors
 
  o = -0.0829  v =  0.0000 -0.0000 -0.0000  0.0000  1.0000  0.0000  0.0000  0.0000  0.0000  0.0000      0.0000  0.0000  0.0000  0.0000  0.0000  0.0000  0.0000  0.0000  0.0000  0.0000
  o = -0.0797  v =  0.0000  0.7071 -0.0000 -0.7071  0.0000  0.0000  0.0000  0.0000  0.0000  0.0000      0.0000  0.0000  0.0000  0.0000  0.0000  0.0000  0.0000  0.0000  0.0000  0.0000
  o = -0.0785  v =  0.6618 -0.0000 -0.7497  0.0000 -0.0000  0.0000  0.0000  0.0000  0.0000  0.0000      0.0000  0.0000  0.0000  0.0000  0.0000  0.0000  0.0000  0.0000  0.0000  0.0000
  o = -0.0730  v =  0.0000 -0.7071 -0.0000 -0.7071 -0.0000  0.0000  0.0000  0.0000  0.0000  0.0000      0.0000  0.0000  0.0000  0.0000  0.0000  0.0000  0.0000  0.0000  0.0000  0.0000
  o = -0.0684  v =  0.7497  0.0000  0.6618  0.0000  0.0000  0.0000  0.0000  0.0000  0.0000  0.0000      0.0000  0.0000  0.0000  0.0000  0.0000  0.0000  0.0000  0.0000  0.0000  0.0000
  o =  1.0820  v =  0.0000  0.0000  0.0000  0.0000  0.0000  0.5888  0.0000 -0.8083 -0.0000 -0.0000      0.0000  0.0000  0.0000  0.0000  0.0000  0.0000  0.0000  0.0000  0.0000  0.0000
  o =  1.0863  v =  0.0000  0.0000  0.0000  0.0000  0.0000 -0.0000  0.7071  0.0000 -0.7071 -0.0000      0.0000  0.0000  0.0000  0.0000  0.0000  0.0000  0.0000  0.0000  0.0000  0.0000
  o =  1.0887  v =  0.0000  0.0000  0.0000  0.0000  0.0000  0.0000  0.0000 -0.0000 -0.0000  1.0000      0.0000  0.0000  0.0000  0.0000  0.0000  0.0000  0.0000  0.0000  0.0000  0.0000
  o =  1.1107  v =  0.0000  0.0000  0.0000  0.0000  0.0000  0.8083 -0.0000  0.5888 -0.0000 -0.0000      0.0000  0.0000  0.0000  0.0000  0.0000  0.0000  0.0000  0.0000  0.0000  0.0000
  o =  1.1108  v =  0.0000  0.0000  0.0000  0.0000  0.0000  0.0000  0.7071  0.0000  0.7071  0.0000      0.0000  0.0000  0.0000  0.0000  0.0000  0.0000  0.0000  0.0000  0.0000  0.0000
atom =   2  type =  1  l = 2
 
 onsite density matrix
 
spin component  1
 
  1.1008  0.0000 -0.0137  0.0000  0.0000
  0.0000  1.0986  0.0000 -0.0123  0.0000
 -0.0137  0.0000  1.0920  0.0000 -0.0000
  0.0000 -0.0123  0.0000  1.0986  0.0000
  0.0000  0.0000 -0.0000  0.0000  1.0887
 
spin component  2
 
 -0.0728  0.0000 -0.0050  0.0000 -0.0000
  0.0000 -0.0764  0.0000 -0.0034  0.0000
 -0.0050  0.0000 -0.0741  0.0000 -0.0000
  0.0000 -0.0034  0.0000 -0.0764  0.0000
 -0.0000  0.0000 -0.0000  0.0000 -0.0829
 
 occupancies and eigenvectors
 
  o = -0.0829  v =  0.0000  0.0000  0.0000  0.0000  0.0000  0.0000  0.0000  0.0000  0.0000  1.0000      0.0000  0.0000  0.0000  0.0000  0.0000  0.0000  0.0000  0.0000  0.0000  0.0000
  o = -0.0797  v =  0.0000  0.0000  0.0000  0.0000  0.0000  0.0000 -0.7071  0.0000 -0.7071  0.0000      0.0000  0.0000  0.0000  0.0000  0.0000  0.0000  0.0000  0.0000  0.0000  0.0000
  o = -0.0785  v =  0.0000  0.0000  0.0000  0.0000  0.0000  0.6618  0.0000  0.7497  0.0000 -0.0000      0.0000  0.0000  0.0000  0.0000  0.0000  0.0000  0.0000  0.0000  0.0000  0.0000
  o = -0.0730  v =  0.0000  0.0000  0.0000  0.0000  0.0000  0.0000  0.7071  0.0000 -0.7071 -0.0000      0.0000  0.0000  0.0000  0.0000  0.0000  0.0000  0.0000  0.0000  0.0000  0.0000
  o = -0.0684  v =  0.0000  0.0000  0.0000  0.0000  0.0000  0.7497 -0.0000 -0.6618  0.0000  0.0000      0.0000  0.0000  0.0000  0.0000  0.0000  0.0000  0.0000  0.0000  0.0000  0.0000
  o =  1.0820  v =  0.5888  0.0000  0.8083  0.0000  0.0000  0.0000  0.0000  0.0000  0.0000  0.0000      0.0000  0.0000  0.0000  0.0000  0.0000  0.0000  0.0000  0.0000  0.0000  0.0000
  o =  1.0863  v = -0.0000  0.7071 -0.0000  0.7071  0.0000  0.0000  0.0000  0.0000  0.0000  0.0000      0.0000  0.0000  0.0000  0.0000  0.0000  0.0000  0.0000  0.0000  0.0000  0.0000
  o =  1.0887  v = -0.0000 -0.0000 -0.0000 -0.0000  1.0000  0.0000  0.0000  0.0000  0.0000  0.0000      0.0000  0.0000  0.0000  0.0000  0.0000  0.0000  0.0000  0.0000  0.0000  0.0000
  o =  1.1107  v =  0.8083 -0.0000 -0.5888  0.0000  0.0000  0.0000  0.0000  0.0000  0.0000  0.0000      0.0000  0.0000  0.0000  0.0000  0.0000  0.0000  0.0000  0.0000  0.0000  0.0000
  o =  1.1108  v =  0.0000  0.7071 -0.0000 -0.7071  0.0000  0.0000  0.0000  0.0000  0.0000  0.0000      0.0000  0.0000  0.0000  0.0000  0.0000  0.0000  0.0000  0.0000  0.0000  0.0000
     EDDAV:  cpu time    0.6233: real time    0.6233
       DOS:  cpu time    0.0002: real time    0.0002
    CHARGE:  cpu time    0.0648: real time    0.0648
    MIXING:  cpu time    0.0016: real time    0.0016
    --------------------------------------------
      LOOP:  cpu time    0.9466: real time    0.9466

 eigenvalue-minimisations  :  1620
 total energy-change (2. order) : 0.2070021E+01  (-0.1560813E+01)
 number of electron      54.0000002 magnetization       0.0000000
 augmentation part       19.9682634 magnetization       0.0000000

 Broyden mixing:
  rms(total) = 0.15915E+01    rms(broyden)= 0.15915E+01
  rms(prec ) = 0.16416E+01
  weight for this iteration     100.00

 eigenvalues of (default mixing * dielectric matrix)
  average eigenvalue GAMMA=   0.8127
  0.8127

 Free energy of the ion-electron system (eV)
  ---------------------------------------------------
  alpha Z        PSCENC =       203.95051221
  Ewald energy   TEWEN  =     -4253.05950503
  -Hartree energ DENC   =     -2114.51780557
  -exchange      EXHF   =         0.00000000
  -V(xc)+E(xc)   XCENC  =       295.82349214
  PAW double counting   =      5724.63364695    -5834.24214886
  entropy T*S    EENTRO =        -0.00000000
  eigenvalues    EBANDS =      -751.48961383
  atomic energy  EATOM  =      6689.54033744
  Solvation  Ediel_sol  =         0.00000000
  ---------------------------------------------------
  free energy    TOTEN  =       -39.36108456 eV

  energy without entropy =      -39.36108456  energy(sigma->0) =      -39.36108456


--------------------------------------------------------------------------------------------------------




--------------------------------------- Iteration      1(   7)  ---------------------------------------


    POTLOK:  cpu time    0.0071: real time    0.0071
    SETDIJ:  cpu time    0.2490: real time    0.2490
atom =   1  type =  1  l = 2
 
 onsite density matrix
 
spin component  1
 
  0.1244  0.0000  0.0222  0.0000  0.0000
  0.0000  0.1173  0.0000  0.0184  0.0000
  0.0222  0.0000  0.1119  0.0000  0.0000
  0.0000  0.0184  0.0000  0.1173  0.0000
  0.0000  0.0000  0.0000  0.0000  0.0978
 
spin component  2
 
  0.8991  0.0000  0.0074  0.0000  0.0000
  0.0000  0.8969  0.0000  0.0064  0.0000
  0.0074  0.0000  0.8952  0.0000 -0.0000
  0.0000  0.0064  0.0000  0.8969  0.0000
  0.0000  0.0000 -0.0000  0.0000  0.8901
 
 occupancies and eigenvectors
 
  o =  0.0951  v = -0.6044 -0.0000  0.7967  0.0000 -0.0000  0.0000  0.0000  0.0000  0.0000  0.0000      0.0000  0.0000  0.0000  0.0000  0.0000  0.0000  0.0000  0.0000  0.0000  0.0000
  o =  0.0978  v = -0.0000  0.0000  0.0000 -0.0000  1.0000  0.0000  0.0000  0.0000  0.0000  0.0000      0.0000  0.0000  0.0000  0.0000  0.0000  0.0000  0.0000  0.0000  0.0000  0.0000
  o =  0.0990  v =  0.0000  0.7071 -0.0000 -0.7071 -0.0000  0.0000  0.0000  0.0000  0.0000  0.0000      0.0000  0.0000  0.0000  0.0000  0.0000  0.0000  0.0000  0.0000  0.0000  0.0000
  o =  0.1357  v = -0.0000 -0.7071 -0.0000 -0.7071  0.0000  0.0000  0.0000  0.0000  0.0000  0.0000      0.0000  0.0000  0.0000  0.0000  0.0000  0.0000  0.0000  0.0000  0.0000  0.0000
  o =  0.1412  v = -0.7967  0.0000 -0.6044  0.0000 -0.0000  0.0000  0.0000  0.0000  0.0000  0.0000      0.0000  0.0000  0.0000  0.0000  0.0000  0.0000  0.0000  0.0000  0.0000  0.0000
  o =  0.8895  v =  0.0000  0.0000  0.0000  0.0000  0.0000 -0.6119  0.0000  0.7909 -0.0000  0.0000      0.0000  0.0000  0.0000  0.0000  0.0000  0.0000  0.0000  0.0000  0.0000  0.0000
  o =  0.8901  v =  0.0000  0.0000  0.0000  0.0000  0.0000 -0.0000  0.0000  0.0000 -0.0000 -1.0000      0.0000  0.0000  0.0000  0.0000  0.0000  0.0000  0.0000  0.0000  0.0000  0.0000
  o =  0.8905  v =  0.0000  0.0000  0.0000  0.0000  0.0000 -0.0000 -0.7071  0.0000  0.7071 -0.0000      0.0000  0.0000  0.0000  0.0000  0.0000  0.0000  0.0000  0.0000  0.0000  0.0000
  o =  0.9033  v =  0.0000  0.0000  0.0000  0.0000  0.0000 -0.0000 -0.7071 -0.0000 -0.7071  0.0000      0.0000  0.0000  0.0000  0.0000  0.0000  0.0000  0.0000  0.0000  0.0000  0.0000
  o =  0.9048  v =  0.0000  0.0000  0.0000  0.0000  0.0000 -0.7909  0.0000 -0.6119  0.0000  0.0000      0.0000  0.0000  0.0000  0.0000  0.0000  0.0000  0.0000  0.0000  0.0000  0.0000
atom =   2  type =  1  l = 2
 
 onsite density matrix
 
spin component  1
 
  0.8991  0.0000 -0.0074  0.0000  0.0000
  0.0000  0.8969  0.0000 -0.0064  0.0000
 -0.0074  0.0000  0.8952  0.0000 -0.0000
  0.0000 -0.0064  0.0000  0.8969  0.0000
  0.0000  0.0000 -0.0000  0.0000  0.8901
 
spin component  2
 
  0.1244  0.0000 -0.0222  0.0000  0.0000
  0.0000  0.1173  0.0000 -0.0184  0.0000
 -0.0222  0.0000  0.1119  0.0000  0.0000
  0.0000 -0.0184  0.0000  0.1173  0.0000
  0.0000  0.0000  0.0000  0.0000  0.0978
 
 occupancies and eigenvectors
 
  o =  0.0951  v =  0.0000  0.0000  0.0000  0.0000  0.0000 -0.6044 -0.0000 -0.7967 -0.0000  0.0000      0.0000  0.0000  0.0000  0.0000  0.0000  0.0000  0.0000  0.0000  0.0000  0.0000
  o =  0.0978  v =  0.0000  0.0000  0.0000  0.0000  0.0000 -0.0000  0.0000 -0.0000  0.0000 -1.0000      0.0000  0.0000  0.0000  0.0000  0.0000  0.0000  0.0000  0.0000  0.0000  0.0000
  o =  0.0990  v =  0.0000  0.0000  0.0000  0.0000  0.0000 -0.0000 -0.7071 -0.0000 -0.7071 -0.0000      0.0000  0.0000  0.0000  0.0000  0.0000  0.0000  0.0000  0.0000  0.0000  0.0000
  o =  0.1357  v =  0.0000  0.0000  0.0000  0.0000  0.0000  0.0000  0.7071 -0.0000 -0.7071  0.0000      0.0000  0.0000  0.0000  0.0000  0.0000  0.0000  0.0000  0.0000  0.0000  0.0000
  o =  0.1412  v =  0.0000  0.0000  0.0000  0.0000  0.0000 -0.7967  0.0000  0.6044 -0.0000  0.0000      0.0000  0.0000  0.0000  0.0000  0.0000  0.0000  0.0000  0.0000  0.0000  0.0000
  o =  0.8895  v = -0.6119  0.0000 -0.7909  0.0000  0.0000  0.0000  0.0000  0.0000  0.0000  0.0000      0.0000  0.0000  0.0000  0.0000  0.0000  0.0000  0.0000  0.0000  0.0000  0.0000
  o =  0.8901  v =  0.0000  0.0000  0.0000  0.0000  1.0000  0.0000  0.0000  0.0000  0.0000  0.0000      0.0000  0.0000  0.0000  0.0000  0.0000  0.0000  0.0000  0.0000  0.0000  0.0000
  o =  0.8905  v =  0.0000 -0.7071  0.0000 -0.7071  0.0000  0.0000  0.0000  0.0000  0.0000  0.0000      0.0000  0.0000  0.0000  0.0000  0.0000  0.0000  0.0000  0.0000  0.0000  0.0000
  o =  0.9033  v =  0.0000 -0.7071  0.0000  0.7071  0.0000  0.0000  0.0000  0.0000  0.0000  0.0000      0.0000  0.0000  0.0000  0.0000  0.0000  0.0000  0.0000  0.0000  0.0000  0.0000
  o =  0.9048  v = -0.7909  0.0000  0.6119  0.0000 -0.0000  0.0000  0.0000  0.0000  0.0000  0.0000      0.0000  0.0000  0.0000  0.0000  0.0000  0.0000  0.0000  0.0000  0.0000  0.0000
     EDDAV:  cpu time    0.5959: real time    0.5959
       DOS:  cpu time    0.0002: real time    0.0002
    CHARGE:  cpu time    0.0649: real time    0.0649
    MIXING:  cpu time    0.0017: real time    0.0017
    --------------------------------------------
      LOOP:  cpu time    0.9188: real time    0.9188

 eigenvalue-minimisations  :  1524
 total energy-change (2. order) :-0.6357756E+00  (-0.1569759E+00)
 number of electron      54.0000002 magnetization       0.0000000
 augmentation part       19.9464566 magnetization       0.0000000

 Broyden mixing:
  rms(total) = 0.11822E+01    rms(broyden)= 0.11822E+01
  rms(prec ) = 0.12103E+01
  weight for this iteration     100.00

 eigenvalues of (default mixing * dielectric matrix)
  average eigenvalue GAMMA=   1.4416
  0.7014  2.1818

 Free energy of the ion-electron system (eV)
  ---------------------------------------------------
  alpha Z        PSCENC =       203.95051221
  Ewald energy   TEWEN  =     -4253.05950503
  -Hartree energ DENC   =     -2110.87662518
  -exchange      EXHF   =         0.00000000
  -V(xc)+E(xc)   XCENC  =       296.46339420
  PAW double counting   =      5977.96104540    -6097.36740642
  entropy T*S    EENTRO =        -0.00000000
  eigenvalues    EBANDS =      -746.60861279
  atomic energy  EATOM  =      6689.54033744
  Solvation  Ediel_sol  =         0.00000000
  ---------------------------------------------------
  free energy    TOTEN  =       -39.99686017 eV

  energy without entropy =      -39.99686017  energy(sigma->0) =      -39.99686017


--------------------------------------------------------------------------------------------------------




--------------------------------------- Iteration      1(   8)  ---------------------------------------


    POTLOK:  cpu time    0.0072: real time    0.0072
    SETDIJ:  cpu time    0.2491: real time    0.2491
atom =   1  type =  1  l = 2
 
 onsite density matrix
 
spin component  1
 
 -0.0253  0.0000  0.0236  0.0000  0.0000
  0.0000 -0.0333  0.0000  0.0183  0.0000
  0.0236  0.0000 -0.0362  0.0000 -0.0000
  0.0000  0.0183  0.0000 -0.0333  0.0000
  0.0000  0.0000 -0.0000  0.0000 -0.0561
 
spin component  2
 
  1.0501  0.0000  0.0209  0.0000 -0.0000
  0.0000  1.0440  0.0000  0.0192  0.0000
  0.0209  0.0000  1.0360  0.0000  0.0000
  0.0000  0.0192  0.0000  1.0440  0.0000
 -0.0000  0.0000  0.0000  0.0000  1.0269
 
 occupancies and eigenvectors
 
  o = -0.0561  v =  0.0000  0.0000 -0.0000  0.0000 -1.0000  0.0000  0.0000  0.0000  0.0000  0.0000      0.0000  0.0000  0.0000  0.0000  0.0000  0.0000  0.0000  0.0000  0.0000  0.0000
  o = -0.0550  v = -0.6227  0.0000  0.7825  0.0000 -0.0000  0.0000  0.0000  0.0000  0.0000  0.0000      0.0000  0.0000  0.0000  0.0000  0.0000  0.0000  0.0000  0.0000  0.0000  0.0000
  o = -0.0516  v =  0.0000  0.7071  0.0000 -0.7071  0.0000  0.0000  0.0000  0.0000  0.0000  0.0000      0.0000  0.0000  0.0000  0.0000  0.0000  0.0000  0.0000  0.0000  0.0000  0.0000
  o = -0.0150  v =  0.0000 -0.7071  0.0000 -0.7071 -0.0000  0.0000  0.0000  0.0000  0.0000  0.0000      0.0000  0.0000  0.0000  0.0000  0.0000  0.0000  0.0000  0.0000  0.0000  0.0000
  o = -0.0065  v =  0.7825  0.0000  0.6227  0.0000 -0.0000  0.0000  0.0000  0.0000  0.0000  0.0000      0.0000  0.0000  0.0000  0.0000  0.0000  0.0000  0.0000  0.0000  0.0000  0.0000
  o =  1.0210  v =  0.0000  0.0000  0.0000  0.0000  0.0000 -0.5830 -0.0000  0.8125  0.0000 -0.0000      0.0000  0.0000  0.0000  0.0000  0.0000  0.0000  0.0000  0.0000  0.0000  0.0000
  o =  1.0248  v =  0.0000  0.0000  0.0000  0.0000  0.0000  0.0000  0.7071  0.0000 -0.7071 -0.0000      0.0000  0.0000  0.0000  0.0000  0.0000  0.0000  0.0000  0.0000  0.0000  0.0000
  o =  1.0269  v =  0.0000  0.0000  0.0000  0.0000  0.0000 -0.0000  0.0000  0.0000  0.0000  1.0000      0.0000  0.0000  0.0000  0.0000  0.0000  0.0000  0.0000  0.0000  0.0000  0.0000
  o =  1.0631  v =  0.0000  0.0000  0.0000  0.0000  0.0000  0.0000 -0.7071  0.0000 -0.7071  0.0000      0.0000  0.0000  0.0000  0.0000  0.0000  0.0000  0.0000  0.0000  0.0000  0.0000
  o =  1.0651  v =  0.0000  0.0000  0.0000  0.0000  0.0000 -0.8125 -0.0000 -0.5830  0.0000 -0.0000      0.0000  0.0000  0.0000  0.0000  0.0000  0.0000  0.0000  0.0000  0.0000  0.0000
atom =   2  type =  1  l = 2
 
 onsite density matrix
 
spin component  1
 
  1.0501  0.0000 -0.0209  0.0000  0.0000
  0.0000  1.0440  0.0000 -0.0192  0.0000
 -0.0209  0.0000  1.0360  0.0000  0.0000
  0.0000 -0.0192  0.0000  1.0440  0.0000
  0.0000  0.0000  0.0000  0.0000  1.0269
 
spin component  2
 
 -0.0253  0.0000 -0.0236  0.0000 -0.0000
  0.0000 -0.0333  0.0000 -0.0183  0.0000
 -0.0236  0.0000 -0.0362  0.0000 -0.0000
  0.0000 -0.0183  0.0000 -0.0333  0.0000
 -0.0000  0.0000 -0.0000  0.0000 -0.0561
 
 occupancies and eigenvectors
 
  o = -0.0561  v =  0.0000  0.0000  0.0000  0.0000  0.0000  0.0000  0.0000  0.0000  0.0000  1.0000      0.0000  0.0000  0.0000  0.0000  0.0000  0.0000  0.0000  0.0000  0.0000  0.0000
  o = -0.0550  v =  0.0000  0.0000  0.0000  0.0000  0.0000 -0.6227  0.0000 -0.7825  0.0000  0.0000      0.0000  0.0000  0.0000  0.0000  0.0000  0.0000  0.0000  0.0000  0.0000  0.0000
  o = -0.0516  v =  0.0000  0.0000  0.0000  0.0000  0.0000  0.0000  0.7071  0.0000  0.7071 -0.0000      0.0000  0.0000  0.0000  0.0000  0.0000  0.0000  0.0000  0.0000  0.0000  0.0000
  o = -0.0150  v =  0.0000  0.0000  0.0000  0.0000  0.0000  0.0000  0.7071  0.0000 -0.7071 -0.0000      0.0000  0.0000  0.0000  0.0000  0.0000  0.0000  0.0000  0.0000  0.0000  0.0000
  o = -0.0065  v =  0.0000  0.0000  0.0000  0.0000  0.0000  0.7825  0.0000 -0.6227  0.0000  0.0000      0.0000  0.0000  0.0000  0.0000  0.0000  0.0000  0.0000  0.0000  0.0000  0.0000
  o =  1.0210  v = -0.5830 -0.0000 -0.8125  0.0000  0.0000  0.0000  0.0000  0.0000  0.0000  0.0000      0.0000  0.0000  0.0000  0.0000  0.0000  0.0000  0.0000  0.0000  0.0000  0.0000
  o =  1.0248  v =  0.0000 -0.7071  0.0000 -0.7071 -0.0000  0.0000  0.0000  0.0000  0.0000  0.0000      0.0000  0.0000  0.0000  0.0000  0.0000  0.0000  0.0000  0.0000  0.0000  0.0000
  o =  1.0269  v = -0.0000  0.0000 -0.0000  0.0000 -1.0000  0.0000  0.0000  0.0000  0.0000  0.0000      0.0000  0.0000  0.0000  0.0000  0.0000  0.0000  0.0000  0.0000  0.0000  0.0000
  o =  1.0631  v =  0.0000 -0.7071  0.0000  0.7071 -0.0000  0.0000  0.0000  0.0000  0.0000  0.0000      0.0000  0.0000  0.0000  0.0000  0.0000  0.0000  0.0000  0.0000  0.0000  0.0000
  o =  1.0651  v = -0.8125 -0.0000  0.5830  0.0000  0.0000  0.0000  0.0000  0.0000  0.0000  0.0000      0.0000  0.0000  0.0000  0.0000  0.0000  0.0000  0.0000  0.0000  0.0000  0.0000
     EDDAV:  cpu time    0.5958: real time    0.5958
       DOS:  cpu time    0.0002: real time    0.0002
    CHARGE:  cpu time    0.0652: real time    0.0652
    MIXING:  cpu time    0.0017: real time    0.0017
    --------------------------------------------
      LOOP:  cpu time    0.9192: real time    0.9192

 eigenvalue-minimisations  :  1524
 total energy-change (2. order) : 0.8609977E-01  (-0.5222415E-01)
 number of electron      54.0000002 magnetization       0.0000000
 augmentation part       19.9804632 magnetization       0.0000000

 Broyden mixing:
  rms(total) = 0.47305E+00    rms(broyden)= 0.47305E+00
  rms(prec ) = 0.50407E+00
  weight for this iteration     100.00

 eigenvalues of (default mixing * dielectric matrix)
  average eigenvalue GAMMA=   1.2501
  2.0972  1.0207  0.6326

 Free energy of the ion-electron system (eV)
  ---------------------------------------------------
  alpha Z        PSCENC =       203.95051221
  Ewald energy   TEWEN  =     -4253.05950503
  -Hartree energ DENC   =     -2105.44352509
  -exchange      EXHF   =         0.00000000
  -V(xc)+E(xc)   XCENC  =       295.79303720
  PAW double counting   =      6250.22410195    -6366.27004966
  entropy T*S    EENTRO =        -0.00000000
  eigenvalues    EBANDS =      -754.64566942
  atomic energy  EATOM  =      6689.54033744
  Solvation  Ediel_sol  =         0.00000000
  ---------------------------------------------------
  free energy    TOTEN  =       -39.91076040 eV

  energy without entropy =      -39.91076040  energy(sigma->0) =      -39.91076040


--------------------------------------------------------------------------------------------------------




--------------------------------------- Iteration      1(   9)  ---------------------------------------


    POTLOK:  cpu time    0.0071: real time    0.0071
    SETDIJ:  cpu time    0.2492: real time    0.2492
atom =   1  type =  1  l = 2
 
 onsite density matrix
 
spin component  1
 
  0.0495  0.0000  0.0276  0.0000  0.0000
  0.0000  0.0400  0.0000  0.0230  0.0000
  0.0276  0.0000  0.0342  0.0000  0.0000
  0.0000  0.0230  0.0000  0.0400  0.0000
  0.0000  0.0000  0.0000  0.0000  0.0145
 
spin component  2
 
  0.9745  0.0000  0.0241  0.0000 -0.0000
  0.0000  0.9674  0.0000  0.0206  0.0000
  0.0241  0.0000  0.9605  0.0000  0.0000
  0.0000  0.0206  0.0000  0.9674  0.0000
 -0.0000  0.0000  0.0000  0.0000  0.9465
 
 occupancies and eigenvectors
 
  o =  0.0132  v = -0.6049  0.0000  0.7963  0.0000 -0.0000  0.0000  0.0000  0.0000  0.0000  0.0000      0.0000  0.0000  0.0000  0.0000  0.0000  0.0000  0.0000  0.0000  0.0000  0.0000
  o =  0.0145  v = -0.0000 -0.0000  0.0000  0.0000  1.0000  0.0000  0.0000  0.0000  0.0000  0.0000      0.0000  0.0000  0.0000  0.0000  0.0000  0.0000  0.0000  0.0000  0.0000  0.0000
  o =  0.0170  v =  0.0000  0.7071  0.0000 -0.7071  0.0000  0.0000  0.0000  0.0000  0.0000  0.0000      0.0000  0.0000  0.0000  0.0000  0.0000  0.0000  0.0000  0.0000  0.0000  0.0000
  o =  0.0630  v =  0.0000 -0.7071  0.0000 -0.7071 -0.0000  0.0000  0.0000  0.0000  0.0000  0.0000      0.0000  0.0000  0.0000  0.0000  0.0000  0.0000  0.0000  0.0000  0.0000  0.0000
  o =  0.0704  v = -0.7963  0.0000 -0.6049  0.0000 -0.0000  0.0000  0.0000  0.0000  0.0000  0.0000      0.0000  0.0000  0.0000  0.0000  0.0000  0.0000  0.0000  0.0000  0.0000  0.0000
  o =  0.9424  v =  0.0000  0.0000  0.0000  0.0000  0.0000 -0.6005  0.0000  0.7996  0.0000 -0.0000      0.0000  0.0000  0.0000  0.0000  0.0000  0.0000  0.0000  0.0000  0.0000  0.0000
  o =  0.9465  v =  0.0000  0.0000  0.0000  0.0000  0.0000  0.0000  0.0000  0.0000  0.0000  1.0000      0.0000  0.0000  0.0000  0.0000  0.0000  0.0000  0.0000  0.0000  0.0000  0.0000
  o =  0.9468  v =  0.0000  0.0000  0.0000  0.0000  0.0000  0.0000  0.7071  0.0000 -0.7071 -0.0000      0.0000  0.0000  0.0000  0.0000  0.0000  0.0000  0.0000  0.0000  0.0000  0.0000
  o =  0.9880  v =  0.0000  0.0000  0.0000  0.0000  0.0000  0.0000 -0.7071  0.0000 -0.7071  0.0000      0.0000  0.0000  0.0000  0.0000  0.0000  0.0000  0.0000  0.0000  0.0000  0.0000
  o =  0.9926  v =  0.0000  0.0000  0.0000  0.0000  0.0000 -0.7996  0.0000 -0.6005  0.0000  0.0000      0.0000  0.0000  0.0000  0.0000  0.0000  0.0000  0.0000  0.0000  0.0000  0.0000
atom =   2  type =  1  l = 2
 
 onsite density matrix
 
spin component  1
 
  0.9745  0.0000 -0.0241  0.0000 -0.0000
  0.0000  0.9674  0.0000 -0.0206  0.0000
 -0.0241  0.0000  0.9605  0.0000 -0.0000
  0.0000 -0.0206  0.0000  0.9674  0.0000
 -0.0000  0.0000 -0.0000  0.0000  0.9465
 
spin component  2
 
  0.0495  0.0000 -0.0276  0.0000  0.0000
  0.0000  0.0400  0.0000 -0.0230  0.0000
 -0.0276  0.0000  0.0342  0.0000  0.0000
  0.0000 -0.0230  0.0000  0.0400  0.0000
  0.0000  0.0000  0.0000  0.0000  0.0145
 
 occupancies and eigenvectors
 
  o =  0.0132  v =  0.0000  0.0000  0.0000  0.0000  0.0000 -0.6049 -0.0000 -0.7963  0.0000  0.0000      0.0000  0.0000  0.0000  0.0000  0.0000  0.0000  0.0000  0.0000  0.0000  0.0000
  o =  0.0145  v =  0.0000  0.0000  0.0000  0.0000  0.0000 -0.0000  0.0000 -0.0000  0.0000 -1.0000      0.0000  0.0000  0.0000  0.0000  0.0000  0.0000  0.0000  0.0000  0.0000  0.0000
  o =  0.0170  v =  0.0000  0.0000  0.0000  0.0000  0.0000  0.0000 -0.7071  0.0000 -0.7071 -0.0000      0.0000  0.0000  0.0000  0.0000  0.0000  0.0000  0.0000  0.0000  0.0000  0.0000
  o =  0.0630  v =  0.0000  0.0000  0.0000  0.0000  0.0000  0.0000 -0.7071  0.0000  0.7071 -0.0000      0.0000  0.0000  0.0000  0.0000  0.0000  0.0000  0.0000  0.0000  0.0000  0.0000
  o =  0.0704  v =  0.0000  0.0000  0.0000  0.0000  0.0000 -0.7963 -0.0000  0.6049  0.0000  0.0000      0.0000  0.0000  0.0000  0.0000  0.0000  0.0000  0.0000  0.0000  0.0000  0.0000
  o =  0.9424  v = -0.6005  0.0000 -0.7996  0.0000 -0.0000  0.0000  0.0000  0.0000  0.0000  0.0000      0.0000  0.0000  0.0000  0.0000  0.0000  0.0000  0.0000  0.0000  0.0000  0.0000
  o =  0.9465  v =  0.0000  0.0000 -0.0000  0.0000  1.0000  0.0000  0.0000  0.0000  0.0000  0.0000      0.0000  0.0000  0.0000  0.0000  0.0000  0.0000  0.0000  0.0000  0.0000  0.0000
  o =  0.9468  v =  0.0000 -0.7071  0.0000 -0.7071  0.0000  0.0000  0.0000  0.0000  0.0000  0.0000      0.0000  0.0000  0.0000  0.0000  0.0000  0.0000  0.0000  0.0000  0.0000  0.0000
  o =  0.9880  v =  0.0000  0.7071  0.0000 -0.7071 -0.0000  0.0000  0.0000  0.0000  0.0000  0.0000      0.0000  0.0000  0.0000  0.0000  0.0000  0.0000  0.0000  0.0000  0.0000  0.0000
  o =  0.9926  v = -0.7996  0.0000  0.6005  0.0000  0.0000  0.0000  0.0000  0.0000  0.0000  0.0000      0.0000  0.0000  0.0000  0.0000  0.0000  0.0000  0.0000  0.0000  0.0000  0.0000
     EDDAV:  cpu time    0.5707: real time    0.5708
       DOS:  cpu time    0.0002: real time    0.0002
    CHARGE:  cpu time    0.0650: real time    0.0650
    MIXING:  cpu time    0.0018: real time    0.0018
    --------------------------------------------
      LOOP:  cpu time    0.8940: real time    0.8941

 eigenvalue-minimisations  :  1440
 total energy-change (2. order) :-0.2758323E+00  (-0.7422667E-02)
 number of electron      54.0000002 magnetization       0.0000000
 augmentation part       19.9698408 magnetization       0.0000000

 Broyden mixing:
  rms(total) = 0.13663E+00    rms(broyden)= 0.13663E+00
  rms(prec ) = 0.14610E+00
  weight for this iteration     100.00

 eigenvalues of (default mixing * dielectric matrix)
  average eigenvalue GAMMA=   1.2167
  2.6239  0.8088  0.8088  0.6252

 Free energy of the ion-electron system (eV)
  ---------------------------------------------------
  alpha Z        PSCENC =       203.95051221
  Ewald energy   TEWEN  =     -4253.05950503
  -Hartree energ DENC   =     -2105.64423714
  -exchange      EXHF   =         0.00000000
  -V(xc)+E(xc)   XCENC  =       296.08231327
  PAW double counting   =      6382.34839249    -6502.57951176
  entropy T*S    EENTRO =        -0.00000000
  eigenvalues    EBANDS =      -750.82489418
  atomic energy  EATOM  =      6689.54033744
  Solvation  Ediel_sol  =         0.00000000
  ---------------------------------------------------
  free energy    TOTEN  =       -40.18659271 eV

  energy without entropy =      -40.18659271  energy(sigma->0) =      -40.18659271


--------------------------------------------------------------------------------------------------------




--------------------------------------- Iteration      1(  10)  ---------------------------------------


    POTLOK:  cpu time    0.0075: real time    0.0075
    SETDIJ:  cpu time    0.2496: real time    0.2496
atom =   1  type =  1  l = 2
 
 onsite density matrix
 
spin component  1
 
  0.0546  0.0000  0.0298  0.0000  0.0000
  0.0000  0.0447  0.0000  0.0245  0.0000
  0.0298  0.0000  0.0385  0.0000  0.0000
  0.0000  0.0245  0.0000  0.0447  0.0000
  0.0000  0.0000  0.0000  0.0000  0.0173
 
spin component  2
 
  0.9696  0.0000  0.0216  0.0000 -0.0000
  0.0000  0.9631  0.0000  0.0190  0.0000
  0.0216  0.0000  0.9565  0.0000  0.0000
  0.0000  0.0190  0.0000  0.9631  0.0000
 -0.0000  0.0000  0.0000  0.0000  0.9443
 
 occupancies and eigenvectors
 
  o =  0.0156  v = -0.6077 -0.0000  0.7942  0.0000 -0.0000  0.0000  0.0000  0.0000  0.0000  0.0000      0.0000  0.0000  0.0000  0.0000  0.0000  0.0000  0.0000  0.0000  0.0000  0.0000
  o =  0.0173  v = -0.0000  0.0000  0.0000 -0.0000  1.0000  0.0000  0.0000  0.0000  0.0000  0.0000      0.0000  0.0000  0.0000  0.0000  0.0000  0.0000  0.0000  0.0000  0.0000  0.0000
  o =  0.0202  v =  0.0000  0.7071 -0.0000 -0.7071 -0.0000  0.0000  0.0000  0.0000  0.0000  0.0000      0.0000  0.0000  0.0000  0.0000  0.0000  0.0000  0.0000  0.0000  0.0000  0.0000
  o =  0.0692  v =  0.0000  0.7071  0.0000  0.7071 -0.0000  0.0000  0.0000  0.0000  0.0000  0.0000      0.0000  0.0000  0.0000  0.0000  0.0000  0.0000  0.0000  0.0000  0.0000  0.0000
  o =  0.0775  v = -0.7942  0.0000 -0.6077  0.0000 -0.0000  0.0000  0.0000  0.0000  0.0000  0.0000      0.0000  0.0000  0.0000  0.0000  0.0000  0.0000  0.0000  0.0000  0.0000  0.0000
  o =  0.9405  v =  0.0000  0.0000  0.0000  0.0000  0.0000 -0.5956 -0.0000  0.8033  0.0000 -0.0000      0.0000  0.0000  0.0000  0.0000  0.0000  0.0000  0.0000  0.0000  0.0000  0.0000
  o =  0.9441  v =  0.0000  0.0000  0.0000  0.0000  0.0000  0.0000  0.7071  0.0000 -0.7071 -0.0000      0.0000  0.0000  0.0000  0.0000  0.0000  0.0000  0.0000  0.0000  0.0000  0.0000
  o =  0.9443  v =  0.0000  0.0000  0.0000  0.0000  0.0000 -0.0000  0.0000  0.0000  0.0000  1.0000      0.0000  0.0000  0.0000  0.0000  0.0000  0.0000  0.0000  0.0000  0.0000  0.0000
  o =  0.9820  v =  0.0000  0.0000  0.0000  0.0000  0.0000  0.0000 -0.7071  0.0000 -0.7071  0.0000      0.0000  0.0000  0.0000  0.0000  0.0000  0.0000  0.0000  0.0000  0.0000  0.0000
  o =  0.9857  v =  0.0000  0.0000  0.0000  0.0000  0.0000 -0.8033 -0.0000 -0.5956  0.0000 -0.0000      0.0000  0.0000  0.0000  0.0000  0.0000  0.0000  0.0000  0.0000  0.0000  0.0000
atom =   2  type =  1  l = 2
 
 onsite density matrix
 
spin component  1
 
  0.9696  0.0000 -0.0216  0.0000  0.0000
  0.0000  0.9631  0.0000 -0.0190  0.0000
 -0.0216  0.0000  0.9565  0.0000  0.0000
  0.0000 -0.0190  0.0000  0.9631  0.0000
  0.0000  0.0000  0.0000  0.0000  0.9443
 
spin component  2
 
  0.0546  0.0000 -0.0298  0.0000  0.0000
  0.0000  0.0447  0.0000 -0.0245  0.0000
 -0.0298  0.0000  0.0385  0.0000 -0.0000
  0.0000 -0.0245  0.0000  0.0447  0.0000
  0.0000  0.0000 -0.0000  0.0000  0.0173
 
 occupancies and eigenvectors
 
  o =  0.0156  v =  0.0000  0.0000  0.0000  0.0000  0.0000 -0.6077  0.0000 -0.7942  0.0000 -0.0000      0.0000  0.0000  0.0000  0.0000  0.0000  0.0000  0.0000  0.0000  0.0000  0.0000
  o =  0.0173  v =  0.0000  0.0000  0.0000  0.0000  0.0000 -0.0000 -0.0000 -0.0000 -0.0000  1.0000      0.0000  0.0000  0.0000  0.0000  0.0000  0.0000  0.0000  0.0000  0.0000  0.0000
  o =  0.0202  v =  0.0000  0.0000  0.0000  0.0000  0.0000  0.0000  0.7071  0.0000  0.7071  0.0000      0.0000  0.0000  0.0000  0.0000  0.0000  0.0000  0.0000  0.0000  0.0000  0.0000
  o =  0.0692  v =  0.0000  0.0000  0.0000  0.0000  0.0000 -0.0000 -0.7071  0.0000  0.7071 -0.0000      0.0000  0.0000  0.0000  0.0000  0.0000  0.0000  0.0000  0.0000  0.0000  0.0000
  o =  0.0775  v =  0.0000  0.0000  0.0000  0.0000  0.0000 -0.7942  0.0000  0.6077 -0.0000 -0.0000      0.0000  0.0000  0.0000  0.0000  0.0000  0.0000  0.0000  0.0000  0.0000  0.0000
  o =  0.9405  v = -0.5956  0.0000 -0.8033  0.0000  0.0000  0.0000  0.0000  0.0000  0.0000  0.0000      0.0000  0.0000  0.0000  0.0000  0.0000  0.0000  0.0000  0.0000  0.0000  0.0000
  o =  0.9441  v =  0.0000 -0.7071  0.0000 -0.7071 -0.0000  0.0000  0.0000  0.0000  0.0000  0.0000      0.0000  0.0000  0.0000  0.0000  0.0000  0.0000  0.0000  0.0000  0.0000  0.0000
  o =  0.9443  v =  0.0000  0.0000 -0.0000  0.0000 -1.0000  0.0000  0.0000  0.0000  0.0000  0.0000      0.0000  0.0000  0.0000  0.0000  0.0000  0.0000  0.0000  0.0000  0.0000  0.0000
  o =  0.9820  v =  0.0000 -0.7071  0.0000  0.7071 -0.0000  0.0000  0.0000  0.0000  0.0000  0.0000      0.0000  0.0000  0.0000  0.0000  0.0000  0.0000  0.0000  0.0000  0.0000  0.0000
  o =  0.9857  v = -0.8033  0.0000  0.5956  0.0000 -0.0000  0.0000  0.0000  0.0000  0.0000  0.0000      0.0000  0.0000  0.0000  0.0000  0.0000  0.0000  0.0000  0.0000  0.0000  0.0000
     EDDAV:  cpu time    0.6081: real time    0.6081
       DOS:  cpu time    0.0002: real time    0.0002
    CHARGE:  cpu time    0.0652: real time    0.0652
    MIXING:  cpu time    0.0019: real time    0.0019
    --------------------------------------------
      LOOP:  cpu time    0.9323: real time    0.9323

 eigenvalue-minimisations  :  1548
 total energy-change (2. order) :-0.4867116E-03  (-0.1593898E-02)
 number of electron      54.0000002 magnetization      -0.0000000
 augmentation part       19.9665820 magnetization      -0.0000000

 Broyden mixing:
  rms(total) = 0.25110E-01    rms(broyden)= 0.25110E-01
  rms(prec ) = 0.27766E-01
  weight for this iteration     100.00

 eigenvalues of (default mixing * dielectric matrix)
  average eigenvalue GAMMA=   1.1605
  2.5360  0.9653  0.9653  0.7299  0.6058

 Free energy of the ion-electron system (eV)
  ---------------------------------------------------
  alpha Z        PSCENC =       203.95051221
  Ewald energy   TEWEN  =     -4253.05950503
  -Hartree energ DENC   =     -2106.32721014
  -exchange      EXHF   =         0.00000000
  -V(xc)+E(xc)   XCENC  =       296.17652294
  PAW double counting   =      6370.03742150    -6490.36041115
  entropy T*S    EENTRO =        -0.00000000
  eigenvalues    EBANDS =      -750.14474719
  atomic energy  EATOM  =      6689.54033744
  Solvation  Ediel_sol  =         0.00000000
  ---------------------------------------------------
  free energy    TOTEN  =       -40.18707942 eV

  energy without entropy =      -40.18707942  energy(sigma->0) =      -40.18707942


--------------------------------------------------------------------------------------------------------




--------------------------------------- Iteration      1(  11)  ---------------------------------------


    POTLOK:  cpu time    0.0076: real time    0.0076
    SETDIJ:  cpu time    0.2492: real time    0.2492
atom =   1  type =  1  l = 2
 
 onsite density matrix
 
spin component  1
 
  0.0532  0.0000  0.0296  0.0000  0.0000
  0.0000  0.0432  0.0000  0.0243  0.0000
  0.0296  0.0000  0.0370  0.0000  0.0000
  0.0000  0.0243  0.0000  0.0432  0.0000
  0.0000  0.0000  0.0000  0.0000  0.0161
 
spin component  2
 
  0.9719  0.0000  0.0216  0.0000  0.0000
  0.0000  0.9654  0.0000  0.0189  0.0000
  0.0216  0.0000  0.9588  0.0000  0.0000
  0.0000  0.0189  0.0000  0.9654  0.0000
  0.0000  0.0000  0.0000  0.0000  0.9467
 
 occupancies and eigenvectors
 
  o =  0.0145  v = -0.6069  0.0000  0.7948  0.0000 -0.0000  0.0000  0.0000  0.0000  0.0000  0.0000      0.0000  0.0000  0.0000  0.0000  0.0000  0.0000  0.0000  0.0000  0.0000  0.0000
  o =  0.0161  v = -0.0000 -0.0000  0.0000  0.0000  1.0000  0.0000  0.0000  0.0000  0.0000  0.0000      0.0000  0.0000  0.0000  0.0000  0.0000  0.0000  0.0000  0.0000  0.0000  0.0000
  o =  0.0189  v =  0.0000  0.7071  0.0000 -0.7071  0.0000  0.0000  0.0000  0.0000  0.0000  0.0000      0.0000  0.0000  0.0000  0.0000  0.0000  0.0000  0.0000  0.0000  0.0000  0.0000
  o =  0.0676  v =  0.0000 -0.7071  0.0000 -0.7071 -0.0000  0.0000  0.0000  0.0000  0.0000  0.0000      0.0000  0.0000  0.0000  0.0000  0.0000  0.0000  0.0000  0.0000  0.0000  0.0000
  o =  0.0758  v = -0.7948  0.0000 -0.6069  0.0000 -0.0000  0.0000  0.0000  0.0000  0.0000  0.0000      0.0000  0.0000  0.0000  0.0000  0.0000  0.0000  0.0000  0.0000  0.0000  0.0000
  o =  0.9428  v =  0.0000  0.0000  0.0000  0.0000  0.0000 -0.5960  0.0000  0.8030  0.0000 -0.0000      0.0000  0.0000  0.0000  0.0000  0.0000  0.0000  0.0000  0.0000  0.0000  0.0000
  o =  0.9465  v =  0.0000  0.0000  0.0000  0.0000  0.0000  0.0000  0.7071  0.0000 -0.7071  0.0000      0.0000  0.0000  0.0000  0.0000  0.0000  0.0000  0.0000  0.0000  0.0000  0.0000
  o =  0.9467  v =  0.0000  0.0000  0.0000  0.0000  0.0000 -0.0000 -0.0000  0.0000  0.0000  1.0000      0.0000  0.0000  0.0000  0.0000  0.0000  0.0000  0.0000  0.0000  0.0000  0.0000
  o =  0.9843  v =  0.0000  0.0000  0.0000  0.0000  0.0000  0.0000 -0.7071  0.0000 -0.7071 -0.0000      0.0000  0.0000  0.0000  0.0000  0.0000  0.0000  0.0000  0.0000  0.0000  0.0000
  o =  0.9880  v =  0.0000  0.0000  0.0000  0.0000  0.0000 -0.8030  0.0000 -0.5960  0.0000 -0.0000      0.0000  0.0000  0.0000  0.0000  0.0000  0.0000  0.0000  0.0000  0.0000  0.0000
atom =   2  type =  1  l = 2
 
 onsite density matrix
 
spin component  1
 
  0.9719  0.0000 -0.0216  0.0000 -0.0000
  0.0000  0.9654  0.0000 -0.0189  0.0000
 -0.0216  0.0000  0.9588  0.0000 -0.0000
  0.0000 -0.0189  0.0000  0.9654  0.0000
 -0.0000  0.0000 -0.0000  0.0000  0.9467
 
spin component  2
 
  0.0532  0.0000 -0.0296  0.0000  0.0000
  0.0000  0.0432  0.0000 -0.0243  0.0000
 -0.0296  0.0000  0.0370  0.0000  0.0000
  0.0000 -0.0243  0.0000  0.0432  0.0000
  0.0000  0.0000  0.0000  0.0000  0.0161
 
 occupancies and eigenvectors
 
  o =  0.0145  v =  0.0000  0.0000  0.0000  0.0000  0.0000 -0.6069  0.0000 -0.7948  0.0000  0.0000      0.0000  0.0000  0.0000  0.0000  0.0000  0.0000  0.0000  0.0000  0.0000  0.0000
  o =  0.0161  v =  0.0000  0.0000  0.0000  0.0000  0.0000 -0.0000 -0.0000 -0.0000 -0.0000 -1.0000      0.0000  0.0000  0.0000  0.0000  0.0000  0.0000  0.0000  0.0000  0.0000  0.0000
  o =  0.0189  v =  0.0000  0.0000  0.0000  0.0000  0.0000  0.0000 -0.7071  0.0000 -0.7071  0.0000      0.0000  0.0000  0.0000  0.0000  0.0000  0.0000  0.0000  0.0000  0.0000  0.0000
  o =  0.0676  v =  0.0000  0.0000  0.0000  0.0000  0.0000  0.0000 -0.7071 -0.0000  0.7071  0.0000      0.0000  0.0000  0.0000  0.0000  0.0000  0.0000  0.0000  0.0000  0.0000  0.0000
  o =  0.0758  v =  0.0000  0.0000  0.0000  0.0000  0.0000 -0.7948 -0.0000  0.6069  0.0000  0.0000      0.0000  0.0000  0.0000  0.0000  0.0000  0.0000  0.0000  0.0000  0.0000  0.0000
  o =  0.9428  v = -0.5960  0.0000 -0.8030  0.0000 -0.0000  0.0000  0.0000  0.0000  0.0000  0.0000      0.0000  0.0000  0.0000  0.0000  0.0000  0.0000  0.0000  0.0000  0.0000  0.0000
  o =  0.9465  v =  0.0000 -0.7071  0.0000 -0.7071  0.0000  0.0000  0.0000  0.0000  0.0000  0.0000      0.0000  0.0000  0.0000  0.0000  0.0000  0.0000  0.0000  0.0000  0.0000  0.0000
  o =  0.9467  v =  0.0000  0.0000 -0.0000  0.0000  1.0000  0.0000  0.0000  0.0000  0.0000  0.0000      0.0000  0.0000  0.0000  0.0000  0.0000  0.0000  0.0000  0.0000  0.0000  0.0000
  o =  0.9843  v =  0.0000  0.7071  0.0000 -0.7071 -0.0000  0.0000  0.0000  0.0000  0.0000  0.0000      0.0000  0.0000  0.0000  0.0000  0.0000  0.0000  0.0000  0.0000  0.0000  0.0000
  o =  0.9880  v = -0.8030  0.0000  0.5960  0.0000  0.0000  0.0000  0.0000  0.0000  0.0000  0.0000      0.0000  0.0000  0.0000  0.0000  0.0000  0.0000  0.0000  0.0000  0.0000  0.0000
     EDDAV:  cpu time    0.5607: real time    0.5607
       DOS:  cpu time    0.0002: real time    0.0002
    CHARGE:  cpu time    0.0642: real time    0.0642
    MIXING:  cpu time    0.0019: real time    0.0019
    --------------------------------------------
      LOOP:  cpu time    0.8838: real time    0.8838

 eigenvalue-minimisations  :  1380
 total energy-change (2. order) : 0.4502501E-04  (-0.1565949E-03)
 number of electron      54.0000002 magnetization       0.0000000
 augmentation part       19.9622055 magnetization       0.0000000

 Broyden mixing:
  rms(total) = 0.14219E-01    rms(broyden)= 0.14219E-01
  rms(prec ) = 0.15525E-01
  weight for this iteration     100.00

 eigenvalues of (default mixing * dielectric matrix)
  average eigenvalue GAMMA=   1.1249
  2.5291  1.3402  0.8151  0.8151  0.6450  0.6049

 Free energy of the ion-electron system (eV)
[...]
     13      -3.6751      1.00000
     14      -3.5942      1.00000
     15      -3.4852      1.00000
     16      -3.2195      1.00000
     17      -2.7302      1.00000
     18      -2.5131      1.00000
     19      -2.4912      1.00000
     20      -1.9737      1.00000
     21      -1.8281      1.00000
     22      -1.7722      1.00000
     23      -0.0444      1.00000
     24       0.1521      1.00000
     25       0.4822      1.00000
     26       1.0580      1.00000
     27       1.4034      1.00000
     28       7.0414      0.00000
     29       7.0537      0.00000
     30       7.1685      0.00000
     31       7.9813      0.00000
     32       8.1927      0.00000
     33       8.8624      0.00000
     34      11.0309      0.00000
     35      12.4401      0.00000
     36      12.6800      0.00000

 k-point     8 :       0.3750    0.1250    0.4167
  band No.  band energies     occupation 
      1     -45.9967      1.00000
      2     -45.9664      1.00000
      3     -45.9400      1.00000
      4     -41.4086      1.00000
      5     -41.3880      1.00000
      6     -41.3537      1.00000
      7     -20.5235      1.00000
      8     -20.4574      1.00000
      9     -20.4071      1.00000
     10     -20.3173      1.00000
     11      -4.2283      1.00000
     12      -4.0908      1.00000
     13      -4.0091      1.00000
     14      -3.6958      1.00000
     15      -3.4551      1.00000
     16      -3.0378      1.00000
     17      -2.8583      1.00000
     18      -2.6912      1.00000
     19      -2.2303      1.00000
     20      -1.9318      1.00000
     21      -1.7078      1.00000
     22      -1.5820      1.00000
     23      -0.0349      1.00000
     24       0.0835      1.00000
     25       0.3741      1.00000
     26       1.0054      1.00000
     27       1.6070      1.00000
     28       7.0359      0.00000
     29       7.0426      0.00000
     30       7.2874      0.00000
     31       7.9054      0.00000
     32       8.4273      0.00000
     33       9.4113      0.00000
     34      10.7931      0.00000
     35      11.4116      0.00000
     36      12.4665      0.00000

 k-point     9 :       0.3750    0.3750    0.4167
  band No.  band energies     occupation 
      1     -45.9967      1.00000
      2     -45.9664      1.00000
      3     -45.9400      1.00000
      4     -41.4087      1.00000
      5     -41.3880      1.00000
      6     -41.3537      1.00000
      7     -20.4965      1.00000
      8     -20.4869      1.00000
      9     -20.4101      1.00000
     10     -20.3067      1.00000
     11      -4.5005      1.00000
     12      -4.2614      1.00000
     13      -3.9743      1.00000
     14      -3.9182      1.00000
     15      -3.4971      1.00000
     16      -3.0188      1.00000
     17      -2.7210      1.00000
     18      -2.4672      1.00000
     19      -2.0091      1.00000
     20      -1.7449      1.00000
     21      -1.6301      1.00000
     22      -1.5226      1.00000
     23      -0.0346      1.00000
     24       0.0819      1.00000
     25       0.3331      1.00000
     26       1.0561      1.00000
     27       1.5616      1.00000
     28       7.0384      0.00000
     29       7.0620      0.00000
     30       7.3199      0.00000
     31       7.8800      0.00000
     32       8.3087      0.00000
     33       9.9188      0.00000
     34      11.3628      0.00000
     35      11.3786      0.00000
     36      11.5440      0.00000


--------------------------------------------------------------------------------------------------------


 soft charge-density along one line, spin component           1
         0         1         2         3         4         5         6         7         8         9
 total charge-density along one line
 
 soft charge-density along one line, spin component           2
         0         1         2         3         4         5         6         7         8         9
 total charge-density along one line
 
 pseudopotential strength for first ion, spin component:           1
-41.911  -0.000  -0.031   7.909   0.000   0.012   0.000   0.000
 -0.000 -41.885  -0.000   0.000   7.899   0.000   0.000  -0.000
 -0.031  -0.000 -41.911   0.012   0.000   7.909  -0.000   0.000
  7.909   0.000   0.012   5.345  -0.000  -0.004  -0.000  -0.000
  0.000   7.899   0.000  -0.000   5.349  -0.000  -0.000  -0.000
  0.012   0.000   7.909  -0.004  -0.000   5.345  -0.000  -0.000
  0.000   0.000  -0.000  -0.000  -0.000  -0.000  -1.396  -0.000
  0.000  -0.000   0.000  -0.000  -0.000  -0.000  -0.000  -1.351
  0.000   0.000  -0.000   0.000  -0.000  -0.000  -0.074   0.000
  0.000  -0.000   0.000  -0.000  -0.000  -0.000  -0.000  -0.090
  0.000  -0.000  -0.000   0.000   0.000   0.000   0.000   0.000
  0.000   0.000  -0.000  -0.000  -0.000  -0.000  -1.838  -0.000
  0.000  -0.000   0.000  -0.000  -0.000  -0.000  -0.000  -1.793
  0.000   0.000  -0.000   0.000  -0.000  -0.000  -0.078   0.000
  0.000  -0.000   0.000  -0.000  -0.000  -0.000  -0.000  -0.092
  0.000  -0.000  -0.000   0.000   0.000   0.000   0.000   0.000
 -0.000  -0.000   0.000  -0.000  -0.000   0.000   0.006   0.000
 -0.000  -0.000   0.000  -0.000  -0.000   0.000   0.012   0.000
 pseudopotential strength for first ion, spin component:           2
-44.981  -0.000  -0.024   9.395   0.000   0.008   0.000   0.000
 -0.000 -44.962  -0.000   0.000   9.389   0.000   0.000  -0.000
 -0.024  -0.000 -44.981   0.008   0.000   9.395  -0.000   0.000
  9.395   0.000   0.008   4.850  -0.000  -0.003   0.000  -0.000
  0.000   9.389   0.000  -0.000   4.853  -0.000  -0.000  -0.000
  0.008   0.000   9.395  -0.003  -0.000   4.850  -0.000  -0.000
  0.000   0.000  -0.000   0.000  -0.000  -0.000  -7.400  -0.000
  0.000  -0.000   0.000  -0.000  -0.000  -0.000  -0.000  -7.369
  0.000   0.000  -0.000   0.000  -0.000  -0.000  -0.052   0.000
  0.000  -0.000   0.000  -0.000  -0.000  -0.000  -0.000  -0.073
  0.000  -0.000  -0.000   0.000   0.000  -0.000   0.000   0.000
  0.000   0.000  -0.000   0.000  -0.000  -0.000  -7.893  -0.000
  0.000  -0.000   0.000  -0.000  -0.000  -0.000  -0.000  -7.861
  0.000   0.000  -0.000   0.000  -0.000  -0.000  -0.055   0.000
  0.000  -0.000   0.000  -0.000  -0.000  -0.000  -0.000  -0.075
  0.000  -0.000  -0.000   0.000   0.000  -0.000   0.000   0.000
 -0.000  -0.000   0.000  -0.000  -0.000   0.000   0.004   0.000
 -0.000  -0.000   0.000  -0.000  -0.000   0.000   0.007   0.000
 total augmentation occupancy for first ion, spin component:           1
  1.998   0.000  -0.000  -0.013   0.000   0.000   0.000   0.000   0.000   0.000   0.000   0.000   0.000   0.000   0.000   0.000
  0.000   1.998   0.000   0.000  -0.013   0.000   0.000   0.000   0.000   0.000   0.000   0.000   0.000   0.000   0.000   0.000
 -0.000   0.000   1.998   0.000   0.000  -0.013   0.000   0.000   0.000   0.000   0.000   0.000   0.000   0.000   0.000   0.000
 -0.013   0.000   0.000   0.096   0.000  -0.010   0.000   0.000   0.000   0.000   0.000   0.000   0.000   0.000   0.000   0.000
  0.000  -0.013   0.000   0.000   0.108   0.000   0.000   0.000   0.000   0.000   0.000   0.000   0.000   0.000   0.000   0.000
  0.000   0.000  -0.013  -0.010   0.000   0.096   0.000   0.000   0.000   0.000   0.000   0.000   0.000   0.000   0.000   0.000
  0.000   0.000   0.000   0.000   0.000   0.000   8.330   0.000   3.359   0.000  -0.000  -6.401   0.000  -3.187   0.000   0.000
  0.000   0.000   0.000   0.000   0.000   0.000   0.000   6.971   0.000   2.901   0.000   0.000  -5.105   0.000  -2.740   0.000
  0.000   0.000   0.000   0.000   0.000   0.000   3.359   0.000   6.287   0.000   0.000  -3.188   0.000  -4.484   0.000  -0.000
  0.000   0.000   0.000   0.000   0.000   0.000   0.000   2.901   0.000   6.971   0.000   0.000  -2.740   0.000  -5.105   0.000
  0.000   0.000   0.000   0.000   0.000   0.000   0.000   0.000   0.000   0.000   3.951   0.000   0.000   0.000   0.000  -2.224
  0.000   0.000   0.000   0.000   0.000   0.000  -6.401   0.000  -3.188   0.000   0.000   5.643   0.000   3.059   0.000   0.000
  0.000   0.000   0.000   0.000   0.000   0.000   0.000  -5.105   0.000  -2.740   0.000   0.000   4.398   0.000   2.617   0.000
  0.000   0.000   0.000   0.000   0.000   0.000  -3.187   0.000  -4.484   0.000   0.000   3.059   0.000   3.826   0.000   0.000
  0.000   0.000   0.000   0.000   0.000   0.000   0.000  -2.740   0.000  -5.105   0.000   0.000   2.617   0.000   4.398   0.000
  0.000   0.000   0.000   0.000   0.000   0.000   0.000   0.000   0.000   0.000  -2.224   0.000   0.000   0.000   0.000   1.617
  0.000   0.000   0.000   0.000   0.000   0.000   0.260   0.000  -0.232   0.000  -0.000  -0.290   0.000   0.240   0.000   0.000
  0.000   0.000   0.000   0.000   0.000   0.000  -0.007   0.000   0.027   0.000   0.000   0.033   0.000  -0.038   0.000  -0.000
 total augmentation occupancy for first ion, spin component:           2
  0.004   0.000  -0.000   0.016   0.000  -0.000   0.000   0.000   0.000   0.000   0.000   0.000   0.000   0.000   0.000   0.000
  0.000   0.004   0.000   0.000   0.017   0.000   0.000   0.000   0.000   0.000   0.000   0.000   0.000   0.000   0.000   0.000
 -0.000   0.000   0.004  -0.000   0.000   0.016   0.000   0.000   0.000   0.000   0.000   0.000   0.000   0.000   0.000   0.000
  0.016   0.000  -0.000  -0.009   0.000  -0.000   0.000   0.000   0.000   0.000   0.000   0.000   0.000   0.000   0.000   0.000
  0.000   0.017   0.000   0.000  -0.009   0.000   0.000   0.000   0.000   0.000   0.000   0.000   0.000   0.000   0.000   0.000
 -0.000   0.000   0.016  -0.000   0.000  -0.009   0.000   0.000   0.000   0.000   0.000   0.000   0.000   0.000   0.000   0.000
  0.000   0.000   0.000   0.000   0.000   0.000  -5.654   0.000  -1.857   0.000   0.000   3.322   0.000   1.466   0.000   0.000
  0.000   0.000   0.000   0.000   0.000   0.000   0.000  -4.901   0.000  -1.631   0.000   0.000   2.708   0.000   1.287   0.000
  0.000   0.000   0.000   0.000   0.000   0.000  -1.857   0.000  -4.433   0.000   0.000   1.466   0.000   2.349   0.000   0.000
  0.000   0.000   0.000   0.000   0.000   0.000   0.000  -1.631   0.000  -4.901   0.000   0.000   1.287   0.000   2.708   0.000
  0.000   0.000   0.000   0.000   0.000   0.000  -0.000   0.000   0.000   0.000  -3.276   0.000   0.000  -0.000   0.000   1.424
  0.000   0.000   0.000   0.000   0.000   0.000   3.322   0.000   1.466   0.000   0.000  -2.090   0.000  -1.080   0.000  -0.000
  0.000   0.000   0.000   0.000   0.000   0.000   0.000   2.708   0.000   1.287   0.000   0.000  -1.616   0.000  -0.949   0.000
  0.000   0.000   0.000   0.000   0.000   0.000   1.466   0.000   2.349   0.000   0.000  -1.080   0.000  -1.361   0.000  -0.000
  0.000   0.000   0.000   0.000   0.000   0.000   0.000   1.287   0.000   2.708   0.000   0.000  -0.949   0.000  -1.616   0.000
  0.000   0.000   0.000   0.000   0.000   0.000   0.000   0.000   0.000   0.000   1.424   0.000   0.000   0.000   0.000  -0.670
  0.000   0.000   0.000   0.000   0.000   0.000   0.007   0.000   0.024   0.000  -0.000  -0.015   0.000  -0.005   0.000  -0.000
  0.000   0.000   0.000   0.000   0.000   0.000  -0.046   0.000   0.012   0.000  -0.000   0.027   0.000  -0.006   0.000   0.000


------------------------ aborting loop because EDIFF is reached ----------------------------------------


 


 total charge     
 
# of ion       s       p       d       tot
------------------------------------------
    1        0.178   6.172   4.979  11.329
    2        0.183   6.166   4.986  11.335
    3        1.721   4.365   0.000   6.087
    4        1.721   4.365   0.000   6.087
    5        1.721   4.361   0.000   6.082
    6        1.721   4.361   0.000   6.082
--------------------------------------------------
tot          7.245  29.792   9.965  47.001
 


 magnetization (x)
 
# of ion       s       p       d       tot
------------------------------------------
    1       -0.014  -0.015  -4.599  -4.627
    2        0.014   0.013   4.596   4.623
    3        0.002   0.021   0.000   0.023
    4        0.002   0.021   0.000   0.023
    5       -0.003  -0.017   0.000  -0.019
    6       -0.003  -0.017   0.000  -0.019
--------------------------------------------------
tot         -0.001   0.007  -0.003   0.003
 
    CHARGE:  cpu time    0.0654: real time    0.0654
    FORLOC:  cpu time    0.0021: real time    0.0021
    FORNL :  cpu time    0.3316: real time    0.3316
    STRESS:  cpu time    1.0063: real time    1.0064
    FORCOR:  cpu time    0.0068: real time    0.0068
    FORHAR:  cpu time    0.0036: real time    0.0036
    MIXING:  cpu time    0.0008: real time    0.0008
    OFIELD:  cpu time    0.0000: real time    0.0000

  FORCE on cell =-STRESS in cart. coord.  units (eV):
  Direction    XX          YY          ZZ          XY          YZ          ZX
  --------------------------------------------------------------------------------------
  Alpha Z   203.43844   203.43844   203.43844
  Ewald   -1605.46822 -1605.46822 -1038.41354     0.00000    -0.00000    -0.00000
  Hartree   576.21189   576.21189   956.39444    -0.00000    -0.00000    -0.00000
  E(xc)    -309.47348  -309.47348  -309.51811    -0.00000    -0.00000    -0.00000
  Local     184.34004   184.34004  -755.63525     0.00000    -0.00000    -0.00000
  n-local  -238.04640  -238.39449  -237.17551     0.02636     0.12022     0.12134
  augment   267.15500   267.15500   266.53794     0.00000    -0.00000    -0.00000
  Kinetic   921.63543   922.40579   914.36314    -0.50920    -0.95040    -1.00879
  Fock        0.00000     0.00000     0.00000     0.00000     0.00000     0.00000
  -------------------------------------------------------------------------------------
  Total       0.00383     0.00383    -0.00845    -0.00000     0.00000     0.00000
  in kB       0.08189     0.08189    -0.18085    -0.00000     0.00000     0.00000
  external pressure =       -0.01 kB  Pullay stress =        0.00 kB


 VOLUME and BASIS-vectors are now :
 -----------------------------------------------------------------------------
  energy-cutoff  :      800.00
  volume of cell :       74.89
      direct lattice vectors                 reciprocal lattice vectors
     4.800209288  0.000000000  0.000000000     0.208324250 -0.000000000  0.000000000
     0.000000000  4.800209288  0.000000000    -0.000000000  0.208324250  0.000000000
     0.000000000  0.000000000  3.250220626     0.000000000  0.000000000  0.307671421

  length of vectors
     4.800209288  4.800209288  3.250220626     0.208324250  0.208324250  0.307671421


 FORCES acting on ions
    electron-ion (+dipol)            ewald-force                    non-local-force                 convergence-correction
 -----------------------------------------------------------------------------------------------
   0.215E-11 0.524E-11 0.402E-11   0.284E-13 0.853E-13 0.347E-14   0.192E-26 0.000E+00 0.000E+00   0.145E-12 -.171E-12 0.332E-12
   -.688E-13 -.885E-13 0.436E-12   -.284E-13 -.568E-13 0.329E-14   -.195E-26 0.000E+00 0.000E+00   0.505E-13 0.108E-12 -.246E-12
   -.340E+02 0.340E+02 0.192E-12   0.353E+02 -.353E+02 0.330E-14   -.130E+01 0.130E+01 0.434E-18   -.570E-03 0.570E-03 0.479E-13
   0.340E+02 -.340E+02 -.560E-11   -.353E+02 0.353E+02 0.348E-14   0.130E+01 -.130E+01 -.434E-18   0.570E-03 -.570E-03 0.424E-12
   0.340E+02 0.340E+02 -.165E-07   -.353E+02 -.353E+02 -.818E-15   0.130E+01 0.130E+01 0.325E-18   0.570E-03 0.570E-03 -.260E-11
   -.340E+02 -.340E+02 0.165E-07   0.353E+02 0.353E+02 -.603E-15   -.130E+01 -.130E+01 -.325E-18   -.570E-03 -.570E-03 0.169E-11
 -----------------------------------------------------------------------------------------------
   -.113E-11 -.425E-11 0.598E-11   0.711E-14 0.000E+00 0.121E-13   0.000E+00 0.222E-15 0.000E+00   0.589E-13 0.426E-13 -.350E-12
 
 
 POSITION                                       TOTAL-FORCE (eV/Angst)
 -----------------------------------------------------------------------------------
      2.40010      2.40010      1.62511        -0.000000     -0.000000     -0.000000
     -0.00000     -0.00000     -0.00000        -0.000000     -0.000000     -0.000000
      0.94022      3.85999      1.62511        -0.001807      0.001807     -0.000000
      3.85999      0.94022      1.62511         0.001807     -0.001807     -0.000000
      1.45989      1.45989      0.00000         0.001807      0.001807      0.000000
      3.34032      3.34032     -0.00000        -0.001807     -0.001807     -0.000000
 -----------------------------------------------------------------------------------
    total drift:                               -0.000000     -0.000000      0.000000


--------------------------------------------------------------------------------------------------------



  FREE ENERGIE OF THE ION-ELECTRON SYSTEM (eV)
  ---------------------------------------------------
  free  energy   TOTEN  =       -40.18725254 eV

  energy  without entropy=      -40.18725254  energy(sigma->0) =      -40.18725254
 
 d Force = 0.4331968E-05[ 0.271E-05, 0.596E-05]  d Energy = 0.6418263E-05-0.209E-05
 d Force =-0.5277564E-01[-0.529E-01,-0.527E-01]  d Ewald  =-0.1739314E+00 0.121E+00


--------------------------------------------------------------------------------------------------------


    POTLOK:  cpu time    0.2562: real time    0.2562


--------------------------------------------------------------------------------------------------------


 Conjugate gradient step on ions:
 trial-energy change:   -0.000006  1 .order   -0.000006   -0.000009   -0.000004
  (g-gl).g = 0.885E-05      g.g   = 0.912E-05  gl.gl    = 0.393E-03
 g(Force)  = 0.610E-05   g(Stress)= 0.302E-05 ortho     = 0.269E-06
 gamma     =   0.02249
 trial     =   0.96151
 opt step  =   1.84061  (harmonic =   1.84061) maximal distance =0.00035850
 next E    =   -40.187255   (d E  =  -0.00001)


--------------------------------------------------------------------------------------------------------


  
 reached required accuracy - stopping structural energy minimisation
     LOOP+:  cpu time    6.3434: real time    6.3435
    4ORBIT:  cpu time    0.0000: real time    0.0000
 


 total charge     
 
# of ion       s       p       d       tot
------------------------------------------
    1        0.178   6.172   4.979  11.329
    2        0.183   6.166   4.986  11.335
    3        1.721   4.365   0.000   6.087
    4        1.721   4.365   0.000   6.087
    5        1.721   4.361   0.000   6.082
    6        1.721   4.361   0.000   6.082
--------------------------------------------------
tot          7.245  29.792   9.965  47.001
 


 magnetization (x)
 
# of ion       s       p       d       tot
------------------------------------------
    1       -0.014  -0.015  -4.599  -4.627
    2        0.014   0.013   4.596   4.623
    3        0.002   0.021   0.000   0.023
    4        0.002   0.021   0.000   0.023
    5       -0.003  -0.017   0.000  -0.019
    6       -0.003  -0.017   0.000  -0.019
--------------------------------------------------
tot         -0.001   0.007  -0.003   0.003
 

 total amount of memory used by VASP MPI-rank0    51435. kBytes
=======================================================================

   base      :      30000. kBytes
   nonl-proj :      10386. kBytes
   fftplans  :       3220. kBytes
   grid      :       4243. kBytes
   one-center:        186. kBytes
   wavefun   :       3400. kBytes
 
  
  
 General timing and accounting informations for this job:
 ========================================================
  
                  Total CPU time used (sec):       62.384
                            User time (sec):       51.025
                          System time (sec):       11.359
                         Elapsed time (sec):       62.467
  
                   Maximum memory used (kb):       80516.
                   Average memory used (kb):           0.
  
                          Minor page faults:        16752
                          Major page faults:            7
                 Voluntary context switches:          289
