       N       E                     dE             d eps       ncg     rms          rms(c)
DAV:   1     0.954024031854E+03    0.95402E+03   -0.37678E+04   876   0.199E+03
DAV:   2     0.402271254628E+03   -0.55175E+03   -0.52916E+03  1020   0.508E+02
DAV:   3     0.369533424881E+03   -0.32738E+02   -0.32524E+02   972   0.132E+02
DAV:   4     0.369125803628E+03   -0.40762E+00   -0.40721E+00  1056   0.162E+01
DAV:   5     0.369118914671E+03   -0.68890E-02   -0.68889E-02   972   0.193E+00    0.588E+01
DAV:   6    -0.688225796013E+02   -0.43794E+03   -0.28335E+02  1056   0.213E+02    0.628E+01
DAV:   7    -0.715077192529E+02   -0.26851E+01   -0.51333E+01   912   0.452E+01    0.172E+01
DAV:   8    -0.686549993891E+02    0.28527E+01   -0.71633E+00  1032   0.218E+01    0.661E+00
DAV:   9    -0.681657801798E+02    0.48922E+00   -0.49856E+00  1020   0.191E+01    0.817E+00
DAV:  10    -0.681093455298E+02    0.56435E-01   -0.43651E-01   960   0.562E+00    0.593E+00
DAV:  11    -0.680785964474E+02    0.30749E-01   -0.11160E+00  1020   0.780E+00    0.200E+00
DAV:  12    -0.680384182004E+02    0.40178E-01   -0.10708E-01  1056   0.326E+00    0.126E+00
DAV:  13    -0.680298995877E+02    0.85186E-02   -0.72576E-02   960   0.159E+00    0.105E+00
DAV:  14    -0.680249320041E+02    0.49676E-02   -0.52269E-02   864   0.250E+00    0.411E-01
DAV:  15    -0.680257589835E+02   -0.82698E-03   -0.38060E-03  1008   0.446E-01    0.400E-01
DAV:  16    -0.680250060568E+02    0.75293E-03   -0.28664E-03   948   0.365E-01    0.156E-01
DAV:  17    -0.680249219185E+02    0.84138E-04   -0.34742E-03   948   0.417E-01    0.115E-01
DAV:  18    -0.680247071917E+02    0.21473E-03   -0.20193E-04   864   0.104E-01    0.326E-02
DAV:  19    -0.680247084325E+02   -0.12408E-05   -0.10806E-04  1020   0.646E-02    0.704E-03
DAV:  20    -0.680247228461E+02   -0.14414E-04   -0.57253E-06   936   0.166E-02    0.750E-03
DAV:  21    -0.680247265839E+02   -0.37378E-05   -0.20392E-06   888   0.977E-03    0.334E-03
DAV:  22    -0.680247270933E+02   -0.50943E-06   -0.76305E-07  1020   0.479E-03    0.153E-03
DAV:  23    -0.680247295507E+02   -0.24574E-05   -0.83915E-08   612   0.200E-03    0.710E-04
DAV:  24    -0.680247307484E+02   -0.11977E-05   -0.33177E-08   432   0.136E-03    0.434E-04
DAV:  25    -0.680247307414E+02    0.70850E-08   -0.34139E-09   432   0.436E-04
   1 F= -.68024731E+02 E0= -.68024731E+02  d E =-.680247E+02  mag=     0.0000
