       N       E                     dE             d eps       ncg     rms          rms(c)
DAV:   1     0.747948523730E+03    0.74795E+03   -0.39568E+04  1296   0.229E+03
DAV:   2     0.166547398005E+02   -0.73129E+03   -0.70854E+03  1500   0.563E+02
DAV:   3    -0.393003192963E+02   -0.55955E+02   -0.55709E+02  1512   0.166E+02
DAV:   4    -0.401135953372E+02   -0.81328E+00   -0.81298E+00  1428   0.217E+01
DAV:   5    -0.401265243231E+02   -0.12929E-01   -0.12929E-01  1536   0.267E+00    0.224E+01
DAV:   6    -0.382327676971E+02    0.18938E+01   -0.15589E+01  1608   0.316E+01    0.142E+01
DAV:   7    -0.389509336261E+02   -0.71817E+00   -0.18294E+00  1536   0.108E+01    0.112E+01
DAV:   8    -0.390114920306E+02   -0.60558E-01   -0.41603E-01  1476   0.550E+00    0.521E+00
DAV:   9    -0.391706250601E+02   -0.15913E+00   -0.48901E-02  1332   0.219E+00    0.127E+00
DAV:  10    -0.391715931803E+02   -0.96812E-03   -0.19742E-02  1584   0.124E+00    0.281E-01
DAV:  11    -0.391718249944E+02   -0.23181E-03   -0.28307E-03  1380   0.356E-01    0.138E-01
DAV:  12    -0.391719734351E+02   -0.14844E-03   -0.10549E-04  1608   0.124E-01    0.551E-02
DAV:  13    -0.391720288923E+02   -0.55457E-04   -0.93426E-05  1368   0.560E-02    0.212E-02
DAV:  14    -0.391720373129E+02   -0.84206E-05   -0.82755E-06  1536   0.216E-02    0.921E-03
DAV:  15    -0.391720371073E+02    0.20558E-06   -0.15263E-06  1416   0.747E-03    0.272E-03
DAV:  16    -0.391720373813E+02   -0.27404E-06   -0.24226E-07  1452   0.291E-03    0.182E-03
DAV:  17    -0.391720373411E+02    0.40203E-07   -0.16887E-08   924   0.105E-03
   1 F= -.39172037E+02 E0= -.39172037E+02  d E =-.391720E+02  mag=     0.0000
