 vasp.5.4.4.18Apr17-6-g9f103f2a35 (build Apr 24 2018 11:19:41) complex          
  
 executed on         CrayXC-Intel date 2021.08.20  15:37:50
 running on  192 total cores
 distrk:  each k-point on   48 cores,    4 groups
 distr:  one band on NCORES_PER_BAND=  12 cores,    4 groups


--------------------------------------------------------------------------------------------------------


 INCAR:
 POTCAR:    PAW_PBE Mn_pv 02Aug2007               
 POTCAR:    PAW_PBE F 08Apr2002                   
 POTCAR:    PAW_PBE H 15Jun2001                   

 ----------------------------------------------------------------------------- 
|                                                                             |
|           W    W    AA    RRRRR   N    N  II  N    N   GGGG   !!!           |
|           W    W   A  A   R    R  NN   N  II  NN   N  G    G  !!!           |
|           W    W  A    A  R    R  N N  N  II  N N  N  G       !!!           |
|           W WW W  AAAAAA  RRRRR   N  N N  II  N  N N  G  GGG   !            |
|           WW  WW  A    A  R   R   N   NN  II  N   NN  G    G                |
|           W    W  A    A  R    R  N    N  II  N    N   GGGG   !!!           |
|                                                                             |
|      You have enabled k-point parallelism (KPAR>1).                         |
|      This developmental code was originally  written by Paul Kent at ORNL,  |
|      and carefully double checked in Vienna.                                |
|      GW as well as linear response parallelism added by Martijn Marsman     |
|      and Georg Kresse.                                                      |
|      Carefully verify results versus KPAR=1.                                |
|      Report problems to Paul Kent and Vienna.                               |
|                                                                             |
 ----------------------------------------------------------------------------- 

 POTCAR:    PAW_PBE Mn_pv 02Aug2007               
   VRHFIN =Mn: 3p4s3d                                                           
   LEXCH  = PE                                                                  
   EATOM  =  2025.2664 eV,  148.8529 Ry                                         
                                                                                
   TITEL  = PAW_PBE Mn_pv 02Aug2007                                             
   LULTRA =        F    use ultrasoft PP ?                                      
   IUNSCR =        1    unscreen: 0-lin 1-nonlin 2-no                           
   RPACOR =    2.080    partial core radius                                     
   POMASS =   54.938; ZVAL   =   13.000    mass and valenz                      
   RCORE  =    2.300    outmost cutoff radius                                   
   RWIGS  =    2.500; RWIGS  =    1.323    wigner-seitz radius (au A)           
   ENMAX  =  269.864; ENMIN  =  202.398 eV                                      
   ICORE  =        3    local potential                                         
   LCOR   =        T    correct aug charges                                     
   LPAW   =        T    paw PP                                                  
   EAUG   =  569.085                                                            
   DEXC   =    0.000                                                            
   RMAX   =    2.343    core radius for proj-oper                               
   RAUG   =    1.300    factor for augmentation sphere                          
   RDEP   =    2.338    radius for radial grids                                 
   RDEPT  =    1.798    core radius for aug-charge                              
                                                                                
   Atomic configuration                                                         
    8 entries                                                                   
     n  l   j            E        occ.                                          
     1  0  0.50     -6424.8287   2.0000                                         
     2  0  0.50      -739.1154   2.0000                                         
     2  1  1.50      -625.3949   6.0000                                         
     3  0  0.50       -81.6100   2.0000                                         
     3  1  1.50       -50.4667   6.0000                                         
     3  2  2.50        -3.3745   6.0000                                         
     4  0  0.50        -4.1331   1.0000                                         
     4  3  2.50        -1.3606   0.0000                                         
   Description                                                                  
     l       E           TYP  RCUT    TYP  RCUT                                 
     1    -50.4666628     23  2.000                                             
     1     -1.3605826     23  2.000                                             
     2     -3.3744729     23  2.300                                             
     2     -4.7350555     23  2.300                                             
     0     -4.1331431     23  2.300                                             
     0      7.6656591     23  2.300                                             
     3      9.5240782     23  2.300                                             
  local pseudopotential read in
  partial core-charges read in
  partial kinetic energy density read in
  atomic valenz-charges read in
  non local Contribution for L=           1  read in
    real space projection operators read in
  non local Contribution for L=           1  read in
    real space projection operators read in
  non local Contribution for L=           2  read in
    real space projection operators read in
  non local Contribution for L=           2  read in
    real space projection operators read in
  non local Contribution for L=           0  read in
    real space projection operators read in
  non local Contribution for L=           0  read in
    real space projection operators read in
    PAW grid and wavefunctions read in
 
   number of l-projection  operators is LMAX  =           6
   number of lm-projection operators is LMMAX =          18
 
 POTCAR:    PAW_PBE F 08Apr2002                   
   VRHFIN =F: s2p5                                                              
   LEXCH  = PE                                                                  
   EATOM  =   659.6475 eV,   48.4827 Ry                                         
                                                                                
   TITEL  = PAW_PBE F 08Apr2002                                                 
   LULTRA =        F    use ultrasoft PP ?                                      
   IUNSCR =        1    unscreen: 0-lin 1-nonlin 2-no                           
   RPACOR =    1.200    partial core radius                                     
   POMASS =   18.998; ZVAL   =    7.000    mass and valenz                      
   RCORE  =    1.520    outmost cutoff radius                                   
   RWIGS  =    1.500; RWIGS  =    0.794    wigner-seitz radius (au A)           
   ENMAX  =  400.000; ENMIN  =  300.000 eV                                      
   ICORE  =        2    local potential                                         
   LCOR   =        T    correct aug charges                                     
   LPAW   =        T    paw PP                                                  
   EAUG   =  613.614                                                            
   RMAX   =    1.555    core radius for proj-oper                               
   RAUG   =    1.300    factor for augmentation sphere                          
   RDEP   =    1.539    radius for radial grids                                 
   RDEPT  =    1.299    core radius for aug-charge                              
                                                                                
   Atomic configuration                                                         
    4 entries                                                                   
     n  l   j            E        occ.                                          
     1  0  0.50      -663.3661   2.0000                                         
     2  0  0.50       -29.8995   2.0000                                         
     2  1  0.50       -11.1114   5.0000                                         
     3  2  1.50       -10.8847   0.0000                                         
   Description                                                                  
     l       E           TYP  RCUT    TYP  RCUT                                 
     0    -29.8995018     23  1.200                                             
     0     -9.5240782     23  1.200                                             
     1    -11.1113914     23  1.520                                             
     1      1.3605826     23  1.520                                             
     2    -10.8846608      7  1.500                                             
  local pseudopotential read in
  partial core-charges read in
  partial kinetic energy density read in
  atomic valenz-charges read in
  non local Contribution for L=           0  read in
    real space projection operators read in
  non local Contribution for L=           0  read in
    real space projection operators read in
  non local Contribution for L=           1  read in
    real space projection operators read in
  non local Contribution for L=           1  read in
    real space projection operators read in
    PAW grid and wavefunctions read in
 
   number of l-projection  operators is LMAX  =           4
   number of lm-projection operators is LMMAX =           8
 
 POTCAR:    PAW_PBE H 15Jun2001                   
   VRHFIN =H: ultrasoft test                                                    
   LEXCH  = PE                                                                  
   EATOM  =    12.4884 eV,    0.9179 Ry                                         
                                                                                
   TITEL  = PAW_PBE H 15Jun2001                                                 
   LULTRA =        F    use ultrasoft PP ?                                      
   IUNSCR =        0    unscreen: 0-lin 1-nonlin 2-no                           
   RPACOR =    0.000    partial core radius                                     
   POMASS =    1.000; ZVAL   =    1.000    mass and valenz                      
   RCORE  =    1.100    outmost cutoff radius                                   
   RWIGS  =    0.700; RWIGS  =    0.370    wigner-seitz radius (au A)           
   ENMAX  =  250.000; ENMIN  =  200.000 eV                                      
   RCLOC  =    0.701    cutoff for local pot                                    
   LCOR   =        T    correct aug charges                                     
   LPAW   =        T    paw PP                                                  
   EAUG   =  400.000                                                            
   RMAX   =    1.123    core radius for proj-oper                               
   RAUG   =    1.200    factor for augmentation sphere                          
   RDEP   =    1.112    radius for radial grids                                 
   RDEPT  =    0.926    core radius for aug-charge                              
                                                                                
   Atomic configuration                                                         
    2 entries                                                                   
     n  l   j            E        occ.                                          
     1  0  0.50        -6.4927   1.0000                                         
     2  1  0.50        -3.4015   0.0000                                         
   Description                                                                  
     l       E           TYP  RCUT    TYP  RCUT                                 
     0     -6.4927494     23  1.100                                             
     0      6.8029130     23  1.100                                             
     1     -4.0817478     23  1.100                                             
  local pseudopotential read in
  atomic valenz-charges read in
  non local Contribution for L=           0  read in
    real space projection operators read in
  non local Contribution for L=           0  read in
    real space projection operators read in
  non local Contribution for L=           1  read in
    real space projection operators read in
    PAW grid and wavefunctions read in
 
   number of l-projection  operators is LMAX  =           3
   number of lm-projection operators is LMMAX =           5
 

 ----------------------------------------------------------------------------- 
|                                                                             |
|  ADVICE TO THIS USER RUNNING 'VASP/VAMP'   (HEAR YOUR MASTER'S VOICE ...):  |
|                                                                             |
|      You have a (more or less) 'large supercell' and for larger cells       |
|      it might be more efficient to use real space projection opertators     |
|      So try LREAL= Auto  in the INCAR   file.                               |
|      Mind:          For very  accurate calculation you might also keep the  |
|      reciprocal projection scheme          (i.e. LREAL=.FALSE.)             |
|                                                                             |
 ----------------------------------------------------------------------------- 


 ----------------------------------------------------------------------------- 
|                                                                             |
|  ADVICE TO THIS USER RUNNING 'VASP/VAMP'   (HEAR YOUR MASTER'S VOICE ...):  |
|                                                                             |
|      You enforced a specific xc-type in the INCAR file,                     |
|      a different type was found on the POTCAR file                          |
|          I HOPE YOU KNOW, WHAT YOU ARE  DOING                               |
|                                                                             |
 ----------------------------------------------------------------------------- 

  PAW_PBE Mn_pv 02Aug2007               :
 energy of atom  1       EATOM=-2025.2664
 kinetic energy error for atom=    0.0020 (will be added to EATOM!!)
  PAW_PBE F 08Apr2002                   :
 energy of atom  2       EATOM= -659.6475
 kinetic energy error for atom=    0.0140 (will be added to EATOM!!)
  PAW_PBE H 15Jun2001                   :
 energy of atom  3       EATOM=  -12.4884
 kinetic energy error for atom=    0.0002 (will be added to EATOM!!)
 
 
 POSCAR: Mn  F  H                                
  positions in direct lattice
  velocities in cartesian coordinates
 exchange correlation table for  LEXCH =       14
   RHO(1)=    0.500       N(1)  =     2000
   RHO(2)=  100.500       N(2)  =     4000
 


--------------------------------------------------------------------------------------------------------


 ion  position               nearest neighbor table
   1  0.151  0.151  0.125- 217 1.88  74 2.11  73 2.11  79 2.25  75 2.25  76 2.28  80 2.28
   2  0.004  0.004  0.010- 217 1.91  75 2.13 204 2.17 182 2.21 117 2.21 105 2.22 170 2.22   4 3.03

   3  0.175  0.175  0.379-  79 2.00  84 2.09  80 2.13  78 2.13  77 2.13  83 2.18
   4  0.003  0.004  0.240- 217 1.91  79 2.13 208 2.17 174 2.21 109 2.21 105 2.22 170 2.22   2 3.03

   5  0.166  0.166  0.625-  87 2.09  83 2.09  82 2.12  81 2.12  84 2.13  88 2.13
   6  0.002  0.002  0.496-  83 2.11 212 2.12 109 2.12 174 2.12 113 2.16 178 2.16
   7  0.175  0.175  0.871-  75 2.00  88 2.09  76 2.13  85 2.13  86 2.13  87 2.18
   8  0.002  0.002  0.754-  87 2.11 216 2.12 117 2.12 182 2.12 113 2.16 178 2.16
   9  0.167  0.500  0.125-  89 2.10  90 2.10  95 2.13  91 2.13  92 2.14  96 2.14
  10  0.001  0.331  0.000- 172 2.11  91 2.11  73 2.12  85 2.13 186 2.14 198 2.14
  11  0.166  0.499  0.375-  93 2.10  94 2.11  95 2.13  99 2.13  96 2.13 100 2.14
  12  0.001  0.331  0.250- 176 2.11  95 2.11  73 2.12  77 2.13 186 2.14 190 2.14
  13  0.168  0.502  0.625-  97 2.10  98 2.10  99 2.12 103 2.12 104 2.13 100 2.13
  14  1.000  0.334  0.500- 180 2.10  77 2.11  99 2.11  81 2.13 194 2.13 190 2.14
  15  0.166  0.499  0.875- 101 2.10 102 2.11  91 2.13 103 2.13  92 2.13 104 2.14
  16  1.000  0.334  0.750- 184 2.10  85 2.11 103 2.11  81 2.13 194 2.13 198 2.14
  17  0.165  0.829  0.125- 105 2.04 106 2.10 107 2.15 111 2.15 112 2.15 108 2.15
  18  1.000  0.666  1.000- 107 2.09 188 2.10 202 2.12 214 2.13  89 2.14 101 2.14
  19  0.166  0.834  0.375- 109 2.08 111 2.12 110 2.12 112 2.13 116 2.14 115 2.14
  20  1.000  0.666  0.250- 111 2.09 192 2.10 202 2.12 206 2.13  89 2.14  93 2.14
  21  0.166  0.835  0.625- 113 2.10 114 2.12 119 2.13 115 2.13 116 2.13 120 2.13
  22  0.000  0.667  0.500- 115 2.10 196 2.11 206 2.12  93 2.13  97 2.13 210 2.13
  23  0.166  0.834  0.875- 117 2.08 107 2.12 118 2.12 108 2.13 120 2.14 119 2.14
  24  0.000  0.667  0.750- 119 2.10 200 2.11 214 2.12 101 2.13  97 2.13 210 2.13
  25  0.500  0.167  0.125- 122 2.10 121 2.10 123 2.13 127 2.13 128 2.14 124 2.14
  26  0.331  0.001  0.000- 108 2.11 123 2.11  74 2.12  86 2.13 153 2.14 165 2.14
  27  0.499  0.166  0.375- 126 2.10 125 2.11 127 2.13 131 2.13 128 2.13 132 2.14
  28  0.331  0.001  0.250- 112 2.11 127 2.11  74 2.12  78 2.13 153 2.14 157 2.14
  29  0.502  0.168  0.625- 130 2.10 129 2.10 135 2.12 131 2.12 132 2.13 136 2.13
  30  0.334  1.000  0.500- 116 2.10  78 2.11 131 2.11  82 2.13 161 2.13 157 2.14
  31  0.499  0.166  0.875- 134 2.10 133 2.11 123 2.13 135 2.13 124 2.13 136 2.14
  32  0.335  1.000  0.750- 120 2.11  86 2.11 135 2.11  82 2.13 161 2.13 165 2.14
  33  0.499  0.499  0.125- 137 2.10 138 2.10 143 2.14 139 2.14 140 2.14 144 2.14
  34  0.332  0.331  0.001-  76 2.09 121 2.13  90 2.13 139 2.13 102 2.14 133 2.14
  35  0.502  0.502  0.374- 142 2.10 141 2.10 144 2.12 147 2.13 143 2.13 148 2.14
  36  0.332  0.331  0.249-  80 2.09  90 2.13 121 2.13 143 2.13 125 2.14  94 2.14
  37  0.502  0.502  0.625- 145 2.11 146 2.11 152 2.13 148 2.13 151 2.13 147 2.13
  38  0.337  0.336  0.500- 147 2.09  84 2.09  98 2.13 129 2.13 125 2.13  94 2.13
  39  0.502  0.501  0.876- 150 2.10 149 2.10 140 2.12 151 2.13 139 2.13 152 2.14
  40  0.337  0.336  0.750- 151 2.09  88 2.09 129 2.13  98 2.13 133 2.13 102 2.13
  41  0.499  0.834  0.125- 153 2.10 154 2.11 160 2.13 156 2.13 155 2.13 159 2.13
  42  0.333  0.667  1.000-  92 2.10 155 2.10 106 2.12 149 2.13 118 2.13 137 2.14
  43  0.500  0.833  0.375- 157 2.10 158 2.11 160 2.12 159 2.13 163 2.13 164 2.13
  44  0.333  0.667  0.250-  96 2.10 159 2.10 106 2.12 141 2.13 110 2.13 137 2.14
  45  0.501  0.833  0.625- 161 2.10 162 2.10 164 2.13 168 2.13 163 2.13 167 2.13
  46  0.333  0.668  0.500- 100 2.10 163 2.10 110 2.12 114 2.13 141 2.14 145 2.14
  47  0.500  0.833  0.875- 165 2.10 166 2.11 156 2.12 155 2.13 167 2.13 168 2.13
  48  0.333  0.668  0.750- 104 2.10 167 2.10 118 2.12 114 2.13 149 2.14 145 2.14
  49  0.829  0.164  0.125- 170 2.04 169 2.10 175 2.15 171 2.15 172 2.15 176 2.15
  50  0.666  1.000  1.000- 171 2.09 156 2.10 201 2.12 213 2.13 122 2.14 134 2.14
  51  0.834  0.166  0.375- 174 2.08 175 2.12 173 2.12 176 2.13 180 2.14 179 2.14
  52  0.666  1.000  0.250- 175 2.09 160 2.10 201 2.12 205 2.13 122 2.14 126 2.14
  53  0.835  0.166  0.625- 178 2.10 177 2.12 179 2.13 183 2.13 184 2.13 180 2.13
  54  0.667  0.000  0.500- 179 2.10 164 2.11 205 2.12 126 2.13 130 2.13 209 2.13
  55  0.834  0.166  0.875- 182 2.08 171 2.12 181 2.12 172 2.13 184 2.14 183 2.14
  56  0.667  0.000  0.750- 183 2.10 168 2.11 213 2.12 134 2.13 130 2.13 209 2.13
  57  0.834  0.499  0.125- 186 2.10 185 2.11 192 2.13 188 2.13 191 2.13 187 2.13
  58  0.667  0.333  1.000- 124 2.10 187 2.10 169 2.12 150 2.13 181 2.13 138 2.14
  59  0.833  0.500  0.375- 190 2.10 189 2.11 192 2.12 191 2.13 195 2.13 196 2.13
  60  0.667  0.333  0.250- 128 2.10 191 2.10 169 2.12 142 2.13 173 2.13 138 2.14
  61  0.833  0.501  0.625- 194 2.10 193 2.10 200 2.13 196 2.13 195 2.13 199 2.13
  62  0.668  0.333  0.500- 132 2.10 195 2.10 173 2.12 177 2.13 142 2.14 146 2.14
  63  0.833  0.500  0.875- 198 2.10 197 2.11 188 2.12 187 2.13 199 2.13 200 2.13
  64  0.668  0.333  0.750- 136 2.10 199 2.10 181 2.12 177 2.13 146 2.14 150 2.14
  65  0.840  0.840  0.125- 208 2.11 204 2.11 201 2.12 202 2.12 203 2.18 207 2.18
  66  0.669  0.669  0.001- 203 2.10 140 2.13 154 2.13 185 2.13 166 2.14 197 2.14
  67  0.835  0.835  0.375- 208 2.08 206 2.11 205 2.11 212 2.14 211 2.14 207 2.14
  68  0.669  0.669  0.249- 207 2.10 144 2.13 154 2.13 185 2.13 158 2.14 189 2.14
  69  0.835  0.835  0.625- 209 2.11 210 2.11 216 2.11 212 2.11 211 2.14 215 2.14
  70  0.668  0.668  0.500- 211 2.10 148 2.10 189 2.13 158 2.13 162 2.13 193 2.13
  71  0.835  0.835  0.875- 204 2.08 214 2.11 213 2.11 216 2.14 215 2.14 203 2.14
  72  0.668  0.668  0.751- 215 2.10 152 2.10 197 2.13 166 2.13 162 2.13 193 2.13
  73  0.064  0.266  0.125-   1 2.11  10 2.12  12 2.12
  74  0.266  0.064  0.125-   1 2.11  28 2.12  26 2.12
  75  0.104  0.103  0.972-   7 2.00   2 2.13   1 2.25
  76  0.231  0.231  0.006-  34 2.09   7 2.13   1 2.28
  77  0.070  0.275  0.377-  14 2.11  12 2.13   3 2.13
  78  0.275  0.070  0.377-  30 2.11  28 2.13   3 2.13
  79  0.104  0.103  0.278-   3 2.00   4 2.13   1 2.25
  80  0.231  0.231  0.244-  36 2.09   3 2.13   1 2.28
  81  0.065  0.270  0.625-   5 2.12  16 2.13  14 2.13
  82  0.270  0.065  0.625-   5 2.12  30 2.13  32 2.13
  83  0.104  0.104  0.500-   5 2.09   6 2.11   3 2.18
  84  0.236  0.236  0.506-  38 2.09   3 2.09   5 2.13
  85  0.070  0.275  0.873-  16 2.11  10 2.13   7 2.13
  86  0.275  0.070  0.873-  32 2.11  26 2.13   7 2.13
  87  0.104  0.104  0.750-   5 2.09   8 2.11   7 2.18
  88  0.236  0.236  0.744-  40 2.09   7 2.09   5 2.13
  89  0.064  0.600  0.125-   9 2.10  20 2.14  18 2.14
  90  0.270  0.402  0.125-   9 2.10  36 2.13  34 2.13
  91  0.102  0.435  0.001-  10 2.11  15 2.13   9 2.13
  92  0.232  0.565  0.999-  42 2.10  15 2.13   9 2.14
  93  0.064  0.599  0.376-  11 2.10  22 2.13  20 2.14
  94  0.268  0.397  0.375-  11 2.11  38 2.13  36 2.14
  95  0.102  0.435  0.249-  12 2.11  11 2.13   9 2.13
  96  0.232  0.565  0.251-  44 2.10  11 2.13   9 2.14
  97  0.066  0.602  0.625-  13 2.10  24 2.13  22 2.13
  98  0.272  0.403  0.625-  13 2.10  40 2.13  38 2.13
  99  0.101  0.436  0.502-  14 2.11  13 2.12  11 2.13
 100  0.232  0.566  0.499-  46 2.10  13 2.13  11 2.14
 101  0.064  0.599  0.874-  15 2.10  24 2.13  18 2.14
 102  0.268  0.397  0.875-  15 2.11  40 2.13  34 2.14
 103  0.102  0.436  0.748-  16 2.11  13 2.12  15 2.13
 104  0.232  0.566  0.751-  48 2.10  13 2.13  15 2.14
 105  0.046  0.901  0.125-  17 2.04   2 2.22   4 2.22
 106  0.270  0.732  0.125-  17 2.10  44 2.12  42 2.12
 107  0.108  0.759  0.997-  18 2.09  23 2.12  17 2.15
 108  0.229  0.900  0.002-  26 2.11  23 2.13  17 2.15
 109  0.063  0.933  0.372-  19 2.08   6 2.12   4 2.21
 110  0.270  0.734  0.376-  19 2.12  46 2.12  44 2.13
 111  0.108  0.759  0.253-  20 2.09  19 2.12  17 2.15
 112  0.229  0.900  0.248-  28 2.11  19 2.13  17 2.15
 113  0.066  0.937  0.625-  21 2.10   8 2.16   6 2.16
 114  0.268  0.733  0.625-  21 2.12  46 2.13  48 2.13
 115  0.102  0.768  0.501-  22 2.10  21 2.13  19 2.14
 116  0.232  0.899  0.500-  30 2.10  21 2.13  19 2.14
 117  0.063  0.932  0.878-  23 2.08   8 2.12   2 2.21
 118  0.270  0.734  0.874-  23 2.12  48 2.12  42 2.13
 119  0.102  0.768  0.749-  24 2.10  21 2.13  23 2.14
 120  0.232  0.899  0.750-  32 2.11  21 2.13  23 2.14
 121  0.402  0.270  0.125-  25 2.10  34 2.13  36 2.13
 122  0.600  0.064  0.125-  25 2.10  52 2.14  50 2.14
 123  0.435  0.101  0.001-  26 2.11  31 2.13  25 2.13
 124  0.565  0.232  0.999-  58 2.10  31 2.13  25 2.14
 125  0.397  0.268  0.375-  27 2.11  38 2.13  36 2.14
 126  0.599  0.063  0.376-  27 2.10  54 2.13  52 2.14
 127  0.435  0.101  0.249-  28 2.11  27 2.13  25 2.13
 128  0.565  0.232  0.251-  60 2.10  27 2.13  25 2.14
 129  0.403  0.272  0.625-  29 2.10  40 2.13  38 2.13
 130  0.602  0.066  0.625-  29 2.10  54 2.13  56 2.13
 131  0.436  0.101  0.502-  30 2.11  29 2.12  27 2.13
 132  0.566  0.232  0.499-  62 2.10  29 2.13  27 2.14
 133  0.397  0.268  0.875-  31 2.11  40 2.13  34 2.14
 134  0.599  0.063  0.874-  31 2.10  56 2.13  50 2.14
 135  0.436  0.101  0.748-  32 2.11  29 2.12  31 2.13
 136  0.566  0.232  0.751-  64 2.10  29 2.13  31 2.14
 137  0.398  0.601  0.125-  33 2.10  42 2.14  44 2.14
 138  0.601  0.398  0.125-  33 2.10  60 2.14  58 2.14
 139  0.435  0.434  0.999-  39 2.13  34 2.13  33 2.14
 140  0.566  0.566  0.001-  39 2.12  66 2.13  33 2.14
 141  0.399  0.602  0.375-  35 2.10  44 2.13  46 2.14
 142  0.602  0.399  0.375-  35 2.10  60 2.13  62 2.14
 143  0.435  0.434  0.251-  35 2.13  36 2.13  33 2.14
 144  0.566  0.566  0.249-  35 2.12  68 2.13  33 2.14
 145  0.399  0.602  0.625-  37 2.11  48 2.14  46 2.14
 146  0.602  0.399  0.625-  37 2.11  64 2.14  62 2.14
 147  0.437  0.437  0.500-  38 2.09  35 2.13  37 2.13
 148  0.567  0.567  0.499-  70 2.10  37 2.13  35 2.14
 149  0.399  0.602  0.875-  39 2.10  42 2.13  48 2.14
 150  0.602  0.399  0.875-  39 2.10  58 2.13  64 2.14
 151  0.437  0.437  0.750-  40 2.09  39 2.13  37 2.13
 152  0.567  0.567  0.751-  72 2.10  37 2.13  39 2.14
 153  0.398  0.935  0.125-  41 2.10  28 2.14  26 2.14
 154  0.601  0.732  0.125-  41 2.11  68 2.13  66 2.13
 155  0.435  0.768  0.000-  42 2.10  47 2.13  41 2.13
 156  0.564  0.898  1.000-  50 2.10  47 2.12  41 2.13
 157  0.398  0.934  0.374-  43 2.10  30 2.14  28 2.14
 158  0.602  0.733  0.375-  43 2.11  70 2.13  68 2.14
 159  0.435  0.768  0.250-  44 2.10  43 2.13  41 2.13
 160  0.564  0.898  0.250-  52 2.10  43 2.12  41 2.13
 161  0.399  0.934  0.625-  45 2.10  32 2.13  30 2.13
 162  0.603  0.732  0.625-  45 2.10  72 2.13  70 2.13
 163  0.436  0.768  0.500-  46 2.10  45 2.13  43 2.13
 164  0.565  0.899  0.500-  54 2.11  45 2.13  43 2.13
 165  0.398  0.934  0.876-  47 2.10  32 2.14  26 2.14
 166  0.602  0.733  0.875-  47 2.11  72 2.13  66 2.14
 167  0.436  0.768  0.750-  48 2.10  45 2.13  47 2.13
 168  0.565  0.899  0.750-  56 2.11  45 2.13  47 2.13
 169  0.732  0.270  0.125-  49 2.10  58 2.12  60 2.12
 170  0.901  0.045  0.125-  49 2.04   4 2.22   2 2.22
 171  0.759  0.108  0.997-  50 2.09  55 2.12  49 2.15
 172  0.900  0.229  0.002-  10 2.11  55 2.13  49 2.15
 173  0.734  0.270  0.376-  51 2.12  62 2.12  60 2.13
 174  0.933  0.063  0.372-  51 2.08   6 2.12   4 2.21
 175  0.759  0.108  0.253-  52 2.09  51 2.12  49 2.15
 176  0.900  0.229  0.248-  12 2.11  51 2.13  49 2.15
 177  0.733  0.268  0.625-  53 2.12  64 2.13  62 2.13
 178  0.937  0.066  0.625-  53 2.10   8 2.16   6 2.16
 179  0.768  0.102  0.501-  54 2.10  53 2.13  51 2.14
 180  0.899  0.232  0.500-  14 2.10  53 2.13  51 2.14
 181  0.734  0.270  0.874-  55 2.12  64 2.12  58 2.13
 182  0.933  0.063  0.878-  55 2.08   8 2.12   2 2.21
 183  0.768  0.102  0.749-  56 2.10  53 2.13  55 2.14
 184  0.899  0.232  0.750-  16 2.10  53 2.13  55 2.14
 185  0.733  0.601  0.125-  57 2.11  68 2.13  66 2.13
 186  0.935  0.397  0.125-  57 2.10  10 2.14  12 2.14
 187  0.768  0.435  0.000-  58 2.10  63 2.13  57 2.13
 188  0.899  0.564  1.000-  18 2.10  63 2.12  57 2.13
 189  0.733  0.602  0.375-  59 2.11  70 2.13  68 2.14
 190  0.934  0.398  0.374-  59 2.10  14 2.14  12 2.14
 191  0.768  0.435  0.250-  60 2.10  59 2.13  57 2.13
 192  0.899  0.564  0.250-  20 2.10  59 2.12  57 2.13
 193  0.732  0.602  0.625-  61 2.10  72 2.13  70 2.13
 194  0.934  0.399  0.625-  61 2.10  14 2.13  16 2.13
 195  0.768  0.436  0.500-  62 2.10  61 2.13  59 2.13
 196  0.899  0.565  0.500-  22 2.11  61 2.13  59 2.13
 197  0.733  0.602  0.875-  63 2.11  72 2.13  66 2.14
 198  0.934  0.398  0.876-  63 2.10  16 2.14  10 2.14
 199  0.768  0.436  0.750-  64 2.10  61 2.13  63 2.13
 200  0.899  0.565  0.750-  24 2.11  61 2.13  63 2.13
 201  0.730  0.934  0.125-  65 2.12  52 2.12  50 2.12
 202  0.934  0.730  0.125-  65 2.12  18 2.12  20 2.12
 203  0.770  0.770  0.002-  66 2.10  71 2.14  65 2.18
 204  0.899  0.899  0.995-  71 2.08  65 2.11   2 2.17
 205  0.731  0.935  0.375-  67 2.11  54 2.12  52 2.13
 206  0.935  0.731  0.376-  67 2.11  22 2.12  20 2.13
 207  0.770  0.770  0.248-  68 2.10  67 2.14  65 2.18
 208  0.899  0.899  0.255-  67 2.08  65 2.11   4 2.17
 209  0.732  0.935  0.625-  69 2.11  54 2.13  56 2.13
 210  0.935  0.731  0.625-  69 2.11  24 2.13  22 2.13
 211  0.769  0.769  0.500-  70 2.10  67 2.14  69 2.14
 212  0.900  0.900  0.501-  69 2.11   6 2.12  67 2.14
 213  0.731  0.935  0.875-  71 2.11  56 2.12  50 2.13
 214  0.935  0.731  0.875-  71 2.11  24 2.12  18 2.13
 215  0.769  0.769  0.750-  72 2.10  71 2.14  69 2.14
 216  0.900  0.900  0.749-  69 2.11   8 2.12  71 2.14
 217  0.059  0.060  0.125-   1 1.88   2 1.91   4 1.91
 

IMPORTANT INFORMATION: All symmetrisations will be switched off!
NOSYMM: (Re-)initialisation of all symmetry stuff for point group C_1.

 
 
 KPOINTS: KPOINTS created by Atomic Simulation Env

Automatic generation of k-mesh.
Space group operators:
 irot       det(A)        alpha          n_x          n_y          n_z        tau_x        tau_y        tau_z
    1     1.000000     0.000000     1.000000     0.000000     0.000000     0.000000     0.000000     0.000000
 
 Subroutine IBZKPT returns following result:
 ===========================================
 
 Found      4 irreducible k-points:
 
 Following reciprocal coordinates:
            Coordinates               Weight
  0.250000  0.250000  0.250000      2.000000
 -0.250000  0.250000  0.250000      2.000000
  0.250000 -0.250000  0.250000      2.000000
 -0.250000 -0.250000  0.250000      2.000000
 
 Following cartesian coordinates:
            Coordinates               Weight
  0.017066  0.017066  0.018935      2.000000
 -0.017066  0.017066  0.018935      2.000000
  0.017066 -0.017066  0.018935      2.000000
 -0.017066 -0.017066  0.018935      2.000000
 


--------------------------------------------------------------------------------------------------------




 Dimension of arrays:
   k-points           NKPTS =      4   k-points in BZ     NKDIM =      4   number of bands    NBANDS=   1168
   number of dos      NEDOS =    301   number of ions     NIONS =    217
   non local maximal  LDIM  =      6   non local SUM 2l+1 LMDIM =     18
   total plane-waves  NPLWV = 829440
   max r-space proj   IRMAX =      1   max aug-charges    IRDMAX=  71248
   dimension x,y,z NGX =    96 NGY =   96 NGZ =   90
   dimension x,y,z NGXF=   192 NGYF=  192 NGZF=  180
   support grid    NGXF=   384 NGYF=  384 NGZF=  360
   ions per type =              72 144   1
   NGX,Y,Z   is equivalent  to a cutoff of  10.89, 10.89, 11.33 a.u.
   NGXF,Y,Z  is equivalent  to a cutoff of  21.79, 21.79, 22.66 a.u.

 SYSTEM =  unknown system                          
 POSCAR =  Mn  F  H                                

 Startparameter for this run:
   NWRITE =      2    write-flag & timer
   PREC   = normal    normal or accurate (medium, high low for compatibility)
   ISTART =      1    job   : 0-new  1-cont  2-samecut
   ICHARG =      1    charge: 1-file 2-atom 10-const
   ISPIN  =      2    spin polarized calculation?
   LNONCOLLINEAR =      F non collinear calculations
   LSORBIT =      F    spin-orbit coupling
   INIWAV =      1    electr: 0-lowe 1-rand  2-diag
   LASPH  =      T    aspherical Exc in radial PAW
   METAGGA=      F    non-selfconsistent MetaGGA calc.

 Electronic Relaxation 1
   ENCUT  =  700.0 eV  51.45 Ry    7.17 a.u.  31.60 31.60 28.48*2*pi/ulx,y,z
   ENINI  =  700.0     initial cutoff
   ENAUG  =  613.6 eV  augmentation charge cutoff
   NELM   =     60;   NELMIN=  2; NELMDL=  0     # of ELM steps 
   EDIFF  = 0.1E-06   stopping-criterion for ELM
   LREAL  =      F    real-space projection
   NLSPLINE    = F    spline interpolate recip. space projectors
   LCOMPAT=      F    compatible to vasp.4.4
   GGA_COMPAT  = T    GGA compatible to vasp.4.4-vasp.4.6
   LMAXPAW     = -100 max onsite density
   LMAXMIX     =    4 max onsite mixed and CHGCAR
   VOSKOWN=      0    Vosko Wilk Nusair interpolation
   ROPT   =    0.00000   0.00000   0.00000
 Ionic relaxation
   EDIFFG = -.5E-02   stopping-criterion for IOM
   NSW    =      0    number of steps for IOM
   NBLOCK =      1;   KBLOCK =      1    inner block; outer block 
   IBRION =     -1    ionic relax: 0-MD 1-quasi-New 2-CG
   NFREE  =      0    steps in history (QN), initial steepest desc. (CG)
   ISIF   =      2    stress and relaxation
   IWAVPR =     10    prediction:  0-non 1-charg 2-wave 3-comb
   ISYM   =      0    0-nonsym 1-usesym 2-fastsym
   LCORR  =      T    Harris-Foulkes like correction to forces

   POTIM  = 0.5000    time-step for ionic-motion
   TEIN   =    0.0    initial temperature
   TEBEG  =    0.0;   TEEND  =   0.0 temperature during run
   SMASS  =  -3.00    Nose mass-parameter (am)
   estimated Nose-frequenzy (Omega)   =  0.10E-29 period in steps =****** mass=  -0.490E-26a.u.
   SCALEE = 1.0000    scale energy and forces
   NPACO  =    256;   APACO  = 16.0  distance and # of slots for P.C.
   PSTRESS=    0.0 pullay stress

  Mass of Ions in am
   POMASS =  54.94 19.00  1.00
  Ionic Valenz
   ZVAL   =  13.00  7.00  1.00
  Atomic Wigner-Seitz radii
   RWIGS  =  -1.00 -1.00 -1.00
  virtual crystal weights 
   VCA    =   1.00  1.00  1.00
   NELECT =    1946.0000    total number of electrons
   NUPDOWN=      -1.0000    fix difference up-down

 DOS related values:
   EMIN   =  10.00;   EMAX   =-10.00  energy-range for DOS
   EFERMI =   0.00
   ISMEAR =     0;   SIGMA  =   0.01  broadening in eV -4-tet -1-fermi 0-gaus

 Electronic relaxation 2 (details)
   IALGO  =     68    algorithm
   LDIAG  =      T    sub-space diagonalisation (order eigenvalues)
   LSUBROT=      F    optimize rotation matrix (better conditioning)
   TURBO    =      0    0=normal 1=particle mesh
   IRESTART =      0    0=no restart 2=restart with 2 vectors
   NREBOOT  =      0    no. of reboots
   NMIN     =      0    reboot dimension
   EREF     =   0.00    reference energy to select bands
   IMIX   =      4    mixing-type and parameters
     AMIX     =   0.40;   BMIX     =  1.00
     AMIX_MAG =   1.60;   BMIX_MAG =  1.00
     AMIN     =   0.10
     WC   =   100.;   INIMIX=   1;  MIXPRE=   1;  MAXMIX= -45

 Intra band minimization:
   WEIMIN = 0.0000     energy-eigenvalue tresh-hold
   EBREAK =  0.21E-10  absolut break condition
   DEPER  =   0.30     relativ break condition  

   TIME   =   0.40     timestep for ELM

  volume/ion in A,a.u.               =      13.06        88.12
  Fermi-wavevector in a.u.,A,eV,Ry     =   1.444383  2.729488 28.385037  2.086241
  Thomas-Fermi vector in A             =   2.562684
 
 Write flags
   LWAVE        =      T    write WAVECAR
   LDOWNSAMPLE  =      F    k-point downsampling of WAVECAR
   LCHARG       =      T    write CHGCAR
   LVTOT        =      F    write LOCPOT, total local potential
   LVHAR        =      F    write LOCPOT, Hartree potential only
   LELF         =      F    write electronic localiz. function (ELF)
   LORBIT       =     11    0 simple, 1 ext, 2 COOP (PROOUT), +10 PAW based schemes


 Dipole corrections
   LMONO  =      F    monopole corrections only (constant potential shift)
   LDIPOL =      F    correct potential (dipole corrections)
   IDIPOL =      0    1-x, 2-y, 3-z, 4-all directions 
   EPSILON=  1.0000000 bulk dielectric constant

 LDA+U is selected, type is set to LDAUTYPE =  2
   angular momentum for each species LDAUL =     2   -1   -1
   U (eV)           for each species LDAUU =   4.0  0.0  0.0
   J (eV)           for each species LDAUJ =   0.0  0.0  0.0
 Exchange correlation treatment:
   GGA     =    PS    GGA type
   LEXCH   =    14    internal setting for exchange type
   VOSKOWN=      0    Vosko Wilk Nusair interpolation
   LHFCALC =     F    Hartree Fock is set to
   LHFONE  =     F    Hartree Fock one center treatment
   AEXX    =    0.0000 exact exchange contribution

 Linear response parameters
   LEPSILON=     F    determine dielectric tensor
   LRPA    =     F    only Hartree local field effects (RPA)
   LNABLA  =     F    use nabla operator in PAW spheres
   LVEL    =     F    velocity operator in full k-point grid
   LINTERFAST=   F  fast interpolation
   KINTER  =     0    interpolate to denser k-point grid
   CSHIFT  =0.1000    complex shift for real part using Kramers Kronig
   OMEGAMAX=  -1.0    maximum frequency
   DEG_THRESHOLD= 0.2000000E-02 threshold for treating states as degnerate
   RTIME   =   -0.100 relaxation time in fs
  (WPLASMAI=    0.000 imaginary part of plasma frequency in eV, 0.658/RTIME)
   DFIELD  = 0.0000000 0.0000000 0.0000000 field for delta impulse in time
 
 Orbital magnetization related:
   ORBITALMAG=     F  switch on orbital magnetization
   LCHIMAG   =     F  perturbation theory with respect to B field
   DQ        =  0.001000  dq finite difference perturbation B field
   LLRAUG    =     F  two centre corrections for induced B field



--------------------------------------------------------------------------------------------------------


 Static calculation
 charge density and potential will be updated during run
 spin polarized calculation
 RMM-DIIS sequential band-by-band and
  variant of blocked Davidson during initial phase
 perform sub-space diagonalisation
    before iterative eigenvector-optimisation
 modified Broyden-mixing scheme, WC =      100.0
 initial mixing is a Kerker type mixing with AMIX =  0.4000 and BMIX =      1.0000
 Hartree-type preconditioning will be used
 using additional bands          195
 reciprocal scheme for non local part
 use partial core corrections
 calculate Harris-corrections to forces 
   (improved forces if not selfconsistent)
 use gradient corrections 
 use of overlap-Matrix (Vanderbilt PP)
 Gauss-broadening in eV      SIGMA  =   0.01


--------------------------------------------------------------------------------------------------------


  energy-cutoff  :      700.00
  volume of cell :     2833.48
      direct lattice vectors                 reciprocal lattice vectors
    14.649432430  0.000000000  0.000000000     0.068262030  0.000000000  0.000000000
     0.000000000 14.649432430  0.000000000     0.000000000  0.068262030  0.000000000
     0.000000000  0.000000000 13.203190708     0.000000000  0.000000000  0.075739268

  length of vectors
    14.649432430 14.649432430 13.203190708     0.068262030  0.068262030  0.075739268


 
 old parameters found on file WAVECAR:
  energy-cutoff  :      700.00
  volume of cell :     2833.48
      direct lattice vectors                 reciprocal lattice vectors
    14.649432430  0.000000000  0.000000000     0.068262030  0.000000000  0.000000000
     0.000000000 14.649432430  0.000000000     0.000000000  0.068262030  0.000000000
     0.000000000  0.000000000 13.203190708     0.000000000  0.000000000  0.075739268

  length of vectors

 
 k-points in units of 2pi/SCALE and weight: KPOINTS created by Atomic Simulation Env
   0.01706551  0.01706551  0.01893482       0.250
  -0.01706551  0.01706551  0.01893482       0.250
   0.01706551 -0.01706551  0.01893482       0.250
  -0.01706551 -0.01706551  0.01893482       0.250
 
 k-points in reciprocal lattice and weights: KPOINTS created by Atomic Simulation Env
   0.25000000  0.25000000  0.25000000       0.250
  -0.25000000  0.25000000  0.25000000       0.250
   0.25000000 -0.25000000  0.25000000       0.250
  -0.25000000 -0.25000000  0.25000000       0.250
 
 position of ions in fractional coordinates (direct lattice) 
   0.15077183  0.15072220  0.12502289
   0.00353836  0.00355446  0.01012629
   0.17541355  0.17532888  0.37933903
   0.00349366  0.00359755  0.23991435
   0.16611134  0.16603274  0.62502284
   0.00210334  0.00200614  0.49627010
   0.17543072  0.17531226  0.87070702
   0.00210157  0.00200744  0.75377193
   0.16679054  0.50034512  0.12503104
   0.00089457  0.33128415  0.00010885
   0.16591868  0.49896944  0.37483863
   0.00092804  0.33123795  0.24995443
   0.16793605  0.50162018  0.62503225
   0.99988581  0.33439869  0.50031529
   0.16592975  0.49898308  0.87522205
   0.99991939  0.33435998  0.74975244
   0.16452009  0.82900526  0.12502570
   0.99965859  0.66636160  0.99997401
   0.16582678  0.83424832  0.37457790
   0.99965492  0.66637010  0.25007345
   0.16620899  0.83500122  0.62502535
   0.00043685  0.66684459  0.49994181
   0.16582545  0.83422954  0.87546771
   0.00043174  0.66684628  0.75010292
   0.50043558  0.16673205  0.12501956
   0.33129556  0.00088797  0.00008032
   0.49904879  0.16584472  0.37482923
   0.33134365  0.00085324  0.24995624
   0.50173368  0.16787555  0.62501875
   0.33446613  0.99984516  0.50031093
   0.49903389  0.16583441  0.87521092
   0.33450508  0.99981187  0.74972000
   0.49925812  0.49917633  0.12502702
   0.33155719  0.33148726  0.00138075
   0.50158634  0.50150097  0.37367187
   0.33155799  0.33148638  0.24867328
   0.50219144  0.50211591  0.62502644
   0.33655750  0.33646459  0.50048459
   0.50158695  0.50149929  0.87637975
   0.33654644  0.33647464  0.74956877
   0.49933551  0.83385641  0.12502405
   0.33308859  0.66672640  0.99961403
   0.49996088  0.83341052  0.37481036
   0.33307605  0.66673339  0.25045349
   0.50097593  0.83322418  0.62502331
   0.33340391  0.66751425  0.50000420
   0.49996122  0.83341326  0.87524383
   0.33340439  0.66752045  0.75005637
   0.82906580  0.16435124  0.12501757
   0.66642215  0.99957506  0.99996620
   0.83427995  0.16576485  0.37457979
   0.66641611  0.99957665  0.25007089
   0.83507244  0.16610956  0.62501802
   0.66691942  0.00034052  0.49993440
   0.83429971  0.16576891  0.87546144
   0.66691812  0.00034622  0.75010547
   0.83391437  0.49928539  0.12502460
   0.66682235  0.33299456  0.99960543
   0.83349140  0.49990327  0.37480093
   0.66681966  0.33300212  0.25042914
   0.83331693  0.50089820  0.62502490
   0.66760455  0.33333956  0.49999647
   0.83348918  0.49990209  0.87524055
   0.66759959  0.33333759  0.75004428
   0.84017402  0.84014450  0.12502033
   0.66872819  0.66868271  0.00094832
   0.83471002  0.83462439  0.37512078
   0.66873983  0.66867288  0.24910186
   0.83530735  0.83523249  0.62502133
   0.66816901  0.66809822  0.49952462
   0.83471182  0.83462083  0.87492162
   0.66817781  0.66808963  0.75052577
   0.06380281  0.26592022  0.12500252
   0.26589779  0.06367672  0.12504963
   0.10397324  0.10293008  0.97182169
   0.23079832  0.23080387  0.00627462
   0.06971957  0.27496867  0.37738263
   0.27508802  0.06966831  0.37737805
   0.10363406  0.10326655  0.27822345
   0.23082640  0.23077590  0.24377307
   0.06527132  0.26950272  0.62501736
   0.26958508  0.06520366  0.62503242
   0.10376004  0.10369268  0.50046693
   0.23581089  0.23571764  0.50636792
   0.06965118  0.27485513  0.87273401
   0.27520376  0.06973874  0.87260264
   0.10376288  0.10369007  0.74957842
   0.23576581  0.23576212  0.74367819
   0.06428813  0.60016796  0.12502881
   0.27042440  0.40163979  0.12502987
   0.10150018  0.43458909  0.00080981
   0.23160109  0.56527950  0.99912732
   0.06354762  0.59917877  0.37574325
   0.26766242  0.39732716  0.37511169
   0.10150360  0.43457886  0.24923803
   0.23159656  0.56527712  0.25093983
   0.06577614  0.60219498  0.62502707
   0.27231294  0.40322530  0.62502019
   0.10149139  0.43637230  0.50165734
   0.23222924  0.56578180  0.49876646
   0.06354897  0.59917762  0.87429723
   0.26767104  0.39734183  0.87494910
   0.10152536  0.43633114  0.74842115
   0.23222919  0.56578706  0.75128705
   0.04550957  0.90147047  0.12503411
   0.27001622  0.73182404  0.12502860
   0.10784657  0.75921469  0.99665038
   0.22921888  0.89951967  0.00168080
   0.06308374  0.93254111  0.37235114
   0.27021072  0.73394559  0.37566919
   0.10784289  0.75922466  0.25340787
   0.22924545  0.89950355  0.24836040
   0.06578505  0.93696698  0.62502296
   0.26839307  0.73274700  0.62502801
   0.10236661  0.76786020  0.50057259
   0.23171410  0.89940366  0.49966056
   0.06302252  0.93244872  0.87764884
   0.27021700  0.73393998  0.87440033
   0.10238381  0.76783556  0.74946462
   0.23171896  0.89940022  0.75039523
   0.40170742  0.27034930  0.12502479
   0.60024577  0.06422168  0.12501711
   0.43465330  0.10144442  0.00083474
   0.56535978  0.23152390  0.99909927
   0.39741397  0.26759366  0.37509872
   0.59923782  0.06345782  0.37575347
   0.43466362  0.10144204  0.24922048
   0.56536198  0.23152811  0.25093233
   0.40331010  0.27223383  0.62503439
   0.60229924  0.06570574  0.62501697
   0.43644654  0.10144835  0.50165754
   0.56587417  0.23216540  0.49874547
   0.39739747  0.26758445  0.87494494
   0.59923715  0.06345683  0.87429007
   0.43648810  0.10141412  0.74836776
   0.56587012  0.23216374  0.75130003
   0.39795024  0.60082715  0.12503944
   0.60091761  0.39787188  0.12501553
   0.43455728  0.43447454  0.99897522
   0.56616514  0.56610142  0.00127544
   0.39912351  0.60206801  0.37517813
   0.60216135  0.39905056  0.37516532
   0.43455810  0.43447367  0.25107727
   0.56617500  0.56609315  0.24877764
   0.39892543  0.60217800  0.62503340
   0.60226362  0.39885592  0.62501961
   0.43733642  0.43724952  0.49956310
   0.56661806  0.56654607  0.49949143
   0.39912304  0.60206449  0.87487592
   0.60216114  0.39904936  0.87487874
   0.43733591  0.43724903  0.75048871
   0.56662485  0.56653931  0.75056094
   0.39755647  0.93510151  0.12500163
   0.60141156  0.73247724  0.12503285
   0.43538642  0.76752718  0.00007700
   0.56442185  0.89846018  0.99994929
   0.39764023  0.93386113  0.37420474
   0.60248883  0.73257619  0.37457395
   0.43536570  0.76754854  0.24997779
   0.56440407  0.89847351  0.25010060
   0.39890414  0.93382005  0.62500060
   0.60251233  0.73207372  0.62503128
   0.43606225  0.76777971  0.50026166
   0.56515720  0.89852173  0.50002750
   0.39762537  0.93384269  0.87586927
   0.60249011  0.73257835  0.87546317
   0.43605305  0.76779416  0.74978919
   0.56514264  0.89853599  0.75001943
   0.73192831  0.26992315  0.12502046
   0.90097935  0.04501196  0.12500870
   0.75923191  0.10780007  0.99657804
   0.89961311  0.22909549  0.00172217
   0.73403772  0.27016809  0.37565308
   0.93258291  0.06302752  0.37237265
   0.75922159  0.10780436  0.25344552
   0.89962864  0.22906874  0.24832924
   0.73282384  0.26830854  0.62502248
   0.93704865  0.06569412  0.62502051
   0.76791519  0.10229007  0.50057160
   0.89945931  0.23163786  0.49965473
   0.73404451  0.27016577  0.87437807
   0.93267725  0.06309155  0.87771023
   0.76794062  0.10227383  0.74947800
   0.89946307  0.23163319  0.75037698
   0.73254006  0.60135595  0.12501828
   0.93514459  0.39749137  0.12504859
   0.76762991  0.43529817  0.00007091
   0.89855090  0.56434947  0.99995571
   0.73265225  0.60242440  0.37457628
   0.93391405  0.39754340  0.37418007
   0.76761099  0.43531658  0.24997255
   0.89853745  0.56436782  0.25008978
   0.73216250  0.60243598  0.62501996
   0.93390781  0.39881701  0.62505006
   0.76788022  0.43598617  0.50025756
   0.89862459  0.56506634  0.50002508
   0.73265052  0.60242306  0.87548450
   0.93393115  0.39755560  0.87584330
   0.76786426  0.43599684  0.74978928
   0.89861075  0.56508028  0.75002237
   0.72978224  0.93383721  0.12502274
   0.93398636  0.72981773  0.12501956
   0.77003215  0.76996880  0.00167692
   0.89949402  0.89930386  0.99502920
   0.73103351  0.93489714  0.37549271
   0.93496655  0.73093821  0.37551567
   0.77003787  0.76996443  0.24836794
   0.89949361  0.89930338  0.25501022
   0.73156128  0.93494982  0.62502120
   0.93503552  0.73149319  0.62502174
   0.76932519  0.76926235  0.50040722
   0.89972621  0.89964561  0.50078777
   0.73103367  0.93489380  0.87454118
   0.93496922  0.73093599  0.87453328
   0.76933702  0.76925065  0.74963637
   0.89970006  0.89967122  0.74925447
   0.05924545  0.06033083  0.12501946
 
 position of ions in cartesian coordinates  (Angst):
   2.20872166  2.20799472  1.65070105
   0.05183494  0.05207088  0.13369936
   2.56970893  2.56846855  5.00848555
   0.05118010  0.05270206  3.16763491
   2.43343684  2.43228543  8.25229582
   0.03081267  0.02938878  6.55234883
   2.56996044  2.56822512 11.49611089
   0.03078678  0.02940790  9.95219448
   2.44338673  7.32977196  1.65080868
   0.01310496  4.85312475  0.00143721
   2.43061456  7.30961914  4.94906595
   0.01359524  4.85244798  3.30019595
   2.46016778  7.34845099  8.25241997
  14.64775968  4.89875098  6.60575814
   2.43077663  7.30981897 11.55572360
  14.64825153  4.89818400  9.89912445
   2.41012589 12.14445661  1.65073810
  14.64443098  9.76181917 13.20284758
   2.42926815 12.22126438  4.94562351
  14.64437715  9.76194377  3.30176741
   2.43486740 12.23229388  8.25232885
   0.00639966  9.76889480  6.60082708
   2.42924873 12.22098922 11.55896712
   0.00632477  9.76891957  9.90375187
   7.33109716  2.44252994  1.65065704
   4.85329196  0.01300831  0.00106050
   7.31078156  2.42953107  4.94894187
   4.85399648  0.01249941  3.30021985
   7.35011360  2.45928149  8.25224179
   4.89973896 14.64716405  6.60570057
   7.31056326  2.42937997 11.55557675
   4.90030957 14.64667640  9.89869613
   7.31384806  7.31264990  1.65075554
   4.85712467  4.85610022  0.01823032
   7.34795517  7.34670454  4.93366097
   4.85713633  4.85608729  3.28328070
   7.35681954  7.35571308  8.25234333
   4.93037636  4.92901532  6.60799350
   7.34796417  7.34667994 11.57100894
   4.93021439  4.92916255  9.89669937
   7.31498178 12.21552320  1.65071635
   4.87955873  9.76716332 13.19809474
   7.32414312 12.20899103  4.94869270
   4.87937511  9.76726581  3.30678513
   7.33901309 12.20626126  8.25230201
   4.88417805  9.77870485  6.60165075
   7.32414813 12.20903120 11.55601119
   4.88418502  9.77879574  9.90313730
  12.14534335  2.40765231  1.65063082
   9.76270619 14.64320729 13.20274446
  12.22172778  2.42836102  4.94564837
   9.76261782 14.64323063  3.30173362
  12.23333731  2.43341084  8.25223206
   9.76999100  0.00498837  6.60072929
  12.22201720  2.42842047 11.55888435
   9.76997198  0.00507193  9.90378551
  12.21637222  7.31424762  1.65072359
   9.76856902  4.87818124 13.19798112
  12.21017589  7.32329913  4.94856817
   9.76852950  4.87829210  3.30646369
  12.20762012  7.33787429  8.25232296
   9.78002776  4.88323539  6.60154881
  12.21014345  7.32328189 11.55596793
   9.77995507  4.88320644  9.90297768
  12.30807254 12.30764006  1.65066732
   9.79648845  9.79582223  0.01252089
  12.22802809 12.22677358  4.95279117
   9.79665890  9.79567813  3.28893932
  12.23677853 12.23568187  8.25227585
   9.78829673  9.78725978  6.59531879
  12.22805442 12.22672143 11.55175700
   9.78842570  9.78713382  9.90933490
   0.93467502  3.89558023  1.65043206
   3.89525173  0.93282788  1.65105412
   1.52314897  1.50786719 12.83114709
   3.38106441  3.38114573  0.08284501
   1.02135214  4.02813496  4.98265485
   4.02988337  1.02060124  4.98259437
   1.51818017  1.51279637  3.67343731
   3.38147572  3.38073600  3.21858235
   0.95618778  3.94806185  8.25222338
   3.94926848  0.95519668  8.25242227
   1.52002571  1.51903885  6.60776033
   3.45449571  3.45312958  6.68567228
   1.02035023  4.02647165 11.52287359
   4.03157889  1.02163293 11.52113903
   1.52006735  1.51900068  9.89682688
   3.45383536  3.45378118  9.81892496
   0.94178458  8.79212004  1.65077917
   3.96156401  5.88379497  1.65079328
   1.48692001  6.36648348  0.01069207
   3.39282456  8.28102390 13.19166858
   0.93093650  8.77762893  4.96100977
   3.92110256  5.82061745  4.95267122
   1.48697017  6.36633358  3.29073727
   3.39275810  8.28098896  3.31320644
   0.96358306  8.82181471  8.25235166
   3.98923008  5.90702172  8.25226077
   1.48679121  6.39260655  6.62347754
   3.40202649  8.28838230  6.58530871
   0.93095634  8.77761200 11.54351309
   3.92122876  5.82083235 11.55211978
   1.48728889  6.39200361  9.88154719
   3.40202579  8.28845931  9.91938622
   0.66668937 13.20603070  1.65084919
   3.95558444 10.72080681  1.65077641
   1.57989099 11.12206425 13.15896504
   3.35792650 13.17745257  0.02219193
   0.92414094 13.66119803  4.91622308
   3.95843372 10.75188631  4.96003196
   1.57983713 11.12221036  3.34579244
   3.35831569 13.17721651  3.27914973
   0.96371372 13.72603443  8.25229733
   3.93180617 10.73432759  8.25236407
   1.49961266 11.24871618  6.60915542
   3.39448002 13.17575313  6.59711370
   0.92324421 13.65984456 11.58776507
   3.95852569 10.75180416 11.54487438
   1.49986472 11.24835513  9.89532437
   3.39455120 13.17570269  9.90761126
   5.88478576  3.96046382  1.65072609
   8.79325983  0.94081122  1.65062476
   6.36742409  1.48610315  0.01102124
   8.28219985  3.39169375 13.19129826
   5.82188911  3.92009527  4.95249998
   8.77849392  0.92962104  4.96114475
   6.36757539  1.48606833  3.29050559
   8.28223217  3.39175543  3.31310739
   5.90826403  3.98807113  8.25244820
   8.82334198  0.96255186  8.25221826
   6.39369405  1.48616081  6.62348012
   8.28973546  3.40109130  6.58503156
   5.82164738  3.91996037 11.55206494
   8.77848407  0.92960653 11.54341854
   6.39430297  1.48565931  9.88084223
   8.28967610  3.40106700  9.91955752
   5.82974510  8.80177672  1.65091954
   8.80310186  5.82859725  1.65060382
   6.36601757  6.36480542 13.18966029
   8.29399801  8.29306447  0.01683994
   5.84693284  8.81995464  4.95354846
   8.82132194  5.84586425  4.95337921
   6.36602948  6.36479260  3.31502106
   8.29414234  8.29294336  3.28465857
   5.84403106  8.82156591  8.25243514
   8.82282027  5.84301290  8.25225313
   6.40673029  6.40545732  6.59582691
   8.30063292  8.29957841  6.59488064
   5.84692605  8.81990312 11.55115360
   8.82131900  5.84584668 11.55119087
   6.40672287  6.40545007  9.90884552
   8.30073246  8.29947927  9.90979918
   5.82397659 13.69870632  1.65042031
   8.81033794 10.73037577  1.65083253
   6.37816395 11.24383749  0.00101659
   8.26845968 13.16193165 13.20252113
   5.82520375 13.68053554  4.94069656
   8.82611947 10.73182534  4.94557132
   6.37786039 11.24415051  3.30050440
   8.26819923 13.16212705  3.30212591
   5.84371929 13.67993373  8.25200216
   8.82646372 10.72446448  8.25240724
   6.38806442 11.24753701  6.60505011
   8.27923224 13.16283341  6.60195840
   5.82498601 13.68026533 11.56426905
   8.82613813 10.73185698 11.55890725
   6.38792966 11.24774866  9.89960969
   8.27901888 13.16304227  9.90264960
  10.72233436  3.95422100  1.65066892
  13.19883608  0.65939967  1.65051365
  11.12231661  1.57920987 13.15800990
  13.17882150  3.35611888  0.02273819
  10.75323598  3.95780924  4.95981920
  13.66181033  0.92331739  4.91650706
  11.12216544  1.57927265  3.34628955
  13.17904901  3.35572708  3.27873836
  10.73545328  3.93056786  8.25229094
  13.72723093  0.96238153  8.25226504
  11.24952167  1.49849150  6.60914231
  13.17656839  3.39336321  6.59703665
  10.75333548  3.95777521 11.54458036
  13.66319229  0.92425540 11.58857549
  11.24989417  1.49825361  9.89550101
  13.17662352  3.39329478  9.90737041
  10.73129611  8.80952330  1.65064014
  13.69933746  5.82302298  1.65104032
  11.24534249  6.37687107  0.00093629
  13.16326066  8.26739937 13.20260591
  10.73293963  8.82517559  4.94560211
  13.68131084  5.82378519  4.94037087
  11.24506527  6.37714088  3.30043529
  13.16306364  8.26766823  3.30198312
  10.72576510  8.82534516  8.25225768
  13.68121937  5.84244277  8.25265517
  11.24900936  6.38694995  6.60499594
  13.16434016  8.27790114  6.60192644
  10.73291423  8.82515588 11.55918877
  13.68156130  5.82396395 11.56392614
  11.24877552  6.38710629  9.89961079
  13.16413748  8.27810540  9.90268835
  10.69089560 13.68018512  1.65069906
  13.68237009 10.69141552  1.65065714
  11.28053397 11.27960585  0.02214066
  13.17707686 13.17429114 13.13756024
  10.70922605 13.69571253  4.95770183
  13.69672930 10.70782995  4.95800499
  11.28061776 11.27954185  3.27924934
  13.17707091 13.17428416  3.36694857
  10.71695756 13.69648417  8.25227415
  13.69773970 10.71596000  8.25228125
  11.27017733 11.26925688  6.60697198
  13.18047826 13.17929753  6.61199637
  10.70922840 13.69566352 11.54673397
  13.69676845 10.70779737 11.54662968
  11.27035073 11.26908535  9.89759190
  13.18009518 13.17967267  9.89254970
   0.86791224  0.88381237  1.65065579
 


--------------------------------------------------------------------------------------------------------


 k-point  1 :   0.2500 0.2500 0.2500  plane waves:  119170
 k-point  2 :  -0.2500 0.2500 0.2500  plane waves:  119170
 k-point  3 :   0.2500-0.2500 0.2500  plane waves:  119170
 k-point  4 :  -0.2500-0.2500 0.2500  plane waves:  119170

 maximum and minimum number of plane-waves per node :      9968     9893

 maximum number of plane-waves:    119170
 maximum index in each direction: 
   IXMAX=   31   IYMAX=   31   IZMAX=   28
   IXMIN=  -31   IYMIN=  -31   IZMIN=  -28


 parallel 3D FFT for wavefunctions:
    minimum data exchange during FFTs selected (reduces bandwidth)
 parallel 3D FFT for charge:
    minimum data exchange during FFTs selected (reduces bandwidth)


 total amount of memory used by VASP MPI-rank0   501409. kBytes
=======================================================================

   base      :      30000. kBytes
   nonl-proj :      51625. kBytes
   fftplans  :      22373. kBytes
   grid      :      17829. kBytes
   one-center:        590. kBytes
   wavefun   :     378992. kBytes
 
     INWAV:  cpu time   68.5202: real time   68.6277
 Broyden mixing: mesh for mixing (old mesh)
   NGX = 63   NGY = 63   NGZ = 57
  (NGX  =192   NGY  =192   NGZ  =180)
  gives a total of 226233 points

 initial charge density was supplied:
 number of electron    1946.0000051 magnetization      -0.0000003
 keeping initial charge density in first step


--------------------------------------------------------------------------------------------------------


 Maximum index for augmentation-charges         2065 (set IRDMAX)


--------------------------------------------------------------------------------------------------------


 First call to EWALD:  gamma=   0.125
 Maximum number of real-space cells 3x 3x 3
 Maximum number of reciprocal cells 3x 3x 3

    FEWALD:  cpu time    0.1987: real time    0.1987


--------------------------------------- Iteration      1(   1)  ---------------------------------------


    POTLOK:  cpu time    0.2188: real time    0.2553
    SETDIJ:  cpu time    4.8874: real time    4.8876
atom =   1  type =  1  l = 2
 
 onsite density matrix
 
spin component  1
 
  0.9677  0.0000  0.0122 -0.0000  0.0001
  0.0000  0.9541  0.0000  0.0088 -0.0000
  0.0122  0.0000  0.9616 -0.0000 -0.0001
 -0.0000  0.0088 -0.0000  0.9539 -0.0000
  0.0001 -0.0000 -0.0001 -0.0000  0.9422
 
spin component  2
 
  0.0681 -0.0000 -0.0020  0.0000  0.0004
 -0.0000  0.0225  0.0000  0.0103 -0.0000
 -0.0020  0.0000  0.0447 -0.0000 -0.0003
  0.0000  0.0103 -0.0000  0.0223 -0.0000
  0.0004 -0.0000 -0.0003 -0.0000  0.0121
 
 occupancies and eigenvectors
 
  o =  0.0121  v =  0.0000  0.0000  0.0000  0.0000  0.0000 -0.0070 -0.0127  0.0090  0.0140  0.9998      0.0000  0.0000  0.0000  0.0000  0.0000  0.0000  0.0000  0.0000  0.0000  0.0000
  o =  0.0121  v =  0.0000  0.0000  0.0000  0.0000  0.0000 -0.0001  0.7045 -0.0014 -0.7094  0.0189      0.0000  0.0000  0.0000  0.0000  0.0000  0.0000  0.0000  0.0000  0.0000  0.0000
  o =  0.0328  v =  0.0000  0.0000  0.0000  0.0000  0.0000  0.0000 -0.7096 -0.0001 -0.7046  0.0008      0.0000  0.0000  0.0000  0.0000  0.0000  0.0000  0.0000  0.0000  0.0000  0.0000
  o =  0.0445  v =  0.0000  0.0000  0.0000  0.0000  0.0000  0.0868  0.0010  0.9962 -0.0012 -0.0083      0.0000  0.0000  0.0000  0.0000  0.0000  0.0000  0.0000  0.0000  0.0000  0.0000
  o =  0.0682  v =  0.0000  0.0000  0.0000  0.0000  0.0000 -0.9962  0.0001  0.0868 -0.0002 -0.0077      0.0000  0.0000  0.0000  0.0000  0.0000  0.0000  0.0000  0.0000  0.0000  0.0000
  o =  0.9422  v =  0.0061 -0.0008 -0.0073 -0.0009 -1.0000  0.0000  0.0000  0.0000  0.0000  0.0000      0.0000  0.0000  0.0000  0.0000  0.0000  0.0000  0.0000  0.0000  0.0000  0.0000
  o =  0.9452  v =  0.0022  0.7040 -0.0043 -0.7102  0.0001  0.0000  0.0000  0.0000  0.0000  0.0000      0.0000  0.0000  0.0000  0.0000  0.0000  0.0000  0.0000  0.0000  0.0000  0.0000
  o =  0.9520  v = -0.6153  0.0034  0.7882 -0.0034 -0.0095  0.0000  0.0000  0.0000  0.0000  0.0000      0.0000  0.0000  0.0000  0.0000  0.0000  0.0000  0.0000  0.0000  0.0000  0.0000
  o =  0.9628  v =  0.0000  0.7102  0.0000  0.7040 -0.0011  0.0000  0.0000  0.0000  0.0000  0.0000      0.0000  0.0000  0.0000  0.0000  0.0000  0.0000  0.0000  0.0000  0.0000  0.0000
  o =  0.9773  v = -0.7883 -0.0006 -0.6153  0.0007 -0.0004  0.0000  0.0000  0.0000  0.0000  0.0000      0.0000  0.0000  0.0000  0.0000  0.0000  0.0000  0.0000  0.0000  0.0000  0.0000
atom =   2  type =  1  l = 2
 
 onsite density matrix
 
spin component  1
 
  0.0391  0.0048 -0.0140  0.0045  0.0000
  0.0048  0.0441  0.0111  0.0016  0.0039
 -0.0140  0.0111  0.0312  0.0110 -0.0002
  0.0045  0.0016  0.0110  0.0437 -0.0044
  0.0000  0.0039 -0.0002 -0.0044  0.0131
 
spin component  2
 
  0.9619 -0.0006 -0.0144 -0.0007  0.0000
 -0.0006  0.9608  0.0016 -0.0085  0.0043
 -0.0144  0.0016  0.9502  0.0016 -0.0001
 -0.0007 -0.0085  0.0016  0.9608 -0.0044
  0.0000  0.0043 -0.0001 -0.0044  0.9454
 
 occupancies and eigenvectors
 
  o =  0.0120  v =  0.0185 -0.1399  0.0308  0.1285  0.9811  0.0000  0.0000  0.0000  0.0000  0.0000      0.0000  0.0000  0.0000  0.0000  0.0000  0.0000  0.0000  0.0000  0.0000  0.0000
  o =  0.0123  v = -0.4986  0.3128 -0.7410  0.3213  0.0352  0.0000  0.0000  0.0000  0.0000  0.0000      0.0000  0.0000  0.0000  0.0000  0.0000  0.0000  0.0000  0.0000  0.0000  0.0000
  o =  0.0434  v =  0.0426 -0.6729 -0.0124  0.7136 -0.1898  0.0000  0.0000  0.0000  0.0000  0.0000      0.0000  0.0000  0.0000  0.0000  0.0000  0.0000  0.0000  0.0000  0.0000  0.0000
  o =  0.0475  v =  0.8425  0.3525 -0.2968  0.2789  0.0072  0.0000  0.0000  0.0000  0.0000  0.0000      0.0000  0.0000  0.0000  0.0000  0.0000  0.0000  0.0000  0.0000  0.0000  0.0000
  o =  0.0559  v = -0.1986  0.5527  0.6015  0.5416 -0.0072  0.0000  0.0000  0.0000  0.0000  0.0000      0.0000  0.0000  0.0000  0.0000  0.0000  0.0000  0.0000  0.0000  0.0000  0.0000
  o =  0.9404  v =  0.0000  0.0000  0.0000  0.0000  0.0000 -0.5477  0.0856 -0.8283  0.0796 -0.0173      0.0000  0.0000  0.0000  0.0000  0.0000  0.0000  0.0000  0.0000  0.0000  0.0000
  o =  0.9439  v =  0.0000  0.0000  0.0000  0.0000  0.0000 -0.0101 -0.1570 -0.0131  0.1753  0.9718      0.0000  0.0000  0.0000  0.0000  0.0000  0.0000  0.0000  0.0000  0.0000  0.0000
  o =  0.9522  v =  0.0000  0.0000  0.0000  0.0000  0.0000  0.1520  0.7001  0.0390  0.6965 -0.0104      0.0000  0.0000  0.0000  0.0000  0.0000  0.0000  0.0000  0.0000  0.0000  0.0000
  o =  0.9708  v =  0.0000  0.0000  0.0000  0.0000  0.0000  0.1002 -0.6912 -0.0682  0.6732 -0.2330      0.0000  0.0000  0.0000  0.0000  0.0000  0.0000  0.0000  0.0000  0.0000  0.0000
  o =  0.9718  v =  0.0000  0.0000  0.0000  0.0000  0.0000  0.8165  0.0100 -0.5546 -0.1568  0.0309      0.0000  0.0000  0.0000  0.0000  0.0000  0.0000  0.0000  0.0000  0.0000  0.0000
atom =   3  type =  1  l = 2
 
 onsite density matrix
 
spin component  1
 
  0.9706  0.0036  0.0174  0.0036 -0.0000
  0.0036  0.9650 -0.0008  0.0183 -0.0008
  0.0174 -0.0008  0.9581 -0.0008 -0.0000
  0.0036  0.0183 -0.0008  0.9650  0.0008
 -0.0000 -0.0008 -0.0000  0.0008  0.9472
 
spin component  2
 
  0.0481  0.0073  0.0218  0.0073 -0.0000
  0.0073  0.0425  0.0001  0.0263 -0.0015
  0.0218  0.0001  0.0335  0.0001 -0.0000
  0.0073  0.0263  0.0001  0.0424  0.0014
 -0.0000 -0.0015 -0.0000  0.0014  0.0145
 
 occupancies and eigenvectors
 
  o =  0.0131  v =  0.0000  0.0000  0.0000  0.0000  0.0000 -0.0014 -0.3940  0.0014  0.3940 -0.8304      0.0000  0.0000  0.0000  0.0000  0.0000  0.0000  0.0000  0.0000  0.0000  0.0000
  o =  0.0171  v =  0.0000  0.0000  0.0000  0.0000  0.0000 -0.5965  0.0969  0.7936  0.0693 -0.0107      0.0000  0.0000  0.0000  0.0000  0.0000  0.0000  0.0000  0.0000  0.0000  0.0000
  o =  0.0176  v =  0.0000  0.0000  0.0000  0.0000  0.0000  0.0127  0.5843 -0.0178 -0.5897 -0.5570      0.0000  0.0000  0.0000  0.0000  0.0000  0.0000  0.0000  0.0000  0.0000  0.0000
  o =  0.0577  v =  0.0000  0.0000  0.0000  0.0000  0.0000  0.6090 -0.4088  0.5433 -0.4084  0.0001      0.0000  0.0000  0.0000  0.0000  0.0000  0.0000  0.0000  0.0000  0.0000  0.0000
  o =  0.0755  v =  0.0000  0.0000  0.0000  0.0000  0.0000 -0.5226 -0.5717 -0.2732 -0.5705  0.0011      0.0000  0.0000  0.0000  0.0000  0.0000  0.0000  0.0000  0.0000  0.0000  0.0000
  o =  0.9455  v = -0.5804  0.0676  0.8079  0.0756 -0.0079  0.0000  0.0000  0.0000  0.0000  0.0000      0.0000  0.0000  0.0000  0.0000  0.0000  0.0000  0.0000  0.0000  0.0000  0.0000
  o =  0.9458  v = -0.0053  0.5457  0.0077 -0.5444  0.6370  0.0000  0.0000  0.0000  0.0000  0.0000      0.0000  0.0000  0.0000  0.0000  0.0000  0.0000  0.0000  0.0000  0.0000  0.0000
  o =  0.9481  v =  0.0011  0.4497 -0.0022 -0.4511 -0.7708  0.0000  0.0000  0.0000  0.0000  0.0000      0.0000  0.0000  0.0000  0.0000  0.0000  0.0000  0.0000  0.0000  0.0000  0.0000
  o =  0.9798  v =  0.5696 -0.4658  0.4918 -0.4655  0.0001  0.0000  0.0000  0.0000  0.0000  0.0000      0.0000  0.0000  0.0000  0.0000  0.0000  0.0000  0.0000  0.0000  0.0000  0.0000
  o =  0.9868  v = -0.5819 -0.5276 -0.3246 -0.5269  0.0007  0.0000  0.0000  0.0000  0.0000  0.0000      0.0000  0.0000  0.0000  0.0000  0.0000  0.0000  0.0000  0.0000  0.0000  0.0000
atom =   4  type =  1  l = 2
 
 onsite density matrix
 
spin component  1
 
  0.0391 -0.0048 -0.0140 -0.0046 -0.0000
 -0.0048  0.0440 -0.0111  0.0016 -0.0040
 -0.0140 -0.0111  0.0312 -0.0110 -0.0001
 -0.0046  0.0016 -0.0110  0.0437  0.0043
 -0.0000 -0.0040 -0.0001  0.0043  0.0131
 
spin component  2
 
  0.9619  0.0006 -0.0144  0.0007 -0.0000
  0.0006  0.9608 -0.0016 -0.0085 -0.0043
 -0.0144 -0.0016  0.9502 -0.0016 -0.0000
  0.0007 -0.0085 -0.0016  0.9608  0.0044
 -0.0000 -0.0043 -0.0000  0.0044  0.9454
 
 occupancies and eigenvectors
 
  o =  0.0120  v =  0.0136  0.1370  0.0195 -0.1315  0.9815  0.0000  0.0000  0.0000  0.0000  0.0000      0.0000  0.0000  0.0000  0.0000  0.0000  0.0000  0.0000  0.0000  0.0000  0.0000
  o =  0.0123  v = -0.4987 -0.3147 -0.7414 -0.3195  0.0227  0.0000  0.0000  0.0000  0.0000  0.0000      0.0000  0.0000  0.0000  0.0000  0.0000  0.0000  0.0000  0.0000  0.0000  0.0000
  o =  0.0434  v =  0.0298  0.6786 -0.0085 -0.7088 -0.1900  0.0000  0.0000  0.0000  0.0000  0.0000      0.0000  0.0000  0.0000  0.0000  0.0000  0.0000  0.0000  0.0000  0.0000  0.0000
  o =  0.0475  v =  0.8430 -0.3425 -0.2967 -0.2897  0.0032  0.0000  0.0000  0.0000  0.0000  0.0000      0.0000  0.0000  0.0000  0.0000  0.0000  0.0000  0.0000  0.0000  0.0000  0.0000
  o =  0.0559  v = -0.1988 -0.5517  0.6015 -0.5424 -0.0048  0.0000  0.0000  0.0000  0.0000  0.0000      0.0000  0.0000  0.0000  0.0000  0.0000  0.0000  0.0000  0.0000  0.0000  0.0000
  o =  0.9404  v =  0.0000  0.0000  0.0000  0.0000  0.0000 -0.5478 -0.0846 -0.8283 -0.0808 -0.0099      0.0000  0.0000  0.0000  0.0000  0.0000  0.0000  0.0000  0.0000  0.0000  0.0000
  o =  0.9439  v =  0.0000  0.0000  0.0000  0.0000  0.0000 -0.0045  0.1599 -0.0081 -0.1725  0.9719      0.0000  0.0000  0.0000  0.0000  0.0000  0.0000  0.0000  0.0000  0.0000  0.0000
  o =  0.9522  v =  0.0000  0.0000  0.0000  0.0000  0.0000  0.1520 -0.7002  0.0390 -0.6965 -0.0074      0.0000  0.0000  0.0000  0.0000  0.0000  0.0000  0.0000  0.0000  0.0000  0.0000
  o =  0.9708  v =  0.0000  0.0000  0.0000  0.0000  0.0000  0.0708  0.6905 -0.0483 -0.6790 -0.2342      0.0000  0.0000  0.0000  0.0000  0.0000  0.0000  0.0000  0.0000  0.0000  0.0000
  o =  0.9718  v =  0.0000  0.0000  0.0000  0.0000  0.0000  0.8196  0.0146 -0.5567  0.1328  0.0203      0.0000  0.0000  0.0000  0.0000  0.0000  0.0000  0.0000  0.0000  0.0000  0.0000
atom =   5  type =  1  l = 2
 
 onsite density matrix
 
spin component  1
 
  0.9712  0.0000  0.0180 -0.0000 -0.0000
  0.0000  0.9656  0.0000  0.0186 -0.0000
  0.0180  0.0000  0.9581 -0.0000 -0.0000
 -0.0000  0.0186 -0.0000  0.9655 -0.0000
 -0.0000 -0.0000 -0.0000 -0.0000  0.9476
 
spin component  2
 
  0.0464  0.0000  0.0241 -0.0000 -0.0000
  0.0000  0.0403  0.0000  0.0241 -0.0000
  0.0241  0.0000  0.0326 -0.0000 -0.0000
 -0.0000  0.0241 -0.0000  0.0403 -0.0000
 -0.0000 -0.0000 -0.0000 -0.0000  0.0140
 
 occupancies and eigenvectors
 
  o =  0.0140  v =  0.0000  0.0000  0.0000  0.0000  0.0000  0.0008  0.0001 -0.0009  0.0001  1.0000      0.0000  0.0000  0.0000  0.0000  0.0000  0.0000  0.0000  0.0000  0.0000  0.0000
  o =  0.0144  v =  0.0000  0.0000  0.0000  0.0000  0.0000 -0.6021  0.0000  0.7984 -0.0000  0.0012      0.0000  0.0000  0.0000  0.0000  0.0000  0.0000  0.0000  0.0000  0.0000  0.0000
  o =  0.0162  v =  0.0000  0.0000  0.0000  0.0000  0.0000 -0.0001  0.7071 -0.0001 -0.7071  0.0000      0.0000  0.0000  0.0000  0.0000  0.0000  0.0000  0.0000  0.0000  0.0000  0.0000
  o =  0.0644  v =  0.0000  0.0000  0.0000  0.0000  0.0000  0.0012  0.7071  0.0009  0.7071 -0.0001      0.0000  0.0000  0.0000  0.0000  0.0000  0.0000  0.0000  0.0000  0.0000  0.0000
  o =  0.0646  v =  0.0000  0.0000  0.0000  0.0000  0.0000 -0.7984  0.0010 -0.6021  0.0012  0.0001      0.0000  0.0000  0.0000  0.0000  0.0000  0.0000  0.0000  0.0000  0.0000  0.0000
  o =  0.9455  v = -0.5734  0.0003  0.8192 -0.0003 -0.0002  0.0000  0.0000  0.0000  0.0000  0.0000      0.0000  0.0000  0.0000  0.0000  0.0000  0.0000  0.0000  0.0000  0.0000  0.0000
  o =  0.9470  v = -0.0001 -0.7071  0.0004  0.7072  0.0001  0.0000  0.0000  0.0000  0.0000  0.0000      0.0000  0.0000  0.0000  0.0000  0.0000  0.0000  0.0000  0.0000  0.0000  0.0000
  o =  0.9476  v = -0.0000  0.0001  0.0002  0.0001  1.0000  0.0000  0.0000  0.0000  0.0000  0.0000      0.0000  0.0000  0.0000  0.0000  0.0000  0.0000  0.0000  0.0000  0.0000  0.0000
  o =  0.9838  v = -0.8192 -0.0005 -0.5734 -0.0003  0.0001  0.0000  0.0000  0.0000  0.0000  0.0000      0.0000  0.0000  0.0000  0.0000  0.0000  0.0000  0.0000  0.0000  0.0000  0.0000
  o =  0.9841  v =  0.0004 -0.7072  0.0003 -0.7071  0.0001  0.0000  0.0000  0.0000  0.0000  0.0000      0.0000  0.0000  0.0000  0.0000  0.0000  0.0000  0.0000  0.0000  0.0000  0.0000
atom =   6  type =  1  l = 2
 
 onsite density matrix
 
spin component  1
 
  0.0442 -0.0003 -0.0245 -0.0003 -0.0000
 -0.0003  0.0367  0.0004 -0.0211 -0.0009
 -0.0245  0.0004  0.0311  0.0004  0.0000
 -0.0003 -0.0211  0.0004  0.0367  0.0008
 -0.0000 -0.0009  0.0000  0.0008  0.0134
 
spin component  2
 
  0.9687 -0.0003 -0.0188 -0.0003 -0.0000
 -0.0003  0.9640  0.0002 -0.0163 -0.0006
 -0.0188  0.0002  0.9582  0.0002  0.0000
 -0.0003 -0.0163  0.0002  0.9640  0.0006
 -0.0000 -0.0006  0.0000  0.0006  0.9475
 
 occupancies and eigenvectors
 
  o =  0.0123  v = -0.6070  0.0519 -0.7913  0.0517  0.0003  0.0000  0.0000  0.0000  0.0000  0.0000      0.0000  0.0000  0.0000  0.0000  0.0000  0.0000  0.0000  0.0000  0.0000  0.0000
  o =  0.0134  v =  0.0004  0.0207  0.0003 -0.0174  0.9996  0.0000  0.0000  0.0000  0.0000  0.0000      0.0000  0.0000  0.0000  0.0000  0.0000  0.0000  0.0000  0.0000  0.0000  0.0000
  o =  0.0156  v = -0.0557 -0.7051 -0.0496 -0.7052  0.0023  0.0000  0.0000  0.0000  0.0000  0.0000      0.0000  0.0000  0.0000  0.0000  0.0000  0.0000  0.0000  0.0000  0.0000  0.0000
  o =  0.0579  v =  0.0029  0.7068 -0.0020 -0.7069 -0.0269  0.0000  0.0000  0.0000  0.0000  0.0000      0.0000  0.0000  0.0000  0.0000  0.0000  0.0000  0.0000  0.0000  0.0000  0.0000
  o =  0.0630  v = -0.7927  0.0123  0.6094  0.0074 -0.0000  0.0000  0.0000  0.0000  0.0000  0.0000      0.0000  0.0000  0.0000  0.0000  0.0000  0.0000  0.0000  0.0000  0.0000  0.0000
  o =  0.9440  v =  0.0000  0.0000  0.0000  0.0000  0.0000 -0.6054 -0.0208 -0.7954 -0.0209  0.0000      0.0000  0.0000  0.0000  0.0000  0.0000  0.0000  0.0000  0.0000  0.0000  0.0000
  o =  0.9474  v =  0.0000  0.0000  0.0000  0.0000  0.0000  0.0000  0.0242 -0.0003 -0.0109  0.9996      0.0000  0.0000  0.0000  0.0000  0.0000  0.0000  0.0000  0.0000  0.0000  0.0000
  o =  0.9477  v =  0.0000  0.0000  0.0000  0.0000  0.0000  0.0058 -0.7066  0.0326 -0.7068  0.0094      0.0000  0.0000  0.0000  0.0000  0.0000  0.0000  0.0000  0.0000  0.0000  0.0000
  o =  0.9803  v =  0.0000  0.0000  0.0000  0.0000  0.0000  0.0022  0.7068 -0.0015 -0.7069 -0.0248      0.0000  0.0000  0.0000  0.0000  0.0000  0.0000  0.0000  0.0000  0.0000  0.0000
  o =  0.9830  v =  0.0000  0.0000  0.0000  0.0000  0.0000 -0.7959  0.0126  0.6052  0.0088 -0.0000      0.0000  0.0000  0.0000  0.0000  0.0000  0.0000  0.0000  0.0000  0.0000  0.0000
atom =   7  type =  1  l = 2
 
 onsite density matrix
 
spin component  1
 
  0.9706 -0.0036  0.0174 -0.0035 -0.0001
 -0.0036  0.9651  0.0008  0.0183  0.0008
  0.0174  0.0008  0.9581  0.0008 -0.0000
 -0.0035  0.0183  0.0008  0.9650 -0.0007
 -0.0001  0.0008 -0.0000 -0.0007  0.9472
 
spin component  2
 
  0.0481 -0.0074  0.0218 -0.0073 -0.0001
 -0.0074  0.0426 -0.0001  0.0263  0.0016
  0.0218 -0.0001  0.0335 -0.0001 -0.0000
 -0.0073  0.0263 -0.0001  0.0423 -0.0013
 -0.0001  0.0016 -0.0000 -0.0013  0.0145
 
 occupancies and eigenvectors
 
  o =  0.0131  v =  0.0000  0.0000  0.0000  0.0000  0.0000  0.0045 -0.3939 -0.0040  0.3939  0.8304      0.0000  0.0000  0.0000  0.0000  0.0000  0.0000  0.0000  0.0000  0.0000  0.0000
  o =  0.0171  v =  0.0000  0.0000  0.0000  0.0000  0.0000  0.5960  0.1155 -0.7927  0.0503  0.0239      0.0000  0.0000  0.0000  0.0000  0.0000  0.0000  0.0000  0.0000  0.0000  0.0000
  o =  0.0176  v =  0.0000  0.0000  0.0000  0.0000  0.0000 -0.0284  0.5792  0.0421 -0.5934  0.5566      0.0000  0.0000  0.0000  0.0000  0.0000  0.0000  0.0000  0.0000  0.0000  0.0000
  o =  0.0577  v =  0.0000  0.0000  0.0000  0.0000  0.0000  0.6090  0.4090  0.5433  0.4082 -0.0003      0.0000  0.0000  0.0000  0.0000  0.0000  0.0000  0.0000  0.0000  0.0000  0.0000
  o =  0.0755  v =  0.0000  0.0000  0.0000  0.0000  0.0000 -0.5226  0.5734 -0.2732  0.5688  0.0037      0.0000  0.0000  0.0000  0.0000  0.0000  0.0000  0.0000  0.0000  0.0000  0.0000
  o =  0.9455  v =  0.5803  0.0609 -0.8077  0.0822  0.0205  0.0000  0.0000  0.0000  0.0000  0.0000      0.0000  0.0000  0.0000  0.0000  0.0000  0.0000  0.0000  0.0000  0.0000  0.0000
  o =  0.9458  v =  0.0140  0.5465 -0.0202 -0.5434 -0.6368  0.0000  0.0000  0.0000  0.0000  0.0000      0.0000  0.0000  0.0000  0.0000  0.0000  0.0000  0.0000  0.0000  0.0000  0.0000
  o =  0.9481  v = -0.0016  0.4481  0.0061 -0.4529  0.7708  0.0000  0.0000  0.0000  0.0000  0.0000      0.0000  0.0000  0.0000  0.0000  0.0000  0.0000  0.0000  0.0000  0.0000  0.0000
  o =  0.9798  v =  0.5696  0.4660  0.4917  0.4654 -0.0003  0.0000  0.0000  0.0000  0.0000  0.0000      0.0000  0.0000  0.0000  0.0000  0.0000  0.0000  0.0000  0.0000  0.0000  0.0000
  o =  0.9868  v = -0.5819  0.5288 -0.3246  0.5256  0.0028  0.0000  0.0000  0.0000  0.0000  0.0000      0.0000  0.0000  0.0000  0.0000  0.0000  0.0000  0.0000  0.0000  0.0000  0.0000
atom =   8  type =  1  l = 2
 
 onsite density matrix
 
spin component  1
 
  0.0442  0.0003 -0.0245  0.0003  0.0000
  0.0003  0.0367 -0.0004 -0.0211  0.0009
 -0.0245 -0.0004  0.0311 -0.0004 -0.0000
  0.0003 -0.0211 -0.0004  0.0367 -0.0008
  0.0000  0.0009 -0.0000 -0.0008  0.0134
 
spin component  2
 
  0.9687  0.0004 -0.0188  0.0003  0.0000
  0.0004  0.9640 -0.0002 -0.0163  0.0006
 -0.0188 -0.0002  0.9582 -0.0002 -0.0000
  0.0003 -0.0163 -0.0002  0.9640 -0.0006
  0.0000  0.0006 -0.0000 -0.0006  0.9475
 
 occupancies and eigenvectors
 
  o =  0.0123  v = -0.6070 -0.0517 -0.7913 -0.0518  0.0016  0.0000  0.0000  0.0000  0.0000  0.0000      0.0000  0.0000  0.0000  0.0000  0.0000  0.0000  0.0000  0.0000  0.0000  0.0000
  o =  0.0134  v =  0.0009 -0.0219  0.0017  0.0162  0.9996  0.0000  0.0000  0.0000  0.0000  0.0000      0.0000  0.0000  0.0000  0.0000  0.0000  0.0000  0.0000  0.0000  0.0000  0.0000
  o =  0.0156  v = -0.0556  0.7046 -0.0496  0.7057  0.0041  0.0000  0.0000  0.0000  0.0000  0.0000      0.0000  0.0000  0.0000  0.0000  0.0000  0.0000  0.0000  0.0000  0.0000  0.0000
  o =  0.0579  v =  0.0039 -0.7073 -0.0031  0.7064 -0.0269  0.0000  0.0000  0.0000  0.0000  0.0000      0.0000  0.0000  0.0000  0.0000  0.0000  0.0000  0.0000  0.0000  0.0000  0.0000
  o =  0.0630  v = -0.7927 -0.0133  0.6094 -0.0064 -0.0005  0.0000  0.0000  0.0000  0.0000  0.0000      0.0000  0.0000  0.0000  0.0000  0.0000  0.0000  0.0000  0.0000  0.0000  0.0000
  o =  0.9440  v =  0.0000  0.0000  0.0000  0.0000  0.0000 -0.6054  0.0210 -0.7954  0.0207  0.0012      0.0000  0.0000  0.0000  0.0000  0.0000  0.0000  0.0000  0.0000  0.0000  0.0000
  o =  0.9474  v =  0.0000  0.0000  0.0000  0.0000  0.0000  0.0003 -0.0287  0.0006  0.0063  0.9996      0.0000  0.0000  0.0000  0.0000  0.0000  0.0000  0.0000  0.0000  0.0000  0.0000
  o =  0.9477  v =  0.0000  0.0000  0.0000  0.0000  0.0000  0.0058  0.7059  0.0326  0.7073  0.0158      0.0000  0.0000  0.0000  0.0000  0.0000  0.0000  0.0000  0.0000  0.0000  0.0000
  o =  0.9803  v =  0.0000  0.0000  0.0000  0.0000  0.0000  0.0026 -0.7073 -0.0023  0.7065 -0.0248      0.0000  0.0000  0.0000  0.0000  0.0000  0.0000  0.0000  0.0000  0.0000  0.0000
  o =  0.9830  v =  0.0000  0.0000  0.0000  0.0000  0.0000 -0.7959 -0.0131  0.6052 -0.0083 -0.0004      0.0000  0.0000  0.0000  0.0000  0.0000  0.0000  0.0000  0.0000  0.0000  0.0000
atom =   9  type =  1  l = 2
 
 onsite density matrix
 
spin component  1
 
  0.9703 -0.0000  0.0195 -0.0000 -0.0005
 -0.0000  0.9645  0.0000  0.0170  0.0000
  0.0195  0.0000  0.9587  0.0000 -0.0006
 -0.0000  0.0170  0.0000  0.9645  0.0000
 -0.0005  0.0000 -0.0006  0.0000  0.9478
 
spin component  2
 
  0.0468 -0.0000  0.0260 -0.0000 -0.0009
 -0.0000  0.0377 -0.0000  0.0215  0.0000
  0.0260 -0.0000  0.0323  0.0000 -0.0008
 -0.0000  0.0215  0.0000  0.0377  0.0000
 -0.0009  0.0000 -0.0008  0.0000  0.0142
 
 occupancies and eigenvectors
 
  o =  0.0126  v =  0.0000  0.0000  0.0000  0.0000  0.0000  0.6038 -0.0000 -0.7968  0.0001 -0.0218      0.0000  0.0000  0.0000  0.0000  0.0000  0.0000  0.0000  0.0000  0.0000  0.0000
  o =  0.0141  v =  0.0000  0.0000  0.0000  0.0000  0.0000  0.0315 -0.0003 -0.0035  0.0003  0.9995      0.0000  0.0000  0.0000  0.0000  0.0000  0.0000  0.0000  0.0000  0.0000  0.0000
  o =  0.0162  v =  0.0000  0.0000  0.0000  0.0000  0.0000 -0.0001 -0.7065  0.0000  0.7077 -0.0004      0.0000  0.0000  0.0000  0.0000  0.0000  0.0000  0.0000  0.0000  0.0000  0.0000
  o =  0.0592  v =  0.0000  0.0000  0.0000  0.0000  0.0000  0.0004  0.7077  0.0003  0.7065  0.0000      0.0000  0.0000  0.0000  0.0000  0.0000  0.0000  0.0000  0.0000  0.0000  0.0000
  o =  0.0665  v =  0.0000  0.0000  0.0000  0.0000  0.0000 -0.7965  0.0004 -0.6042  0.0004  0.0230      0.0000  0.0000  0.0000  0.0000  0.0000  0.0000  0.0000  0.0000  0.0000  0.0000
  o =  0.9442  v =  0.5962  0.0001 -0.8017  0.0000 -0.0440  0.0000  0.0000  0.0000  0.0000  0.0000      0.0000  0.0000  0.0000  0.0000  0.0000  0.0000  0.0000  0.0000  0.0000  0.0000
  o =  0.9474  v =  0.0001 -0.7070 -0.0000  0.7073  0.0015  0.0000  0.0000  0.0000  0.0000  0.0000      0.0000  0.0000  0.0000  0.0000  0.0000  0.0000  0.0000  0.0000  0.0000  0.0000
  o =  0.9478  v =  0.0430  0.0011 -0.0228 -0.0011  0.9988  0.0000  0.0000  0.0000  0.0000  0.0000      0.0000  0.0000  0.0000  0.0000  0.0000  0.0000  0.0000  0.0000  0.0000  0.0000
  o =  0.9815  v = -0.0005 -0.7073 -0.0005 -0.7070 -0.0000  0.0000  0.0000  0.0000  0.0000  0.0000      0.0000  0.0000  0.0000  0.0000  0.0000  0.0000  0.0000  0.0000  0.0000  0.0000
  o =  0.9849  v = -0.8017  0.0005 -0.5974  0.0005  0.0209  0.0000  0.0000  0.0000  0.0000  0.0000      0.0000  0.0000  0.0000  0.0000  0.0000  0.0000  0.0000  0.0000  0.0000  0.0000
atom =  10  type =  1  l = 2
 
[...]
    1        0.175   6.142   4.931  11.248
    2        0.175   6.144   4.932  11.251
    3        0.175   6.162   4.967  11.303
    4        0.175   6.144   4.932  11.251
    5        0.170   6.156   4.962  11.288
    6        0.163   6.146   4.946  11.255
    7        0.175   6.162   4.967  11.303
    8        0.163   6.146   4.946  11.255
    9        0.167   6.152   4.955  11.274
   10        0.166   6.149   4.952  11.267
   11        0.167   6.151   4.954  11.272
   12        0.166   6.149   4.952  11.267
   13        0.168   6.152   4.956  11.276
   14        0.168   6.153   4.957  11.277
   15        0.167   6.151   4.954  11.272
   16        0.168   6.153   4.957  11.277
   17        0.170   6.154   4.956  11.280
   18        0.167   6.152   4.955  11.274
   19        0.167   6.152   4.955  11.274
   20        0.167   6.152   4.955  11.274
   21        0.167   6.151   4.953  11.271
   22        0.167   6.152   4.956  11.275
   23        0.167   6.152   4.955  11.274
   24        0.167   6.152   4.956  11.275
   25        0.167   6.152   4.955  11.275
   26        0.166   6.149   4.952  11.267
   27        0.167   6.151   4.954  11.272
   28        0.166   6.149   4.952  11.267
   29        0.168   6.152   4.956  11.276
   30        0.168   6.153   4.957  11.277
   31        0.167   6.151   4.954  11.272
   32        0.168   6.153   4.957  11.277
   33        0.166   6.149   4.952  11.267
   34        0.166   6.150   4.952  11.268
   35        0.167   6.151   4.955  11.273
   36        0.166   6.150   4.952  11.268
   37        0.166   6.151   4.954  11.271
   38        0.168   6.153   4.958  11.279
   39        0.167   6.151   4.955  11.273
   40        0.168   6.153   4.958  11.279
   41        0.167   6.151   4.954  11.272
   42        0.167   6.151   4.954  11.272
   43        0.167   6.151   4.955  11.273
   44        0.167   6.151   4.954  11.272
   45        0.168   6.153   4.957  11.278
   46        0.167   6.152   4.955  11.274
   47        0.167   6.151   4.955  11.273
   48        0.167   6.152   4.955  11.274
   49        0.170   6.154   4.956  11.280
   50        0.167   6.152   4.955  11.274
   51        0.167   6.152   4.955  11.274
   52        0.167   6.152   4.955  11.274
   53        0.167   6.151   4.953  11.271
   54        0.167   6.152   4.956  11.275
   55        0.167   6.152   4.955  11.274
   56        0.167   6.152   4.956  11.275
   57        0.167   6.151   4.954  11.272
   58        0.167   6.151   4.954  11.272
   59        0.167   6.151   4.955  11.273
   60        0.167   6.151   4.954  11.272
   61        0.168   6.153   4.957  11.278
   62        0.167   6.152   4.955  11.274
   63        0.167   6.151   4.955  11.273
   64        0.167   6.152   4.955  11.274
   65        0.162   6.144   4.944  11.251
   66        0.166   6.150   4.952  11.268
   67        0.168   6.153   4.956  11.277
   68        0.166   6.150   4.952  11.268
   69        0.167   6.152   4.956  11.275
   70        0.167   6.152   4.955  11.274
   71        0.168   6.153   4.956  11.277
   72        0.167   6.152   4.955  11.274
   73        1.726   4.367   0.000   6.093
   74        1.726   4.367   0.000   6.093
   75        1.731   4.368   0.000   6.099
   76        1.726   4.358   0.000   6.084
   77        1.726   4.367   0.000   6.093
   78        1.726   4.367   0.000   6.094
   79        1.731   4.368   0.000   6.099
   80        1.726   4.358   0.000   6.084
   81        1.726   4.367   0.000   6.092
   82        1.726   4.367   0.000   6.092
   83        1.726   4.366   0.000   6.092
   84        1.726   4.372   0.000   6.098
   85        1.726   4.367   0.000   6.093
   86        1.726   4.367   0.000   6.094
   87        1.726   4.366   0.000   6.092
   88        1.726   4.372   0.000   6.098
   89        1.726   4.367   0.000   6.093
   90        1.726   4.368   0.000   6.094
   91        1.726   4.367   0.000   6.093
   92        1.726   4.367   0.000   6.092
   93        1.726   4.367   0.000   6.093
   94        1.726   4.365   0.000   6.091
   95        1.726   4.367   0.000   6.093
   96        1.726   4.367   0.000   6.092
   97        1.726   4.368   0.000   6.094
   98        1.726   4.367   0.000   6.093
   99        1.726   4.368   0.000   6.093
  100        1.726   4.366   0.000   6.092
  101        1.726   4.367   0.000   6.093
  102        1.726   4.365   0.000   6.091
  103        1.726   4.368   0.000   6.093
  104        1.726   4.366   0.000   6.092
  105        1.730   4.356   0.000   6.086
  106        1.726   4.369   0.000   6.095
  107        1.726   4.369   0.000   6.095
  108        1.726   4.364   0.000   6.090
  109        1.726   4.363   0.000   6.089
  110        1.726   4.366   0.000   6.092
  111        1.726   4.369   0.000   6.095
  112        1.726   4.364   0.000   6.090
  113        1.726   4.363   0.000   6.089
  114        1.726   4.366   0.000   6.091
  115        1.726   4.366   0.000   6.092
  116        1.726   4.366   0.000   6.092
  117        1.726   4.363   0.000   6.089
  118        1.726   4.366   0.000   6.092
  119        1.726   4.366   0.000   6.092
  120        1.726   4.366   0.000   6.092
  121        1.726   4.368   0.000   6.094
  122        1.726   4.367   0.000   6.093
  123        1.726   4.367   0.000   6.093
  124        1.726   4.367   0.000   6.092
  125        1.726   4.365   0.000   6.091
  126        1.726   4.367   0.000   6.093
  127        1.726   4.367   0.000   6.093
  128        1.726   4.367   0.000   6.092
  129        1.726   4.367   0.000   6.093
  130        1.726   4.368   0.000   6.094
  131        1.726   4.368   0.000   6.093
  132        1.726   4.366   0.000   6.092
  133        1.726   4.365   0.000   6.091
  134        1.726   4.367   0.000   6.093
  135        1.726   4.368   0.000   6.093
  136        1.726   4.366   0.000   6.092
  137        1.726   4.366   0.000   6.092
  138        1.726   4.366   0.000   6.092
  139        1.726   4.363   0.000   6.089
  140        1.726   4.364   0.000   6.090
  141        1.726   4.367   0.000   6.092
  142        1.726   4.367   0.000   6.092
  143        1.726   4.363   0.000   6.089
  144        1.726   4.364   0.000   6.090
  145        1.726   4.366   0.000   6.092
  146        1.726   4.366   0.000   6.092
  147        1.726   4.369   0.000   6.095
  148        1.726   4.367   0.000   6.093
  149        1.726   4.367   0.000   6.092
  150        1.726   4.367   0.000   6.092
  151        1.726   4.369   0.000   6.095
  152        1.726   4.367   0.000   6.093
  153        1.726   4.365   0.000   6.091
  154        1.726   4.367   0.000   6.093
  155        1.726   4.367   0.000   6.093
  156        1.726   4.368   0.000   6.094
  157        1.726   4.366   0.000   6.092
  158        1.726   4.366   0.000   6.092
  159        1.726   4.367   0.000   6.093
  160        1.726   4.368   0.000   6.094
  161        1.726   4.368   0.000   6.093
  162        1.726   4.367   0.000   6.093
  163        1.726   4.367   0.000   6.093
  164        1.726   4.367   0.000   6.093
  165        1.726   4.366   0.000   6.092
  166        1.726   4.366   0.000   6.092
  167        1.726   4.367   0.000   6.093
  168        1.726   4.367   0.000   6.093
  169        1.726   4.369   0.000   6.095
  170        1.730   4.355   0.000   6.086
  171        1.726   4.369   0.000   6.095
  172        1.726   4.364   0.000   6.090
  173        1.726   4.366   0.000   6.092
  174        1.726   4.363   0.000   6.089
  175        1.726   4.369   0.000   6.095
  176        1.726   4.364   0.000   6.090
  177        1.726   4.366   0.000   6.091
  178        1.726   4.363   0.000   6.089
  179        1.726   4.367   0.000   6.092
  180        1.726   4.366   0.000   6.092
  181        1.726   4.366   0.000   6.092
  182        1.726   4.363   0.000   6.089
  183        1.726   4.366   0.000   6.092
  184        1.726   4.366   0.000   6.092
  185        1.726   4.367   0.000   6.093
  186        1.726   4.365   0.000   6.091
  187        1.726   4.367   0.000   6.093
  188        1.726   4.368   0.000   6.094
  189        1.726   4.366   0.000   6.092
  190        1.726   4.366   0.000   6.092
  191        1.726   4.367   0.000   6.093
  192        1.726   4.368   0.000   6.094
  193        1.726   4.367   0.000   6.093
  194        1.726   4.368   0.000   6.093
  195        1.726   4.367   0.000   6.093
  196        1.726   4.367   0.000   6.093
  197        1.726   4.366   0.000   6.092
  198        1.726   4.366   0.000   6.092
  199        1.726   4.367   0.000   6.093
  200        1.726   4.367   0.000   6.093
  201        1.726   4.366   0.000   6.092
  202        1.726   4.366   0.000   6.092
  203        1.726   4.363   0.000   6.088
  204        1.726   4.369   0.000   6.096
  205        1.726   4.367   0.000   6.093
  206        1.726   4.367   0.000   6.093
  207        1.726   4.363   0.000   6.088
  208        1.726   4.369   0.000   6.096
  209        1.726   4.367   0.000   6.093
  210        1.726   4.367   0.000   6.093
  211        1.726   4.367   0.000   6.092
  212        1.726   4.366   0.000   6.092
  213        1.726   4.367   0.000   6.093
  214        1.726   4.367   0.000   6.093
  215        1.726   4.367   0.000   6.092
  216        1.726   4.366   0.000   6.092
  217        0.575   0.008   0.000   0.582
--------------------------------------------------
tot        261.1661071.653 356.6781689.497
 


 magnetization (x)
 
# of ion       s       p       d       tot
------------------------------------------
    1        0.016   0.018   4.600   4.634
    2       -0.022  -0.018  -4.598  -4.638
    3        0.019   0.020   4.615   4.654
    4       -0.022  -0.018  -4.598  -4.638
    5        0.018   0.019   4.624   4.661
    6       -0.018  -0.018  -4.630  -4.667
    7        0.019   0.020   4.615   4.654
    8       -0.018  -0.018  -4.630  -4.667
    9        0.018   0.019   4.627   4.664
   10       -0.018  -0.019  -4.629  -4.666
   11        0.018   0.019   4.628   4.665
   12       -0.018  -0.019  -4.629  -4.666
   13        0.018   0.019   4.627   4.664
   14       -0.018  -0.019  -4.627  -4.664
   15        0.018   0.019   4.628   4.665
   16       -0.018  -0.019  -4.627  -4.664
   17        0.019   0.019   4.622   4.661
   18       -0.018  -0.019  -4.627  -4.664
   19        0.019   0.019   4.627   4.664
   20       -0.018  -0.019  -4.627  -4.664
   21        0.018   0.019   4.628   4.665
   22       -0.018  -0.019  -4.627  -4.664
   23        0.019   0.019   4.627   4.664
   24       -0.018  -0.019  -4.627  -4.664
   25        0.018   0.019   4.627   4.664
   26       -0.018  -0.019  -4.629  -4.666
   27        0.018   0.019   4.628   4.665
   28       -0.018  -0.019  -4.629  -4.666
   29        0.018   0.019   4.627   4.664
   30       -0.018  -0.019  -4.627  -4.664
   31        0.018   0.019   4.628   4.665
   32       -0.018  -0.019  -4.627  -4.664
   33        0.018   0.018   4.629   4.666
   34       -0.019  -0.019  -4.628  -4.665
   35        0.018   0.019   4.628   4.665
   36       -0.019  -0.019  -4.628  -4.665
   37        0.018   0.019   4.628   4.665
   38       -0.018  -0.019  -4.626  -4.663
   39        0.018   0.019   4.628   4.665
   40       -0.018  -0.019  -4.626  -4.663
   41        0.018   0.019   4.628   4.665
   42       -0.018  -0.019  -4.628  -4.665
   43        0.018   0.019   4.628   4.665
   44       -0.018  -0.019  -4.628  -4.665
   45        0.018   0.019   4.627   4.664
   46       -0.018  -0.019  -4.628  -4.665
   47        0.018   0.019   4.628   4.665
   48       -0.018  -0.019  -4.628  -4.665
   49        0.019   0.019   4.622   4.661
   50       -0.018  -0.019  -4.627  -4.664
   51        0.019   0.019   4.627   4.664
   52       -0.018  -0.019  -4.627  -4.664
   53        0.018   0.019   4.628   4.665
   54       -0.018  -0.019  -4.627  -4.664
   55        0.019   0.019   4.627   4.664
   56       -0.018  -0.019  -4.627  -4.664
   57        0.018   0.019   4.628   4.665
   58       -0.018  -0.019  -4.628  -4.665
   59        0.018   0.019   4.628   4.665
   60       -0.018  -0.019  -4.628  -4.665
   61        0.018   0.019   4.627   4.664
   62       -0.018  -0.019  -4.628  -4.665
   63        0.018   0.019   4.628   4.665
   64       -0.018  -0.019  -4.628  -4.665
   65        0.019   0.019   4.633   4.671
   66       -0.018  -0.018  -4.629  -4.665
   67        0.018   0.019   4.627   4.664
   68       -0.018  -0.018  -4.629  -4.665
   69        0.018   0.019   4.627   4.664
   70       -0.018  -0.019  -4.627  -4.665
   71        0.018   0.019   4.627   4.664
   72       -0.018  -0.019  -4.627  -4.665
   73       -0.002  -0.017   0.000  -0.019
   74       -0.002  -0.017   0.000  -0.019
   75        0.001   0.021   0.000   0.022
   76        0.002   0.008   0.000   0.009
   77       -0.002  -0.017   0.000  -0.019
   78       -0.002  -0.017   0.000  -0.019
   79        0.001   0.021   0.000   0.022
   80        0.002   0.008   0.000   0.009
   81       -0.002  -0.016   0.000  -0.018
   82       -0.002  -0.016   0.000  -0.018
   83        0.002   0.018   0.000   0.020
   84        0.002   0.013   0.000   0.014
   85       -0.002  -0.017   0.000  -0.019
   86       -0.002  -0.017   0.000  -0.019
   87        0.002   0.018   0.000   0.020
   88        0.002   0.013   0.000   0.014
   89       -0.002  -0.014   0.000  -0.016
   90       -0.002  -0.015   0.000  -0.017
   91        0.002   0.016   0.000   0.018
   92        0.002   0.015   0.000   0.017
   93       -0.002  -0.014   0.000  -0.016
   94       -0.002  -0.015   0.000  -0.016
   95        0.002   0.016   0.000   0.018
   96        0.002   0.015   0.000   0.017
   97       -0.002  -0.015   0.000  -0.016
   98       -0.002  -0.015   0.000  -0.017
   99        0.002   0.016   0.000   0.018
  100        0.002   0.014   0.000   0.016
  101       -0.002  -0.014   0.000  -0.016
  102       -0.002  -0.015   0.000  -0.016
  103        0.002   0.016   0.000   0.018
  104        0.002   0.014   0.000   0.016
  105       -0.003  -0.009   0.000  -0.011
  106       -0.002  -0.017   0.000  -0.019
  107        0.002   0.015   0.000   0.017
  108        0.002   0.015   0.000   0.017
  109       -0.002  -0.009   0.000  -0.011
  110       -0.002  -0.017   0.000  -0.019
  111        0.002   0.015   0.000   0.017
  112        0.002   0.015   0.000   0.017
  113       -0.002  -0.010   0.000  -0.012
  114       -0.002  -0.016   0.000  -0.018
  115        0.002   0.015   0.000   0.017
  116        0.002   0.014   0.000   0.016
  117       -0.002  -0.009   0.000  -0.011
  118       -0.002  -0.017   0.000  -0.019
  119        0.002   0.015   0.000   0.017
  120        0.002   0.014   0.000   0.016
  121       -0.002  -0.015   0.000  -0.017
  122       -0.002  -0.014   0.000  -0.016
  123        0.002   0.016   0.000   0.018
  124        0.002   0.015   0.000   0.017
  125       -0.002  -0.015   0.000  -0.016
  126       -0.002  -0.014   0.000  -0.016
  127        0.002   0.016   0.000   0.018
  128        0.002   0.015   0.000   0.017
  129       -0.002  -0.015   0.000  -0.017
  130       -0.002  -0.015   0.000  -0.016
  131        0.002   0.016   0.000   0.018
  132        0.002   0.014   0.000   0.016
  133       -0.002  -0.015   0.000  -0.016
  134       -0.002  -0.014   0.000  -0.016
  135        0.002   0.016   0.000   0.018
  136        0.002   0.014   0.000   0.016
  137       -0.002  -0.015   0.000  -0.017
  138       -0.002  -0.015   0.000  -0.017
  139        0.002   0.017   0.000   0.019
  140        0.002   0.017   0.000   0.019
  141       -0.002  -0.015   0.000  -0.017
  142       -0.002  -0.015   0.000  -0.017
  143        0.002   0.017   0.000   0.019
  144        0.002   0.017   0.000   0.019
  145       -0.002  -0.014   0.000  -0.016
  146       -0.002  -0.015   0.000  -0.016
  147        0.002   0.014   0.000   0.016
  148        0.002   0.015   0.000   0.017
  149       -0.002  -0.015   0.000  -0.017
  150       -0.002  -0.015   0.000  -0.017
  151        0.002   0.014   0.000   0.016
  152        0.002   0.015   0.000   0.017
  153       -0.002  -0.014   0.000  -0.016
  154       -0.002  -0.016   0.000  -0.018
  155        0.002   0.015   0.000   0.017
  156        0.002   0.016   0.000   0.018
  157       -0.002  -0.014   0.000  -0.016
  158       -0.002  -0.015   0.000  -0.017
  159        0.002   0.015   0.000   0.017
  160        0.002   0.016   0.000   0.018
  161       -0.002  -0.014   0.000  -0.016
  162       -0.002  -0.015   0.000  -0.016
  163        0.002   0.015   0.000   0.017
  164        0.002   0.016   0.000   0.017
  165       -0.002  -0.014   0.000  -0.016
  166       -0.002  -0.015   0.000  -0.017
  167        0.002   0.015   0.000   0.017
  168        0.002   0.016   0.000   0.017
  169       -0.002  -0.017   0.000  -0.019
  170       -0.003  -0.009   0.000  -0.011
  171        0.002   0.015   0.000   0.017
  172        0.002   0.015   0.000   0.016
  173       -0.002  -0.017   0.000  -0.019
  174       -0.002  -0.009   0.000  -0.011
  175        0.002   0.015   0.000   0.017
  176        0.002   0.015   0.000   0.016
  177       -0.002  -0.016   0.000  -0.018
  178       -0.002  -0.010   0.000  -0.012
  179        0.002   0.015   0.000   0.017
  180        0.002   0.014   0.000   0.016
  181       -0.002  -0.017   0.000  -0.019
  182       -0.002  -0.009   0.000  -0.011
  183        0.002   0.015   0.000   0.017
  184        0.002   0.014   0.000   0.016
  185       -0.002  -0.016   0.000  -0.018
  186       -0.002  -0.014   0.000  -0.016
  187        0.002   0.015   0.000   0.017
  188        0.002   0.016   0.000   0.018
  189       -0.002  -0.015   0.000  -0.017
  190       -0.002  -0.014   0.000  -0.016
  191        0.002   0.015   0.000   0.017
  192        0.002   0.016   0.000   0.018
  193       -0.002  -0.015   0.000  -0.016
  194       -0.002  -0.014   0.000  -0.016
  195        0.002   0.015   0.000   0.017
  196        0.002   0.016   0.000   0.017
  197       -0.002  -0.015   0.000  -0.017
  198       -0.002  -0.014   0.000  -0.016
  199        0.002   0.015   0.000   0.017
  200        0.002   0.016   0.000   0.017
  201       -0.002  -0.017   0.000  -0.019
  202       -0.002  -0.017   0.000  -0.019
  203        0.002   0.012   0.000   0.014
  204        0.002   0.023   0.000   0.025
  205       -0.002  -0.016   0.000  -0.018
  206       -0.002  -0.016   0.000  -0.018
  207        0.002   0.012   0.000   0.014
  208        0.002   0.023   0.000   0.025
  209       -0.002  -0.015   0.000  -0.017
  210       -0.002  -0.015   0.000  -0.017
  211        0.002   0.013   0.000   0.014
  212        0.002   0.017   0.000   0.019
  213       -0.002  -0.016   0.000  -0.018
  214       -0.002  -0.016   0.000  -0.018
  215        0.002   0.013   0.000   0.014
  216        0.002   0.017   0.000   0.019
  217        0.006  -0.001   0.000   0.005
--------------------------------------------------
tot         -0.003   0.041  -0.009   0.029
 

 total amount of memory used by VASP MPI-rank0   501409. kBytes
=======================================================================

   base      :      30000. kBytes
   nonl-proj :      51625. kBytes
   fftplans  :      22373. kBytes
   grid      :      17829. kBytes
   one-center:        590. kBytes
   wavefun   :     378992. kBytes
 
  
  
 General timing and accounting informations for this job:
 ========================================================
  
                  Total CPU time used (sec):      999.870
                            User time (sec):      979.615
                          System time (sec):       20.254
                         Elapsed time (sec):     1182.000
  
                   Maximum memory used (kb):      720908.
                   Average memory used (kb):           0.
  
                          Minor page faults:       198513
                          Major page faults:           25
                 Voluntary context switches:        12607
