 vasp.5.4.4.18Apr17-6-g9f103f2a35 (build Apr 27 2017 11:13:10) complex          
  
 executed on           IFC91_ompi date 2020.05.13  10:19:35
 running on   12 total cores
 distrk:  each k-point on   12 cores,    1 groups
 distr:  one band on NCORES_PER_BAND=   1 cores,   12 groups


--------------------------------------------------------------------------------------------------------


 INCAR:
 POTCAR:    PAW_PBE Mn_pv 02Aug2007               
 POTCAR:    PAW_PBE F 08Apr2002                   

 ----------------------------------------------------------------------------- 
|                                                                             |
|           W    W    AA    RRRRR   N    N  II  N    N   GGGG   !!!           |
|           W    W   A  A   R    R  NN   N  II  NN   N  G    G  !!!           |
|           W    W  A    A  R    R  N N  N  II  N N  N  G       !!!           |
|           W WW W  AAAAAA  RRRRR   N  N N  II  N  N N  G  GGG   !            |
|           WW  WW  A    A  R   R   N   NN  II  N   NN  G    G                |
|           W    W  A    A  R    R  N    N  II  N    N   GGGG   !!!           |
|                                                                             |
|      For optimal performance we recommend to set                            |
|        NCORE= 4 - approx SQRT( number of cores)                             |
|      NCORE specifies how many cores store one orbital (NPAR=cpu/NCORE).     |
|      This setting can  greatly improve the performance of VASP for DFT.     |
|      The default,   NCORE=1            might be grossly inefficient         |
|      on modern multi-core architectures or massively parallel machines.     |
|      Do your own testing !!!!                                               |
|      Unfortunately you need to use the default for GW and RPA calculations. |
|      (for HF NCORE is supported but not extensively tested yet)             |
|                                                                             |
 ----------------------------------------------------------------------------- 

 POTCAR:    PAW_PBE Mn_pv 02Aug2007               
   VRHFIN =Mn: 3p4s3d                                                           
   LEXCH  = PE                                                                  
   EATOM  =  2025.2664 eV,  148.8529 Ry                                         
                                                                                
   TITEL  = PAW_PBE Mn_pv 02Aug2007                                             
   LULTRA =        F    use ultrasoft PP ?                                      
   IUNSCR =        1    unscreen: 0-lin 1-nonlin 2-no                           
   RPACOR =    2.080    partial core radius                                     
   POMASS =   54.938; ZVAL   =   13.000    mass and valenz                      
   RCORE  =    2.300    outmost cutoff radius                                   
   RWIGS  =    2.500; RWIGS  =    1.323    wigner-seitz radius (au A)           
   ENMAX  =  269.864; ENMIN  =  202.398 eV                                      
   ICORE  =        3    local potential                                         
   LCOR   =        T    correct aug charges                                     
   LPAW   =        T    paw PP                                                  
   EAUG   =  569.085                                                            
   DEXC   =    0.000                                                            
   RMAX   =    2.343    core radius for proj-oper                               
   RAUG   =    1.300    factor for augmentation sphere                          
   RDEP   =    2.338    radius for radial grids                                 
   RDEPT  =    1.798    core radius for aug-charge                              
                                                                                
   Atomic configuration                                                         
    8 entries                                                                   
     n  l   j            E        occ.                                          
     1  0  0.50     -6424.8287   2.0000                                         
     2  0  0.50      -739.1154   2.0000                                         
     2  1  1.50      -625.3949   6.0000                                         
     3  0  0.50       -81.6100   2.0000                                         
     3  1  1.50       -50.4667   6.0000                                         
     3  2  2.50        -3.3745   6.0000                                         
     4  0  0.50        -4.1331   1.0000                                         
     4  3  2.50        -1.3606   0.0000                                         
   Description                                                                  
     l       E           TYP  RCUT    TYP  RCUT                                 
     1    -50.4666628     23  2.000                                             
     1     -1.3605826     23  2.000                                             
     2     -3.3744729     23  2.300                                             
     2     -4.7350555     23  2.300                                             
     0     -4.1331431     23  2.300                                             
     0      7.6656591     23  2.300                                             
     3      9.5240782     23  2.300                                             
  local pseudopotential read in
  partial core-charges read in
  partial kinetic energy density read in
  atomic valenz-charges read in
  non local Contribution for L=           1  read in
    real space projection operators read in
  non local Contribution for L=           1  read in
    real space projection operators read in
  non local Contribution for L=           2  read in
    real space projection operators read in
  non local Contribution for L=           2  read in
    real space projection operators read in
  non local Contribution for L=           0  read in
    real space projection operators read in
  non local Contribution for L=           0  read in
    real space projection operators read in
    PAW grid and wavefunctions read in
 
   number of l-projection  operators is LMAX  =           6
   number of lm-projection operators is LMMAX =          18
 
 POTCAR:    PAW_PBE F 08Apr2002                   
   VRHFIN =F: s2p5                                                              
   LEXCH  = PE                                                                  
   EATOM  =   659.6475 eV,   48.4827 Ry                                         
                                                                                
   TITEL  = PAW_PBE F 08Apr2002                                                 
   LULTRA =        F    use ultrasoft PP ?                                      
   IUNSCR =        1    unscreen: 0-lin 1-nonlin 2-no                           
   RPACOR =    1.200    partial core radius                                     
   POMASS =   18.998; ZVAL   =    7.000    mass and valenz                      
   RCORE  =    1.520    outmost cutoff radius                                   
   RWIGS  =    1.500; RWIGS  =    0.794    wigner-seitz radius (au A)           
   ENMAX  =  400.000; ENMIN  =  300.000 eV                                      
   ICORE  =        2    local potential                                         
   LCOR   =        T    correct aug charges                                     
   LPAW   =        T    paw PP                                                  
   EAUG   =  613.614                                                            
   RMAX   =    1.555    core radius for proj-oper                               
   RAUG   =    1.300    factor for augmentation sphere                          
   RDEP   =    1.539    radius for radial grids                                 
   RDEPT  =    1.299    core radius for aug-charge                              
                                                                                
   Atomic configuration                                                         
    4 entries                                                                   
     n  l   j            E        occ.                                          
     1  0  0.50      -663.3661   2.0000                                         
     2  0  0.50       -29.8995   2.0000                                         
     2  1  0.50       -11.1114   5.0000                                         
     3  2  1.50       -10.8847   0.0000                                         
   Description                                                                  
     l       E           TYP  RCUT    TYP  RCUT                                 
     0    -29.8995018     23  1.200                                             
     0     -9.5240782     23  1.200                                             
     1    -11.1113914     23  1.520                                             
     1      1.3605826     23  1.520                                             
     2    -10.8846608      7  1.500                                             
  local pseudopotential read in
  partial core-charges read in
  partial kinetic energy density read in
  atomic valenz-charges read in
  non local Contribution for L=           0  read in
    real space projection operators read in
  non local Contribution for L=           0  read in
    real space projection operators read in
  non local Contribution for L=           1  read in
    real space projection operators read in
  non local Contribution for L=           1  read in
    real space projection operators read in
    PAW grid and wavefunctions read in
 
   number of l-projection  operators is LMAX  =           4
   number of lm-projection operators is LMMAX =           8
 

 ----------------------------------------------------------------------------- 
|                                                                             |
|  ADVICE TO THIS USER RUNNING 'VASP/VAMP'   (HEAR YOUR MASTER'S VOICE ...):  |
|                                                                             |
|      You enforced a specific xc-type in the INCAR file,                     |
|      a different type was found on the POTCAR file                          |
|          I HOPE YOU KNOW, WHAT YOU ARE  DOING                               |
|                                                                             |
 ----------------------------------------------------------------------------- 

  PAW_PBE Mn_pv 02Aug2007               :
 energy of atom  1       EATOM=-2025.2664
 kinetic energy error for atom=    0.0047 (will be added to EATOM!!)
  PAW_PBE F 08Apr2002                   :
 energy of atom  2       EATOM= -659.6475
 kinetic energy error for atom=    0.0256 (will be added to EATOM!!)
 
 
 POSCAR: Mn  F                                   
  positions in cartesian coordinates
  No initial velocities read in
 exchange correlation table for  LEXCH =       14
   RHO(1)=    0.500       N(1)  =     2000
   RHO(2)=  100.500       N(2)  =     4000
 


--------------------------------------------------------------------------------------------------------


 ion  position               nearest neighbor table
   1  0.500  0.500  0.500-   3 2.11   4 2.11   5 2.14   6 2.14   5 2.14   6 2.14
   2  0.000  0.000  0.000-   5 2.11   6 2.11   3 2.14   4 2.14   3 2.14   4 2.14
   3  0.195  0.805  0.500-   1 2.11   2 2.14   2 2.14
   4  0.805  0.195  0.500-   1 2.11   2 2.14   2 2.14
   5  0.305  0.305  0.000-   2 2.11   1 2.14   1 2.14
   6  0.695  0.695  0.000-   2 2.11   1 2.14   1 2.14
 
  LATTYP: Found a simple tetragonal cell.
 ALAT       =     4.8985218199
 C/A-ratio  =     0.6764678846
  
  Lattice vectors:
  
 A1 = (   4.8985218199,   0.0000000000,   0.0000000000)
 A2 = (   0.0000000000,   4.8985218199,   0.0000000000)
 A3 = (   0.0000000000,   0.0000000000,   3.3136926931)


Analysis of symmetry for initial positions (statically):
=====================================================================
 Subroutine PRICEL returns:
 Original cell was already a primitive cell.
 

 Routine SETGRP: Setting up the symmetry group for a 
 simple tetragonal supercell.


 Subroutine GETGRP returns: Found 16 space group operations
 (whereof  8 operations were pure point group operations)
 out of a pool of 16 trial point group operations.


The static configuration has the point symmetry D_2h.
 The point group associated with its full space group is D_4h.


Analysis of symmetry for dynamics (positions and initial velocities):
=====================================================================
 Subroutine PRICEL returns:
 Original cell was already a primitive cell.
 

 Routine SETGRP: Setting up the symmetry group for a 
 simple tetragonal supercell.


 Subroutine GETGRP returns: Found 16 space group operations
 (whereof  8 operations were pure point group operations)
 out of a pool of 16 trial point group operations.


The dynamic configuration has the point symmetry D_2h.
 The point group associated with its full space group is D_4h.


Analysis of structural, dynamic, and magnetic symmetry:
=====================================================================
 Subroutine PRICEL returns:
 Original cell was already a primitive cell.
 

 Routine SETGRP: Setting up the symmetry group for a 
 simple tetragonal supercell.


 Subroutine GETGRP returns: Found 16 space group operations
 (whereof  8 operations were pure point group operations)
 out of a pool of 16 trial point group operations.


The magnetic configuration has the point symmetry D_2h.
 The point group associated with its full space group is D_4h.


 Subroutine INISYM returns: Found 16 space group operations
 (whereof  8 operations are pure point group operations),
 and found     1 'primitive' translations

 
 
 KPOINTS: KPOINTS created by Atomic Simulation Env

Automatic generation of k-mesh.
Space group operators:
 irot       det(A)        alpha          n_x          n_y          n_z        tau_x        tau_y        tau_z
    1     1.000000     0.000001     1.000000     0.000000     0.000000     0.000000     0.000000     0.000000
    2    -1.000000     0.000001     1.000000     0.000000     0.000000     0.000000     0.000000     0.000000
    3     1.000000   180.000000     0.000000     0.000000     1.000000     0.000000     0.000000     0.000000
    4    -1.000000   180.000000     0.000000     0.000000     1.000000     0.000000     0.000000     0.000000
    5     1.000000   180.000000     0.707107     0.707107     0.000000     0.000000     0.000000     0.000000
    6    -1.000000   180.000000     0.707107     0.707107     0.000000     0.000000     0.000000     0.000000
    7     1.000000   180.000000     0.707107    -0.707107     0.000000     0.000000     0.000000     0.000000
    8    -1.000000   180.000000     0.707107    -0.707107     0.000000     0.000000     0.000000     0.000000
    9     1.000000    90.000000     0.000000     0.000000    -1.000000     0.500000     0.500000     0.500000
   10    -1.000000    90.000000     0.000000     0.000000    -1.000000     0.500000     0.500000     0.500000
   11     1.000000    90.000000     0.000000     0.000000     1.000000     0.500000     0.500000     0.500000
   12    -1.000000    90.000000     0.000000     0.000000     1.000000     0.500000     0.500000     0.500000
   13     1.000000   180.000000     0.000000     1.000000     0.000000     0.500000     0.500000     0.500000
   14    -1.000000   180.000000     0.000000     1.000000     0.000000     0.500000     0.500000     0.500000
   15     1.000000   180.000000     1.000000     0.000000     0.000000     0.500000     0.500000     0.500000
   16    -1.000000   180.000000     1.000000     0.000000     0.000000     0.500000     0.500000     0.500000
 
 Subroutine IBZKPT returns following result:
 ===========================================
 
 Found      9 irreducible k-points:
 
 Following reciprocal coordinates:
            Coordinates               Weight
  0.125000  0.125000  0.083333      8.000000
  0.375000  0.125000  0.083333     16.000000
  0.375000  0.375000  0.083333      8.000000
  0.125000  0.125000  0.250000      8.000000
  0.375000  0.125000  0.250000     16.000000
  0.375000  0.375000  0.250000      8.000000
  0.125000  0.125000  0.416667      8.000000
  0.375000  0.125000  0.416667     16.000000
  0.375000  0.375000  0.416667      8.000000
 
 Following cartesian coordinates:
            Coordinates               Weight
  0.025518  0.025518  0.025148      8.000000
  0.076554  0.025518  0.025148     16.000000
  0.076554  0.076554  0.025148      8.000000
  0.025518  0.025518  0.075445      8.000000
  0.076554  0.025518  0.075445     16.000000
  0.076554  0.076554  0.075445      8.000000
  0.025518  0.025518  0.125741      8.000000
  0.076554  0.025518  0.125741     16.000000
  0.076554  0.076554  0.125741      8.000000
 
 TETIRR: Found    106 inequivalent tetrahedra from      576


--------------------------------------------------------------------------------------------------------




 Dimension of arrays:
   k-points           NKPTS =      9   k-points in BZ     NKDIM =      9   number of bands    NBANDS=     36
   number of dos      NEDOS =    301   number of ions     NIONS =      6
   non local maximal  LDIM  =      6   non local SUM 2l+1 LMDIM =     18
   total plane-waves  NPLWV =  18000
   max r-space proj   IRMAX =      1   max aug-charges    IRDMAX=  55144
   dimension x,y,z NGX =    30 NGY =   30 NGZ =   20
   dimension x,y,z NGXF=    60 NGYF=   60 NGZF=   40
   support grid    NGXF=   120 NGYF=  120 NGZF=   80
   ions per type =               2   4
   NGX,Y,Z   is equivalent  to a cutoff of  10.18, 10.18, 10.03 a.u.
   NGXF,Y,Z  is equivalent  to a cutoff of  20.36, 20.36, 20.07 a.u.

 SYSTEM =  unknown system                          
 POSCAR =  Mn  F                                   

 Startparameter for this run:
   NWRITE =      2    write-flag & timer
   PREC   = normal    normal or accurate (medium, high low for compatibility)
   ISTART =      0    job   : 0-new  1-cont  2-samecut
   ICHARG =      2    charge: 1-file 2-atom 10-const
   ISPIN  =      2    spin polarized calculation?
   LNONCOLLINEAR =      F non collinear calculations
   LSORBIT =      F    spin-orbit coupling
   INIWAV =      1    electr: 0-lowe 1-rand  2-diag
   LASPH  =      T    aspherical Exc in radial PAW
   METAGGA=      F    non-selfconsistent MetaGGA calc.

 Electronic Relaxation 1
   ENCUT  =  600.0 eV  44.10 Ry    6.64 a.u.   9.78  9.78  6.62*2*pi/ulx,y,z
   ENINI  =  600.0     initial cutoff
   ENAUG  =  613.6 eV  augmentation charge cutoff
   NELM   =     60;   NELMIN=  2; NELMDL= -5     # of ELM steps 
   EDIFF  = 0.1E-05   stopping-criterion for ELM
   LREAL  =      F    real-space projection
   NLSPLINE    = F    spline interpolate recip. space projectors
   LCOMPAT=      F    compatible to vasp.4.4
   GGA_COMPAT  = T    GGA compatible to vasp.4.4-vasp.4.6
   LMAXPAW     = -100 max onsite density
   LMAXMIX     =    4 max onsite mixed and CHGCAR
   VOSKOWN=      0    Vosko Wilk Nusair interpolation
   ROPT   =    0.00000   0.00000
 Ionic relaxation
   EDIFFG = 0.1E-04   stopping-criterion for IOM
   NSW    =      0    number of steps for IOM
   NBLOCK =      1;   KBLOCK =      1    inner block; outer block 
   IBRION =     -1    ionic relax: 0-MD 1-quasi-New 2-CG
   NFREE  =      0    steps in history (QN), initial steepest desc. (CG)
   ISIF   =      2    stress and relaxation
   IWAVPR =     10    prediction:  0-non 1-charg 2-wave 3-comb
   ISYM   =      2    0-nonsym 1-usesym 2-fastsym
   LCORR  =      T    Harris-Foulkes like correction to forces

   POTIM  = 0.5000    time-step for ionic-motion
   TEIN   =    0.0    initial temperature
   TEBEG  =    0.0;   TEEND  =   0.0 temperature during run
   SMASS  =  -3.00    Nose mass-parameter (am)
   estimated Nose-frequenzy (Omega)   =  0.10E-29 period in steps =****** mass=  -0.548E-27a.u.
   SCALEE = 1.0000    scale energy and forces
   NPACO  =    256;   APACO  = 16.0  distance and # of slots for P.C.
   PSTRESS=    0.0 pullay stress

  Mass of Ions in am
   POMASS =  54.94 19.00
  Ionic Valenz
   ZVAL   =  13.00  7.00
  Atomic Wigner-Seitz radii
   RWIGS  =  -1.00 -1.00
  virtual crystal weights 
   VCA    =   1.00  1.00
   NELECT =      54.0000    total number of electrons
   NUPDOWN=      -1.0000    fix difference up-down

 DOS related values:
   EMIN   =  10.00;   EMAX   =-10.00  energy-range for DOS
   EFERMI =   0.00
   ISMEAR =    -5;   SIGMA  =   0.20  broadening in eV -4-tet -1-fermi 0-gaus

 Electronic relaxation 2 (details)
   IALGO  =     38    algorithm
   LDIAG  =      T    sub-space diagonalisation (order eigenvalues)
   LSUBROT=      F    optimize rotation matrix (better conditioning)
   TURBO    =      0    0=normal 1=particle mesh
   IRESTART =      0    0=no restart 2=restart with 2 vectors
   NREBOOT  =      0    no. of reboots
   NMIN     =      0    reboot dimension
   EREF     =   0.00    reference energy to select bands
   IMIX   =      4    mixing-type and parameters
     AMIX     =   0.40;   BMIX     =  1.00
     AMIX_MAG =   1.60;   BMIX_MAG =  1.00
     AMIN     =   0.10
     WC   =   100.;   INIMIX=   1;  MIXPRE=   1;  MAXMIX= -45

 Intra band minimization:
   WEIMIN = 0.0000     energy-eigenvalue tresh-hold
   EBREAK =  0.69E-08  absolut break condition
   DEPER  =   0.30     relativ break condition  

   TIME   =   0.40     timestep for ELM

  volume/ion in A,a.u.               =      13.25        89.43
  Fermi-wavevector in a.u.,A,eV,Ry     =   1.438993  2.719302 28.173591  2.070700
  Thomas-Fermi vector in A             =   2.557898
 
 Write flags
   LWAVE        =      T    write WAVECAR
   LDOWNSAMPLE  =      F    k-point downsampling of WAVECAR
   LCHARG       =      T    write CHGCAR
   LVTOT        =      F    write LOCPOT, total local potential
   LVHAR        =      F    write LOCPOT, Hartree potential only
   LELF         =      F    write electronic localiz. function (ELF)
   LORBIT       =     11    0 simple, 1 ext, 2 COOP (PROOUT), +10 PAW based schemes


 Dipole corrections
   LMONO  =      F    monopole corrections only (constant potential shift)
   LDIPOL =      F    correct potential (dipole corrections)
   IDIPOL =      0    1-x, 2-y, 3-z, 4-all directions 
   EPSILON=  1.0000000 bulk dielectric constant

 LDA+U is selected, type is set to LDAUTYPE =  2
   angular momentum for each species LDAUL =     2   -1
   U (eV)           for each species LDAUU =   8.0  0.0
   J (eV)           for each species LDAUJ =   0.0  0.0
 Exchange correlation treatment:
   GGA     =    PS    GGA type
   LEXCH   =    14    internal setting for exchange type
   VOSKOWN=      0    Vosko Wilk Nusair interpolation
   LHFCALC =     F    Hartree Fock is set to
   LHFONE  =     F    Hartree Fock one center treatment
   AEXX    =    0.0000 exact exchange contribution

 Linear response parameters
   LEPSILON=     F    determine dielectric tensor
   LRPA    =     F    only Hartree local field effects (RPA)
   LNABLA  =     F    use nabla operator in PAW spheres
   LVEL    =     F    velocity operator in full k-point grid
   LINTERFAST=   F  fast interpolation
   KINTER  =     0    interpolate to denser k-point grid
   CSHIFT  =0.1000    complex shift for real part using Kramers Kronig
   OMEGAMAX=  -1.0    maximum frequency
   DEG_THRESHOLD= 0.2000000E-02 threshold for treating states as degnerate
   RTIME   =   -0.100 relaxation time in fs
  (WPLASMAI=    0.000 imaginary part of plasma frequency in eV, 0.658/RTIME)
   DFIELD  = 0.0000000 0.0000000 0.0000000 field for delta impulse in time
 
 Orbital magnetization related:
   ORBITALMAG=     F  switch on orbital magnetization
   LCHIMAG   =     F  perturbation theory with respect to B field
   DQ        =  0.001000  dq finite difference perturbation B field
   LLRAUG    =     F  two centre corrections for induced B field



--------------------------------------------------------------------------------------------------------


 Static calculation
 charge density and potential will be updated during run
 spin polarized calculation
 Variant of blocked Davidson
 Davidson routine will perform the subspace rotation
 perform sub-space diagonalisation
    after iterative eigenvector-optimisation
 modified Broyden-mixing scheme, WC =      100.0
 initial mixing is a Kerker type mixing with AMIX =  0.4000 and BMIX =      1.0000
 Hartree-type preconditioning will be used
 using additional bands            9
 reciprocal scheme for non local part
 use partial core corrections
 calculate Harris-corrections to forces 
   (improved forces if not selfconsistent)
 use gradient corrections 
 use of overlap-Matrix (Vanderbilt PP)
 Fermi weights with tetrahedron method with Bloechl corrections


--------------------------------------------------------------------------------------------------------


  energy-cutoff  :      600.00
  volume of cell :       79.51
      direct lattice vectors                 reciprocal lattice vectors
     4.898521820  0.000000000  0.000000000     0.204143216  0.000000000  0.000000000
     0.000000000  4.898521820  0.000000000     0.000000000  0.204143216  0.000000000
     0.000000000  0.000000000  3.313692693     0.000000000  0.000000000  0.301778135

  length of vectors
     4.898521820  4.898521820  3.313692693     0.204143216  0.204143216  0.301778135


 
 k-points in units of 2pi/SCALE and weight: KPOINTS created by Atomic Simulation Env
   0.02551790  0.02551790  0.02514818       0.083
   0.07655371  0.02551790  0.02514818       0.167
   0.07655371  0.07655371  0.02514818       0.083
   0.02551790  0.02551790  0.07544453       0.083
   0.07655371  0.02551790  0.07544453       0.167
   0.07655371  0.07655371  0.07544453       0.083
   0.02551790  0.02551790  0.12574089       0.083
   0.07655371  0.02551790  0.12574089       0.167
   0.07655371  0.07655371  0.12574089       0.083
 
 k-points in reciprocal lattice and weights: KPOINTS created by Atomic Simulation Env
   0.12500000  0.12500000  0.08333333       0.083
   0.37500000  0.12500000  0.08333333       0.167
   0.37500000  0.37500000  0.08333333       0.083
   0.12500000  0.12500000  0.25000000       0.083
   0.37500000  0.12500000  0.25000000       0.167
   0.37500000  0.37500000  0.25000000       0.083
   0.12500000  0.12500000  0.41666667       0.083
   0.37500000  0.12500000  0.41666667       0.167
   0.37500000  0.37500000  0.41666667       0.083
 
 position of ions in fractional coordinates (direct lattice) 
   0.50000000  0.50000000  0.50000000
   0.00000000  0.00000000  0.00000000
   0.19504534  0.80495466  0.50000000
   0.80495466  0.19504534  0.50000000
   0.30495466  0.30495466  0.00000000
   0.69504534  0.69504534  0.00000000
 
 position of ions in cartesian coordinates  (Angst):
   2.44926091  2.44926091  1.65684635
   0.00000000  0.00000000  0.00000000
   0.95543383  3.94308799  1.65684635
   3.94308799  0.95543383  1.65684635
   1.49382708  1.49382708  0.00000000
   3.40469474  3.40469474  0.00000000
 


--------------------------------------------------------------------------------------------------------


 k-point  1 :   0.1250 0.1250 0.0833  plane waves:    2662
 k-point  2 :   0.3750 0.1250 0.0833  plane waves:    2654
 k-point  3 :   0.3750 0.3750 0.0833  plane waves:    2663
 k-point  4 :   0.1250 0.1250 0.2500  plane waves:    2651
 k-point  5 :   0.3750 0.1250 0.2500  plane waves:    2657
 k-point  6 :   0.3750 0.3750 0.2500  plane waves:    2654
 k-point  7 :   0.1250 0.1250 0.4167  plane waves:    2647
 k-point  8 :   0.3750 0.1250 0.4167  plane waves:    2649
 k-point  9 :   0.3750 0.3750 0.4167  plane waves:    2641

 maximum and minimum number of plane-waves per node :      2663     2641

 maximum number of plane-waves:      2663
 maximum index in each direction: 
   IXMAX=    9   IYMAX=    9   IZMAX=    6
   IXMIN=  -10   IYMIN=  -10   IZMIN=   -7


 serial   3D FFT for wavefunctions
 parallel 3D FFT for charge:
    minimum data exchange during FFTs selected (reduces bandwidth)


 total amount of memory used by VASP MPI-rank0    44051. kBytes
=======================================================================

   base      :      30000. kBytes
   nonl-proj :       7160. kBytes
   fftplans  :       1875. kBytes
   grid      :       2467. kBytes
   one-center:        186. kBytes
   wavefun   :       2363. kBytes
 
     INWAV:  cpu time    0.0000: real time    0.0000
 Broyden mixing: mesh for mixing (old mesh)
   NGX = 19   NGY = 19   NGZ = 13
  (NGX  = 60   NGY  = 60   NGZ  = 40)
  gives a total of   4693 points

 initial charge density was supplied:
 charge density of overlapping atoms calculated
 number of electron      54.0000000 magnetization       0.0000000
 keeping initial charge density in first step


--------------------------------------------------------------------------------------------------------


 Maximum index for augmentation-charges         4215 (set IRDMAX)


--------------------------------------------------------------------------------------------------------


 First call to EWALD:  gamma=   0.412
 Maximum number of real-space cells 2x 2x 3
 Maximum number of reciprocal cells 3x 3x 2

    FEWALD:  cpu time    0.0010: real time    0.0010


--------------------------------------- Iteration      1(   1)  ---------------------------------------


    POTLOK:  cpu time    0.0175: real time    0.0175
    SETDIJ:  cpu time    0.3688: real time    0.3688
atom =   1  type =  1  l = 2
 
 onsite density matrix
 
spin component  1
 
  0.2835  0.0000  0.0000  0.0000  0.0000
  0.0000  0.2835  0.0000  0.0000  0.0000
  0.0000  0.0000  0.2835  0.0000  0.0000
  0.0000  0.0000  0.0000  0.2835  0.0000
  0.0000  0.0000  0.0000  0.0000  0.2835
 
spin component  2
 
  0.7694  0.0000  0.0000  0.0000  0.0000
  0.0000  0.7694  0.0000  0.0000  0.0000
  0.0000  0.0000  0.7694  0.0000  0.0000
  0.0000  0.0000  0.0000  0.7694  0.0000
  0.0000  0.0000  0.0000  0.0000  0.7694
 
 occupancies and eigenvectors
 
  o =  0.2835  v =  1.0000  0.0000  0.0000  0.0000  0.0000  0.0000  0.0000  0.0000  0.0000  0.0000      0.0000  0.0000  0.0000  0.0000  0.0000  0.0000  0.0000  0.0000  0.0000  0.0000
  o =  0.2835  v =  0.0000  1.0000  0.0000  0.0000  0.0000  0.0000  0.0000  0.0000  0.0000  0.0000      0.0000  0.0000  0.0000  0.0000  0.0000  0.0000  0.0000  0.0000  0.0000  0.0000
  o =  0.2835  v =  0.0000  0.0000  1.0000  0.0000  0.0000  0.0000  0.0000  0.0000  0.0000  0.0000      0.0000  0.0000  0.0000  0.0000  0.0000  0.0000  0.0000  0.0000  0.0000  0.0000
  o =  0.2835  v =  0.0000  0.0000  0.0000  1.0000  0.0000  0.0000  0.0000  0.0000  0.0000  0.0000      0.0000  0.0000  0.0000  0.0000  0.0000  0.0000  0.0000  0.0000  0.0000  0.0000
  o =  0.2835  v =  0.0000  0.0000  0.0000  0.0000  1.0000  0.0000  0.0000  0.0000  0.0000  0.0000      0.0000  0.0000  0.0000  0.0000  0.0000  0.0000  0.0000  0.0000  0.0000  0.0000
  o =  0.7694  v =  0.0000  0.0000  0.0000  0.0000  0.0000  1.0000  0.0000  0.0000  0.0000  0.0000      0.0000  0.0000  0.0000  0.0000  0.0000  0.0000  0.0000  0.0000  0.0000  0.0000
  o =  0.7694  v =  0.0000  0.0000  0.0000  0.0000  0.0000  0.0000  1.0000  0.0000  0.0000  0.0000      0.0000  0.0000  0.0000  0.0000  0.0000  0.0000  0.0000  0.0000  0.0000  0.0000
  o =  0.7694  v =  0.0000  0.0000  0.0000  0.0000  0.0000  0.0000  0.0000  1.0000  0.0000  0.0000      0.0000  0.0000  0.0000  0.0000  0.0000  0.0000  0.0000  0.0000  0.0000  0.0000
  o =  0.7694  v =  0.0000  0.0000  0.0000  0.0000  0.0000  0.0000  0.0000  0.0000  1.0000  0.0000      0.0000  0.0000  0.0000  0.0000  0.0000  0.0000  0.0000  0.0000  0.0000  0.0000
  o =  0.7694  v =  0.0000  0.0000  0.0000  0.0000  0.0000  0.0000  0.0000  0.0000  0.0000  1.0000      0.0000  0.0000  0.0000  0.0000  0.0000  0.0000  0.0000  0.0000  0.0000  0.0000
atom =   2  type =  1  l = 2
 
 onsite density matrix
 
spin component  1
 
  0.7694  0.0000  0.0000  0.0000  0.0000
  0.0000  0.7694  0.0000  0.0000  0.0000
  0.0000  0.0000  0.7694  0.0000  0.0000
  0.0000  0.0000  0.0000  0.7694  0.0000
  0.0000  0.0000  0.0000  0.0000  0.7694
 
spin component  2
 
  0.2835  0.0000  0.0000  0.0000  0.0000
  0.0000  0.2835  0.0000  0.0000  0.0000
  0.0000  0.0000  0.2835  0.0000  0.0000
  0.0000  0.0000  0.0000  0.2835  0.0000
  0.0000  0.0000  0.0000  0.0000  0.2835
 
 occupancies and eigenvectors
 
  o =  0.2835  v =  0.0000  0.0000  0.0000  0.0000  0.0000  1.0000  0.0000  0.0000  0.0000  0.0000      0.0000  0.0000  0.0000  0.0000  0.0000  0.0000  0.0000  0.0000  0.0000  0.0000
  o =  0.2835  v =  0.0000  0.0000  0.0000  0.0000  0.0000  0.0000  1.0000  0.0000  0.0000  0.0000      0.0000  0.0000  0.0000  0.0000  0.0000  0.0000  0.0000  0.0000  0.0000  0.0000
  o =  0.2835  v =  0.0000  0.0000  0.0000  0.0000  0.0000  0.0000  0.0000  1.0000  0.0000  0.0000      0.0000  0.0000  0.0000  0.0000  0.0000  0.0000  0.0000  0.0000  0.0000  0.0000
  o =  0.2835  v =  0.0000  0.0000  0.0000  0.0000  0.0000  0.0000  0.0000  0.0000  1.0000  0.0000      0.0000  0.0000  0.0000  0.0000  0.0000  0.0000  0.0000  0.0000  0.0000  0.0000
  o =  0.2835  v =  0.0000  0.0000  0.0000  0.0000  0.0000  0.0000  0.0000  0.0000  0.0000  1.0000      0.0000  0.0000  0.0000  0.0000  0.0000  0.0000  0.0000  0.0000  0.0000  0.0000
  o =  0.7694  v =  1.0000  0.0000  0.0000  0.0000  0.0000  0.0000  0.0000  0.0000  0.0000  0.0000      0.0000  0.0000  0.0000  0.0000  0.0000  0.0000  0.0000  0.0000  0.0000  0.0000
  o =  0.7694  v =  0.0000  1.0000  0.0000  0.0000  0.0000  0.0000  0.0000  0.0000  0.0000  0.0000      0.0000  0.0000  0.0000  0.0000  0.0000  0.0000  0.0000  0.0000  0.0000  0.0000
  o =  0.7694  v =  0.0000  0.0000  1.0000  0.0000  0.0000  0.0000  0.0000  0.0000  0.0000  0.0000      0.0000  0.0000  0.0000  0.0000  0.0000  0.0000  0.0000  0.0000  0.0000  0.0000
  o =  0.7694  v =  0.0000  0.0000  0.0000  1.0000  0.0000  0.0000  0.0000  0.0000  0.0000  0.0000      0.0000  0.0000  0.0000  0.0000  0.0000  0.0000  0.0000  0.0000  0.0000  0.0000
  o =  0.7694  v =  0.0000  0.0000  0.0000  0.0000  1.0000  0.0000  0.0000  0.0000  0.0000  0.0000      0.0000  0.0000  0.0000  0.0000  0.0000  0.0000  0.0000  0.0000  0.0000  0.0000
     EDDAV:  cpu time    0.3206: real time    0.3397
 BZINTS: Fermi energy: 18.865453; 54.000000 electrons
         Band energy: -63.074715;  BLOECHL correction: -0.124155
       DOS:  cpu time    0.0067: real time    0.0067
    --------------------------------------------
      LOOP:  cpu time    0.7137: real time    0.7328

 eigenvalue-minimisations  :  1296
 total energy-change (2. order) : 0.6897011E+03  (-0.3391789E+04)
 number of electron      54.0000000 magnetization       0.0000000
 augmentation part       54.0000000 magnetization       0.0000000

 Free energy of the ion-electron system (eV)
  ---------------------------------------------------
  alpha Z        PSCENC =       194.14860460
  Ewald energy   TEWEN  =     -4163.87317235
  -Hartree energ DENC   =     -2155.42131659
  -exchange      EXHF   =         0.00000000
  -V(xc)+E(xc)   XCENC  =       293.15927606
  PAW double counting   =      5439.83165491    -5532.71777902
  entropy T*S    EENTRO =         0.00000000
  eigenvalues    EBANDS =       -63.07471503
  atomic energy  EATOM  =      6677.64854832
  Solvation  Ediel_sol  =         0.00000000
  ---------------------------------------------------
  free energy    TOTEN  =       689.70110090 eV

  energy without entropy =      689.70110090  energy(sigma->0) =      689.70110090


--------------------------------------------------------------------------------------------------------




--------------------------------------- Iteration      1(   2)  ---------------------------------------


     EDDAV:  cpu time    0.3627: real time    0.3627
 BZINTS: Fermi energy:  2.786460; 54.000000 electrons
         Band energy:-739.716446;  BLOECHL correction:  0.000000
       DOS:  cpu time    0.0014: real time    0.0014
    --------------------------------------------
      LOOP:  cpu time    0.3641: real time    0.3641

 eigenvalue-minimisations  :  1524
 total energy-change (2. order) :-0.6766417E+03  (-0.6575709E+03)
 number of electron      54.0000000 magnetization       0.0000000
 augmentation part       54.0000000 magnetization       0.0000000

 Free energy of the ion-electron system (eV)
  ---------------------------------------------------
  alpha Z        PSCENC =       194.14860460
  Ewald energy   TEWEN  =     -4163.87317235
  -Hartree energ DENC   =     -2155.42131659
  -exchange      EXHF   =         0.00000000
  -V(xc)+E(xc)   XCENC  =       293.15927606
  PAW double counting   =      5439.83165491    -5532.71777902
  entropy T*S    EENTRO =         0.00000000
  eigenvalues    EBANDS =      -739.71644626
  atomic energy  EATOM  =      6677.64854832
  Solvation  Ediel_sol  =         0.00000000
  ---------------------------------------------------
  free energy    TOTEN  =        13.05936967 eV

  energy without entropy =       13.05936967  energy(sigma->0) =       13.05936967


--------------------------------------------------------------------------------------------------------




--------------------------------------- Iteration      1(   3)  ---------------------------------------


     EDDAV:  cpu time    0.3481: real time    0.3481
 BZINTS: Fermi energy:  2.012833; 54.000000 electrons
         Band energy:-788.757534;  BLOECHL correction:  0.000000
       DOS:  cpu time    0.0012: real time    0.0012
    --------------------------------------------
      LOOP:  cpu time    0.3493: real time    0.3493

 eigenvalue-minimisations  :  1452
 total energy-change (2. order) :-0.4904109E+02  (-0.4886382E+02)
 number of electron      54.0000000 magnetization       0.0000000
 augmentation part       54.0000000 magnetization       0.0000000

 Free energy of the ion-electron system (eV)
  ---------------------------------------------------
  alpha Z        PSCENC =       194.14860460
  Ewald energy   TEWEN  =     -4163.87317235
  -Hartree energ DENC   =     -2155.42131659
  -exchange      EXHF   =         0.00000000
  -V(xc)+E(xc)   XCENC  =       293.15927606
  PAW double counting   =      5439.83165491    -5532.71777902
  entropy T*S    EENTRO =         0.00000000
  eigenvalues    EBANDS =      -788.75753448
  atomic energy  EATOM  =      6677.64854832
  Solvation  Ediel_sol  =         0.00000000
  ---------------------------------------------------
  free energy    TOTEN  =       -35.98171855 eV

  energy without entropy =      -35.98171855  energy(sigma->0) =      -35.98171855


--------------------------------------------------------------------------------------------------------




--------------------------------------- Iteration      1(   4)  ---------------------------------------


     EDDAV:  cpu time    0.3608: real time    0.3608
 BZINTS: Fermi energy:  2.034951; 54.000000 electrons
         Band energy:-789.458162;  BLOECHL correction:  0.000000
       DOS:  cpu time    0.0012: real time    0.0012
    --------------------------------------------
      LOOP:  cpu time    0.3620: real time    0.3620

 eigenvalue-minimisations  :  1524
 total energy-change (2. order) :-0.7006271E+00  (-0.7002625E+00)
 number of electron      54.0000000 magnetization       0.0000000
 augmentation part       54.0000000 magnetization       0.0000000

 Free energy of the ion-electron system (eV)
  ---------------------------------------------------
  alpha Z        PSCENC =       194.14860460
  Ewald energy   TEWEN  =     -4163.87317235
  -Hartree energ DENC   =     -2155.42131659
  -exchange      EXHF   =         0.00000000
  -V(xc)+E(xc)   XCENC  =       293.15927606
  PAW double counting   =      5439.83165491    -5532.71777902
  entropy T*S    EENTRO =         0.00000000
  eigenvalues    EBANDS =      -789.45816162
  atomic energy  EATOM  =      6677.64854832
  Solvation  Ediel_sol  =         0.00000000
  ---------------------------------------------------
  free energy    TOTEN  =       -36.68234570 eV

  energy without entropy =      -36.68234570  energy(sigma->0) =      -36.68234570


--------------------------------------------------------------------------------------------------------




--------------------------------------- Iteration      1(   5)  ---------------------------------------


     EDDAV:  cpu time    0.3444: real time    0.3444
 BZINTS: Fermi energy:  2.029333; 54.000000 electrons
         Band energy:-789.470461;  BLOECHL correction:  0.000000
       DOS:  cpu time    0.0012: real time    0.0012
    CHARGE:  cpu time    0.0315: real time    0.0315
    MIXING:  cpu time    0.0008: real time    0.0008
    --------------------------------------------
      LOOP:  cpu time    0.3779: real time    0.3779

 eigenvalue-minimisations  :  1440
 total energy-change (2. order) :-0.1229953E-01  (-0.1229949E-01)
 number of electron      54.0000009 magnetization       0.0000000
 augmentation part       20.1059152 magnetization       0.0000000

 Broyden mixing:
  rms(total) = 0.22557E+01    rms(broyden)= 0.22557E+01
  rms(prec ) = 0.30096E+01
  weight for this iteration     100.00

 Free energy of the ion-electron system (eV)
  ---------------------------------------------------
  alpha Z        PSCENC =       194.14860460
  Ewald energy   TEWEN  =     -4163.87317235
  -Hartree energ DENC   =     -2155.42131659
  -exchange      EXHF   =         0.00000000
  -V(xc)+E(xc)   XCENC  =       293.15927606
  PAW double counting   =      5439.83165491    -5532.71777902
  entropy T*S    EENTRO =         0.00000000
  eigenvalues    EBANDS =      -789.47046116
  atomic energy  EATOM  =      6677.64854832
  Solvation  Ediel_sol  =         0.00000000
  ---------------------------------------------------
  free energy    TOTEN  =       -36.69464523 eV

  energy without entropy =      -36.69464523  energy(sigma->0) =      -36.69464523


--------------------------------------------------------------------------------------------------------




--------------------------------------- Iteration      1(   6)  ---------------------------------------


    POTLOK:  cpu time    0.0158: real time    0.0158
    SETDIJ:  cpu time    0.3696: real time    0.3696
atom =   1  type =  1  l = 2
 
 onsite density matrix
 
spin component  1
 
 -0.0867  0.0000  0.0018  0.0000 -0.0000
  0.0000 -0.0882  0.0000  0.0013  0.0000
  0.0018  0.0000 -0.0867  0.0000  0.0000
  0.0000  0.0013  0.0000 -0.0882  0.0000
 -0.0000  0.0000  0.0000  0.0000 -0.0913
 
spin component  2
 
  1.1120  0.0000  0.0131  0.0000  0.0000
  0.0000  1.1089  0.0000  0.0117  0.0000
  0.0131  0.0000  1.1039  0.0000 -0.0000
  0.0000  0.0117  0.0000  1.1089  0.0000
  0.0000  0.0000 -0.0000  0.0000  1.0985
 
 occupancies and eigenvectors
 
  o = -0.0913  v = -0.0000  0.0000  0.0000 -0.0000 -1.0000  0.0000  0.0000  0.0000  0.0000  0.0000      0.0000  0.0000  0.0000  0.0000  0.0000  0.0000  0.0000  0.0000  0.0000  0.0000
  o = -0.0895  v =  0.0000 -0.7071 -0.0000  0.7071 -0.0000  0.0000  0.0000  0.0000  0.0000  0.0000      0.0000  0.0000  0.0000  0.0000  0.0000  0.0000  0.0000  0.0000  0.0000  0.0000
  o = -0.0885  v =  0.6992  0.0000 -0.7149 -0.0000 -0.0000  0.0000  0.0000  0.0000  0.0000  0.0000      0.0000  0.0000  0.0000  0.0000  0.0000  0.0000  0.0000  0.0000  0.0000  0.0000
  o = -0.0869  v = -0.0000 -0.7071  0.0000 -0.7071 -0.0000  0.0000  0.0000  0.0000  0.0000  0.0000      0.0000  0.0000  0.0000  0.0000  0.0000  0.0000  0.0000  0.0000  0.0000  0.0000
  o = -0.0849  v =  0.7149 -0.0000  0.6992 -0.0000  0.0000  0.0000  0.0000  0.0000  0.0000  0.0000      0.0000  0.0000  0.0000  0.0000  0.0000  0.0000  0.0000  0.0000  0.0000  0.0000
  o =  1.0942  v =  0.0000  0.0000  0.0000  0.0000  0.0000 -0.5935 -0.0000  0.8049  0.0000  0.0000      0.0000  0.0000  0.0000  0.0000  0.0000  0.0000  0.0000  0.0000  0.0000  0.0000
  o =  1.0972  v =  0.0000  0.0000  0.0000  0.0000  0.0000 -0.0000  0.7071  0.0000 -0.7071  0.0000      0.0000  0.0000  0.0000  0.0000  0.0000  0.0000  0.0000  0.0000  0.0000  0.0000
  o =  1.0985  v =  0.0000  0.0000  0.0000  0.0000  0.0000  0.0000 -0.0000 -0.0000  0.0000  1.0000      0.0000  0.0000  0.0000  0.0000  0.0000  0.0000  0.0000  0.0000  0.0000  0.0000
  o =  1.1207  v =  0.0000  0.0000  0.0000  0.0000  0.0000 -0.0000  0.7071 -0.0000  0.7071  0.0000      0.0000  0.0000  0.0000  0.0000  0.0000  0.0000  0.0000  0.0000  0.0000  0.0000
  o =  1.1216  v =  0.0000  0.0000  0.0000  0.0000  0.0000 -0.8049 -0.0000 -0.5935 -0.0000  0.0000      0.0000  0.0000  0.0000  0.0000  0.0000  0.0000  0.0000  0.0000  0.0000  0.0000
atom =   2  type =  1  l = 2
 
 onsite density matrix
 
spin component  1
 
  1.1120  0.0000 -0.0131  0.0000  0.0000
  0.0000  1.1089  0.0000 -0.0117  0.0000
 -0.0131  0.0000  1.1039  0.0000 -0.0000
  0.0000 -0.0117  0.0000  1.1089  0.0000
  0.0000  0.0000 -0.0000  0.0000  1.0985
 
spin component  2
 
 -0.0867  0.0000 -0.0018  0.0000 -0.0000
  0.0000 -0.0882  0.0000 -0.0013  0.0000
 -0.0018  0.0000 -0.0867  0.0000 -0.0000
  0.0000 -0.0013  0.0000 -0.0882  0.0000
 -0.0000  0.0000 -0.0000  0.0000 -0.0913
 
 occupancies and eigenvectors
 
  o = -0.0913  v =  0.0000  0.0000  0.0000  0.0000  0.0000  0.0000  0.0000  0.0000  0.0000  1.0000      0.0000  0.0000  0.0000  0.0000  0.0000  0.0000  0.0000  0.0000  0.0000  0.0000
  o = -0.0895  v =  0.0000  0.0000  0.0000  0.0000  0.0000  0.0000  0.7071  0.0000  0.7071 -0.0000      0.0000  0.0000  0.0000  0.0000  0.0000  0.0000  0.0000  0.0000  0.0000  0.0000
  o = -0.0885  v =  0.0000  0.0000  0.0000  0.0000  0.0000  0.6992 -0.0000  0.7149 -0.0000 -0.0000      0.0000  0.0000  0.0000  0.0000  0.0000  0.0000  0.0000  0.0000  0.0000  0.0000
  o = -0.0869  v =  0.0000  0.0000  0.0000  0.0000  0.0000  0.0000 -0.7071  0.0000  0.7071 -0.0000      0.0000  0.0000  0.0000  0.0000  0.0000  0.0000  0.0000  0.0000  0.0000  0.0000
  o = -0.0849  v =  0.0000  0.0000  0.0000  0.0000  0.0000  0.7149  0.0000 -0.6992 -0.0000  0.0000      0.0000  0.0000  0.0000  0.0000  0.0000  0.0000  0.0000  0.0000  0.0000  0.0000
  o =  1.0942  v =  0.5935 -0.0000  0.8049  0.0000  0.0000  0.0000  0.0000  0.0000  0.0000  0.0000      0.0000  0.0000  0.0000  0.0000  0.0000  0.0000  0.0000  0.0000  0.0000  0.0000
  o =  1.0972  v = -0.0000 -0.7071 -0.0000 -0.7071  0.0000  0.0000  0.0000  0.0000  0.0000  0.0000      0.0000  0.0000  0.0000  0.0000  0.0000  0.0000  0.0000  0.0000  0.0000  0.0000
  o =  1.0985  v = -0.0000  0.0000 -0.0000  0.0000  1.0000  0.0000  0.0000  0.0000  0.0000  0.0000      0.0000  0.0000  0.0000  0.0000  0.0000  0.0000  0.0000  0.0000  0.0000  0.0000
  o =  1.1207  v = -0.0000  0.7071  0.0000 -0.7071  0.0000  0.0000  0.0000  0.0000  0.0000  0.0000      0.0000  0.0000  0.0000  0.0000  0.0000  0.0000  0.0000  0.0000  0.0000  0.0000
  o =  1.1216  v =  0.8049  0.0000 -0.5935  0.0000  0.0000  0.0000  0.0000  0.0000  0.0000  0.0000      0.0000  0.0000  0.0000  0.0000  0.0000  0.0000  0.0000  0.0000  0.0000  0.0000
     EDDAV:  cpu time    0.3614: real time    0.3614
 BZINTS: Fermi energy: -0.022338; 54.000000 electrons
         Band energy:-787.290516;  BLOECHL correction:  0.000000
       DOS:  cpu time    0.0013: real time    0.0013
    CHARGE:  cpu time    0.0316: real time    0.0316
    MIXING:  cpu time    0.0009: real time    0.0009
    --------------------------------------------
      LOOP:  cpu time    0.7807: real time    0.7807

 eigenvalue-minimisations  :  1524
 total energy-change (2. order) : 0.3893618E+00  (-0.1663263E+01)
 number of electron      54.0000009 magnetization       0.0000000
 augmentation part       19.9903506 magnetization       0.0000000

 Broyden mixing:
  rms(total) = 0.14819E+01    rms(broyden)= 0.14818E+01
  rms(prec ) = 0.15469E+01
  weight for this iteration     100.00

 eigenvalues of (default mixing * dielectric matrix)
  average eigenvalue GAMMA=   0.7914
  0.7914

 Free energy of the ion-electron system (eV)
  ---------------------------------------------------
  alpha Z        PSCENC =       194.14860460
  Ewald energy   TEWEN  =     -4163.87317235
  -Hartree energ DENC   =     -2178.62546123
  -exchange      EXHF   =         0.00000000
  -V(xc)+E(xc)   XCENC  =       293.85254350
  PAW double counting   =      5693.87867674    -5766.04450699
  entropy T*S    EENTRO =         0.00000000
  eigenvalues    EBANDS =      -787.29051601
  atomic energy  EATOM  =      6677.64854832
  Solvation  Ediel_sol  =         0.00000000
  ---------------------------------------------------
  free energy    TOTEN  =       -36.30528342 eV

  energy without entropy =      -36.30528342  energy(sigma->0) =      -36.30528342


--------------------------------------------------------------------------------------------------------




--------------------------------------- Iteration      1(   7)  ---------------------------------------


    POTLOK:  cpu time    0.0154: real time    0.0154
    SETDIJ:  cpu time    0.3686: real time    0.3686
atom =   1  type =  1  l = 2
 
 onsite density matrix
 
spin component  1
 
  0.1084  0.0000  0.0143  0.0000  0.0000
  0.0000  0.1038  0.0000  0.0126  0.0000
  0.0143  0.0000  0.0999  0.0000 -0.0000
  0.0000  0.0126  0.0000  0.1038  0.0000
  0.0000  0.0000 -0.0000  0.0000  0.0909
 
spin component  2
 
  0.9081  0.0000  0.0071  0.0000 -0.0000
  0.0000  0.9061  0.0000  0.0060  0.0000
  0.0071  0.0000  0.9050  0.0000  0.0000
  0.0000  0.0060  0.0000  0.9061  0.0000
 -0.0000  0.0000  0.0000  0.0000  0.8994
 
 occupancies and eigenvectors
 
  o =  0.0892  v = -0.5983 -0.0000  0.8013  0.0000  0.0000  0.0000  0.0000  0.0000  0.0000  0.0000      0.0000  0.0000  0.0000  0.0000  0.0000  0.0000  0.0000  0.0000  0.0000  0.0000
  o =  0.0909  v = -0.0000  0.0000  0.0000  0.0000 -1.0000  0.0000  0.0000  0.0000  0.0000  0.0000      0.0000  0.0000  0.0000  0.0000  0.0000  0.0000  0.0000  0.0000  0.0000  0.0000
  o =  0.0912  v =  0.0000  0.7071  0.0000 -0.7071  0.0000  0.0000  0.0000  0.0000  0.0000  0.0000      0.0000  0.0000  0.0000  0.0000  0.0000  0.0000  0.0000  0.0000  0.0000  0.0000
  o =  0.1164  v =  0.0000  0.7071  0.0000  0.7071  0.0000  0.0000  0.0000  0.0000  0.0000  0.0000      0.0000  0.0000  0.0000  0.0000  0.0000  0.0000  0.0000  0.0000  0.0000  0.0000
  o =  0.1191  v = -0.8013 -0.0000 -0.5983  0.0000  0.0000  0.0000  0.0000  0.0000  0.0000  0.0000      0.0000  0.0000  0.0000  0.0000  0.0000  0.0000  0.0000  0.0000  0.0000  0.0000
  o =  0.8993  v =  0.0000  0.0000  0.0000  0.0000  0.0000 -0.6270 -0.0000  0.7790  0.0000 -0.0000      0.0000  0.0000  0.0000  0.0000  0.0000  0.0000  0.0000  0.0000  0.0000  0.0000
  o =  0.8994  v =  0.0000  0.0000  0.0000  0.0000  0.0000 -0.0000  0.0000  0.0000  0.0000  1.0000      0.0000  0.0000  0.0000  0.0000  0.0000  0.0000  0.0000  0.0000  0.0000  0.0000
  o =  0.9001  v =  0.0000  0.0000  0.0000  0.0000  0.0000  0.0000  0.7071  0.0000 -0.7071 -0.0000      0.0000  0.0000  0.0000  0.0000  0.0000  0.0000  0.0000  0.0000  0.0000  0.0000
  o =  0.9121  v =  0.0000  0.0000  0.0000  0.0000  0.0000  0.0000  0.7071  0.0000  0.7071 -0.0000      0.0000  0.0000  0.0000  0.0000  0.0000  0.0000  0.0000  0.0000  0.0000  0.0000
  o =  0.9139  v =  0.0000  0.0000  0.0000  0.0000  0.0000 -0.7790 -0.0000 -0.6270  0.0000 -0.0000      0.0000  0.0000  0.0000  0.0000  0.0000  0.0000  0.0000  0.0000  0.0000  0.0000
atom =   2  type =  1  l = 2
 
 onsite density matrix
 
spin component  1
 
  0.9081  0.0000 -0.0071  0.0000 -0.0000
  0.0000  0.9061  0.0000 -0.0060  0.0000
 -0.0071  0.0000  0.9050  0.0000 -0.0000
  0.0000 -0.0060  0.0000  0.9061  0.0000
 -0.0000  0.0000 -0.0000  0.0000  0.8994
 
spin component  2
 
  0.1084  0.0000 -0.0143  0.0000  0.0000
  0.0000  0.1038  0.0000 -0.0126  0.0000
 -0.0143  0.0000  0.0999  0.0000 -0.0000
  0.0000 -0.0126  0.0000  0.1038  0.0000
  0.0000  0.0000 -0.0000  0.0000  0.0909
 
 occupancies and eigenvectors
 
  o =  0.0892  v =  0.0000  0.0000  0.0000  0.0000  0.0000 -0.5983  0.0000 -0.8013  0.0000 -0.0000      0.0000  0.0000  0.0000  0.0000  0.0000  0.0000  0.0000  0.0000  0.0000  0.0000
  o =  0.0909  v =  0.0000  0.0000  0.0000  0.0000  0.0000 -0.0000  0.0000 -0.0000  0.0000  1.0000      0.0000  0.0000  0.0000  0.0000  0.0000  0.0000  0.0000  0.0000  0.0000  0.0000
  o =  0.0912  v =  0.0000  0.0000  0.0000  0.0000  0.0000  0.0000  0.7071  0.0000  0.7071 -0.0000      0.0000  0.0000  0.0000  0.0000  0.0000  0.0000  0.0000  0.0000  0.0000  0.0000
  o =  0.1164  v =  0.0000  0.0000  0.0000  0.0000  0.0000 -0.0000 -0.7071  0.0000  0.7071  0.0000      0.0000  0.0000  0.0000  0.0000  0.0000  0.0000  0.0000  0.0000  0.0000  0.0000
  o =  0.1191  v =  0.0000  0.0000  0.0000  0.0000  0.0000 -0.8013  0.0000  0.5983 -0.0000 -0.0000      0.0000  0.0000  0.0000  0.0000  0.0000  0.0000  0.0000  0.0000  0.0000  0.0000
  o =  0.8993  v = -0.6270  0.0000 -0.7790  0.0000 -0.0000  0.0000  0.0000  0.0000  0.0000  0.0000      0.0000  0.0000  0.0000  0.0000  0.0000  0.0000  0.0000  0.0000  0.0000  0.0000
  o =  0.8994  v =  0.0000  0.0000 -0.0000  0.0000  1.0000  0.0000  0.0000  0.0000  0.0000  0.0000      0.0000  0.0000  0.0000  0.0000  0.0000  0.0000  0.0000  0.0000  0.0000  0.0000
  o =  0.9001  v =  0.0000 -0.7071 -0.0000 -0.7071  0.0000  0.0000  0.0000  0.0000  0.0000  0.0000      0.0000  0.0000  0.0000  0.0000  0.0000  0.0000  0.0000  0.0000  0.0000  0.0000
  o =  0.9121  v =  0.0000 -0.7071 -0.0000  0.7071  0.0000  0.0000  0.0000  0.0000  0.0000  0.0000      0.0000  0.0000  0.0000  0.0000  0.0000  0.0000  0.0000  0.0000  0.0000  0.0000
  o =  0.9139  v = -0.7790  0.0000  0.6270  0.0000  0.0000  0.0000  0.0000  0.0000  0.0000  0.0000      0.0000  0.0000  0.0000  0.0000  0.0000  0.0000  0.0000  0.0000  0.0000  0.0000
     EDDAV:  cpu time    0.3480: real time    0.3480
 BZINTS: Fermi energy:  0.620638; 54.000000 electrons
         Band energy:-772.994202;  BLOECHL correction:  0.000000
       DOS:  cpu time    0.0013: real time    0.0013
    CHARGE:  cpu time    0.0316: real time    0.0316
    MIXING:  cpu time    0.0009: real time    0.0009
    --------------------------------------------
      LOOP:  cpu time    0.7659: real time    0.7659

 eigenvalue-minimisations  :  1464
 total energy-change (2. order) :-0.1188686E+01  (-0.2674453E+00)
 number of electron      54.0000008 magnetization      -0.0000000
 augmentation part       19.8918584 magnetization      -0.0000000

 Broyden mixing:
  rms(total) = 0.10157E+01    rms(broyden)= 0.10157E+01
  rms(prec ) = 0.10605E+01
  weight for this iteration     100.00

 eigenvalues of (default mixing * dielectric matrix)
  average eigenvalue GAMMA=   1.2341
  0.7084  1.7597

 Free energy of the ion-electron system (eV)
  ---------------------------------------------------
  alpha Z        PSCENC =       194.14860460
  Ewald energy   TEWEN  =     -4163.87317235
  -Hartree energ DENC   =     -2176.61208429
  -exchange      EXHF   =         0.00000000
  -V(xc)+E(xc)   XCENC  =       294.64638395
  PAW double counting   =      5924.62900408    -6015.08705141
  entropy T*S    EENTRO =         0.00000000
  eigenvalues    EBANDS =      -772.99420196
  atomic energy  EATOM  =      6677.64854832
  Solvation  Ediel_sol  =         0.00000000
  ---------------------------------------------------
  free energy    TOTEN  =       -37.49396906 eV

  energy without entropy =      -37.49396906  energy(sigma->0) =      -37.49396906


--------------------------------------------------------------------------------------------------------




--------------------------------------- Iteration      1(   8)  ---------------------------------------


    POTLOK:  cpu time    0.0155: real time    0.0155
    SETDIJ:  cpu time    0.3683: real time    0.3683
atom =   1  type =  1  l = 2
 
 onsite density matrix
 
spin component  1
 
 -0.0338  0.0000  0.0139  0.0000  0.0000
  0.0000 -0.0384  0.0000  0.0116  0.0000
  0.0139  0.0000 -0.0403  0.0000  0.0000
  0.0000  0.0116  0.0000 -0.0384  0.0000
  0.0000  0.0000  0.0000  0.0000 -0.0521
 
spin component  2
 
  1.0481  0.0000  0.0172  0.0000  0.0000
  0.0000  1.0429  0.0000  0.0155  0.0000
  0.0172  0.0000  1.0375  0.0000 -0.0000
  0.0000  0.0155  0.0000  1.0429  0.0000
  0.0000  0.0000 -0.0000  0.0000  1.0280
 
 occupancies and eigenvectors
 
  o = -0.0521  v =  0.0000 -0.0000 -0.0000  0.0000  1.0000  0.0000  0.0000  0.0000  0.0000  0.0000      0.0000  0.0000  0.0000  0.0000  0.0000  0.0000  0.0000  0.0000  0.0000  0.0000
  o = -0.0513  v =  0.6216  0.0000 -0.7833 -0.0000 -0.0000  0.0000  0.0000  0.0000  0.0000  0.0000      0.0000  0.0000  0.0000  0.0000  0.0000  0.0000  0.0000  0.0000  0.0000  0.0000
  o = -0.0499  v = -0.0000  0.7071  0.0000 -0.7071  0.0000  0.0000  0.0000  0.0000  0.0000  0.0000      0.0000  0.0000  0.0000  0.0000  0.0000  0.0000  0.0000  0.0000  0.0000  0.0000
  o = -0.0268  v =  0.0000 -0.7071  0.0000 -0.7071 -0.0000  0.0000  0.0000  0.0000  0.0000  0.0000      0.0000  0.0000  0.0000  0.0000  0.0000  0.0000  0.0000  0.0000  0.0000  0.0000
  o = -0.0228  v =  0.7833  0.0000  0.6216  0.0000  0.0000  0.0000  0.0000  0.0000  0.0000  0.0000      0.0000  0.0000  0.0000  0.0000  0.0000  0.0000  0.0000  0.0000  0.0000  0.0000
  o =  1.0248  v =  0.0000  0.0000  0.0000  0.0000  0.0000 -0.5936 -0.0000  0.8047  0.0000  0.0000      0.0000  0.0000  0.0000  0.0000  0.0000  0.0000  0.0000  0.0000  0.0000  0.0000
  o =  1.0274  v =  0.0000  0.0000  0.0000  0.0000  0.0000 -0.0000  0.7071  0.0000 -0.7071 -0.0000      0.0000  0.0000  0.0000  0.0000  0.0000  0.0000  0.0000  0.0000  0.0000  0.0000
  o =  1.0280  v =  0.0000  0.0000  0.0000  0.0000  0.0000  0.0000  0.0000 -0.0000 -0.0000  1.0000      0.0000  0.0000  0.0000  0.0000  0.0000  0.0000  0.0000  0.0000  0.0000  0.0000
  o =  1.0585  v =  0.0000  0.0000  0.0000  0.0000  0.0000 -0.0000  0.7071 -0.0000  0.7071 -0.0000      0.0000  0.0000  0.0000  0.0000  0.0000  0.0000  0.0000  0.0000  0.0000  0.0000
  o =  1.0607  v =  0.0000  0.0000  0.0000  0.0000  0.0000 -0.8047 -0.0000 -0.5936 -0.0000  0.0000      0.0000  0.0000  0.0000  0.0000  0.0000  0.0000  0.0000  0.0000  0.0000  0.0000
atom =   2  type =  1  l = 2
 
 onsite density matrix
 
spin component  1
 
  1.0481  0.0000 -0.0172  0.0000 -0.0000
  0.0000  1.0429  0.0000 -0.0155  0.0000
 -0.0172  0.0000  1.0375  0.0000 -0.0000
  0.0000 -0.0155  0.0000  1.0429  0.0000
 -0.0000  0.0000 -0.0000  0.0000  1.0280
 
spin component  2
 
 -0.0338  0.0000 -0.0139  0.0000  0.0000
  0.0000 -0.0384  0.0000 -0.0116  0.0000
 -0.0139  0.0000 -0.0403  0.0000  0.0000
  0.0000 -0.0116  0.0000 -0.0384  0.0000
  0.0000  0.0000  0.0000  0.0000 -0.0521
 
 occupancies and eigenvectors
 
  o = -0.0521  v =  0.0000  0.0000  0.0000  0.0000  0.0000  0.0000 -0.0000  0.0000  0.0000 -1.0000      0.0000  0.0000  0.0000  0.0000  0.0000  0.0000  0.0000  0.0000  0.0000  0.0000
  o = -0.0513  v =  0.0000  0.0000  0.0000  0.0000  0.0000  0.6216  0.0000  0.7833  0.0000  0.0000      0.0000  0.0000  0.0000  0.0000  0.0000  0.0000  0.0000  0.0000  0.0000  0.0000
  o = -0.0499  v =  0.0000  0.0000  0.0000  0.0000  0.0000  0.0000 -0.7071  0.0000 -0.7071 -0.0000      0.0000  0.0000  0.0000  0.0000  0.0000  0.0000  0.0000  0.0000  0.0000  0.0000
  o = -0.0268  v =  0.0000  0.0000  0.0000  0.0000  0.0000 -0.0000  0.7071  0.0000 -0.7071 -0.0000      0.0000  0.0000  0.0000  0.0000  0.0000  0.0000  0.0000  0.0000  0.0000  0.0000
  o = -0.0228  v =  0.0000  0.0000  0.0000  0.0000  0.0000  0.7833  0.0000 -0.6216 -0.0000 -0.0000      0.0000  0.0000  0.0000  0.0000  0.0000  0.0000  0.0000  0.0000  0.0000  0.0000
  o =  1.0248  v = -0.5936  0.0000 -0.8047  0.0000 -0.0000  0.0000  0.0000  0.0000  0.0000  0.0000      0.0000  0.0000  0.0000  0.0000  0.0000  0.0000  0.0000  0.0000  0.0000  0.0000
  o =  1.0274  v = -0.0000 -0.7071 -0.0000 -0.7071  0.0000  0.0000  0.0000  0.0000  0.0000  0.0000      0.0000  0.0000  0.0000  0.0000  0.0000  0.0000  0.0000  0.0000  0.0000  0.0000
  o =  1.0280  v = -0.0000  0.0000 -0.0000  0.0000  1.0000  0.0000  0.0000  0.0000  0.0000  0.0000      0.0000  0.0000  0.0000  0.0000  0.0000  0.0000  0.0000  0.0000  0.0000  0.0000
  o =  1.0585  v = -0.0000 -0.7071  0.0000  0.7071  0.0000  0.0000  0.0000  0.0000  0.0000  0.0000      0.0000  0.0000  0.0000  0.0000  0.0000  0.0000  0.0000  0.0000  0.0000  0.0000
  o =  1.0607  v = -0.8047  0.0000  0.5936 -0.0000 -0.0000  0.0000  0.0000  0.0000  0.0000  0.0000      0.0000  0.0000  0.0000  0.0000  0.0000  0.0000  0.0000  0.0000  0.0000  0.0000
     EDDAV:  cpu time    0.3615: real time    0.3615
 BZINTS: Fermi energy: -0.085260; 54.000000 electrons
         Band energy:-790.305369;  BLOECHL correction:  0.000000
       DOS:  cpu time    0.0012: real time    0.0012
    CHARGE:  cpu time    0.0314: real time    0.0314
    MIXING:  cpu time    0.0009: real time    0.0009
    --------------------------------------------
      LOOP:  cpu time    0.7788: real time    0.7788

 eigenvalue-minimisations  :  1536
 total energy-change (2. order) :-0.4542587E-01  (-0.7645075E-01)
 number of electron      54.0000009 magnetization      -0.0000000
 augmentation part       19.9986427 magnetization      -0.0000000

 Broyden mixing:
  rms(total) = 0.58429E+00    rms(broyden)= 0.58429E+00
  rms(prec ) = 0.60822E+00
  weight for this iteration     100.00

 eigenvalues of (default mixing * dielectric matrix)
  average eigenvalue GAMMA=   1.5860
  3.2154  0.8751  0.6674

 Free energy of the ion-electron system (eV)
  ---------------------------------------------------
  alpha Z        PSCENC =       194.14860460
  Ewald energy   TEWEN  =     -4163.87317235
  -Hartree energ DENC   =     -2167.41638349
  -exchange      EXHF   =         0.00000000
  -V(xc)+E(xc)   XCENC  =       293.78562522
  PAW double counting   =      6119.89443359    -6201.42168155
  entropy T*S    EENTRO =         0.00000000
  eigenvalues    EBANDS =      -790.30536927
  atomic energy  EATOM  =      6677.64854832
  Solvation  Ediel_sol  =         0.00000000
  ---------------------------------------------------
  free energy    TOTEN  =       -37.53939493 eV

  energy without entropy =      -37.53939493  energy(sigma->0) =      -37.53939493


--------------------------------------------------------------------------------------------------------




--------------------------------------- Iteration      1(   9)  ---------------------------------------


    POTLOK:  cpu time    0.0156: real time    0.0156
    SETDIJ:  cpu time    0.3682: real time    0.3682
atom =   1  type =  1  l = 2
 
 onsite density matrix
 
spin component  1
 
  0.0400  0.0000  0.0181  0.0000  0.0000
  0.0000  0.0339  0.0000  0.0160  0.0000
  0.0181  0.0000  0.0297  0.0000  0.0000
  0.0000  0.0160  0.0000  0.0339  0.0000
  0.0000  0.0000  0.0000  0.0000  0.0165
 
spin component  2
 
  0.9701  0.0000  0.0217  0.0000  0.0000
  0.0000  0.9636  0.0000  0.0191  0.0000
  0.0217  0.0000  0.9581  0.0000 -0.0000
  0.0000  0.0191  0.0000  0.9636  0.0000
  0.0000  0.0000 -0.0000  0.0000  0.9440
 
 occupancies and eigenvectors
 
  o =  0.0160  v = -0.6037 -0.0000  0.7972  0.0000 -0.0000  0.0000  0.0000  0.0000  0.0000  0.0000      0.0000  0.0000  0.0000  0.0000  0.0000  0.0000  0.0000  0.0000  0.0000  0.0000
  o =  0.0165  v = -0.0000  0.0000  0.0000 -0.0000  1.0000  0.0000  0.0000  0.0000  0.0000  0.0000      0.0000  0.0000  0.0000  0.0000  0.0000  0.0000  0.0000  0.0000  0.0000  0.0000
  o =  0.0179  v =  0.0000  0.7071 -0.0000 -0.7071 -0.0000  0.0000  0.0000  0.0000  0.0000  0.0000      0.0000  0.0000  0.0000  0.0000  0.0000  0.0000  0.0000  0.0000  0.0000  0.0000
  o =  0.0498  v = -0.0000 -0.7071 -0.0000 -0.7071  0.0000  0.0000  0.0000  0.0000  0.0000  0.0000      0.0000  0.0000  0.0000  0.0000  0.0000  0.0000  0.0000  0.0000  0.0000  0.0000
  o =  0.0537  v = -0.7972  0.0000 -0.6037  0.0000 -0.0000  0.0000  0.0000  0.0000  0.0000  0.0000      0.0000  0.0000  0.0000  0.0000  0.0000  0.0000  0.0000  0.0000  0.0000  0.0000
  o =  0.9416  v =  0.0000  0.0000  0.0000  0.0000  0.0000 -0.6059  0.0000  0.7955  0.0000  0.0000      0.0000  0.0000  0.0000  0.0000  0.0000  0.0000  0.0000  0.0000  0.0000  0.0000
  o =  0.9440  v =  0.0000  0.0000  0.0000  0.0000  0.0000  0.0000  0.0000  0.0000  0.0000 -1.0000      0.0000  0.0000  0.0000  0.0000  0.0000  0.0000  0.0000  0.0000  0.0000  0.0000
  o =  0.9445  v =  0.0000  0.0000  0.0000  0.0000  0.0000  0.0000  0.7071  0.0000 -0.7071  0.0000      0.0000  0.0000  0.0000  0.0000  0.0000  0.0000  0.0000  0.0000  0.0000  0.0000
  o =  0.9827  v =  0.0000  0.0000  0.0000  0.0000  0.0000  0.0000  0.7071  0.0000  0.7071  0.0000      0.0000  0.0000  0.0000  0.0000  0.0000  0.0000  0.0000  0.0000  0.0000  0.0000
  o =  0.9866  v =  0.0000  0.0000  0.0000  0.0000  0.0000 -0.7955  0.0000 -0.6059  0.0000 -0.0000      0.0000  0.0000  0.0000  0.0000  0.0000  0.0000  0.0000  0.0000  0.0000  0.0000
atom =   2  type =  1  l = 2
 
 onsite density matrix
 
spin component  1
 
  0.9701  0.0000 -0.0217  0.0000  0.0000
  0.0000  0.9636  0.0000 -0.0191  0.0000
 -0.0217  0.0000  0.9581  0.0000  0.0000
  0.0000 -0.0191  0.0000  0.9636  0.0000
  0.0000  0.0000  0.0000  0.0000  0.9440
 
spin component  2
 
  0.0400  0.0000 -0.0181  0.0000 -0.0000
  0.0000  0.0339  0.0000 -0.0160  0.0000
 -0.0181  0.0000  0.0297  0.0000  0.0000
  0.0000 -0.0160  0.0000  0.0339  0.0000
 -0.0000  0.0000  0.0000  0.0000  0.0165
 
 occupancies and eigenvectors
 
  o =  0.0160  v =  0.0000  0.0000  0.0000  0.0000  0.0000 -0.6037  0.0000 -0.7972  0.0000  0.0000      0.0000  0.0000  0.0000  0.0000  0.0000  0.0000  0.0000  0.0000  0.0000  0.0000
  o =  0.0165  v =  0.0000  0.0000  0.0000  0.0000  0.0000 -0.0000 -0.0000 -0.0000  0.0000 -1.0000      0.0000  0.0000  0.0000  0.0000  0.0000  0.0000  0.0000  0.0000  0.0000  0.0000
  o =  0.0179  v =  0.0000  0.0000  0.0000  0.0000  0.0000  0.0000 -0.7071  0.0000 -0.7071  0.0000      0.0000  0.0000  0.0000  0.0000  0.0000  0.0000  0.0000  0.0000  0.0000  0.0000
  o =  0.0498  v =  0.0000  0.0000  0.0000  0.0000  0.0000  0.0000 -0.7071  0.0000  0.7071  0.0000      0.0000  0.0000  0.0000  0.0000  0.0000  0.0000  0.0000  0.0000  0.0000  0.0000
  o =  0.0537  v =  0.0000  0.0000  0.0000  0.0000  0.0000 -0.7972  0.0000  0.6037  0.0000  0.0000      0.0000  0.0000  0.0000  0.0000  0.0000  0.0000  0.0000  0.0000  0.0000  0.0000
  o =  0.9416  v = -0.6059  0.0000 -0.7955  0.0000  0.0000  0.0000  0.0000  0.0000  0.0000  0.0000      0.0000  0.0000  0.0000  0.0000  0.0000  0.0000  0.0000  0.0000  0.0000  0.0000
  o =  0.9440  v =  0.0000  0.0000 -0.0000  0.0000 -1.0000  0.0000  0.0000  0.0000  0.0000  0.0000      0.0000  0.0000  0.0000  0.0000  0.0000  0.0000  0.0000  0.0000  0.0000  0.0000
  o =  0.9445  v =  0.0000  0.7071  0.0000  0.7071  0.0000  0.0000  0.0000  0.0000  0.0000  0.0000      0.0000  0.0000  0.0000  0.0000  0.0000  0.0000  0.0000  0.0000  0.0000  0.0000
  o =  0.9827  v =  0.0000  0.7071  0.0000 -0.7071  0.0000  0.0000  0.0000  0.0000  0.0000  0.0000      0.0000  0.0000  0.0000  0.0000  0.0000  0.0000  0.0000  0.0000  0.0000  0.0000
  o =  0.9866  v = -0.7955  0.0000  0.6059  0.0000 -0.0000  0.0000  0.0000  0.0000  0.0000  0.0000      0.0000  0.0000  0.0000  0.0000  0.0000  0.0000  0.0000  0.0000  0.0000  0.0000
     EDDAV:  cpu time    0.3335: real time    0.3335
 BZINTS: Fermi energy:  0.099513; 54.000000 electrons
         Band energy:-783.193516;  BLOECHL correction:  0.000000
       DOS:  cpu time    0.0012: real time    0.0012
    CHARGE:  cpu time    0.0316: real time    0.0316
    MIXING:  cpu time    0.0009: real time    0.0009
    --------------------------------------------
      LOOP:  cpu time    0.7511: real time    0.7511

 eigenvalue-minimisations  :  1392
 total energy-change (2. order) :-0.4226849E+00  (-0.1692146E-01)
 number of electron      54.0000009 magnetization       0.0000000
 augmentation part       19.9706024 magnetization       0.0000000

 Broyden mixing:
  rms(total) = 0.27140E+00    rms(broyden)= 0.27139E+00
  rms(prec ) = 0.28583E+00
  weight for this iteration     100.00

 eigenvalues of (default mixing * dielectric matrix)
  average eigenvalue GAMMA=   1.2166
  2.9613  0.9347  0.6646  0.3059

 Free energy of the ion-electron system (eV)
  ---------------------------------------------------
  alpha Z        PSCENC =       194.14860460
  Ewald energy   TEWEN  =     -4163.87317235
  -Hartree energ DENC   =     -2166.72079469
  -exchange      EXHF   =         0.00000000
  -V(xc)+E(xc)   XCENC  =       294.15023636
  PAW double counting   =      6343.75474545    -6433.87673135
  entropy T*S    EENTRO =         0.00000000
  eigenvalues    EBANDS =      -783.19351614
  atomic energy  EATOM  =      6677.64854832
  Solvation  Ediel_sol  =         0.00000000
  ---------------------------------------------------
  free energy    TOTEN  =       -37.96207980 eV

  energy without entropy =      -37.96207980  energy(sigma->0) =      -37.96207980


--------------------------------------------------------------------------------------------------------




--------------------------------------- Iteration      1(  10)  ---------------------------------------


    POTLOK:  cpu time    0.0155: real time    0.0155
    SETDIJ:  cpu time    0.3700: real time    0.3700
atom =   1  type =  1  l = 2
 
 onsite density matrix
 
spin component  1
 
  0.0336  0.0000  0.0190  0.0000  0.0000
  0.0000  0.0274  0.0000  0.0166  0.0000
  0.0190  0.0000  0.0232  0.0000  0.0000
  0.0000  0.0166  0.0000  0.0274  0.0000
  0.0000  0.0000  0.0000  0.0000  0.0093
 
spin component  2
 
  0.9773  0.0000  0.0196  0.0000  0.0000
  0.0000  0.9713  0.0000  0.0174  0.0000
  0.0196  0.0000  0.9663  0.0000 -0.0000
  0.0000  0.0174  0.0000  0.9713  0.0000
  0.0000  0.0000 -0.0000  0.0000  0.9537
 
 occupancies and eigenvectors
 
  o =  0.0086  v = -0.6063  0.0000  0.7952  0.0000 -0.0000  0.0000  0.0000  0.0000  0.0000  0.0000      0.0000  0.0000  0.0000  0.0000  0.0000  0.0000  0.0000  0.0000  0.0000  0.0000
  o =  0.0093  v = -0.0000 -0.0000  0.0000  0.0000  1.0000  0.0000  0.0000  0.0000  0.0000  0.0000      0.0000  0.0000  0.0000  0.0000  0.0000  0.0000  0.0000  0.0000  0.0000  0.0000
  o =  0.0108  v =  0.0000  0.7071  0.0000 -0.7071  0.0000  0.0000  0.0000  0.0000  0.0000  0.0000      0.0000  0.0000  0.0000  0.0000  0.0000  0.0000  0.0000  0.0000  0.0000  0.0000
  o =  0.0440  v =  0.0000 -0.7071  0.0000 -0.7071 -0.0000  0.0000  0.0000  0.0000  0.0000  0.0000      0.0000  0.0000  0.0000  0.0000  0.0000  0.0000  0.0000  0.0000  0.0000  0.0000
  o =  0.0481  v = -0.7952  0.0000 -0.6063  0.0000 -0.0000  0.0000  0.0000  0.0000  0.0000  0.0000      0.0000  0.0000  0.0000  0.0000  0.0000  0.0000  0.0000  0.0000  0.0000  0.0000
  o =  0.9515  v =  0.0000  0.0000  0.0000  0.0000  0.0000 -0.6031  0.0000  0.7976  0.0000  0.0000      0.0000  0.0000  0.0000  0.0000  0.0000  0.0000  0.0000  0.0000  0.0000  0.0000
  o =  0.9537  v =  0.0000  0.0000  0.0000  0.0000  0.0000  0.0000  0.0000  0.0000  0.0000 -1.0000      0.0000  0.0000  0.0000  0.0000  0.0000  0.0000  0.0000  0.0000  0.0000  0.0000
  o =  0.9540  v =  0.0000  0.0000  0.0000  0.0000  0.0000  0.0000  0.7071  0.0000 -0.7071  0.0000      0.0000  0.0000  0.0000  0.0000  0.0000  0.0000  0.0000  0.0000  0.0000  0.0000
  o =  0.9887  v =  0.0000  0.0000  0.0000  0.0000  0.0000  0.0000  0.7071  0.0000  0.7071  0.0000      0.0000  0.0000  0.0000  0.0000  0.0000  0.0000  0.0000  0.0000  0.0000  0.0000
  o =  0.9921  v =  0.0000  0.0000  0.0000  0.0000  0.0000 -0.7976  0.0000 -0.6031  0.0000 -0.0000      0.0000  0.0000  0.0000  0.0000  0.0000  0.0000  0.0000  0.0000  0.0000  0.0000
atom =   2  type =  1  l = 2
 
 onsite density matrix
 
spin component  1
 
  0.9773  0.0000 -0.0196  0.0000  0.0000
  0.0000  0.9713  0.0000 -0.0174  0.0000
 -0.0196  0.0000  0.9663  0.0000  0.0000
  0.0000 -0.0174  0.0000  0.9713  0.0000
  0.0000  0.0000  0.0000  0.0000  0.9537
 
spin component  2
 
  0.0336  0.0000 -0.0190  0.0000 -0.0000
  0.0000  0.0274  0.0000 -0.0166  0.0000
 -0.0190  0.0000  0.0232  0.0000  0.0000
  0.0000 -0.0166  0.0000  0.0274  0.0000
 -0.0000  0.0000  0.0000  0.0000  0.0093
 
 occupancies and eigenvectors
 
  o =  0.0086  v =  0.0000  0.0000  0.0000  0.0000  0.0000 -0.6063  0.0000 -0.7952  0.0000  0.0000      0.0000  0.0000  0.0000  0.0000  0.0000  0.0000  0.0000  0.0000  0.0000  0.0000
  o =  0.0093  v =  0.0000  0.0000  0.0000  0.0000  0.0000 -0.0000 -0.0000 -0.0000  0.0000 -1.0000      0.0000  0.0000  0.0000  0.0000  0.0000  0.0000  0.0000  0.0000  0.0000  0.0000
  o =  0.0108  v =  0.0000  0.0000  0.0000  0.0000  0.0000  0.0000  0.7071  0.0000  0.7071 -0.0000      0.0000  0.0000  0.0000  0.0000  0.0000  0.0000  0.0000  0.0000  0.0000  0.0000
  o =  0.0440  v =  0.0000  0.0000  0.0000  0.0000  0.0000  0.0000  0.7071  0.0000 -0.7071 -0.0000      0.0000  0.0000  0.0000  0.0000  0.0000  0.0000  0.0000  0.0000  0.0000  0.0000
  o =  0.0481  v =  0.0000  0.0000  0.0000  0.0000  0.0000 -0.7952  0.0000  0.6063  0.0000  0.0000      0.0000  0.0000  0.0000  0.0000  0.0000  0.0000  0.0000  0.0000  0.0000  0.0000
  o =  0.9515  v = -0.6031  0.0000 -0.7976  0.0000  0.0000  0.0000  0.0000  0.0000  0.0000  0.0000      0.0000  0.0000  0.0000  0.0000  0.0000  0.0000  0.0000  0.0000  0.0000  0.0000
  o =  0.9537  v =  0.0000  0.0000 -0.0000  0.0000 -1.0000  0.0000  0.0000  0.0000  0.0000  0.0000      0.0000  0.0000  0.0000  0.0000  0.0000  0.0000  0.0000  0.0000  0.0000  0.0000
  o =  0.9540  v =  0.0000  0.7071  0.0000  0.7071  0.0000  0.0000  0.0000  0.0000  0.0000  0.0000      0.0000  0.0000  0.0000  0.0000  0.0000  0.0000  0.0000  0.0000  0.0000  0.0000
  o =  0.9887  v =  0.0000  0.7071  0.0000 -0.7071  0.0000  0.0000  0.0000  0.0000  0.0000  0.0000      0.0000  0.0000  0.0000  0.0000  0.0000  0.0000  0.0000  0.0000  0.0000  0.0000
  o =  0.9921  v = -0.7976  0.0000  0.6031  0.0000 -0.0000  0.0000  0.0000  0.0000  0.0000  0.0000      0.0000  0.0000  0.0000  0.0000  0.0000  0.0000  0.0000  0.0000  0.0000  0.0000
     EDDAV:  cpu time    0.3235: real time    0.3235
 BZINTS: Fermi energy:  0.107792; 54.000000 electrons
         Band energy:-782.787926;  BLOECHL correction:  0.000000
       DOS:  cpu time    0.0012: real time    0.0012
    CHARGE:  cpu time    0.0316: real time    0.0316
    MIXING:  cpu time    0.0010: real time    0.0010
    --------------------------------------------
      LOOP:  cpu time    0.7427: real time    0.7427

 eigenvalue-minimisations  :  1332
 total energy-change (2. order) :-0.1724047E-02  (-0.2577490E-02)
 number of electron      54.0000009 magnetization       0.0000000
 augmentation part       19.9765163 magnetization       0.0000000

 Broyden mixing:
  rms(total) = 0.61766E-01    rms(broyden)= 0.61766E-01
  rms(prec ) = 0.80490E-01
  weight for this iteration     100.00

 eigenvalues of (default mixing * dielectric matrix)
  average eigenvalue GAMMA=   1.1685
  2.7826  0.9421  0.9421  0.6616  0.5141

 Free energy of the ion-electron system (eV)
  ---------------------------------------------------
  alpha Z        PSCENC =       194.14860460
  Ewald energy   TEWEN  =     -4163.87317235
  -Hartree energ DENC   =     -2168.05193946
  -exchange      EXHF   =         0.00000000
  -V(xc)+E(xc)   XCENC  =       294.19824351
  PAW double counting   =      6308.87669910    -6398.12286150
  entropy T*S    EENTRO =         0.00000000
  eigenvalues    EBANDS =      -782.78792606
  atomic energy  EATOM  =      6677.64854832
  Solvation  Ediel_sol  =         0.00000000
  ---------------------------------------------------
  free energy    TOTEN  =       -37.96380384 eV

  energy without entropy =      -37.96380384  energy(sigma->0) =      -37.96380384


--------------------------------------------------------------------------------------------------------




--------------------------------------- Iteration      1(  11)  ---------------------------------------


    POTLOK:  cpu time    0.0155: real time    0.0155
    SETDIJ:  cpu time    0.3682: real time    0.3682
atom =   1  type =  1  l = 2
 
 onsite density matrix
 
spin component  1
 
  0.0308  0.0000  0.0196  0.0000 -0.0000
  0.0000  0.0243  0.0000  0.0171  0.0000
  0.0196  0.0000  0.0201  0.0000 -0.0000
  0.0000  0.0171  0.0000  0.0243  0.0000
 -0.0000  0.0000 -0.0000  0.0000  0.0057
 
spin component  2
 
  0.9816  0.0000  0.0180  0.0000  0.0000
  0.0000  0.9760  0.0000  0.0161  0.0000
  0.0180  0.0000  0.9711  0.0000  0.0000
  0.0000  0.0161  0.0000  0.9760  0.0000
  0.0000  0.0000  0.0000  0.0000  0.9599
 
 occupancies and eigenvectors
 
  o =  0.0051  v = -0.6078  0.0000  0.7941  0.0000  0.0000  0.0000  0.0000  0.0000  0.0000  0.0000      0.0000  0.0000  0.0000  0.0000  0.0000  0.0000  0.0000  0.0000  0.0000  0.0000
  o =  0.0057  v = -0.0000 -0.0000  0.0000  0.0000 -1.0000  0.0000  0.0000  0.0000  0.0000  0.0000      0.0000  0.0000  0.0000  0.0000  0.0000  0.0000  0.0000  0.0000  0.0000  0.0000
  o =  0.0073  v =  0.0000  0.7071  0.0000 -0.7071 -0.0000  0.0000  0.0000  0.0000  0.0000  0.0000      0.0000  0.0000  0.0000  0.0000  0.0000  0.0000  0.0000  0.0000  0.0000  0.0000
  o =  0.0414  v =  0.0000  0.7071  0.0000  0.7071 -0.0000  0.0000  0.0000  0.0000  0.0000  0.0000      0.0000  0.0000  0.0000  0.0000  0.0000  0.0000  0.0000  0.0000  0.0000  0.0000
  o =  0.0458  v = -0.7941  0.0000 -0.6078  0.0000  0.0000  0.0000  0.0000  0.0000  0.0000  0.0000      0.0000  0.0000  0.0000  0.0000  0.0000  0.0000  0.0000  0.0000  0.0000  0.0000
  o =  0.9576  v =  0.0000  0.0000  0.0000  0.0000  0.0000 -0.5996  0.0000  0.8003  0.0000 -0.0000      0.0000  0.0000  0.0000  0.0000  0.0000  0.0000  0.0000  0.0000  0.0000  0.0000
  o =  0.9599  v =  0.0000  0.0000  0.0000  0.0000  0.0000 -0.0000 -0.0000  0.0000  0.0000  1.0000      0.0000  0.0000  0.0000  0.0000  0.0000  0.0000  0.0000  0.0000  0.0000  0.0000
  o =  0.9599  v =  0.0000  0.0000  0.0000  0.0000  0.0000  0.0000  0.7071  0.0000 -0.7071  0.0000      0.0000  0.0000  0.0000  0.0000  0.0000  0.0000  0.0000  0.0000  0.0000  0.0000
  o =  0.9921  v =  0.0000  0.0000  0.0000  0.0000  0.0000  0.0000 -0.7071  0.0000 -0.7071 -0.0000      0.0000  0.0000  0.0000  0.0000  0.0000  0.0000  0.0000  0.0000  0.0000  0.0000
  o =  0.9951  v =  0.0000  0.0000  0.0000  0.0000  0.0000 -0.8003  0.0000 -0.5996  0.0000 -0.0000      0.0000  0.0000  0.0000  0.0000  0.0000  0.0000  0.0000  0.0000  0.0000  0.0000
atom =   2  type =  1  l = 2
 
 onsite density matrix
 
spin component  1
 
  0.9816  0.0000 -0.0180  0.0000  0.0000
  0.0000  0.9760  0.0000 -0.0161  0.0000
 -0.0180  0.0000  0.9711  0.0000 -0.0000
  0.0000 -0.0161  0.0000  0.9760  0.0000
  0.0000  0.0000 -0.0000  0.0000  0.9599
 
spin component  2
 
  0.0308  0.0000 -0.0196  0.0000 -0.0000
  0.0000  0.0243  0.0000 -0.0171  0.0000
 -0.0196  0.0000  0.0201  0.0000  0.0000
  0.0000 -0.0171  0.0000  0.0243  0.0000
 -0.0000  0.0000  0.0000  0.0000  0.0057
 
 occupancies and eigenvectors
 
  o =  0.0051  v =  0.0000  0.0000  0.0000  0.0000  0.0000 -0.6078  0.0000 -0.7941  0.0000  0.0000      0.0000  0.0000  0.0000  0.0000  0.0000  0.0000  0.0000  0.0000  0.0000  0.0000
  o =  0.0057  v =  0.0000  0.0000  0.0000  0.0000  0.0000 -0.0000 -0.0000 -0.0000  0.0000 -1.0000      0.0000  0.0000  0.0000  0.0000  0.0000  0.0000  0.0000  0.0000  0.0000  0.0000
  o =  0.0073  v =  0.0000  0.0000  0.0000  0.0000  0.0000  0.0000  0.7071  0.0000  0.7071 -0.0000      0.0000  0.0000  0.0000  0.0000  0.0000  0.0000  0.0000  0.0000  0.0000  0.0000
  o =  0.0414  v =  0.0000  0.0000  0.0000  0.0000  0.0000  0.0000  0.7071  0.0000 -0.7071 -0.0000      0.0000  0.0000  0.0000  0.0000  0.0000  0.0000  0.0000  0.0000  0.0000  0.0000
[...]
     33       9.3525      0.00000
     34      10.1552      0.00000
     35      10.6087      0.00000
     36      11.1831      0.00000

 k-point     7 :       0.1250    0.1250    0.4167
  band No.  band energies     occupation 
      1     -46.7847      1.00000
      2     -46.7478      1.00000
      3     -46.7337      1.00000
      4     -41.7357      1.00000
      5     -41.7013      1.00000
      6     -41.6817      1.00000
      7     -20.7988      1.00000
      8     -20.6792      1.00000
      9     -20.6371      1.00000
     10     -20.5301      1.00000
     11      -4.8742      1.00000
     12      -4.1678      1.00000
     13      -3.9318      1.00000
     14      -3.9014      1.00000
     15      -3.6046      1.00000
     16      -3.2191      1.00000
     17      -3.2174      1.00000
     18      -2.7062      1.00000
     19      -2.3870      1.00000
     20      -2.2400      1.00000
     21      -2.1976      1.00000
     22      -1.8097      1.00000
     23      -1.8031      1.00000
     24      -1.2970      1.00000
     25      -0.9622      1.00000
     26      -0.6595      1.00000
     27      -0.4031      1.00000
     28       8.0432      0.00000
     29       8.6253      0.00000
     30       8.7312      0.00000
     31       8.9661      0.00000
     32       9.5516      0.00000
     33       9.8226      0.00000
     34      10.9959      0.00000
     35      11.9584      0.00000
     36      12.3882      0.00000

 k-point     8 :       0.3750    0.1250    0.4167
  band No.  band energies     occupation 
      1     -46.7847      1.00000
      2     -46.7478      1.00000
      3     -46.7337      1.00000
      4     -41.7357      1.00000
      5     -41.7013      1.00000
      6     -41.6817      1.00000
      7     -20.7460      1.00000
      8     -20.6892      1.00000
      9     -20.6482      1.00000
     10     -20.5616      1.00000
     11      -4.6782      1.00000
     12      -4.3169      1.00000
     13      -4.0860      1.00000
     14      -3.9989      1.00000
     15      -3.6663      1.00000
     16      -3.1229      1.00000
     17      -3.0144      1.00000
     18      -2.8773      1.00000
     19      -2.6174      1.00000
     20      -2.2225      1.00000
     21      -2.1814      1.00000
     22      -1.7004      1.00000
     23      -1.5872      1.00000
     24      -1.3468      1.00000
     25      -1.0889      1.00000
     26      -0.6875      1.00000
     27      -0.0739      1.00000
     28       8.6042      0.00000
     29       8.6482      0.00000
     30       8.7694      0.00000
     31       9.0902      0.00000
     32       9.5479      0.00000
     33       9.9665      0.00000
     34      10.5772      0.00000
     35      11.0462      0.00000
     36      12.1621      0.00000

 k-point     9 :       0.3750    0.3750    0.4167
  band No.  band energies     occupation 
      1     -46.7847      1.00000
      2     -46.7478      1.00000
      3     -46.7337      1.00000
      4     -41.7357      1.00000
      5     -41.7013      1.00000
      6     -41.6817      1.00000
      7     -20.7309      1.00000
      8     -20.7087      1.00000
      9     -20.6530      1.00000
     10     -20.5487      1.00000
     11      -4.7440      1.00000
     12      -4.2256      1.00000
     13      -4.2084      1.00000
     14      -4.1899      1.00000
     15      -3.9534      1.00000
     16      -3.1283      1.00000
     17      -3.0000      1.00000
     18      -2.7368      1.00000
     19      -2.3627      1.00000
     20      -2.1867      1.00000
     21      -2.0030      1.00000
     22      -1.6443      1.00000
     23      -1.5262      1.00000
     24      -1.2800      1.00000
     25      -1.1187      1.00000
     26      -0.6178      1.00000
     27      -0.1734      1.00000
     28       8.6608      0.00000
     29       8.8246      0.00000
     30       8.9085      0.00000
     31       9.2882      0.00000
     32       9.3443      0.00000
     33       9.9281      0.00000
     34      10.9620      0.00000
     35      11.2485      0.00000
     36      11.3431      0.00000


--------------------------------------------------------------------------------------------------------


 soft charge-density along one line, spin component           1
         0         1         2         3         4         5         6         7         8         9
 total charge-density along one line
 
 soft charge-density along one line, spin component           2
         0         1         2         3         4         5         6         7         8         9
 total charge-density along one line
 
 pseudopotential strength for first ion, spin component:           1
-42.475  -0.000  -0.025   7.860   0.000   0.011   0.000   0.000
 -0.000 -42.447  -0.000   0.000   7.848   0.000   0.000   0.000
 -0.025  -0.000 -42.475   0.011   0.000   7.860   0.000   0.000
  7.860   0.000   0.011   5.264  -0.000  -0.002  -0.000  -0.000
  0.000   7.848   0.000  -0.000   5.265  -0.000  -0.000  -0.000
  0.011   0.000   7.860  -0.002  -0.000   5.264  -0.000  -0.000
  0.000   0.000   0.000  -0.000  -0.000  -0.000   0.228  -0.000
  0.000   0.000   0.000  -0.000  -0.000  -0.000  -0.000   0.284
 -0.000   0.000  -0.000   0.000  -0.000   0.000  -0.110   0.000
  0.000   0.000   0.000  -0.000  -0.000  -0.000  -0.000  -0.121
 -0.000   0.000   0.000   0.000  -0.000  -0.000  -0.000   0.000
  0.000   0.000   0.000  -0.000  -0.000  -0.000  -0.164  -0.000
  0.000   0.000   0.000  -0.000  -0.000  -0.000  -0.000  -0.107
 -0.000   0.000  -0.000   0.000  -0.000   0.000  -0.115   0.000
  0.000   0.000   0.000  -0.000  -0.000  -0.000  -0.000  -0.125
 -0.000   0.000   0.000   0.000  -0.000  -0.000  -0.000   0.000
 -0.000  -0.000  -0.000  -0.000  -0.000  -0.000   0.006   0.000
 -0.000  -0.000  -0.000  -0.000  -0.000  -0.000   0.012   0.000
 pseudopotential strength for first ion, spin component:           2
-45.858  -0.000  -0.019   9.408   0.000   0.006   0.000   0.000
 -0.000 -45.839  -0.000   0.000   9.402   0.000   0.000   0.000
 -0.019  -0.000 -45.858   0.006   0.000   9.408   0.000   0.000
  9.408   0.000   0.006   4.742  -0.000  -0.001  -0.000  -0.000
  0.000   9.402   0.000  -0.000   4.743  -0.000  -0.000  -0.000
  0.006   0.000   9.408  -0.001  -0.000   4.742  -0.000  -0.000
  0.000   0.000   0.000  -0.000  -0.000  -0.000  -9.498  -0.000
  0.000   0.000   0.000  -0.000  -0.000  -0.000  -0.000  -9.447
 -0.000   0.000  -0.000   0.000  -0.000   0.000  -0.112   0.000
  0.000   0.000   0.000  -0.000  -0.000  -0.000  -0.000  -0.123
 -0.000   0.000   0.000   0.000  -0.000  -0.000   0.000   0.000
  0.000   0.000   0.000  -0.000  -0.000  -0.000 -10.045  -0.000
  0.000   0.000   0.000  -0.000  -0.000  -0.000  -0.000  -9.993
 -0.000   0.000  -0.000   0.000  -0.000   0.000  -0.116   0.000
  0.000   0.000   0.000  -0.000  -0.000  -0.000  -0.000  -0.126
 -0.000   0.000   0.000   0.000  -0.000  -0.000   0.000   0.000
 -0.000  -0.000  -0.000  -0.000  -0.000  -0.000   0.003   0.000
 -0.000  -0.000  -0.000  -0.000  -0.000  -0.000   0.005   0.000
 total augmentation occupancy for first ion, spin component:           1
  1.999   0.000   0.000  -0.012   0.000   0.001   0.000   0.000   0.000   0.000   0.000   0.000   0.000   0.000   0.000   0.000
  0.000   1.998   0.000   0.000  -0.013   0.000   0.000   0.000   0.000   0.000   0.000   0.000   0.000   0.000   0.000   0.000
  0.000   0.000   1.999   0.001   0.000  -0.012   0.000   0.000   0.000   0.000   0.000   0.000   0.000   0.000   0.000   0.000
 -0.012   0.000   0.001   0.085   0.000  -0.008   0.000   0.000   0.000   0.000   0.000   0.000   0.000   0.000   0.000   0.000
  0.000  -0.013   0.000   0.000   0.097   0.000   0.000   0.000   0.000   0.000   0.000   0.000   0.000   0.000   0.000   0.000
  0.001   0.000  -0.012  -0.008   0.000   0.085   0.000   0.000   0.000   0.000   0.000   0.000   0.000   0.000   0.000   0.000
  0.000   0.000   0.000   0.000   0.000   0.000   7.800   0.000   3.016   0.000   0.000  -5.825   0.000  -2.848   0.000  -0.000
  0.000   0.000   0.000   0.000   0.000   0.000   0.000   6.694   0.000   2.665   0.000   0.000  -4.776   0.000  -2.513   0.000
  0.000   0.000   0.000   0.000   0.000   0.000   3.016   0.000   6.058   0.000  -0.000  -2.848   0.000  -4.194   0.000   0.000
  0.000   0.000   0.000   0.000   0.000   0.000   0.000   2.665   0.000   6.694   0.000   0.000  -2.513   0.000  -4.776   0.000
  0.000   0.000   0.000   0.000   0.000   0.000  -0.000   0.000   0.000   0.000   3.892   0.000   0.000  -0.000   0.000  -2.114
  0.000   0.000   0.000   0.000   0.000   0.000  -5.825   0.000  -2.848   0.000  -0.000   5.016   0.000   2.711   0.000   0.000
  0.000   0.000   0.000   0.000   0.000   0.000   0.000  -4.776   0.000  -2.513   0.000   0.000   4.015   0.000   2.389   0.000
  0.000   0.000   0.000   0.000   0.000   0.000  -2.848   0.000  -4.194   0.000  -0.000   2.711   0.000   3.479   0.000   0.000
  0.000   0.000   0.000   0.000   0.000   0.000   0.000  -2.513   0.000  -4.776   0.000   0.000   2.389   0.000   4.015   0.000
  0.000   0.000   0.000   0.000   0.000   0.000   0.000   0.000   0.000   0.000  -2.114  -0.000   0.000   0.000   0.000   1.466
  0.000   0.000   0.000   0.000   0.000   0.000   0.193   0.000  -0.223   0.000  -0.000  -0.219   0.000   0.238   0.000   0.000
  0.000   0.000   0.000   0.000   0.000   0.000  -0.001   0.000   0.016   0.000   0.000   0.022   0.000  -0.030   0.000   0.000
 total augmentation occupancy for first ion, spin component:           2
  0.002   0.000  -0.000   0.011   0.000  -0.000   0.000   0.000   0.000   0.000   0.000   0.000   0.000   0.000   0.000   0.000
  0.000   0.003   0.000   0.000   0.011   0.000   0.000   0.000   0.000   0.000   0.000   0.000   0.000   0.000   0.000   0.000
 -0.000   0.000   0.002  -0.000   0.000   0.011   0.000   0.000   0.000   0.000   0.000   0.000   0.000   0.000   0.000   0.000
  0.011   0.000  -0.000  -0.011   0.000   0.000   0.000   0.000   0.000   0.000   0.000   0.000   0.000   0.000   0.000   0.000
  0.000   0.011   0.000   0.000  -0.012   0.000   0.000   0.000   0.000   0.000   0.000   0.000   0.000   0.000   0.000   0.000
 -0.000   0.000   0.011   0.000   0.000  -0.011   0.000   0.000   0.000   0.000   0.000   0.000   0.000   0.000   0.000   0.000
  0.000   0.000   0.000   0.000   0.000   0.000  -5.749   0.000  -1.847   0.000   0.000   3.500   0.000   1.526   0.000   0.000
  0.000   0.000   0.000   0.000   0.000   0.000   0.000  -5.076   0.000  -1.639   0.000   0.000   2.935   0.000   1.353   0.000
  0.000   0.000   0.000   0.000   0.000   0.000  -1.847   0.000  -4.623   0.000  -0.000   1.526   0.000   2.570   0.000   0.000
  0.000   0.000   0.000   0.000   0.000   0.000   0.000  -1.639   0.000  -5.076   0.000   0.000   1.353   0.000   2.935   0.000
  0.000   0.000   0.000   0.000   0.000   0.000   0.000   0.000   0.000   0.000  -3.397   0.000   0.000  -0.000   0.000   1.542
  0.000   0.000   0.000   0.000   0.000   0.000   3.500   0.000   1.526   0.000   0.000  -2.377   0.000  -1.214   0.000  -0.000
  0.000   0.000   0.000   0.000   0.000   0.000   0.000   2.935   0.000   1.353   0.000   0.000  -1.919   0.000  -1.076   0.000
  0.000   0.000   0.000   0.000   0.000   0.000   1.526   0.000   2.570   0.000   0.000  -1.214   0.000  -1.637   0.000  -0.000
  0.000   0.000   0.000   0.000   0.000   0.000   0.000   1.353   0.000   2.935   0.000   0.000  -1.076   0.000  -1.919   0.000
  0.000   0.000   0.000   0.000   0.000   0.000   0.000   0.000  -0.000   0.000   1.542   0.000   0.000   0.000   0.000  -0.805
  0.000   0.000   0.000   0.000   0.000   0.000   0.007   0.000   0.022   0.000   0.000  -0.006   0.000  -0.013   0.000   0.000
  0.000   0.000   0.000   0.000   0.000   0.000  -0.039   0.000   0.022   0.000   0.000   0.023   0.000  -0.013   0.000   0.000


------------------------ aborting loop because EDIFF is reached ----------------------------------------


 


 total charge     
 
# of ion       s       p       d       tot
------------------------------------------
    1        0.163   6.151   4.955  11.268
    2        0.167   6.146   4.959  11.273
    3        1.725   4.373   0.000   6.098
    4        1.725   4.373   0.000   6.098
    5        1.725   4.369   0.000   6.094
    6        1.725   4.369   0.000   6.094
--------------------------------------------------
tot          7.231  29.780   9.914  46.925
 


 magnetization (x)
 
# of ion       s       p       d       tot
------------------------------------------
    1       -0.019  -0.020  -4.718  -4.758
    2        0.020   0.019   4.716   4.755
    3        0.001   0.009   0.000   0.010
    4        0.001   0.009   0.000   0.010
    5       -0.002  -0.006   0.000  -0.008
    6       -0.002  -0.006   0.000  -0.008
--------------------------------------------------
tot         -0.001   0.004  -0.001   0.002
 
    CHARGE:  cpu time    0.0318: real time    0.0318
    FORLOC:  cpu time    0.0011: real time    0.0011
    FORNL :  cpu time    0.1756: real time    0.1757
    STRESS:  cpu time    0.5199: real time    0.5199
    FORCOR:  cpu time    0.0152: real time    0.0152
    FORHAR:  cpu time    0.0021: real time    0.0021
    MIXING:  cpu time    0.0008: real time    0.0008
    OFIELD:  cpu time    0.0000: real time    0.0000

  FORCE on cell =-STRESS in cart. coord.  units (eV):
  Direction    XX          YY          ZZ          XY          YZ          ZX
  --------------------------------------------------------------------------------------
  Alpha Z   194.14860   194.14860   194.14860
  Ewald   -1579.12337 -1579.12337 -1005.62955    -0.00000    -0.00000    -0.00000
  Hartree   594.11120   594.11120   981.98311    -0.00000    -0.00000    -0.00000
  E(xc)    -314.35494  -314.35494  -314.12947    -0.00000    -0.00000    -0.00000
  Local     157.58371   157.58371  -796.86079    -0.00000     0.00000     0.00000
  n-local  -243.12588  -243.47977  -242.05316     0.03750     0.12480     0.13304
  augment   265.56351   265.56351   265.02502     0.00000     0.00000     0.00000
  Kinetic   924.93462   925.90125   917.54696    -0.42719    -0.85454    -0.91755
  Fock        0.00000     0.00000     0.00000     0.00000     0.00000     0.00000
  -------------------------------------------------------------------------------------
  Total       0.04383     0.04383     0.03073    -0.00000     0.00000     0.00000
  in kB       0.88326     0.88326     0.61922    -0.00000     0.00000     0.00000
  external pressure =        0.80 kB  Pullay stress =        0.00 kB


 VOLUME and BASIS-vectors are now :
 -----------------------------------------------------------------------------
  energy-cutoff  :      600.00
  volume of cell :       79.51
      direct lattice vectors                 reciprocal lattice vectors
     4.898521820  0.000000000  0.000000000     0.204143216  0.000000000  0.000000000
     0.000000000  4.898521820  0.000000000     0.000000000  0.204143216  0.000000000
     0.000000000  0.000000000  3.313692693     0.000000000  0.000000000  0.301778135

  length of vectors
     4.898521820  4.898521820  3.313692693     0.204143216  0.204143216  0.301778135


 FORCES acting on ions
    electron-ion (+dipol)            ewald-force                    non-local-force                 convergence-correction
 -----------------------------------------------------------------------------------------------
   -.175E-11 0.660E-11 0.433E-13   0.284E-13 -.853E-13 -.275E-13   0.000E+00 0.000E+00 0.000E+00   -.972E-13 0.180E-13 0.634E-13
   -.204E-13 -.126E-13 0.314E-13   0.171E-12 0.171E-12 -.274E-13   0.000E+00 0.000E+00 0.000E+00   0.654E-13 0.109E-13 -.892E-13
   -.349E+02 0.349E+02 0.755E-12   0.363E+02 -.363E+02 0.154E-13   -.143E+01 0.143E+01 -.108E-18   -.146E-03 0.146E-03 0.403E-13
   0.349E+02 -.349E+02 0.213E-11   -.363E+02 0.363E+02 0.157E-13   0.143E+01 -.143E+01 0.108E-18   0.146E-03 -.146E-03 0.132E-13
   0.349E+02 0.349E+02 0.587E-07   -.363E+02 -.363E+02 0.100E-13   0.143E+01 0.143E+01 -.217E-18   0.146E-03 0.146E-03 -.196E-09
   -.349E+02 -.349E+02 -.587E-07   0.363E+02 0.363E+02 0.105E-13   -.143E+01 -.143E+01 0.217E-18   -.146E-03 -.146E-03 0.196E-09
 -----------------------------------------------------------------------------------------------
   0.855E-12 0.995E-11 -.346E-11   0.711E-14 0.711E-14 -.330E-14   -.222E-15 -.444E-15 0.000E+00   -.204E-13 -.118E-13 -.645E-13
 
 
 POSITION                                       TOTAL-FORCE (eV/Angst)
 -----------------------------------------------------------------------------------
      2.44926      2.44926      1.65685         0.000000     -0.000000     -0.000000
      0.00000      0.00000      0.00000         0.000000     -0.000000     -0.000000
      0.95543      3.94309      1.65685        -0.002547      0.002547     -0.000000
      3.94309      0.95543      1.65685         0.002547     -0.002547     -0.000000
      1.49383      1.49383      0.00000         0.002547      0.002547      0.000000
      3.40469      3.40469      0.00000        -0.002547     -0.002547     -0.000000
 -----------------------------------------------------------------------------------
    total drift:                                0.000000      0.000000     -0.000000


--------------------------------------------------------------------------------------------------------



  FREE ENERGIE OF THE ION-ELECTRON SYSTEM (eV)
  ---------------------------------------------------
  free  energy   TOTEN  =       -37.96188631 eV

  energy  without entropy=      -37.96188631  energy(sigma->0) =      -37.96188631
 


--------------------------------------------------------------------------------------------------------


    POTLOK:  cpu time    0.3840: real time    0.3840


--------------------------------------------------------------------------------------------------------


 writing wavefunctions
     LOOP+:  cpu time   12.2237: real time   12.2430
    4ORBIT:  cpu time    0.0000: real time    0.0000
 


 total charge     
 
# of ion       s       p       d       tot
------------------------------------------
    1        0.163   6.151   4.955  11.268
    2        0.167   6.146   4.959  11.273
    3        1.725   4.373   0.000   6.098
    4        1.725   4.373   0.000   6.098
    5        1.725   4.369   0.000   6.094
    6        1.725   4.369   0.000   6.094
--------------------------------------------------
tot          7.231  29.780   9.914  46.925
 


 magnetization (x)
 
# of ion       s       p       d       tot
------------------------------------------
    1       -0.019  -0.020  -4.718  -4.758
    2        0.020   0.019   4.716   4.755
    3        0.001   0.009   0.000   0.010
    4        0.001   0.009   0.000   0.010
    5       -0.002  -0.006   0.000  -0.008
    6       -0.002  -0.006   0.000  -0.008
--------------------------------------------------
tot         -0.001   0.004  -0.001   0.002
 
 BZINTS: Fermi energy:  0.131681; 54.000000 electrons
         Band energy:-781.119036;  BLOECHL correction:  0.000000

 total amount of memory used by VASP MPI-rank0    44051. kBytes
=======================================================================

   base      :      30000. kBytes
   nonl-proj :       7160. kBytes
   fftplans  :       1875. kBytes
   grid      :       2467. kBytes
   one-center:        186. kBytes
   wavefun   :       2363. kBytes
 
  
  
 General timing and accounting informations for this job:
 ========================================================
  
                  Total CPU time used (sec):       13.497
                            User time (sec):        9.328
                          System time (sec):        4.169
                         Elapsed time (sec):       13.818
  
                   Maximum memory used (kb):       59048.
                   Average memory used (kb):           0.
  
                          Minor page faults:         8783
                          Major page faults:            5
                 Voluntary context switches:          147
