 vasp.5.4.4.18Apr17-6-g9f103f2a35 (build Apr 27 2017 11:13:10) complex          
  
 executed on           IFC91_ompi date 2020.05.13  10:17:34
 running on   12 total cores
 distrk:  each k-point on   12 cores,    1 groups
 distr:  one band on NCORES_PER_BAND=   1 cores,   12 groups


--------------------------------------------------------------------------------------------------------


 INCAR:
 POTCAR:    PAW_PBE Mn_pv 02Aug2007               
 POTCAR:    PAW_PBE F 08Apr2002                   

 ----------------------------------------------------------------------------- 
|                                                                             |
|           W    W    AA    RRRRR   N    N  II  N    N   GGGG   !!!           |
|           W    W   A  A   R    R  NN   N  II  NN   N  G    G  !!!           |
|           W    W  A    A  R    R  N N  N  II  N N  N  G       !!!           |
|           W WW W  AAAAAA  RRRRR   N  N N  II  N  N N  G  GGG   !            |
|           WW  WW  A    A  R   R   N   NN  II  N   NN  G    G                |
|           W    W  A    A  R    R  N    N  II  N    N   GGGG   !!!           |
|                                                                             |
|      For optimal performance we recommend to set                            |
|        NCORE= 4 - approx SQRT( number of cores)                             |
|      NCORE specifies how many cores store one orbital (NPAR=cpu/NCORE).     |
|      This setting can  greatly improve the performance of VASP for DFT.     |
|      The default,   NCORE=1            might be grossly inefficient         |
|      on modern multi-core architectures or massively parallel machines.     |
|      Do your own testing !!!!                                               |
|      Unfortunately you need to use the default for GW and RPA calculations. |
|      (for HF NCORE is supported but not extensively tested yet)             |
|                                                                             |
 ----------------------------------------------------------------------------- 

 POTCAR:    PAW_PBE Mn_pv 02Aug2007               
   VRHFIN =Mn: 3p4s3d                                                           
   LEXCH  = PE                                                                  
   EATOM  =  2025.2664 eV,  148.8529 Ry                                         
                                                                                
   TITEL  = PAW_PBE Mn_pv 02Aug2007                                             
   LULTRA =        F    use ultrasoft PP ?                                      
   IUNSCR =        1    unscreen: 0-lin 1-nonlin 2-no                           
   RPACOR =    2.080    partial core radius                                     
   POMASS =   54.938; ZVAL   =   13.000    mass and valenz                      
   RCORE  =    2.300    outmost cutoff radius                                   
   RWIGS  =    2.500; RWIGS  =    1.323    wigner-seitz radius (au A)           
   ENMAX  =  269.864; ENMIN  =  202.398 eV                                      
   ICORE  =        3    local potential                                         
   LCOR   =        T    correct aug charges                                     
   LPAW   =        T    paw PP                                                  
   EAUG   =  569.085                                                            
   DEXC   =    0.000                                                            
   RMAX   =    2.343    core radius for proj-oper                               
   RAUG   =    1.300    factor for augmentation sphere                          
   RDEP   =    2.338    radius for radial grids                                 
   RDEPT  =    1.798    core radius for aug-charge                              
                                                                                
   Atomic configuration                                                         
    8 entries                                                                   
     n  l   j            E        occ.                                          
     1  0  0.50     -6424.8287   2.0000                                         
     2  0  0.50      -739.1154   2.0000                                         
     2  1  1.50      -625.3949   6.0000                                         
     3  0  0.50       -81.6100   2.0000                                         
     3  1  1.50       -50.4667   6.0000                                         
     3  2  2.50        -3.3745   6.0000                                         
     4  0  0.50        -4.1331   1.0000                                         
     4  3  2.50        -1.3606   0.0000                                         
   Description                                                                  
     l       E           TYP  RCUT    TYP  RCUT                                 
     1    -50.4666628     23  2.000                                             
     1     -1.3605826     23  2.000                                             
     2     -3.3744729     23  2.300                                             
     2     -4.7350555     23  2.300                                             
     0     -4.1331431     23  2.300                                             
     0      7.6656591     23  2.300                                             
     3      9.5240782     23  2.300                                             
  local pseudopotential read in
  partial core-charges read in
  partial kinetic energy density read in
  atomic valenz-charges read in
  non local Contribution for L=           1  read in
    real space projection operators read in
  non local Contribution for L=           1  read in
    real space projection operators read in
  non local Contribution for L=           2  read in
    real space projection operators read in
  non local Contribution for L=           2  read in
    real space projection operators read in
  non local Contribution for L=           0  read in
    real space projection operators read in
  non local Contribution for L=           0  read in
    real space projection operators read in
    PAW grid and wavefunctions read in
 
   number of l-projection  operators is LMAX  =           6
   number of lm-projection operators is LMMAX =          18
 
 POTCAR:    PAW_PBE F 08Apr2002                   
   VRHFIN =F: s2p5                                                              
   LEXCH  = PE                                                                  
   EATOM  =   659.6475 eV,   48.4827 Ry                                         
                                                                                
   TITEL  = PAW_PBE F 08Apr2002                                                 
   LULTRA =        F    use ultrasoft PP ?                                      
   IUNSCR =        1    unscreen: 0-lin 1-nonlin 2-no                           
   RPACOR =    1.200    partial core radius                                     
   POMASS =   18.998; ZVAL   =    7.000    mass and valenz                      
   RCORE  =    1.520    outmost cutoff radius                                   
   RWIGS  =    1.500; RWIGS  =    0.794    wigner-seitz radius (au A)           
   ENMAX  =  400.000; ENMIN  =  300.000 eV                                      
   ICORE  =        2    local potential                                         
   LCOR   =        T    correct aug charges                                     
   LPAW   =        T    paw PP                                                  
   EAUG   =  613.614                                                            
   RMAX   =    1.555    core radius for proj-oper                               
   RAUG   =    1.300    factor for augmentation sphere                          
   RDEP   =    1.539    radius for radial grids                                 
   RDEPT  =    1.299    core radius for aug-charge                              
                                                                                
   Atomic configuration                                                         
    4 entries                                                                   
     n  l   j            E        occ.                                          
     1  0  0.50      -663.3661   2.0000                                         
     2  0  0.50       -29.8995   2.0000                                         
     2  1  0.50       -11.1114   5.0000                                         
     3  2  1.50       -10.8847   0.0000                                         
   Description                                                                  
     l       E           TYP  RCUT    TYP  RCUT                                 
     0    -29.8995018     23  1.200                                             
     0     -9.5240782     23  1.200                                             
     1    -11.1113914     23  1.520                                             
     1      1.3605826     23  1.520                                             
     2    -10.8846608      7  1.500                                             
  local pseudopotential read in
  partial core-charges read in
  partial kinetic energy density read in
  atomic valenz-charges read in
  non local Contribution for L=           0  read in
    real space projection operators read in
  non local Contribution for L=           0  read in
    real space projection operators read in
  non local Contribution for L=           1  read in
    real space projection operators read in
  non local Contribution for L=           1  read in
    real space projection operators read in
    PAW grid and wavefunctions read in
 
   number of l-projection  operators is LMAX  =           4
   number of lm-projection operators is LMMAX =           8
 

 ----------------------------------------------------------------------------- 
|                                                                             |
|  ADVICE TO THIS USER RUNNING 'VASP/VAMP'   (HEAR YOUR MASTER'S VOICE ...):  |
|                                                                             |
|      You enforced a specific xc-type in the INCAR file,                     |
|      a different type was found on the POTCAR file                          |
|          I HOPE YOU KNOW, WHAT YOU ARE  DOING                               |
|                                                                             |
 ----------------------------------------------------------------------------- 

  PAW_PBE Mn_pv 02Aug2007               :
 energy of atom  1       EATOM=-2025.2664
 kinetic energy error for atom=    0.0047 (will be added to EATOM!!)
  PAW_PBE F 08Apr2002                   :
 energy of atom  2       EATOM= -659.6475
 kinetic energy error for atom=    0.0256 (will be added to EATOM!!)
 
 
 POSCAR: Mn  F                                   
  positions in cartesian coordinates
  No initial velocities read in
 exchange correlation table for  LEXCH =       14
   RHO(1)=    0.500       N(1)  =     2000
   RHO(2)=  100.500       N(2)  =     4000
 


--------------------------------------------------------------------------------------------------------


 ion  position               nearest neighbor table
   1  0.500  0.500  0.500-   3 2.11   4 2.11   5 2.14   6 2.14   5 2.14   6 2.14
   2  0.000  0.000  0.000-   5 2.11   6 2.11   3 2.14   4 2.14   3 2.14   4 2.14
   3  0.195  0.805  0.500-   1 2.11   2 2.14   2 2.14
   4  0.805  0.195  0.500-   1 2.11   2 2.14   2 2.14
   5  0.305  0.305  0.000-   2 2.11   1 2.14   1 2.14
   6  0.695  0.695  0.000-   2 2.11   1 2.14   1 2.14
 
  LATTYP: Found a simple tetragonal cell.
 ALAT       =     4.8926092865
 C/A-ratio  =     0.6762858040
  
  Lattice vectors:
  
 A1 = (   4.8926092865,   0.0000000000,   0.0000000000)
 A2 = (   0.0000000000,   4.8926092865,   0.0000000000)
 A3 = (   0.0000000000,   0.0000000000,   3.3088022048)


Analysis of symmetry for initial positions (statically):
=====================================================================
 Subroutine PRICEL returns:
 Original cell was already a primitive cell.
 

 Routine SETGRP: Setting up the symmetry group for a 
 simple tetragonal supercell.


 Subroutine GETGRP returns: Found 16 space group operations
 (whereof  8 operations were pure point group operations)
 out of a pool of 16 trial point group operations.


The static configuration has the point symmetry D_2h.
 The point group associated with its full space group is D_4h.


Analysis of symmetry for dynamics (positions and initial velocities):
=====================================================================
 Subroutine PRICEL returns:
 Original cell was already a primitive cell.
 

 Routine SETGRP: Setting up the symmetry group for a 
 simple tetragonal supercell.


 Subroutine GETGRP returns: Found 16 space group operations
 (whereof  8 operations were pure point group operations)
 out of a pool of 16 trial point group operations.


The dynamic configuration has the point symmetry D_2h.
 The point group associated with its full space group is D_4h.


Analysis of structural, dynamic, and magnetic symmetry:
=====================================================================
 Subroutine PRICEL returns:
 Original cell was already a primitive cell.
 

 Routine SETGRP: Setting up the symmetry group for a 
 simple tetragonal supercell.


 Subroutine GETGRP returns: Found 16 space group operations
 (whereof  8 operations were pure point group operations)
 out of a pool of 16 trial point group operations.


The magnetic configuration has the point symmetry D_2h.
 The point group associated with its full space group is D_4h.


 Subroutine INISYM returns: Found 16 space group operations
 (whereof  8 operations are pure point group operations),
 and found     1 'primitive' translations

 
 
 KPOINTS: KPOINTS created by Atomic Simulation Env

Automatic generation of k-mesh.
Space group operators:
 irot       det(A)        alpha          n_x          n_y          n_z        tau_x        tau_y        tau_z
    1     1.000000     0.000000     1.000000     0.000000     0.000000     0.000000     0.000000     0.000000
    2    -1.000000     0.000000     1.000000     0.000000     0.000000     0.000000     0.000000     0.000000
    3     1.000000   180.000000     0.000000     0.000000     1.000000     0.000000     0.000000     0.000000
    4    -1.000000   180.000000     0.000000     0.000000     1.000000     0.000000     0.000000     0.000000
    5     1.000000   180.000000     0.707107     0.707107     0.000000     0.000000     0.000000     0.000000
    6    -1.000000   180.000000     0.707107     0.707107     0.000000     0.000000     0.000000     0.000000
    7     1.000000   180.000000     0.707107    -0.707107     0.000000     0.000000     0.000000     0.000000
    8    -1.000000   180.000000     0.707107    -0.707107     0.000000     0.000000     0.000000     0.000000
    9     1.000000    90.000000     0.000000     0.000000    -1.000000     0.500000     0.500000     0.500000
   10    -1.000000    90.000000     0.000000     0.000000    -1.000000     0.500000     0.500000     0.500000
   11     1.000000    90.000000     0.000000     0.000000     1.000000     0.500000     0.500000     0.500000
   12    -1.000000    90.000000     0.000000     0.000000     1.000000     0.500000     0.500000     0.500000
   13     1.000000   180.000000     0.000000     1.000000     0.000000     0.500000     0.500000     0.500000
   14    -1.000000   180.000000     0.000000     1.000000     0.000000     0.500000     0.500000     0.500000
   15     1.000000   180.000000     1.000000     0.000000     0.000000     0.500000     0.500000     0.500000
   16    -1.000000   180.000000     1.000000     0.000000     0.000000     0.500000     0.500000     0.500000
 
 Subroutine IBZKPT returns following result:
 ===========================================
 
 Found      9 irreducible k-points:
 
 Following reciprocal coordinates:
            Coordinates               Weight
  0.125000  0.125000  0.083333      8.000000
  0.375000  0.125000  0.083333     16.000000
  0.375000  0.375000  0.083333      8.000000
  0.125000  0.125000  0.250000      8.000000
  0.375000  0.125000  0.250000     16.000000
  0.375000  0.375000  0.250000      8.000000
  0.125000  0.125000  0.416667      8.000000
  0.375000  0.125000  0.416667     16.000000
  0.375000  0.375000  0.416667      8.000000
 
 Following cartesian coordinates:
            Coordinates               Weight
  0.025549  0.025549  0.025185      8.000000
  0.076646  0.025549  0.025185     16.000000
  0.076646  0.076646  0.025185      8.000000
  0.025549  0.025549  0.075556      8.000000
  0.076646  0.025549  0.075556     16.000000
  0.076646  0.076646  0.075556      8.000000
  0.025549  0.025549  0.125927      8.000000
  0.076646  0.025549  0.125927     16.000000
  0.076646  0.076646  0.125927      8.000000
 
 TETIRR: Found    106 inequivalent tetrahedra from      576


--------------------------------------------------------------------------------------------------------




 Dimension of arrays:
   k-points           NKPTS =      9   k-points in BZ     NKDIM =      9   number of bands    NBANDS=     36
   number of dos      NEDOS =    301   number of ions     NIONS =      6
   non local maximal  LDIM  =      6   non local SUM 2l+1 LMDIM =     18
   total plane-waves  NPLWV =  18000
   max r-space proj   IRMAX =      1   max aug-charges    IRDMAX=  55358
   dimension x,y,z NGX =    30 NGY =   30 NGZ =   20
   dimension x,y,z NGXF=    60 NGYF=   60 NGZF=   40
   support grid    NGXF=   120 NGYF=  120 NGZF=   80
   ions per type =               2   4
   NGX,Y,Z   is equivalent  to a cutoff of  10.19, 10.19, 10.05 a.u.
   NGXF,Y,Z  is equivalent  to a cutoff of  20.39, 20.39, 20.10 a.u.

 SYSTEM =  unknown system                          
 POSCAR =  Mn  F                                   

 Startparameter for this run:
   NWRITE =      2    write-flag & timer
   PREC   = normal    normal or accurate (medium, high low for compatibility)
   ISTART =      0    job   : 0-new  1-cont  2-samecut
   ICHARG =      2    charge: 1-file 2-atom 10-const
   ISPIN  =      2    spin polarized calculation?
   LNONCOLLINEAR =      F non collinear calculations
   LSORBIT =      F    spin-orbit coupling
   INIWAV =      1    electr: 0-lowe 1-rand  2-diag
   LASPH  =      T    aspherical Exc in radial PAW
   METAGGA=      F    non-selfconsistent MetaGGA calc.

 Electronic Relaxation 1
   ENCUT  =  600.0 eV  44.10 Ry    6.64 a.u.   9.77  9.77  6.61*2*pi/ulx,y,z
   ENINI  =  600.0     initial cutoff
   ENAUG  =  613.6 eV  augmentation charge cutoff
   NELM   =     60;   NELMIN=  2; NELMDL= -5     # of ELM steps 
   EDIFF  = 0.1E-05   stopping-criterion for ELM
   LREAL  =      F    real-space projection
   NLSPLINE    = F    spline interpolate recip. space projectors
   LCOMPAT=      F    compatible to vasp.4.4
   GGA_COMPAT  = T    GGA compatible to vasp.4.4-vasp.4.6
   LMAXPAW     = -100 max onsite density
   LMAXMIX     =    4 max onsite mixed and CHGCAR
   VOSKOWN=      0    Vosko Wilk Nusair interpolation
   ROPT   =    0.00000   0.00000
 Ionic relaxation
   EDIFFG = 0.1E-04   stopping-criterion for IOM
   NSW    =      0    number of steps for IOM
   NBLOCK =      1;   KBLOCK =      1    inner block; outer block 
   IBRION =     -1    ionic relax: 0-MD 1-quasi-New 2-CG
   NFREE  =      0    steps in history (QN), initial steepest desc. (CG)
   ISIF   =      2    stress and relaxation
   IWAVPR =     10    prediction:  0-non 1-charg 2-wave 3-comb
   ISYM   =      2    0-nonsym 1-usesym 2-fastsym
   LCORR  =      T    Harris-Foulkes like correction to forces

   POTIM  = 0.5000    time-step for ionic-motion
   TEIN   =    0.0    initial temperature
   TEBEG  =    0.0;   TEEND  =   0.0 temperature during run
   SMASS  =  -3.00    Nose mass-parameter (am)
   estimated Nose-frequenzy (Omega)   =  0.10E-29 period in steps =****** mass=  -0.547E-27a.u.
   SCALEE = 1.0000    scale energy and forces
   NPACO  =    256;   APACO  = 16.0  distance and # of slots for P.C.
   PSTRESS=    0.0 pullay stress

  Mass of Ions in am
   POMASS =  54.94 19.00
  Ionic Valenz
   ZVAL   =  13.00  7.00
  Atomic Wigner-Seitz radii
   RWIGS  =  -1.00 -1.00
  virtual crystal weights 
   VCA    =   1.00  1.00
   NELECT =      54.0000    total number of electrons
   NUPDOWN=      -1.0000    fix difference up-down

 DOS related values:
   EMIN   =  10.00;   EMAX   =-10.00  energy-range for DOS
   EFERMI =   0.00
   ISMEAR =    -5;   SIGMA  =   0.20  broadening in eV -4-tet -1-fermi 0-gaus

 Electronic relaxation 2 (details)
   IALGO  =     38    algorithm
   LDIAG  =      T    sub-space diagonalisation (order eigenvalues)
   LSUBROT=      F    optimize rotation matrix (better conditioning)
   TURBO    =      0    0=normal 1=particle mesh
   IRESTART =      0    0=no restart 2=restart with 2 vectors
   NREBOOT  =      0    no. of reboots
   NMIN     =      0    reboot dimension
   EREF     =   0.00    reference energy to select bands
   IMIX   =      4    mixing-type and parameters
     AMIX     =   0.40;   BMIX     =  1.00
     AMIX_MAG =   1.60;   BMIX_MAG =  1.00
     AMIN     =   0.10
     WC   =   100.;   INIMIX=   1;  MIXPRE=   1;  MAXMIX= -45

 Intra band minimization:
   WEIMIN = 0.0000     energy-eigenvalue tresh-hold
   EBREAK =  0.69E-08  absolut break condition
   DEPER  =   0.30     relativ break condition  

   TIME   =   0.40     timestep for ELM

  volume/ion in A,a.u.               =      13.20        89.08
  Fermi-wavevector in a.u.,A,eV,Ry     =   1.440861  2.722833 28.246794  2.076081
  Thomas-Fermi vector in A             =   2.559558
 
 Write flags
   LWAVE        =      T    write WAVECAR
   LDOWNSAMPLE  =      F    k-point downsampling of WAVECAR
   LCHARG       =      T    write CHGCAR
   LVTOT        =      F    write LOCPOT, total local potential
   LVHAR        =      F    write LOCPOT, Hartree potential only
   LELF         =      F    write electronic localiz. function (ELF)
   LORBIT       =     11    0 simple, 1 ext, 2 COOP (PROOUT), +10 PAW based schemes


 Dipole corrections
   LMONO  =      F    monopole corrections only (constant potential shift)
   LDIPOL =      F    correct potential (dipole corrections)
   IDIPOL =      0    1-x, 2-y, 3-z, 4-all directions 
   EPSILON=  1.0000000 bulk dielectric constant

 LDA+U is selected, type is set to LDAUTYPE =  2
   angular momentum for each species LDAUL =     2   -1
   U (eV)           for each species LDAUU =   6.0  0.0
   J (eV)           for each species LDAUJ =   0.0  0.0
 Exchange correlation treatment:
   GGA     =    PS    GGA type
   LEXCH   =    14    internal setting for exchange type
   VOSKOWN=      0    Vosko Wilk Nusair interpolation
   LHFCALC =     F    Hartree Fock is set to
   LHFONE  =     F    Hartree Fock one center treatment
   AEXX    =    0.0000 exact exchange contribution

 Linear response parameters
   LEPSILON=     F    determine dielectric tensor
   LRPA    =     F    only Hartree local field effects (RPA)
   LNABLA  =     F    use nabla operator in PAW spheres
   LVEL    =     F    velocity operator in full k-point grid
   LINTERFAST=   F  fast interpolation
   KINTER  =     0    interpolate to denser k-point grid
   CSHIFT  =0.1000    complex shift for real part using Kramers Kronig
   OMEGAMAX=  -1.0    maximum frequency
   DEG_THRESHOLD= 0.2000000E-02 threshold for treating states as degnerate
   RTIME   =   -0.100 relaxation time in fs
  (WPLASMAI=    0.000 imaginary part of plasma frequency in eV, 0.658/RTIME)
   DFIELD  = 0.0000000 0.0000000 0.0000000 field for delta impulse in time
 
 Orbital magnetization related:
   ORBITALMAG=     F  switch on orbital magnetization
   LCHIMAG   =     F  perturbation theory with respect to B field
   DQ        =  0.001000  dq finite difference perturbation B field
   LLRAUG    =     F  two centre corrections for induced B field



--------------------------------------------------------------------------------------------------------


 Static calculation
 charge density and potential will be updated during run
 spin polarized calculation
 Variant of blocked Davidson
 Davidson routine will perform the subspace rotation
 perform sub-space diagonalisation
    after iterative eigenvector-optimisation
 modified Broyden-mixing scheme, WC =      100.0
 initial mixing is a Kerker type mixing with AMIX =  0.4000 and BMIX =      1.0000
 Hartree-type preconditioning will be used
 using additional bands            9
 reciprocal scheme for non local part
 use partial core corrections
 calculate Harris-corrections to forces 
   (improved forces if not selfconsistent)
 use gradient corrections 
 use of overlap-Matrix (Vanderbilt PP)
 Fermi weights with tetrahedron method with Bloechl corrections


--------------------------------------------------------------------------------------------------------


  energy-cutoff  :      600.00
  volume of cell :       79.20
      direct lattice vectors                 reciprocal lattice vectors
     4.892609286  0.000000000  0.000000000     0.204389916  0.000000000  0.000000000
     0.000000000  4.892609286  0.000000000     0.000000000  0.204389916  0.000000000
     0.000000000  0.000000000  3.308802205     0.000000000  0.000000000  0.302224170

  length of vectors
     4.892609286  4.892609286  3.308802205     0.204389916  0.204389916  0.302224170


 
 k-points in units of 2pi/SCALE and weight: KPOINTS created by Atomic Simulation Env
   0.02554874  0.02554874  0.02518535       0.083
   0.07664622  0.02554874  0.02518535       0.167
   0.07664622  0.07664622  0.02518535       0.083
   0.02554874  0.02554874  0.07555604       0.083
   0.07664622  0.02554874  0.07555604       0.167
   0.07664622  0.07664622  0.07555604       0.083
   0.02554874  0.02554874  0.12592674       0.083
   0.07664622  0.02554874  0.12592674       0.167
   0.07664622  0.07664622  0.12592674       0.083
 
 k-points in reciprocal lattice and weights: KPOINTS created by Atomic Simulation Env
   0.12500000  0.12500000  0.08333333       0.083
   0.37500000  0.12500000  0.08333333       0.167
   0.37500000  0.37500000  0.08333333       0.083
   0.12500000  0.12500000  0.25000000       0.083
   0.37500000  0.12500000  0.25000000       0.167
   0.37500000  0.37500000  0.25000000       0.083
   0.12500000  0.12500000  0.41666667       0.083
   0.37500000  0.12500000  0.41666667       0.167
   0.37500000  0.37500000  0.41666667       0.083
 
 position of ions in fractional coordinates (direct lattice) 
   0.50000000  0.50000000  0.50000000
   0.00000000  0.00000000  0.00000000
   0.19520495  0.80479505  0.50000000
   0.80479505  0.19520495  0.50000000
   0.30479505  0.30479505  0.00000000
   0.69520495  0.69520495  0.00000000
 
 position of ions in cartesian coordinates  (Angst):
   2.44630464  2.44630464  1.65440110
   0.00000000  0.00000000  0.00000000
   0.95506155  3.93754774  1.65440110
   3.93754774  0.95506155  1.65440110
   1.49124309  1.49124309  0.00000000
   3.40136619  3.40136619  0.00000000
 


--------------------------------------------------------------------------------------------------------


 k-point  1 :   0.1250 0.1250 0.0833  plane waves:    2646
 k-point  2 :   0.3750 0.1250 0.0833  plane waves:    2649
 k-point  3 :   0.3750 0.3750 0.0833  plane waves:    2648
 k-point  4 :   0.1250 0.1250 0.2500  plane waves:    2641
 k-point  5 :   0.3750 0.1250 0.2500  plane waves:    2650
 k-point  6 :   0.3750 0.3750 0.2500  plane waves:    2648
 k-point  7 :   0.1250 0.1250 0.4167  plane waves:    2641
 k-point  8 :   0.3750 0.1250 0.4167  plane waves:    2637
 k-point  9 :   0.3750 0.3750 0.4167  plane waves:    2630

 maximum and minimum number of plane-waves per node :      2650     2630

 maximum number of plane-waves:      2650
 maximum index in each direction: 
   IXMAX=    9   IYMAX=    9   IZMAX=    6
   IXMIN=  -10   IYMIN=  -10   IZMIN=   -7


 serial   3D FFT for wavefunctions
 parallel 3D FFT for charge:
    minimum data exchange during FFTs selected (reduces bandwidth)


 total amount of memory used by VASP MPI-rank0    44009. kBytes
=======================================================================

   base      :      30000. kBytes
   nonl-proj :       7128. kBytes
   fftplans  :       1875. kBytes
   grid      :       2467. kBytes
   one-center:        186. kBytes
   wavefun   :       2353. kBytes
 
     INWAV:  cpu time    0.0000: real time    0.0000
 Broyden mixing: mesh for mixing (old mesh)
   NGX = 19   NGY = 19   NGZ = 13
  (NGX  = 60   NGY  = 60   NGZ  = 40)
  gives a total of   4693 points

 initial charge density was supplied:
 charge density of overlapping atoms calculated
 number of electron      54.0000000 magnetization       0.0000000
 keeping initial charge density in first step


--------------------------------------------------------------------------------------------------------


 Maximum index for augmentation-charges         4239 (set IRDMAX)


--------------------------------------------------------------------------------------------------------


 First call to EWALD:  gamma=   0.413
 Maximum number of real-space cells 2x 2x 3
 Maximum number of reciprocal cells 3x 3x 2

    FEWALD:  cpu time    0.0010: real time    0.0010


--------------------------------------- Iteration      1(   1)  ---------------------------------------


    POTLOK:  cpu time    0.0173: real time    0.0173
    SETDIJ:  cpu time    0.3687: real time    0.3687
atom =   1  type =  1  l = 2
 
 onsite density matrix
 
spin component  1
 
  0.2835  0.0000  0.0000  0.0000  0.0000
  0.0000  0.2835  0.0000  0.0000  0.0000
  0.0000  0.0000  0.2835  0.0000  0.0000
  0.0000  0.0000  0.0000  0.2835  0.0000
  0.0000  0.0000  0.0000  0.0000  0.2835
 
spin component  2
 
  0.7694  0.0000  0.0000  0.0000  0.0000
  0.0000  0.7694  0.0000  0.0000  0.0000
  0.0000  0.0000  0.7694  0.0000  0.0000
  0.0000  0.0000  0.0000  0.7694  0.0000
  0.0000  0.0000  0.0000  0.0000  0.7694
 
 occupancies and eigenvectors
 
  o =  0.2835  v =  1.0000  0.0000  0.0000  0.0000  0.0000  0.0000  0.0000  0.0000  0.0000  0.0000      0.0000  0.0000  0.0000  0.0000  0.0000  0.0000  0.0000  0.0000  0.0000  0.0000
  o =  0.2835  v =  0.0000  1.0000  0.0000  0.0000  0.0000  0.0000  0.0000  0.0000  0.0000  0.0000      0.0000  0.0000  0.0000  0.0000  0.0000  0.0000  0.0000  0.0000  0.0000  0.0000
  o =  0.2835  v =  0.0000  0.0000  1.0000  0.0000  0.0000  0.0000  0.0000  0.0000  0.0000  0.0000      0.0000  0.0000  0.0000  0.0000  0.0000  0.0000  0.0000  0.0000  0.0000  0.0000
  o =  0.2835  v =  0.0000  0.0000  0.0000  1.0000  0.0000  0.0000  0.0000  0.0000  0.0000  0.0000      0.0000  0.0000  0.0000  0.0000  0.0000  0.0000  0.0000  0.0000  0.0000  0.0000
  o =  0.2835  v =  0.0000  0.0000  0.0000  0.0000  1.0000  0.0000  0.0000  0.0000  0.0000  0.0000      0.0000  0.0000  0.0000  0.0000  0.0000  0.0000  0.0000  0.0000  0.0000  0.0000
  o =  0.7694  v =  0.0000  0.0000  0.0000  0.0000  0.0000  1.0000  0.0000  0.0000  0.0000  0.0000      0.0000  0.0000  0.0000  0.0000  0.0000  0.0000  0.0000  0.0000  0.0000  0.0000
  o =  0.7694  v =  0.0000  0.0000  0.0000  0.0000  0.0000  0.0000  1.0000  0.0000  0.0000  0.0000      0.0000  0.0000  0.0000  0.0000  0.0000  0.0000  0.0000  0.0000  0.0000  0.0000
  o =  0.7694  v =  0.0000  0.0000  0.0000  0.0000  0.0000  0.0000  0.0000  1.0000  0.0000  0.0000      0.0000  0.0000  0.0000  0.0000  0.0000  0.0000  0.0000  0.0000  0.0000  0.0000
  o =  0.7694  v =  0.0000  0.0000  0.0000  0.0000  0.0000  0.0000  0.0000  0.0000  1.0000  0.0000      0.0000  0.0000  0.0000  0.0000  0.0000  0.0000  0.0000  0.0000  0.0000  0.0000
  o =  0.7694  v =  0.0000  0.0000  0.0000  0.0000  0.0000  0.0000  0.0000  0.0000  0.0000  1.0000      0.0000  0.0000  0.0000  0.0000  0.0000  0.0000  0.0000  0.0000  0.0000  0.0000
atom =   2  type =  1  l = 2
 
 onsite density matrix
 
spin component  1
 
  0.7694  0.0000  0.0000  0.0000  0.0000
  0.0000  0.7694  0.0000  0.0000  0.0000
  0.0000  0.0000  0.7694  0.0000  0.0000
  0.0000  0.0000  0.0000  0.7694  0.0000
  0.0000  0.0000  0.0000  0.0000  0.7694
 
spin component  2
 
  0.2835  0.0000  0.0000  0.0000  0.0000
  0.0000  0.2835  0.0000  0.0000  0.0000
  0.0000  0.0000  0.2835  0.0000  0.0000
  0.0000  0.0000  0.0000  0.2835  0.0000
  0.0000  0.0000  0.0000  0.0000  0.2835
 
 occupancies and eigenvectors
 
  o =  0.2835  v =  0.0000  0.0000  0.0000  0.0000  0.0000  1.0000  0.0000  0.0000  0.0000  0.0000      0.0000  0.0000  0.0000  0.0000  0.0000  0.0000  0.0000  0.0000  0.0000  0.0000
  o =  0.2835  v =  0.0000  0.0000  0.0000  0.0000  0.0000  0.0000  1.0000  0.0000  0.0000  0.0000      0.0000  0.0000  0.0000  0.0000  0.0000  0.0000  0.0000  0.0000  0.0000  0.0000
  o =  0.2835  v =  0.0000  0.0000  0.0000  0.0000  0.0000  0.0000  0.0000  1.0000  0.0000  0.0000      0.0000  0.0000  0.0000  0.0000  0.0000  0.0000  0.0000  0.0000  0.0000  0.0000
  o =  0.2835  v =  0.0000  0.0000  0.0000  0.0000  0.0000  0.0000  0.0000  0.0000  1.0000  0.0000      0.0000  0.0000  0.0000  0.0000  0.0000  0.0000  0.0000  0.0000  0.0000  0.0000
  o =  0.2835  v =  0.0000  0.0000  0.0000  0.0000  0.0000  0.0000  0.0000  0.0000  0.0000  1.0000      0.0000  0.0000  0.0000  0.0000  0.0000  0.0000  0.0000  0.0000  0.0000  0.0000
  o =  0.7694  v =  1.0000  0.0000  0.0000  0.0000  0.0000  0.0000  0.0000  0.0000  0.0000  0.0000      0.0000  0.0000  0.0000  0.0000  0.0000  0.0000  0.0000  0.0000  0.0000  0.0000
  o =  0.7694  v =  0.0000  1.0000  0.0000  0.0000  0.0000  0.0000  0.0000  0.0000  0.0000  0.0000      0.0000  0.0000  0.0000  0.0000  0.0000  0.0000  0.0000  0.0000  0.0000  0.0000
  o =  0.7694  v =  0.0000  0.0000  1.0000  0.0000  0.0000  0.0000  0.0000  0.0000  0.0000  0.0000      0.0000  0.0000  0.0000  0.0000  0.0000  0.0000  0.0000  0.0000  0.0000  0.0000
  o =  0.7694  v =  0.0000  0.0000  0.0000  1.0000  0.0000  0.0000  0.0000  0.0000  0.0000  0.0000      0.0000  0.0000  0.0000  0.0000  0.0000  0.0000  0.0000  0.0000  0.0000  0.0000
  o =  0.7694  v =  0.0000  0.0000  0.0000  0.0000  1.0000  0.0000  0.0000  0.0000  0.0000  0.0000      0.0000  0.0000  0.0000  0.0000  0.0000  0.0000  0.0000  0.0000  0.0000  0.0000
     EDDAV:  cpu time    0.3166: real time    0.3360
 BZINTS: Fermi energy: 18.680855; 54.000000 electrons
         Band energy: -65.967930;  BLOECHL correction: -0.110215
       DOS:  cpu time    0.0067: real time    0.0067
    --------------------------------------------
      LOOP:  cpu time    0.7093: real time    0.7288

 eigenvalue-minimisations  :  1296
 total energy-change (2. order) : 0.6788074E+03  (-0.3414834E+04)
 number of electron      54.0000000 magnetization       0.0000000
 augmentation part       54.0000000 magnetization       0.0000000

 Free energy of the ion-electron system (eV)
  ---------------------------------------------------
  alpha Z        PSCENC =       194.90578087
  Ewald energy   TEWEN  =     -4169.40277502
  -Hartree energ DENC   =     -2151.96458812
  -exchange      EXHF   =         0.00000000
  -V(xc)+E(xc)   XCENC  =       293.19729334
  PAW double counting   =      5439.83165491    -5539.44058827
  entropy T*S    EENTRO =         0.00000000
  eigenvalues    EBANDS =       -65.96793009
  atomic energy  EATOM  =      6677.64854832
  Solvation  Ediel_sol  =         0.00000000
  ---------------------------------------------------
  free energy    TOTEN  =       678.80739593 eV

  energy without entropy =      678.80739593  energy(sigma->0) =      678.80739593


--------------------------------------------------------------------------------------------------------




--------------------------------------- Iteration      1(   2)  ---------------------------------------


     EDDAV:  cpu time    0.3573: real time    0.3574
 BZINTS: Fermi energy:  3.234560; 54.000000 electrons
         Band energy:-734.811551;  BLOECHL correction:  0.000000
       DOS:  cpu time    0.0012: real time    0.0012
    --------------------------------------------
      LOOP:  cpu time    0.3585: real time    0.3586

 eigenvalue-minimisations  :  1512
 total energy-change (2. order) :-0.6688436E+03  (-0.6500888E+03)
 number of electron      54.0000000 magnetization       0.0000000
 augmentation part       54.0000000 magnetization       0.0000000

 Free energy of the ion-electron system (eV)
  ---------------------------------------------------
  alpha Z        PSCENC =       194.90578087
  Ewald energy   TEWEN  =     -4169.40277502
  -Hartree energ DENC   =     -2151.96458812
  -exchange      EXHF   =         0.00000000
  -V(xc)+E(xc)   XCENC  =       293.19729334
  PAW double counting   =      5439.83165491    -5539.44058827
  entropy T*S    EENTRO =         0.00000000
  eigenvalues    EBANDS =      -734.81155147
  atomic energy  EATOM  =      6677.64854832
  Solvation  Ediel_sol  =         0.00000000
  ---------------------------------------------------
  free energy    TOTEN  =         9.96377455 eV

  energy without entropy =        9.96377455  energy(sigma->0) =        9.96377455


--------------------------------------------------------------------------------------------------------




--------------------------------------- Iteration      1(   3)  ---------------------------------------


     EDDAV:  cpu time    0.3502: real time    0.3502
 BZINTS: Fermi energy:  2.600665; 54.000000 electrons
         Band energy:-782.502153;  BLOECHL correction:  0.000000
       DOS:  cpu time    0.0014: real time    0.0014
    --------------------------------------------
      LOOP:  cpu time    0.3516: real time    0.3516

 eigenvalue-minimisations  :  1488
 total energy-change (2. order) :-0.4769060E+02  (-0.4752379E+02)
 number of electron      54.0000000 magnetization       0.0000000
 augmentation part       54.0000000 magnetization       0.0000000

 Free energy of the ion-electron system (eV)
  ---------------------------------------------------
  alpha Z        PSCENC =       194.90578087
  Ewald energy   TEWEN  =     -4169.40277502
  -Hartree energ DENC   =     -2151.96458812
  -exchange      EXHF   =         0.00000000
  -V(xc)+E(xc)   XCENC  =       293.19729334
  PAW double counting   =      5439.83165491    -5539.44058827
  entropy T*S    EENTRO =         0.00000000
  eigenvalues    EBANDS =      -782.50215327
  atomic energy  EATOM  =      6677.64854832
  Solvation  Ediel_sol  =         0.00000000
  ---------------------------------------------------
  free energy    TOTEN  =       -37.72682725 eV

  energy without entropy =      -37.72682725  energy(sigma->0) =      -37.72682725


--------------------------------------------------------------------------------------------------------




--------------------------------------- Iteration      1(   4)  ---------------------------------------


     EDDAV:  cpu time    0.3556: real time    0.3556
 BZINTS: Fermi energy:  2.488147; 54.000000 electrons
         Band energy:-783.156848;  BLOECHL correction:  0.000000
       DOS:  cpu time    0.0012: real time    0.0012
    --------------------------------------------
      LOOP:  cpu time    0.3567: real time    0.3567

 eigenvalue-minimisations  :  1512
 total energy-change (2. order) :-0.6546944E+00  (-0.6545012E+00)
 number of electron      54.0000000 magnetization       0.0000000
 augmentation part       54.0000000 magnetization       0.0000000

 Free energy of the ion-electron system (eV)
  ---------------------------------------------------
  alpha Z        PSCENC =       194.90578087
  Ewald energy   TEWEN  =     -4169.40277502
  -Hartree energ DENC   =     -2151.96458812
  -exchange      EXHF   =         0.00000000
  -V(xc)+E(xc)   XCENC  =       293.19729334
  PAW double counting   =      5439.83165491    -5539.44058827
  entropy T*S    EENTRO =         0.00000000
  eigenvalues    EBANDS =      -783.15684766
  atomic energy  EATOM  =      6677.64854832
  Solvation  Ediel_sol  =         0.00000000
  ---------------------------------------------------
  free energy    TOTEN  =       -38.38152164 eV

  energy without entropy =      -38.38152164  energy(sigma->0) =      -38.38152164


--------------------------------------------------------------------------------------------------------




--------------------------------------- Iteration      1(   5)  ---------------------------------------


     EDDAV:  cpu time    0.3572: real time    0.3572
 BZINTS: Fermi energy:  2.474598; 54.000000 electrons
         Band energy:-783.168248;  BLOECHL correction:  0.000000
       DOS:  cpu time    0.0011: real time    0.0011
    CHARGE:  cpu time    0.0315: real time    0.0315
    MIXING:  cpu time    0.0008: real time    0.0008
    --------------------------------------------
      LOOP:  cpu time    0.3906: real time    0.3906

 eigenvalue-minimisations  :  1524
 total energy-change (2. order) :-0.1140005E-01  (-0.1140000E-01)
 number of electron      54.0000010 magnetization      -0.0000000
 augmentation part       20.0827762 magnetization      -0.0000000

 Broyden mixing:
  rms(total) = 0.22497E+01    rms(broyden)= 0.22496E+01
  rms(prec ) = 0.30124E+01
  weight for this iteration     100.00

 Free energy of the ion-electron system (eV)
  ---------------------------------------------------
  alpha Z        PSCENC =       194.90578087
  Ewald energy   TEWEN  =     -4169.40277502
  -Hartree energ DENC   =     -2151.96458812
  -exchange      EXHF   =         0.00000000
  -V(xc)+E(xc)   XCENC  =       293.19729334
  PAW double counting   =      5439.83165491    -5539.44058827
  entropy T*S    EENTRO =         0.00000000
  eigenvalues    EBANDS =      -783.16824771
  atomic energy  EATOM  =      6677.64854832
  Solvation  Ediel_sol  =         0.00000000
  ---------------------------------------------------
  free energy    TOTEN  =       -38.39292169 eV

  energy without entropy =      -38.39292169  energy(sigma->0) =      -38.39292169


--------------------------------------------------------------------------------------------------------




--------------------------------------- Iteration      1(   6)  ---------------------------------------


    POTLOK:  cpu time    0.0155: real time    0.0155
    SETDIJ:  cpu time    0.3682: real time    0.3682
atom =   1  type =  1  l = 2
 
 onsite density matrix
 
spin component  1
 
 -0.0827  0.0000  0.0022  0.0000 -0.0000
  0.0000 -0.0847  0.0000  0.0016  0.0000
  0.0022  0.0000 -0.0829  0.0000  0.0000
  0.0000  0.0016  0.0000 -0.0847  0.0000
 -0.0000  0.0000  0.0000  0.0000 -0.0883
 
spin component  2
 
  1.1073  0.0000  0.0134  0.0000 -0.0000
  0.0000  1.1045  0.0000  0.0120  0.0000
  0.0134  0.0000  1.0989  0.0000 -0.0000
  0.0000  0.0120  0.0000  1.1045  0.0000
 -0.0000  0.0000 -0.0000  0.0000  1.0941
 
 occupancies and eigenvectors
 
  o = -0.0883  v =  0.0000  0.0000 -0.0000 -0.0000  1.0000  0.0000  0.0000  0.0000  0.0000  0.0000      0.0000  0.0000  0.0000  0.0000  0.0000  0.0000  0.0000  0.0000  0.0000  0.0000
  o = -0.0863  v =  0.0000 -0.7071 -0.0000  0.7071  0.0000  0.0000  0.0000  0.0000  0.0000  0.0000      0.0000  0.0000  0.0000  0.0000  0.0000  0.0000  0.0000  0.0000  0.0000  0.0000
  o = -0.0850  v =  0.6920  0.0000 -0.7219 -0.0000 -0.0000  0.0000  0.0000  0.0000  0.0000  0.0000      0.0000  0.0000  0.0000  0.0000  0.0000  0.0000  0.0000  0.0000  0.0000  0.0000
  o = -0.0831  v =  0.0000  0.7071 -0.0000  0.7071 -0.0000  0.0000  0.0000  0.0000  0.0000  0.0000      0.0000  0.0000  0.0000  0.0000  0.0000  0.0000  0.0000  0.0000  0.0000  0.0000
  o = -0.0807  v =  0.7219 -0.0000  0.6920 -0.0000  0.0000  0.0000  0.0000  0.0000  0.0000  0.0000      0.0000  0.0000  0.0000  0.0000  0.0000  0.0000  0.0000  0.0000  0.0000  0.0000
  o =  1.0891  v =  0.0000  0.0000  0.0000  0.0000  0.0000 -0.5931 -0.0000  0.8051  0.0000  0.0000      0.0000  0.0000  0.0000  0.0000  0.0000  0.0000  0.0000  0.0000  0.0000  0.0000
  o =  1.0925  v =  0.0000  0.0000  0.0000  0.0000  0.0000 -0.0000  0.7071  0.0000 -0.7071  0.0000      0.0000  0.0000  0.0000  0.0000  0.0000  0.0000  0.0000  0.0000  0.0000  0.0000
  o =  1.0941  v =  0.0000  0.0000  0.0000  0.0000  0.0000  0.0000 -0.0000 -0.0000  0.0000  1.0000      0.0000  0.0000  0.0000  0.0000  0.0000  0.0000  0.0000  0.0000  0.0000  0.0000
  o =  1.1165  v =  0.0000  0.0000  0.0000  0.0000  0.0000 -0.0000  0.7071 -0.0000  0.7071 -0.0000      0.0000  0.0000  0.0000  0.0000  0.0000  0.0000  0.0000  0.0000  0.0000  0.0000
  o =  1.1172  v =  0.0000  0.0000  0.0000  0.0000  0.0000 -0.8051 -0.0000 -0.5931 -0.0000  0.0000      0.0000  0.0000  0.0000  0.0000  0.0000  0.0000  0.0000  0.0000  0.0000  0.0000
atom =   2  type =  1  l = 2
 
 onsite density matrix
 
spin component  1
 
  1.1073  0.0000 -0.0134  0.0000  0.0000
  0.0000  1.1045  0.0000 -0.0120  0.0000
 -0.0134  0.0000  1.0989  0.0000  0.0000
  0.0000 -0.0120  0.0000  1.1045  0.0000
  0.0000  0.0000  0.0000  0.0000  1.0941
 
spin component  2
 
 -0.0827  0.0000 -0.0022  0.0000 -0.0000
  0.0000 -0.0847  0.0000 -0.0016  0.0000
 -0.0022  0.0000 -0.0829  0.0000 -0.0000
  0.0000 -0.0016  0.0000 -0.0847  0.0000
 -0.0000  0.0000 -0.0000  0.0000 -0.0883
 
 occupancies and eigenvectors
 
  o = -0.0883  v =  0.0000  0.0000  0.0000  0.0000  0.0000  0.0000 -0.0000  0.0000 -0.0000  1.0000      0.0000  0.0000  0.0000  0.0000  0.0000  0.0000  0.0000  0.0000  0.0000  0.0000
  o = -0.0863  v =  0.0000  0.0000  0.0000  0.0000  0.0000 -0.0000 -0.7071 -0.0000 -0.7071 -0.0000      0.0000  0.0000  0.0000  0.0000  0.0000  0.0000  0.0000  0.0000  0.0000  0.0000
  o = -0.0850  v =  0.0000  0.0000  0.0000  0.0000  0.0000  0.6920 -0.0000  0.7219 -0.0000 -0.0000      0.0000  0.0000  0.0000  0.0000  0.0000  0.0000  0.0000  0.0000  0.0000  0.0000
  o = -0.0831  v =  0.0000  0.0000  0.0000  0.0000  0.0000 -0.0000  0.7071 -0.0000 -0.7071  0.0000      0.0000  0.0000  0.0000  0.0000  0.0000  0.0000  0.0000  0.0000  0.0000  0.0000
  o = -0.0807  v =  0.0000  0.0000  0.0000  0.0000  0.0000  0.7219  0.0000 -0.6920 -0.0000  0.0000      0.0000  0.0000  0.0000  0.0000  0.0000  0.0000  0.0000  0.0000  0.0000  0.0000
  o =  1.0891  v = -0.5931  0.0000 -0.8051  0.0000  0.0000  0.0000  0.0000  0.0000  0.0000  0.0000      0.0000  0.0000  0.0000  0.0000  0.0000  0.0000  0.0000  0.0000  0.0000  0.0000
  o =  1.0925  v = -0.0000 -0.7071 -0.0000 -0.7071 -0.0000  0.0000  0.0000  0.0000  0.0000  0.0000      0.0000  0.0000  0.0000  0.0000  0.0000  0.0000  0.0000  0.0000  0.0000  0.0000
  o =  1.0941  v =  0.0000 -0.0000  0.0000 -0.0000  1.0000  0.0000  0.0000  0.0000  0.0000  0.0000      0.0000  0.0000  0.0000  0.0000  0.0000  0.0000  0.0000  0.0000  0.0000  0.0000
  o =  1.1165  v = -0.0000 -0.7071  0.0000  0.7071  0.0000  0.0000  0.0000  0.0000  0.0000  0.0000      0.0000  0.0000  0.0000  0.0000  0.0000  0.0000  0.0000  0.0000  0.0000  0.0000
  o =  1.1172  v = -0.8051  0.0000  0.5931 -0.0000  0.0000  0.0000  0.0000  0.0000  0.0000  0.0000      0.0000  0.0000  0.0000  0.0000  0.0000  0.0000  0.0000  0.0000  0.0000  0.0000
     EDDAV:  cpu time    0.3586: real time    0.3586
 BZINTS: Fermi energy:  0.589568; 54.000000 electrons
         Band energy:-775.607420;  BLOECHL correction:  0.000000
       DOS:  cpu time    0.0013: real time    0.0013
    CHARGE:  cpu time    0.0316: real time    0.0316
    MIXING:  cpu time    0.0007: real time    0.0007
    --------------------------------------------
      LOOP:  cpu time    0.7760: real time    0.7760

 eigenvalue-minimisations  :  1536
 total energy-change (2. order) : 0.1159235E+01  (-0.1618682E+01)
 number of electron      54.0000009 magnetization       0.0000000
 augmentation part       19.9566337 magnetization       0.0000000

 Broyden mixing:
  rms(total) = 0.14505E+01    rms(broyden)= 0.14504E+01
  rms(prec ) = 0.15154E+01
  weight for this iteration     100.00

 eigenvalues of (default mixing * dielectric matrix)
  average eigenvalue GAMMA=   0.7875
  0.7875

 Free energy of the ion-electron system (eV)
  ---------------------------------------------------
  alpha Z        PSCENC =       194.90578087
  Ewald energy   TEWEN  =     -4169.40277502
  -Hartree energ DENC   =     -2173.78943599
  -exchange      EXHF   =         0.00000000
  -V(xc)+E(xc)   XCENC  =       293.77726259
  PAW double counting   =      5691.98410686    -5776.74975395
  entropy T*S    EENTRO =         0.00000000
  eigenvalues    EBANDS =      -775.60742021
  atomic energy  EATOM  =      6677.64854832
  Solvation  Ediel_sol  =         0.00000000
  ---------------------------------------------------
  free energy    TOTEN  =       -37.23368653 eV

  energy without entropy =      -37.23368653  energy(sigma->0) =      -37.23368653


--------------------------------------------------------------------------------------------------------




--------------------------------------- Iteration      1(   7)  ---------------------------------------


    POTLOK:  cpu time    0.0153: real time    0.0153
    SETDIJ:  cpu time    0.3681: real time    0.3681
atom =   1  type =  1  l = 2
 
 onsite density matrix
 
spin component  1
 
  0.1109  0.0000  0.0163  0.0000 -0.0000
  0.0000  0.1058  0.0000  0.0141  0.0000
  0.0163  0.0000  0.1015  0.0000  0.0000
  0.0000  0.0141  0.0000  0.1058  0.0000
 -0.0000  0.0000  0.0000  0.0000  0.0911
 
spin component  2
 
  0.9055  0.0000  0.0070  0.0000 -0.0000
  0.0000  0.9036  0.0000  0.0060  0.0000
  0.0070  0.0000  0.9022  0.0000 -0.0000
  0.0000  0.0060  0.0000  0.9036  0.0000
 -0.0000  0.0000 -0.0000  0.0000  0.8971
 
 occupancies and eigenvectors
 
  o =  0.0893  v = -0.6011  0.0000  0.7991 -0.0000 -0.0000  0.0000  0.0000  0.0000  0.0000  0.0000      0.0000  0.0000  0.0000  0.0000  0.0000  0.0000  0.0000  0.0000  0.0000  0.0000
  o =  0.0911  v = -0.0000 -0.0000  0.0000  0.0000  1.0000  0.0000  0.0000  0.0000  0.0000  0.0000      0.0000  0.0000  0.0000  0.0000  0.0000  0.0000  0.0000  0.0000  0.0000  0.0000
  o =  0.0917  v =  0.0000  0.7071 -0.0000 -0.7071  0.0000  0.0000  0.0000  0.0000  0.0000  0.0000      0.0000  0.0000  0.0000  0.0000  0.0000  0.0000  0.0000  0.0000  0.0000  0.0000
  o =  0.1199  v = -0.0000 -0.7071 -0.0000 -0.7071 -0.0000  0.0000  0.0000  0.0000  0.0000  0.0000      0.0000  0.0000  0.0000  0.0000  0.0000  0.0000  0.0000  0.0000  0.0000  0.0000
  o =  0.1232  v = -0.7991  0.0000 -0.6011  0.0000 -0.0000  0.0000  0.0000  0.0000  0.0000  0.0000      0.0000  0.0000  0.0000  0.0000  0.0000  0.0000  0.0000  0.0000  0.0000  0.0000
  o =  0.8966  v =  0.0000  0.0000  0.0000  0.0000  0.0000 -0.6200  0.0000  0.7846  0.0000 -0.0000      0.0000  0.0000  0.0000  0.0000  0.0000  0.0000  0.0000  0.0000  0.0000  0.0000
  o =  0.8971  v =  0.0000  0.0000  0.0000  0.0000  0.0000  0.0000  0.0000 -0.0000 -0.0000 -1.0000      0.0000  0.0000  0.0000  0.0000  0.0000  0.0000  0.0000  0.0000  0.0000  0.0000
  o =  0.8976  v =  0.0000  0.0000  0.0000  0.0000  0.0000  0.0000 -0.7071 -0.0000  0.7071 -0.0000      0.0000  0.0000  0.0000  0.0000  0.0000  0.0000  0.0000  0.0000  0.0000  0.0000
  o =  0.9097  v =  0.0000  0.0000  0.0000  0.0000  0.0000  0.0000  0.7071  0.0000  0.7071  0.0000      0.0000  0.0000  0.0000  0.0000  0.0000  0.0000  0.0000  0.0000  0.0000  0.0000
  o =  0.9111  v =  0.0000  0.0000  0.0000  0.0000  0.0000 -0.7846  0.0000 -0.6200  0.0000  0.0000      0.0000  0.0000  0.0000  0.0000  0.0000  0.0000  0.0000  0.0000  0.0000  0.0000
atom =   2  type =  1  l = 2
 
 onsite density matrix
 
spin component  1
 
  0.9055  0.0000 -0.0070  0.0000 -0.0000
  0.0000  0.9036  0.0000 -0.0060  0.0000
 -0.0070  0.0000  0.9022  0.0000 -0.0000
  0.0000 -0.0060  0.0000  0.9036  0.0000
 -0.0000  0.0000 -0.0000  0.0000  0.8971
 
spin component  2
 
  0.1109  0.0000 -0.0163  0.0000 -0.0000
  0.0000  0.1058  0.0000 -0.0141  0.0000
 -0.0163  0.0000  0.1015  0.0000  0.0000
  0.0000 -0.0141  0.0000  0.1058  0.0000
 -0.0000  0.0000  0.0000  0.0000  0.0911
 
 occupancies and eigenvectors
 
  o =  0.0893  v =  0.0000  0.0000  0.0000  0.0000  0.0000 -0.6011 -0.0000 -0.7991 -0.0000  0.0000      0.0000  0.0000  0.0000  0.0000  0.0000  0.0000  0.0000  0.0000  0.0000  0.0000
  o =  0.0911  v =  0.0000  0.0000  0.0000  0.0000  0.0000 -0.0000  0.0000 -0.0000  0.0000 -1.0000      0.0000  0.0000  0.0000  0.0000  0.0000  0.0000  0.0000  0.0000  0.0000  0.0000
  o =  0.0917  v =  0.0000  0.0000  0.0000  0.0000  0.0000 -0.0000 -0.7071 -0.0000 -0.7071 -0.0000      0.0000  0.0000  0.0000  0.0000  0.0000  0.0000  0.0000  0.0000  0.0000  0.0000
  o =  0.1199  v =  0.0000  0.0000  0.0000  0.0000  0.0000  0.0000  0.7071 -0.0000 -0.7071  0.0000      0.0000  0.0000  0.0000  0.0000  0.0000  0.0000  0.0000  0.0000  0.0000  0.0000
  o =  0.1232  v =  0.0000  0.0000  0.0000  0.0000  0.0000 -0.7991  0.0000  0.6011 -0.0000  0.0000      0.0000  0.0000  0.0000  0.0000  0.0000  0.0000  0.0000  0.0000  0.0000  0.0000
  o =  0.8966  v = -0.6200  0.0000 -0.7846  0.0000 -0.0000  0.0000  0.0000  0.0000  0.0000  0.0000      0.0000  0.0000  0.0000  0.0000  0.0000  0.0000  0.0000  0.0000  0.0000  0.0000
  o =  0.8971  v =  0.0000 -0.0000 -0.0000 -0.0000  1.0000  0.0000  0.0000  0.0000  0.0000  0.0000      0.0000  0.0000  0.0000  0.0000  0.0000  0.0000  0.0000  0.0000  0.0000  0.0000
  o =  0.8976  v =  0.0000  0.7071 -0.0000  0.7071  0.0000  0.0000  0.0000  0.0000  0.0000  0.0000      0.0000  0.0000  0.0000  0.0000  0.0000  0.0000  0.0000  0.0000  0.0000  0.0000
  o =  0.9097  v =  0.0000  0.7071 -0.0000 -0.7071  0.0000  0.0000  0.0000  0.0000  0.0000  0.0000      0.0000  0.0000  0.0000  0.0000  0.0000  0.0000  0.0000  0.0000  0.0000  0.0000
  o =  0.9111  v = -0.7846  0.0000  0.6200  0.0000  0.0000  0.0000  0.0000  0.0000  0.0000  0.0000      0.0000  0.0000  0.0000  0.0000  0.0000  0.0000  0.0000  0.0000  0.0000  0.0000
     EDDAV:  cpu time    0.3574: real time    0.3574
 BZINTS: Fermi energy:  1.052502; 54.000000 electrons
         Band energy:-766.617196;  BLOECHL correction:  0.000000
       DOS:  cpu time    0.0013: real time    0.0013
    CHARGE:  cpu time    0.0317: real time    0.0317
    MIXING:  cpu time    0.0008: real time    0.0008
    --------------------------------------------
      LOOP:  cpu time    0.7747: real time    0.7747

 eigenvalue-minimisations  :  1536
 total energy-change (2. order) :-0.9520271E+00  (-0.2164932E+00)
 number of electron      54.0000009 magnetization      -0.0000000
 augmentation part       19.9062725 magnetization      -0.0000000

 Broyden mixing:
  rms(total) = 0.10811E+01    rms(broyden)= 0.10811E+01
  rms(prec ) = 0.11197E+01
  weight for this iteration     100.00

 eigenvalues of (default mixing * dielectric matrix)
  average eigenvalue GAMMA=   1.3459
  0.6961  1.9956

 Free energy of the ion-electron system (eV)
  ---------------------------------------------------
  alpha Z        PSCENC =       194.90578087
  Ewald energy   TEWEN  =     -4169.40277502
  -Hartree energ DENC   =     -2170.45785520
  -exchange      EXHF   =         0.00000000
  -V(xc)+E(xc)   XCENC  =       294.45130259
  PAW double counting   =      5917.72180566    -6016.43532463
  entropy T*S    EENTRO =         0.00000000
  eigenvalues    EBANDS =      -766.61719621
  atomic energy  EATOM  =      6677.64854832
  Solvation  Ediel_sol  =         0.00000000
  ---------------------------------------------------
  free energy    TOTEN  =       -38.18571363 eV

  energy without entropy =      -38.18571363  energy(sigma->0) =      -38.18571363


--------------------------------------------------------------------------------------------------------




--------------------------------------- Iteration      1(   8)  ---------------------------------------


    POTLOK:  cpu time    0.0154: real time    0.0154
    SETDIJ:  cpu time    0.3685: real time    0.3685
atom =   1  type =  1  l = 2
 
 onsite density matrix
 
spin component  1
 
 -0.0236  0.0000  0.0165  0.0000 -0.0000
  0.0000 -0.0289  0.0000  0.0136  0.0000
  0.0165  0.0000 -0.0315  0.0000 -0.0000
  0.0000  0.0136  0.0000 -0.0289  0.0000
 -0.0000  0.0000 -0.0000  0.0000 -0.0451
 
spin component  2
 
  1.0383  0.0000  0.0172  0.0000 -0.0000
  0.0000  1.0333  0.0000  0.0157  0.0000
  0.0172  0.0000  1.0275  0.0000 -0.0000
  0.0000  0.0157  0.0000  1.0333  0.0000
 -0.0000  0.0000 -0.0000  0.0000  1.0187
 
 occupancies and eigenvectors
 
  o = -0.0451  v =  0.0000 -0.0000 -0.0000  0.0000 -1.0000  0.0000  0.0000  0.0000  0.0000  0.0000      0.0000  0.0000  0.0000  0.0000  0.0000  0.0000  0.0000  0.0000  0.0000  0.0000
  o = -0.0445  v = -0.6194 -0.0000  0.7851  0.0000 -0.0000  0.0000  0.0000  0.0000  0.0000  0.0000      0.0000  0.0000  0.0000  0.0000  0.0000  0.0000  0.0000  0.0000  0.0000  0.0000
  o = -0.0425  v =  0.0000  0.7071  0.0000 -0.7071 -0.0000  0.0000  0.0000  0.0000  0.0000  0.0000      0.0000  0.0000  0.0000  0.0000  0.0000  0.0000  0.0000  0.0000  0.0000  0.0000
  o = -0.0153  v =  0.0000 -0.7071  0.0000 -0.7071  0.0000  0.0000  0.0000  0.0000  0.0000  0.0000      0.0000  0.0000  0.0000  0.0000  0.0000  0.0000  0.0000  0.0000  0.0000  0.0000
  o = -0.0106  v =  0.7851 -0.0000  0.6194  0.0000 -0.0000  0.0000  0.0000  0.0000  0.0000  0.0000      0.0000  0.0000  0.0000  0.0000  0.0000  0.0000  0.0000  0.0000  0.0000  0.0000
  o =  1.0149  v =  0.0000  0.0000  0.0000  0.0000  0.0000 -0.5916  0.0000  0.8062  0.0000 -0.0000      0.0000  0.0000  0.0000  0.0000  0.0000  0.0000  0.0000  0.0000  0.0000  0.0000
  o =  1.0176  v =  0.0000  0.0000  0.0000  0.0000  0.0000  0.0000  0.7071  0.0000 -0.7071  0.0000      0.0000  0.0000  0.0000  0.0000  0.0000  0.0000  0.0000  0.0000  0.0000  0.0000
  o =  1.0187  v =  0.0000  0.0000  0.0000  0.0000  0.0000  0.0000  0.0000 -0.0000 -0.0000 -1.0000      0.0000  0.0000  0.0000  0.0000  0.0000  0.0000  0.0000  0.0000  0.0000  0.0000
  o =  1.0490  v =  0.0000  0.0000  0.0000  0.0000  0.0000  0.0000 -0.7071  0.0000 -0.7071  0.0000      0.0000  0.0000  0.0000  0.0000  0.0000  0.0000  0.0000  0.0000  0.0000  0.0000
  o =  1.0509  v =  0.0000  0.0000  0.0000  0.0000  0.0000 -0.8062  0.0000 -0.5916  0.0000  0.0000      0.0000  0.0000  0.0000  0.0000  0.0000  0.0000  0.0000  0.0000  0.0000  0.0000
atom =   2  type =  1  l = 2
 
 onsite density matrix
 
spin component  1
 
  1.0383  0.0000 -0.0172  0.0000  0.0000
  0.0000  1.0333  0.0000 -0.0157  0.0000
 -0.0172  0.0000  1.0275  0.0000  0.0000
  0.0000 -0.0157  0.0000  1.0333  0.0000
  0.0000  0.0000  0.0000  0.0000  1.0187
 
spin component  2
 
 -0.0236  0.0000 -0.0165  0.0000 -0.0000
  0.0000 -0.0289  0.0000 -0.0136  0.0000
 -0.0165  0.0000 -0.0315  0.0000 -0.0000
  0.0000 -0.0136  0.0000 -0.0289  0.0000
 -0.0000  0.0000 -0.0000  0.0000 -0.0451
 
 occupancies and eigenvectors
 
  o = -0.0451  v =  0.0000  0.0000  0.0000  0.0000  0.0000  0.0000  0.0000  0.0000  0.0000  1.0000      0.0000  0.0000  0.0000  0.0000  0.0000  0.0000  0.0000  0.0000  0.0000  0.0000
  o = -0.0445  v =  0.0000  0.0000  0.0000  0.0000  0.0000 -0.6194  0.0000 -0.7851  0.0000  0.0000      0.0000  0.0000  0.0000  0.0000  0.0000  0.0000  0.0000  0.0000  0.0000  0.0000
  o = -0.0425  v =  0.0000  0.0000  0.0000  0.0000  0.0000  0.0000  0.7071  0.0000  0.7071 -0.0000      0.0000  0.0000  0.0000  0.0000  0.0000  0.0000  0.0000  0.0000  0.0000  0.0000
  o = -0.0153  v =  0.0000  0.0000  0.0000  0.0000  0.0000  0.0000  0.7071  0.0000 -0.7071 -0.0000      0.0000  0.0000  0.0000  0.0000  0.0000  0.0000  0.0000  0.0000  0.0000  0.0000
  o = -0.0106  v =  0.0000  0.0000  0.0000  0.0000  0.0000  0.7851  0.0000 -0.6194  0.0000  0.0000      0.0000  0.0000  0.0000  0.0000  0.0000  0.0000  0.0000  0.0000  0.0000  0.0000
  o =  1.0149  v = -0.5916 -0.0000 -0.8062  0.0000  0.0000  0.0000  0.0000  0.0000  0.0000  0.0000      0.0000  0.0000  0.0000  0.0000  0.0000  0.0000  0.0000  0.0000  0.0000  0.0000
  o =  1.0176  v =  0.0000 -0.7071  0.0000 -0.7071 -0.0000  0.0000  0.0000  0.0000  0.0000  0.0000      0.0000  0.0000  0.0000  0.0000  0.0000  0.0000  0.0000  0.0000  0.0000  0.0000
  o =  1.0187  v = -0.0000  0.0000 -0.0000  0.0000 -1.0000  0.0000  0.0000  0.0000  0.0000  0.0000      0.0000  0.0000  0.0000  0.0000  0.0000  0.0000  0.0000  0.0000  0.0000  0.0000
  o =  1.0490  v =  0.0000 -0.7071  0.0000  0.7071 -0.0000  0.0000  0.0000  0.0000  0.0000  0.0000      0.0000  0.0000  0.0000  0.0000  0.0000  0.0000  0.0000  0.0000  0.0000  0.0000
  o =  1.0509  v = -0.8062 -0.0000  0.5916  0.0000  0.0000  0.0000  0.0000  0.0000  0.0000  0.0000      0.0000  0.0000  0.0000  0.0000  0.0000  0.0000  0.0000  0.0000  0.0000  0.0000
     EDDAV:  cpu time    0.3559: real time    0.3559
 BZINTS: Fermi energy:  0.502587; 54.000000 electrons
         Band energy:-778.585964;  BLOECHL correction:  0.000000
       DOS:  cpu time    0.0013: real time    0.0013
    CHARGE:  cpu time    0.0314: real time    0.0314
    MIXING:  cpu time    0.0009: real time    0.0009
    --------------------------------------------
      LOOP:  cpu time    0.7733: real time    0.7733

 eigenvalue-minimisations  :  1512
 total energy-change (2. order) :-0.6822368E-01  (-0.5418008E-01)
 number of electron      54.0000009 magnetization       0.0000000
 augmentation part       19.9783614 magnetization       0.0000000

 Broyden mixing:
  rms(total) = 0.52204E+00    rms(broyden)= 0.52204E+00
  rms(prec ) = 0.54751E+00
  weight for this iteration     100.00

 eigenvalues of (default mixing * dielectric matrix)
  average eigenvalue GAMMA=   1.3474
  2.4036  0.9967  0.6420

 Free energy of the ion-electron system (eV)
  ---------------------------------------------------
  alpha Z        PSCENC =       194.90578087
  Ewald energy   TEWEN  =     -4169.40277502
  -Hartree energ DENC   =     -2163.47216062
  -exchange      EXHF   =         0.00000000
  -V(xc)+E(xc)   XCENC  =       293.77182066
  PAW double counting   =      6123.88770125    -6217.00688898
  entropy T*S    EENTRO =         0.00000000
  eigenvalues    EBANDS =      -778.58596379
  atomic energy  EATOM  =      6677.64854832
  Solvation  Ediel_sol  =         0.00000000
  ---------------------------------------------------
  free energy    TOTEN  =       -38.25393732 eV

  energy without entropy =      -38.25393732  energy(sigma->0) =      -38.25393732


--------------------------------------------------------------------------------------------------------




--------------------------------------- Iteration      1(   9)  ---------------------------------------


    POTLOK:  cpu time    0.0154: real time    0.0154
    SETDIJ:  cpu time    0.3680: real time    0.3680
atom =   1  type =  1  l = 2
 
 onsite density matrix
 
spin component  1
 
  0.0383  0.0000  0.0205  0.0000  0.0000
  0.0000  0.0315  0.0000  0.0180  0.0000
  0.0205  0.0000  0.0268  0.0000 -0.0000
  0.0000  0.0180  0.0000  0.0315  0.0000
  0.0000  0.0000 -0.0000  0.0000  0.0121
 
spin component  2
 
  0.9734  0.0000  0.0212  0.0000 -0.0000
  0.0000  0.9671  0.0000  0.0186  0.0000
  0.0212  0.0000  0.9614  0.0000 -0.0000
  0.0000  0.0186  0.0000  0.9671  0.0000
 -0.0000  0.0000 -0.0000  0.0000  0.9480
 
 occupancies and eigenvectors
 
  o =  0.0112  v = -0.6045 -0.0000  0.7966  0.0000  0.0000  0.0000  0.0000  0.0000  0.0000  0.0000      0.0000  0.0000  0.0000  0.0000  0.0000  0.0000  0.0000  0.0000  0.0000  0.0000
  o =  0.0121  v = -0.0000  0.0000  0.0000  0.0000 -1.0000  0.0000  0.0000  0.0000  0.0000  0.0000      0.0000  0.0000  0.0000  0.0000  0.0000  0.0000  0.0000  0.0000  0.0000  0.0000
  o =  0.0135  v =  0.0000 -0.7071  0.0000  0.7071 -0.0000  0.0000  0.0000  0.0000  0.0000  0.0000      0.0000  0.0000  0.0000  0.0000  0.0000  0.0000  0.0000  0.0000  0.0000  0.0000
  o =  0.0494  v =  0.0000 -0.7071  0.0000 -0.7071 -0.0000  0.0000  0.0000  0.0000  0.0000  0.0000      0.0000  0.0000  0.0000  0.0000  0.0000  0.0000  0.0000  0.0000  0.0000  0.0000
  o =  0.0538  v = -0.7966 -0.0000 -0.6045  0.0000  0.0000  0.0000  0.0000  0.0000  0.0000  0.0000      0.0000  0.0000  0.0000  0.0000  0.0000  0.0000  0.0000  0.0000  0.0000  0.0000
  o =  0.9453  v =  0.0000  0.0000  0.0000  0.0000  0.0000 -0.6037  0.0000  0.7972  0.0000  0.0000      0.0000  0.0000  0.0000  0.0000  0.0000  0.0000  0.0000  0.0000  0.0000  0.0000
  o =  0.9480  v =  0.0000  0.0000  0.0000  0.0000  0.0000 -0.0000 -0.0000  0.0000  0.0000 -1.0000      0.0000  0.0000  0.0000  0.0000  0.0000  0.0000  0.0000  0.0000  0.0000  0.0000
  o =  0.9485  v =  0.0000  0.0000  0.0000  0.0000  0.0000  0.0000  0.7071  0.0000 -0.7071 -0.0000      0.0000  0.0000  0.0000  0.0000  0.0000  0.0000  0.0000  0.0000  0.0000  0.0000
  o =  0.9858  v =  0.0000  0.0000  0.0000  0.0000  0.0000  0.0000  0.7071  0.0000  0.7071 -0.0000      0.0000  0.0000  0.0000  0.0000  0.0000  0.0000  0.0000  0.0000  0.0000  0.0000
  o =  0.9895  v =  0.0000  0.0000  0.0000  0.0000  0.0000 -0.7972  0.0000 -0.6037  0.0000  0.0000      0.0000  0.0000  0.0000  0.0000  0.0000  0.0000  0.0000  0.0000  0.0000  0.0000
atom =   2  type =  1  l = 2
 
 onsite density matrix
 
spin component  1
 
  0.9734  0.0000 -0.0212  0.0000 -0.0000
  0.0000  0.9671  0.0000 -0.0186  0.0000
 -0.0212  0.0000  0.9614  0.0000  0.0000
  0.0000 -0.0186  0.0000  0.9671  0.0000
 -0.0000  0.0000  0.0000  0.0000  0.9480
 
spin component  2
 
  0.0383  0.0000 -0.0205  0.0000  0.0000
  0.0000  0.0315  0.0000 -0.0180  0.0000
 -0.0205  0.0000  0.0268  0.0000  0.0000
  0.0000 -0.0180  0.0000  0.0315  0.0000
  0.0000  0.0000  0.0000  0.0000  0.0121
 
 occupancies and eigenvectors
 
  o =  0.0112  v =  0.0000  0.0000  0.0000  0.0000  0.0000 -0.6045 -0.0000 -0.7966  0.0000  0.0000      0.0000  0.0000  0.0000  0.0000  0.0000  0.0000  0.0000  0.0000  0.0000  0.0000
  o =  0.0121  v =  0.0000  0.0000  0.0000  0.0000  0.0000 -0.0000  0.0000 -0.0000  0.0000 -1.0000      0.0000  0.0000  0.0000  0.0000  0.0000  0.0000  0.0000  0.0000  0.0000  0.0000
  o =  0.0135  v =  0.0000  0.0000  0.0000  0.0000  0.0000  0.0000 -0.7071  0.0000 -0.7071 -0.0000      0.0000  0.0000  0.0000  0.0000  0.0000  0.0000  0.0000  0.0000  0.0000  0.0000
  o =  0.0494  v =  0.0000  0.0000  0.0000  0.0000  0.0000  0.0000 -0.7071  0.0000  0.7071 -0.0000      0.0000  0.0000  0.0000  0.0000  0.0000  0.0000  0.0000  0.0000  0.0000  0.0000
  o =  0.0538  v =  0.0000  0.0000  0.0000  0.0000  0.0000 -0.7966 -0.0000  0.6045  0.0000  0.0000      0.0000  0.0000  0.0000  0.0000  0.0000  0.0000  0.0000  0.0000  0.0000  0.0000
  o =  0.9453  v = -0.6037  0.0000 -0.7972  0.0000 -0.0000  0.0000  0.0000  0.0000  0.0000  0.0000      0.0000  0.0000  0.0000  0.0000  0.0000  0.0000  0.0000  0.0000  0.0000  0.0000
  o =  0.9480  v =  0.0000 -0.0000  0.0000 -0.0000 -1.0000  0.0000  0.0000  0.0000  0.0000  0.0000      0.0000  0.0000  0.0000  0.0000  0.0000  0.0000  0.0000  0.0000  0.0000  0.0000
  o =  0.9485  v =  0.0000  0.7071  0.0000  0.7071 -0.0000  0.0000  0.0000  0.0000  0.0000  0.0000      0.0000  0.0000  0.0000  0.0000  0.0000  0.0000  0.0000  0.0000  0.0000  0.0000
  o =  0.9858  v =  0.0000 -0.7071 -0.0000  0.7071  0.0000  0.0000  0.0000  0.0000  0.0000  0.0000      0.0000  0.0000  0.0000  0.0000  0.0000  0.0000  0.0000  0.0000  0.0000  0.0000
  o =  0.9895  v = -0.7972  0.0000  0.6037  0.0000  0.0000  0.0000  0.0000  0.0000  0.0000  0.0000      0.0000  0.0000  0.0000  0.0000  0.0000  0.0000  0.0000  0.0000  0.0000  0.0000
     EDDAV:  cpu time    0.3252: real time    0.3252
 BZINTS: Fermi energy:  0.717508; 54.000000 electrons
         Band energy:-773.510625;  BLOECHL correction:  0.000000
       DOS:  cpu time    0.0013: real time    0.0013
    CHARGE:  cpu time    0.0316: real time    0.0316
    MIXING:  cpu time    0.0009: real time    0.0008
    --------------------------------------------
      LOOP:  cpu time    0.7424: real time    0.7424

 eigenvalue-minimisations  :  1368
 total energy-change (2. order) :-0.2700948E+00  (-0.9312340E-02)
 number of electron      54.0000009 magnetization      -0.0000000
 augmentation part       19.9581548 magnetization      -0.0000000

 Broyden mixing:
  rms(total) = 0.12711E+00    rms(broyden)= 0.12711E+00
  rms(prec ) = 0.14488E+00
  weight for this iteration     100.00

 eigenvalues of (default mixing * dielectric matrix)
  average eigenvalue GAMMA=   1.2645
  2.5567  0.9254  0.9254  0.6505

 Free energy of the ion-electron system (eV)
  ---------------------------------------------------
  alpha Z        PSCENC =       194.90578087
  Ewald energy   TEWEN  =     -4169.40277502
  -Hartree energ DENC   =     -2163.27850508
  -exchange      EXHF   =         0.00000000
  -V(xc)+E(xc)   XCENC  =       294.05779857
  PAW double counting   =      6308.25408165    -6407.19833615
  entropy T*S    EENTRO =         0.00000000
  eigenvalues    EBANDS =      -773.51062531
  atomic energy  EATOM  =      6677.64854832
  Solvation  Ediel_sol  =         0.00000000
  ---------------------------------------------------
  free energy    TOTEN  =       -38.52403215 eV

  energy without entropy =      -38.52403215  energy(sigma->0) =      -38.52403215


--------------------------------------------------------------------------------------------------------




--------------------------------------- Iteration      1(  10)  ---------------------------------------


    POTLOK:  cpu time    0.0154: real time    0.0154
    SETDIJ:  cpu time    0.3677: real time    0.3677
atom =   1  type =  1  l = 2
 
 onsite density matrix
 
spin component  1
 
  0.0364  0.0000  0.0225  0.0000  0.0000
  0.0000  0.0292  0.0000  0.0193  0.0000
  0.0225  0.0000  0.0243  0.0000 -0.0000
  0.0000  0.0193  0.0000  0.0292  0.0000
  0.0000  0.0000 -0.0000  0.0000  0.0079
 
spin component  2
 
  0.9762  0.0000  0.0181  0.0000 -0.0000
  0.0000  0.9707  0.0000  0.0162  0.0000
  0.0181  0.0000  0.9654  0.0000  0.0000
  0.0000  0.0162  0.0000  0.9707  0.0000
 -0.0000  0.0000  0.0000  0.0000  0.9547
 
 occupancies and eigenvectors
 
  o =  0.0071  v = -0.6082 -0.0000  0.7938  0.0000  0.0000  0.0000  0.0000  0.0000  0.0000  0.0000      0.0000  0.0000  0.0000  0.0000  0.0000  0.0000  0.0000  0.0000  0.0000  0.0000
  o =  0.0079  v = -0.0000  0.0000  0.0000  0.0000 -1.0000  0.0000  0.0000  0.0000  0.0000  0.0000      0.0000  0.0000  0.0000  0.0000  0.0000  0.0000  0.0000  0.0000  0.0000  0.0000
  o =  0.0099  v =  0.0000  0.7071  0.0000 -0.7071  0.0000  0.0000  0.0000  0.0000  0.0000  0.0000      0.0000  0.0000  0.0000  0.0000  0.0000  0.0000  0.0000  0.0000  0.0000  0.0000
  o =  0.0485  v =  0.0000  0.7071  0.0000  0.7071  0.0000  0.0000  0.0000  0.0000  0.0000  0.0000      0.0000  0.0000  0.0000  0.0000  0.0000  0.0000  0.0000  0.0000  0.0000  0.0000
  o =  0.0536  v = -0.7938 -0.0000 -0.6082  0.0000  0.0000  0.0000  0.0000  0.0000  0.0000  0.0000      0.0000  0.0000  0.0000  0.0000  0.0000  0.0000  0.0000  0.0000  0.0000  0.0000
  o =  0.9519  v =  0.0000  0.0000  0.0000  0.0000  0.0000 -0.5981  0.0000  0.8014  0.0000 -0.0000      0.0000  0.0000  0.0000  0.0000  0.0000  0.0000  0.0000  0.0000  0.0000  0.0000
  o =  0.9545  v =  0.0000  0.0000  0.0000  0.0000  0.0000  0.0000  0.7071  0.0000 -0.7071 -0.0000      0.0000  0.0000  0.0000  0.0000  0.0000  0.0000  0.0000  0.0000  0.0000  0.0000
  o =  0.9547  v =  0.0000  0.0000  0.0000  0.0000  0.0000  0.0000  0.0000  0.0000  0.0000  1.0000      0.0000  0.0000  0.0000  0.0000  0.0000  0.0000  0.0000  0.0000  0.0000  0.0000
  o =  0.9869  v =  0.0000  0.0000  0.0000  0.0000  0.0000  0.0000 -0.7071  0.0000 -0.7071  0.0000      0.0000  0.0000  0.0000  0.0000  0.0000  0.0000  0.0000  0.0000  0.0000  0.0000
  o =  0.9897  v =  0.0000  0.0000  0.0000  0.0000  0.0000 -0.8014  0.0000 -0.5981  0.0000  0.0000      0.0000  0.0000  0.0000  0.0000  0.0000  0.0000  0.0000  0.0000  0.0000  0.0000
atom =   2  type =  1  l = 2
 
 onsite density matrix
 
spin component  1
 
  0.9762  0.0000 -0.0181  0.0000  0.0000
  0.0000  0.9707  0.0000 -0.0162  0.0000
 -0.0181  0.0000  0.9654  0.0000  0.0000
  0.0000 -0.0162  0.0000  0.9707  0.0000
  0.0000  0.0000  0.0000  0.0000  0.9547
 
spin component  2
 
  0.0364  0.0000 -0.0225  0.0000 -0.0000
  0.0000  0.0292  0.0000 -0.0193  0.0000
 -0.0225  0.0000  0.0243  0.0000 -0.0000
  0.0000 -0.0193  0.0000  0.0292  0.0000
 -0.0000  0.0000 -0.0000  0.0000  0.0079
 
 occupancies and eigenvectors
 
  o =  0.0071  v =  0.0000  0.0000  0.0000  0.0000  0.0000 -0.6082  0.0000 -0.7938  0.0000 -0.0000      0.0000  0.0000  0.0000  0.0000  0.0000  0.0000  0.0000  0.0000  0.0000  0.0000
  o =  0.0079  v =  0.0000  0.0000  0.0000  0.0000  0.0000 -0.0000 -0.0000 -0.0000 -0.0000  1.0000      0.0000  0.0000  0.0000  0.0000  0.0000  0.0000  0.0000  0.0000  0.0000  0.0000
  o =  0.0099  v =  0.0000  0.0000  0.0000  0.0000  0.0000  0.0000  0.7071  0.0000  0.7071  0.0000      0.0000  0.0000  0.0000  0.0000  0.0000  0.0000  0.0000  0.0000  0.0000  0.0000
  o =  0.0485  v =  0.0000  0.0000  0.0000  0.0000  0.0000 -0.0000 -0.7071  0.0000  0.7071  0.0000      0.0000  0.0000  0.0000  0.0000  0.0000  0.0000  0.0000  0.0000  0.0000  0.0000
  o =  0.0536  v =  0.0000  0.0000  0.0000  0.0000  0.0000 -0.7938  0.0000  0.6082 -0.0000 -0.0000      0.0000  0.0000  0.0000  0.0000  0.0000  0.0000  0.0000  0.0000  0.0000  0.0000
  o =  0.9519  v = -0.5981 -0.0000 -0.8014  0.0000  0.0000  0.0000  0.0000  0.0000  0.0000  0.0000      0.0000  0.0000  0.0000  0.0000  0.0000  0.0000  0.0000  0.0000  0.0000  0.0000
  o =  0.9545  v =  0.0000 -0.7071  0.0000 -0.7071 -0.0000  0.0000  0.0000  0.0000  0.0000  0.0000      0.0000  0.0000  0.0000  0.0000  0.0000  0.0000  0.0000  0.0000  0.0000  0.0000
  o =  0.9547  v = -0.0000  0.0000 -0.0000  0.0000 -1.0000  0.0000  0.0000  0.0000  0.0000  0.0000      0.0000  0.0000  0.0000  0.0000  0.0000  0.0000  0.0000  0.0000  0.0000  0.0000
  o =  0.9869  v =  0.0000 -0.7071  0.0000  0.7071 -0.0000  0.0000  0.0000  0.0000  0.0000  0.0000      0.0000  0.0000  0.0000  0.0000  0.0000  0.0000  0.0000  0.0000  0.0000  0.0000
  o =  0.9897  v = -0.8014 -0.0000  0.5981  0.0000  0.0000  0.0000  0.0000  0.0000  0.0000  0.0000      0.0000  0.0000  0.0000  0.0000  0.0000  0.0000  0.0000  0.0000  0.0000  0.0000
     EDDAV:  cpu time    0.3469: real time    0.3469
 BZINTS: Fermi energy:  0.715905; 54.000000 electrons
         Band energy:-772.638544;  BLOECHL correction:  0.000000
       DOS:  cpu time    0.0013: real time    0.0013
    CHARGE:  cpu time    0.0315: real time    0.0315
    MIXING:  cpu time    0.0009: real time    0.0009
    --------------------------------------------
      LOOP:  cpu time    0.7638: real time    0.7638

 eigenvalue-minimisations  :  1476
 total energy-change (2. order) : 0.4168038E-02  (-0.2534139E-02)
 number of electron      54.0000009 magnetization      -0.0000000
 augmentation part       19.9570183 magnetization      -0.0000000

 Broyden mixing:
  rms(total) = 0.26892E-01    rms(broyden)= 0.26887E-01
  rms(prec ) = 0.30075E-01
  weight for this iteration     100.00

 eigenvalues of (default mixing * dielectric matrix)
  average eigenvalue GAMMA=   1.1499
  2.6438  0.9100  0.9100  0.6690  0.6167

 Free energy of the ion-electron system (eV)
  ---------------------------------------------------
  alpha Z        PSCENC =       194.90578087
  Ewald energy   TEWEN  =     -4169.40277502
  -Hartree energ DENC   =     -2164.76289961
  -exchange      EXHF   =         0.00000000
  -V(xc)+E(xc)   XCENC  =       294.16381986
  PAW double counting   =      6272.72085140    -6371.15464640
  entropy T*S    EENTRO =         0.00000000
  eigenvalues    EBANDS =      -772.63854352
  atomic energy  EATOM  =      6677.64854832
  Solvation  Ediel_sol  =         0.00000000
  ---------------------------------------------------
  free energy    TOTEN  =       -38.51986411 eV

  energy without entropy =      -38.51986411  energy(sigma->0) =      -38.51986411


--------------------------------------------------------------------------------------------------------




--------------------------------------- Iteration      1(  11)  ---------------------------------------


    POTLOK:  cpu time    0.0154: real time    0.0154
    SETDIJ:  cpu time    0.3674: real time    0.3674
atom =   1  type =  1  l = 2
 
 onsite density matrix
 
spin component  1
 
  0.0386  0.0000  0.0219  0.0000  0.0000
  0.0000  0.0315  0.0000  0.0190  0.0000
  0.0219  0.0000  0.0266  0.0000  0.0000
  0.0000  0.0190  0.0000  0.0315  0.0000
  0.0000  0.0000  0.0000  0.0000  0.0107
 
spin component  2
 
  0.9743  0.0000  0.0188  0.0000 -0.0000
  0.0000  0.9687  0.0000  0.0167  0.0000
  0.0188  0.0000  0.9633  0.0000 -0.0000
  0.0000  0.0167  0.0000  0.9687  0.0000
 -0.0000  0.0000 -0.0000  0.0000  0.9520
 
 occupancies and eigenvectors
 
  o =  0.0099  v = -0.6066  0.0000  0.7950  0.0000 -0.0000  0.0000  0.0000  0.0000  0.0000  0.0000      0.0000  0.0000  0.0000  0.0000  0.0000  0.0000  0.0000  0.0000  0.0000  0.0000
  o =  0.0107  v = -0.0000 -0.0000  0.0000  0.0000  1.0000  0.0000  0.0000  0.0000  0.0000  0.0000      0.0000  0.0000  0.0000  0.0000  0.0000  0.0000  0.0000  0.0000  0.0000  0.0000
  o =  0.0125  v =  0.0000  0.7071  0.0000 -0.7071  0.0000  0.0000  0.0000  0.0000  0.0000  0.0000      0.0000  0.0000  0.0000  0.0000  0.0000  0.0000  0.0000  0.0000  0.0000  0.0000
  o =  0.0504  v =  0.0000 -0.7071  0.0000 -0.7071 -0.0000  0.0000  0.0000  0.0000  0.0000  0.0000      0.0000  0.0000  0.0000  0.0000  0.0000  0.0000  0.0000  0.0000  0.0000  0.0000
  o =  0.0554  v = -0.7950  0.0000 -0.6066  0.0000 -0.0000  0.0000  0.0000  0.0000  0.0000  0.0000      0.0000  0.0000  0.0000  0.0000  0.0000  0.0000  0.0000  0.0000  0.0000  0.0000
  o =  0.9493  v =  0.0000  0.0000  0.0000  0.0000  0.0000 -0.5997  0.0000  0.8002  0.0000  0.0000      0.0000  0.0000  0.0000  0.0000  0.0000  0.0000  0.0000  0.0000  0.0000  0.0000
  o =  0.9520  v =  0.0000  0.0000  0.0000  0.0000  0.0000  0.0000  0.7071  0.0000 -0.7071 -0.0000      0.0000  0.0000  0.0000  0.0000  0.0000  0.0000  0.0000  0.0000  0.0000  0.0000
  o =  0.9520  v =  0.0000  0.0000  0.0000  0.0000  0.0000 -0.0000 -0.0000  0.0000  0.0000 -1.0000      0.0000  0.0000  0.0000  0.0000  0.0000  0.0000  0.0000  0.0000  0.0000  0.0000
  o =  0.9854  v =  0.0000  0.0000  0.0000  0.0000  0.0000  0.0000  0.7071  0.0000  0.7071 -0.0000      0.0000  0.0000  0.0000  0.0000  0.0000  0.0000  0.0000  0.0000  0.0000  0.0000
  o =  0.9884  v =  0.0000  0.0000  0.0000  0.0000  0.0000 -0.8002  0.0000 -0.5997  0.0000  0.0000      0.0000  0.0000  0.0000  0.0000  0.0000  0.0000  0.0000  0.0000  0.0000  0.0000
atom =   2  type =  1  l = 2
 
 onsite density matrix
 
spin component  1
 
  0.9743  0.0000 -0.0188  0.0000  0.0000
  0.0000  0.9687  0.0000 -0.0167  0.0000
 -0.0188  0.0000  0.9633  0.0000  0.0000
  0.0000 -0.0167  0.0000  0.9687  0.0000
  0.0000  0.0000  0.0000  0.0000  0.9520
 
spin component  2
 
  0.0386  0.0000 -0.0219  0.0000 -0.0000
  0.0000  0.0315  0.0000 -0.0190  0.0000
 -0.0219  0.0000  0.0266  0.0000  0.0000
  0.0000 -0.0190  0.0000  0.0315  0.0000
 -0.0000  0.0000  0.0000  0.0000  0.0107
 
 occupancies and eigenvectors
 
  o =  0.0099  v =  0.0000  0.0000  0.0000  0.0000  0.0000 -0.6066  0.0000 -0.7950  0.0000  0.0000      0.0000  0.0000  0.0000  0.0000  0.0000  0.0000  0.0000  0.0000  0.0000  0.0000
  o =  0.0107  v =  0.0000  0.0000  0.0000  0.0000  0.0000 -0.0000 -0.0000 -0.0000  0.0000 -1.0000      0.0000  0.0000  0.0000  0.0000  0.0000  0.0000  0.0000  0.0000  0.0000  0.0000
  o =  0.0125  v =  0.0000  0.0000  0.0000  0.0000  0.0000  0.0000 -0.7071  0.0000 -0.7071  0.0000      0.0000  0.0000  0.0000  0.0000  0.0000  0.0000  0.0000  0.0000  0.0000  0.0000
  o =  0.0504  v =  0.0000  0.0000  0.0000  0.0000  0.0000  0.0000  0.7071  0.0000 -0.7071 -0.0000      0.0000  0.0000  0.0000  0.0000  0.0000  0.0000  0.0000  0.0000  0.0000  0.0000
[...]
     33       9.0682      0.00000
     34       9.7966      0.00000
     35      10.3426      0.00000
     36      11.1772      0.00000

 k-point     7 :       0.1250    0.1250    0.4167
  band No.  band energies     occupation 
      1     -46.7630      1.00000
      2     -46.7254      1.00000
      3     -46.7102      1.00000
      4     -41.7438      1.00000
      5     -41.7098      1.00000
      6     -41.6888      1.00000
      7     -20.8081      1.00000
      8     -20.6861      1.00000
      9     -20.6392      1.00000
     10     -20.5427      1.00000
     11      -4.4912      1.00000
     12      -3.9695      1.00000
     13      -3.7126      1.00000
     14      -3.5917      1.00000
     15      -3.5506      1.00000
     16      -3.1921      1.00000
     17      -2.7332      1.00000
     18      -2.6907      1.00000
     19      -2.4148      1.00000
     20      -2.0682      1.00000
     21      -1.8057      1.00000
     22      -1.7658      1.00000
     23      -1.4065      1.00000
     24      -0.9087      1.00000
     25      -0.5394      1.00000
     26      -0.1099      1.00000
     27       0.1869      1.00000
     28       7.8217      0.00000
     29       7.8849      0.00000
     30       7.9461      0.00000
     31       8.5012      0.00000
     32       8.7274      0.00000
     33       9.0514      0.00000
     34      10.7962      0.00000
     35      11.9720      0.00000
     36      12.4196      0.00000

 k-point     8 :       0.3750    0.1250    0.4167
  band No.  band energies     occupation 
      1     -46.7631      1.00000
      2     -46.7253      1.00000
      3     -46.7102      1.00000
      4     -41.7438      1.00000
      5     -41.7098      1.00000
      6     -41.6888      1.00000
      7     -20.7535      1.00000
      8     -20.6977      1.00000
      9     -20.6521      1.00000
     10     -20.5724      1.00000
     11      -4.2820      1.00000
     12      -4.0874      1.00000
     13      -4.0042      1.00000
     14      -3.6688      1.00000
     15      -3.5961      1.00000
     16      -2.9854      1.00000
     17      -2.8591      1.00000
     18      -2.6311      1.00000
     19      -2.5120      1.00000
     20      -2.0201      1.00000
     21      -1.6977      1.00000
     22      -1.5804      1.00000
     23      -1.3926      1.00000
     24      -0.9688      1.00000
     25      -0.6685      1.00000
     26      -0.1535      1.00000
     27       0.4550      1.00000
     28       7.8876      0.00000
     29       7.9463      0.00000
     30       8.1460      0.00000
     31       8.5152      0.00000
     32       9.1298      0.00000
     33       9.1377      0.00000
     34      10.5140      0.00000
     35      11.0051      0.00000
     36      12.1713      0.00000

 k-point     9 :       0.3750    0.3750    0.4167
  band No.  band energies     occupation 
      1     -46.7631      1.00000
      2     -46.7253      1.00000
      3     -46.7103      1.00000
      4     -41.7438      1.00000
      5     -41.7098      1.00000
      6     -41.6889      1.00000
      7     -20.7333      1.00000
      8     -20.7222      1.00000
      9     -20.6550      1.00000
     10     -20.5615      1.00000
     11      -4.4532      1.00000
     12      -4.1468      1.00000
     13      -4.0009      1.00000
     14      -3.9383      1.00000
     15      -3.6966      1.00000
     16      -3.0542      1.00000
     17      -2.6590      1.00000
     18      -2.4003      1.00000
     19      -2.3804      1.00000
     20      -1.8215      1.00000
     21      -1.6374      1.00000
     22      -1.5280      1.00000
     23      -1.3964      1.00000
     24      -0.9192      1.00000
     25      -0.7322      1.00000
     26      -0.0948      1.00000
     27       0.3814      1.00000
     28       7.8993      0.00000
     29       7.9961      0.00000
     30       8.2083      0.00000
     31       8.5725      0.00000
     32       8.9155      0.00000
     33       9.5128      0.00000
     34      10.9606      0.00000
     35      11.2286      0.00000
     36      11.2378      0.00000


--------------------------------------------------------------------------------------------------------


 soft charge-density along one line, spin component           1
         0         1         2         3         4         5         6         7         8         9
 total charge-density along one line
 
 soft charge-density along one line, spin component           2
         0         1         2         3         4         5         6         7         8         9
 total charge-density along one line
 
 pseudopotential strength for first ion, spin component:           1
-42.482  -0.000  -0.027   7.863   0.000   0.011   0.000   0.000
 -0.000 -42.454  -0.000   0.000   7.850   0.000  -0.000   0.000
 -0.027  -0.000 -42.482   0.011   0.000   7.863   0.000  -0.000
  7.863   0.000   0.011   5.261  -0.000  -0.002  -0.000  -0.000
  0.000   7.850   0.000  -0.000   5.263  -0.000   0.000  -0.000
  0.011   0.000   7.863  -0.002  -0.000   5.261  -0.000   0.000
  0.000  -0.000   0.000  -0.000   0.000  -0.000  -0.622  -0.000
  0.000   0.000  -0.000  -0.000  -0.000   0.000  -0.000  -0.572
 -0.000   0.000  -0.000   0.000  -0.000   0.000  -0.091   0.000
 -0.000   0.000   0.000   0.000  -0.000  -0.000  -0.000  -0.105
 -0.000   0.000   0.000   0.000  -0.000  -0.000  -0.000   0.000
  0.000  -0.000   0.000  -0.000   0.000  -0.000  -1.039  -0.000
  0.000   0.000  -0.000  -0.000  -0.000   0.000  -0.000  -0.988
 -0.000   0.000  -0.000   0.000  -0.000   0.000  -0.096   0.000
 -0.000   0.000   0.000   0.000  -0.000  -0.000  -0.000  -0.108
 -0.000   0.000   0.000   0.000  -0.000  -0.000  -0.000   0.000
 -0.000  -0.000  -0.000  -0.000  -0.000  -0.000   0.006   0.000
 -0.000  -0.000  -0.000  -0.000  -0.000  -0.000   0.012   0.000
 pseudopotential strength for first ion, spin component:           2
-45.846  -0.000  -0.019   9.403   0.000   0.007   0.000   0.000
 -0.000 -45.827  -0.000   0.000   9.397   0.000  -0.000   0.000
 -0.019  -0.000 -45.846   0.007   0.000   9.403   0.000  -0.000
  9.403   0.000   0.007   4.742  -0.000  -0.001  -0.000  -0.000
  0.000   9.397   0.000  -0.000   4.743  -0.000   0.000  -0.000
  0.007   0.000   9.403  -0.001  -0.000   4.742  -0.000   0.000
  0.000  -0.000   0.000  -0.000   0.000  -0.000  -8.620  -0.000
  0.000   0.000  -0.000  -0.000  -0.000   0.000  -0.000  -8.580
 -0.000   0.000  -0.000   0.000  -0.000   0.000  -0.079   0.000
 -0.000   0.000   0.000   0.000  -0.000  -0.000  -0.000  -0.094
 -0.000   0.000   0.000   0.000  -0.000  -0.000   0.000   0.000
  0.000  -0.000   0.000  -0.000   0.000  -0.000  -9.141  -0.000
  0.000   0.000  -0.000  -0.000  -0.000   0.000  -0.000  -9.100
 -0.000   0.000  -0.000   0.000  -0.000   0.000  -0.082   0.000
 -0.000   0.000   0.000   0.000  -0.000  -0.000  -0.000  -0.097
 -0.000   0.000   0.000   0.000  -0.000  -0.000   0.000   0.000
 -0.000  -0.000  -0.000  -0.000  -0.000  -0.000   0.003   0.000
 -0.000  -0.000  -0.000  -0.000  -0.000  -0.000   0.005   0.000
 total augmentation occupancy for first ion, spin component:           1
  1.998   0.000   0.000  -0.013   0.000   0.000   0.000   0.000   0.000   0.000   0.000   0.000   0.000   0.000   0.000   0.000
  0.000   1.998   0.000   0.000  -0.013   0.000   0.000   0.000   0.000   0.000   0.000   0.000   0.000   0.000   0.000   0.000
  0.000   0.000   1.998   0.000   0.000  -0.013   0.000   0.000   0.000   0.000   0.000   0.000   0.000   0.000   0.000   0.000
 -0.013   0.000   0.000   0.085   0.000  -0.008   0.000   0.000   0.000   0.000   0.000   0.000   0.000   0.000   0.000   0.000
  0.000  -0.013   0.000   0.000   0.098   0.000   0.000   0.000   0.000   0.000   0.000   0.000   0.000   0.000   0.000   0.000
  0.000   0.000  -0.013  -0.008   0.000   0.085   0.000   0.000   0.000   0.000   0.000   0.000   0.000   0.000   0.000   0.000
  0.000   0.000   0.000   0.000   0.000   0.000   7.693   0.000   2.948   0.000  -0.000  -5.728   0.000  -2.783   0.000  -0.000
  0.000   0.000   0.000   0.000   0.000   0.000   0.000   6.599   0.000   2.600   0.000   0.000  -4.689   0.000  -2.451   0.000
  0.000   0.000   0.000   0.000   0.000   0.000   2.948   0.000   5.973   0.000  -0.000  -2.783   0.000  -4.119   0.000   0.000
  0.000   0.000   0.000   0.000   0.000   0.000   0.000   2.600   0.000   6.599   0.000   0.000  -2.451   0.000  -4.689   0.000
  0.000   0.000   0.000   0.000   0.000   0.000  -0.000   0.000   0.000   0.000   3.872  -0.000   0.000  -0.000   0.000  -2.098
  0.000   0.000   0.000   0.000   0.000   0.000  -5.728   0.000  -2.783   0.000  -0.000   4.930   0.000   2.653   0.000  -0.000
  0.000   0.000   0.000   0.000   0.000   0.000   0.000  -4.689   0.000  -2.451   0.000   0.000   3.936   0.000   2.332   0.000
  0.000   0.000   0.000   0.000   0.000   0.000  -2.783   0.000  -4.119   0.000   0.000   2.653   0.000   3.412   0.000   0.000
  0.000   0.000   0.000   0.000   0.000   0.000   0.000  -2.451   0.000  -4.689   0.000   0.000   2.332   0.000   3.936   0.000
  0.000   0.000   0.000   0.000   0.000   0.000   0.000   0.000  -0.000   0.000  -2.098  -0.000   0.000   0.000   0.000   1.451
  0.000   0.000   0.000   0.000   0.000   0.000   0.195   0.000  -0.219   0.000  -0.000  -0.223   0.000   0.234   0.000   0.000
  0.000   0.000   0.000   0.000   0.000   0.000   0.001   0.000   0.016   0.000  -0.000   0.022   0.000  -0.030   0.000  -0.000
 total augmentation occupancy for first ion, spin component:           2
  0.003   0.000  -0.000   0.011   0.000  -0.000   0.000   0.000   0.000   0.000   0.000   0.000   0.000   0.000   0.000   0.000
  0.000   0.003   0.000   0.000   0.011   0.000   0.000   0.000   0.000   0.000   0.000   0.000   0.000   0.000   0.000   0.000
 -0.000   0.000   0.003  -0.000   0.000   0.011   0.000   0.000   0.000   0.000   0.000   0.000   0.000   0.000   0.000   0.000
  0.011   0.000  -0.000  -0.011   0.000  -0.000   0.000   0.000   0.000   0.000   0.000   0.000   0.000   0.000   0.000   0.000
  0.000   0.011   0.000   0.000  -0.011   0.000   0.000   0.000   0.000   0.000   0.000   0.000   0.000   0.000   0.000   0.000
 -0.000   0.000   0.011  -0.000   0.000  -0.011   0.000   0.000   0.000   0.000   0.000   0.000   0.000   0.000   0.000   0.000
  0.000   0.000   0.000   0.000   0.000   0.000  -5.555   0.000  -1.732   0.000   0.000   3.284   0.000   1.398   0.000   0.000
  0.000   0.000   0.000   0.000   0.000   0.000   0.000  -4.917   0.000  -1.537   0.000   0.000   2.759   0.000   1.241   0.000
  0.000   0.000   0.000   0.000   0.000   0.000  -1.732   0.000  -4.478   0.000   0.000   1.398   0.000   2.412   0.000  -0.000
  0.000   0.000   0.000   0.000   0.000   0.000   0.000  -1.537   0.000  -4.917   0.000   0.000   1.241   0.000   2.759   0.000
  0.000   0.000   0.000   0.000   0.000   0.000  -0.000   0.000   0.000   0.000  -3.354  -0.000   0.000  -0.000   0.000   1.493
  0.000   0.000   0.000   0.000   0.000   0.000   3.284   0.000   1.398   0.000   0.000  -2.133   0.000  -1.072   0.000   0.000
  0.000   0.000   0.000   0.000   0.000   0.000   0.000   2.759   0.000   1.241   0.000   0.000  -1.719   0.000  -0.952   0.000
  0.000   0.000   0.000   0.000   0.000   0.000   1.398   0.000   2.412   0.000  -0.000  -1.072   0.000  -1.460   0.000   0.000
  0.000   0.000   0.000   0.000   0.000   0.000   0.000   1.241   0.000   2.759   0.000   0.000  -0.952   0.000  -1.719   0.000
  0.000   0.000   0.000   0.000   0.000   0.000   0.000   0.000   0.000   0.000   1.493   0.000   0.000   0.000   0.000  -0.744
  0.000   0.000   0.000   0.000   0.000   0.000   0.015   0.000   0.015   0.000   0.000  -0.015   0.000  -0.004   0.000  -0.000
  0.000   0.000   0.000   0.000   0.000   0.000  -0.043   0.000   0.024   0.000   0.000   0.025   0.000  -0.014   0.000   0.000


------------------------ aborting loop because EDIFF is reached ----------------------------------------


 


 total charge     
 
# of ion       s       p       d       tot
------------------------------------------
    1        0.163   6.152   4.951  11.265
    2        0.168   6.147   4.956  11.271
    3        1.726   4.370   0.000   6.096
    4        1.726   4.370   0.000   6.096
    5        1.726   4.366   0.000   6.091
    6        1.726   4.366   0.000   6.091
--------------------------------------------------
tot          7.234  29.769   9.907  46.909
 


 magnetization (x)
 
# of ion       s       p       d       tot
------------------------------------------
    1       -0.019  -0.020  -4.677  -4.716
    2        0.019   0.019   4.675   4.713
    3        0.001   0.013   0.000   0.014
    4        0.001   0.013   0.000   0.014
    5       -0.002  -0.009   0.000  -0.011
    6       -0.002  -0.009   0.000  -0.011
--------------------------------------------------
tot         -0.001   0.005  -0.002   0.003
 
    CHARGE:  cpu time    0.0308: real time    0.0308
    FORLOC:  cpu time    0.0011: real time    0.0011
    FORNL :  cpu time    0.1738: real time    0.1738
    STRESS:  cpu time    0.5124: real time    0.5124
    FORCOR:  cpu time    0.0151: real time    0.0151
    FORHAR:  cpu time    0.0021: real time    0.0021
    MIXING:  cpu time    0.0007: real time    0.0007
    OFIELD:  cpu time    0.0000: real time    0.0000

  FORCE on cell =-STRESS in cart. coord.  units (eV):
  Direction    XX          YY          ZZ          XY          YZ          ZX
  --------------------------------------------------------------------------------------
  Alpha Z   194.90578   194.90578   194.90578
  Ewald   -1580.28484 -1580.28484 -1008.83621     0.00000     0.00000     0.00000
  Hartree   593.00790   593.00790   979.42284    -0.00000    -0.00000    -0.00000
  E(xc)    -314.23142  -314.23142  -314.00853    -0.00000    -0.00000    -0.00000
  Local     158.89136   158.89136  -792.02816     0.00000    -0.00000     0.00000
  n-local  -242.73417  -243.08386  -241.75090     0.03106     0.12189     0.12800
  augment   265.57426   265.57426   265.04455     0.00000     0.00000     0.00000
  Kinetic   924.58720   925.50016   917.23330    -0.44567    -0.86400    -0.92537
  Fock        0.00000     0.00000     0.00000     0.00000     0.00000     0.00000
  -------------------------------------------------------------------------------------
  Total      -0.00230    -0.00230    -0.01731    -0.00000     0.00000     0.00000
  in kB      -0.04645    -0.04645    -0.35024    -0.00000     0.00000     0.00000
  external pressure =       -0.15 kB  Pullay stress =        0.00 kB


 VOLUME and BASIS-vectors are now :
 -----------------------------------------------------------------------------
  energy-cutoff  :      600.00
  volume of cell :       79.20
      direct lattice vectors                 reciprocal lattice vectors
     4.892609286  0.000000000  0.000000000     0.204389916  0.000000000  0.000000000
     0.000000000  4.892609286  0.000000000     0.000000000  0.204389916  0.000000000
     0.000000000  0.000000000  3.308802205     0.000000000  0.000000000  0.302224170

  length of vectors
     4.892609286  4.892609286  3.308802205     0.204389916  0.204389916  0.302224170


 FORCES acting on ions
    electron-ion (+dipol)            ewald-force                    non-local-force                 convergence-correction
 -----------------------------------------------------------------------------------------------
   -.174E-11 0.660E-11 -.297E-13   -.284E-13 0.142E-12 -.151E-13   0.000E+00 0.000E+00 0.000E+00   -.728E-13 -.432E-13 0.661E-13
   -.336E-13 -.425E-13 0.425E-13   -.853E-13 -.568E-13 -.166E-13   0.000E+00 0.000E+00 0.000E+00   0.298E-13 0.283E-13 -.127E-12
   -.347E+02 0.347E+02 0.228E-11   0.361E+02 -.361E+02 0.856E-15   -.142E+01 0.142E+01 -.217E-18   -.248E-03 0.248E-03 -.280E-13
   0.347E+02 -.347E+02 0.115E-10   -.361E+02 0.361E+02 0.963E-15   0.142E+01 -.142E+01 0.217E-18   0.248E-03 -.248E-03 0.977E-13
   0.347E+02 0.347E+02 0.460E-07   -.361E+02 -.361E+02 0.592E-14   0.142E+01 0.142E+01 -.217E-18   0.248E-03 0.248E-03 -.209E-09
   -.347E+02 -.347E+02 -.460E-07   0.361E+02 0.361E+02 0.602E-14   -.142E+01 -.142E+01 0.217E-18   -.248E-03 -.248E-03 0.209E-09
 -----------------------------------------------------------------------------------------------
   -.201E-11 0.717E-11 0.102E-10   -.711E-14 0.711E-14 -.180E-13   0.000E+00 -.222E-15 0.000E+00   0.147E-13 -.172E-13 -.542E-13
 
 
 POSITION                                       TOTAL-FORCE (eV/Angst)
 -----------------------------------------------------------------------------------
      2.44630      2.44630      1.65440         0.000000      0.000000      0.000000
      0.00000      0.00000      0.00000         0.000000      0.000000      0.000000
      0.95506      3.93755      1.65440        -0.003045      0.003045     -0.000000
      3.93755      0.95506      1.65440         0.003045     -0.003045      0.000000
      1.49124      1.49124      0.00000         0.003045      0.003045     -0.000000
      3.40137      3.40137      0.00000        -0.003045     -0.003045      0.000000
 -----------------------------------------------------------------------------------
    total drift:                               -0.000000      0.000000      0.000000


--------------------------------------------------------------------------------------------------------



  FREE ENERGIE OF THE ION-ELECTRON SYSTEM (eV)
  ---------------------------------------------------
  free  energy   TOTEN  =       -38.52076064 eV

  energy  without entropy=      -38.52076064  energy(sigma->0) =      -38.52076064
 


--------------------------------------------------------------------------------------------------------


    POTLOK:  cpu time    0.3827: real time    0.3827


--------------------------------------------------------------------------------------------------------


 writing wavefunctions
     LOOP+:  cpu time   11.4907: real time   11.5103
    4ORBIT:  cpu time    0.0000: real time    0.0000
 


 total charge     
 
# of ion       s       p       d       tot
------------------------------------------
    1        0.163   6.152   4.951  11.265
    2        0.168   6.147   4.956  11.271
    3        1.726   4.370   0.000   6.096
    4        1.726   4.370   0.000   6.096
    5        1.726   4.366   0.000   6.091
    6        1.726   4.366   0.000   6.091
--------------------------------------------------
tot          7.234  29.769   9.907  46.909
 


 magnetization (x)
 
# of ion       s       p       d       tot
------------------------------------------
    1       -0.019  -0.020  -4.677  -4.716
    2        0.019   0.019   4.675   4.713
    3        0.001   0.013   0.000   0.014
    4        0.001   0.013   0.000   0.014
    5       -0.002  -0.009   0.000  -0.011
    6       -0.002  -0.009   0.000  -0.011
--------------------------------------------------
tot         -0.001   0.005  -0.002   0.003
 
 BZINTS: Fermi energy:  0.732477; 54.000000 electrons
         Band energy:-771.878655;  BLOECHL correction:  0.000000

 total amount of memory used by VASP MPI-rank0    44009. kBytes
=======================================================================

   base      :      30000. kBytes
   nonl-proj :       7128. kBytes
   fftplans  :       1875. kBytes
   grid      :       2467. kBytes
   one-center:        186. kBytes
   wavefun   :       2353. kBytes
 
  
  
 General timing and accounting informations for this job:
 ========================================================
  
                  Total CPU time used (sec):       12.668
                            User time (sec):        9.042
                          System time (sec):        3.626
                         Elapsed time (sec):       12.941
  
                   Maximum memory used (kb):       59264.
                   Average memory used (kb):           0.
  
                          Minor page faults:         8633
                          Major page faults:            7
                 Voluntary context switches:          161
