       N       E                     dE             d eps       ncg     rms          rms(c)
DAV:   1     0.559707157128E+03    0.55971E+03   -0.27715E+04  1308   0.143E+03
DAV:   2    -0.386085488988E+01   -0.56357E+03   -0.54945E+03  1488   0.443E+02
DAV:   3    -0.409155182510E+02   -0.37055E+02   -0.36925E+02  1608   0.130E+02
DAV:   4    -0.413466189314E+02   -0.43110E+00   -0.43105E+00  1404   0.154E+01
DAV:   5    -0.413533712185E+02   -0.67523E-02   -0.67522E-02  1572   0.185E+00    0.246E+01
DAV:   6    -0.394326404468E+02    0.19207E+01   -0.14344E+01  1608   0.304E+01    0.159E+01
DAV:   7    -0.400387484467E+02   -0.60611E+00   -0.15292E+00  1512   0.101E+01    0.118E+01
DAV:   8    -0.399915457865E+02    0.47203E-01   -0.48070E-01  1500   0.572E+00    0.472E+00
DAV:   9    -0.402416482242E+02   -0.25010E+00   -0.64120E-02  1440   0.241E+00    0.137E+00
DAV:  10    -0.402427868304E+02   -0.11386E-02   -0.14572E-02  1572   0.973E-01    0.233E-01
DAV:  11    -0.402427721200E+02    0.14710E-04   -0.14078E-03  1356   0.252E-01    0.123E-01
DAV:  12    -0.402428267433E+02   -0.54623E-04   -0.36338E-05  1692   0.820E-02    0.595E-02
DAV:  13    -0.402428325699E+02   -0.58266E-05   -0.32475E-05  1404   0.315E-02    0.219E-02
DAV:  14    -0.402428338910E+02   -0.13210E-05   -0.17984E-06  1452   0.130E-02    0.378E-03
DAV:  15    -0.402428340558E+02   -0.16478E-06   -0.82816E-08   984   0.279E-03    0.154E-03
DAV:  16    -0.402428340661E+02   -0.10345E-07   -0.17204E-08   648   0.113E-03
   1 F= -.40242834E+02 E0= -.40242834E+02  d E =-.402428E+02  mag=     0.0000
       N       E                     dE             d eps       ncg     rms          rms(c)
DAV:   1    -0.482360224878E+02   -0.79932E+01   -0.15735E+02  1296   0.109E+02    0.238E+01
DAV:   2    -0.404463008776E+02    0.77897E+01   -0.25305E+01  1296   0.370E+01    0.126E+01
DAV:   3    -0.403684804552E+02    0.77820E-01   -0.20337E+00  1356   0.127E+01    0.542E+00
DAV:   4    -0.402833795830E+02    0.85101E-01   -0.75566E-02  1596   0.206E+00    0.297E+00
DAV:   5    -0.402398602392E+02    0.43519E-01   -0.18282E-02  1584   0.112E+00    0.873E-01
DAV:   6    -0.402432073769E+02   -0.33471E-02   -0.27644E-03  1548   0.418E-01    0.133E-01
DAV:   7    -0.402432951438E+02   -0.87767E-04   -0.10973E-04  1536   0.909E-02    0.565E-02
DAV:   8    -0.402433170930E+02   -0.21949E-04   -0.11064E-05  1608   0.267E-02    0.372E-02
DAV:   9    -0.402433226432E+02   -0.55502E-05   -0.25579E-06  1596   0.121E-02    0.663E-03
DAV:  10    -0.402433228222E+02   -0.17909E-06   -0.29935E-07  1500   0.354E-03    0.224E-03
DAV:  11    -0.402433228300E+02   -0.77343E-08   -0.16885E-08   672   0.149E-03
   2 F= -.40243323E+02 E0= -.40243323E+02  d E =-.488764E-03  mag=    -0.0000
       N       E                     dE             d eps       ncg     rms          rms(c)
DAV:   1    -0.422820368359E+02   -0.20387E+01   -0.40744E+01  1296   0.590E+01    0.120E+01
DAV:   2    -0.404704916607E+02    0.18115E+01   -0.51025E+00  1296   0.167E+01    0.783E+00
DAV:   3    -0.404112607145E+02    0.59231E-01   -0.38688E-01  1404   0.667E+00    0.313E+00
DAV:   4    -0.403791707511E+02    0.32090E-01   -0.44405E-02  1572   0.189E+00    0.207E+00
DAV:   5    -0.403678521926E+02    0.11319E-01   -0.91774E-03  1548   0.756E-01    0.629E-01
DAV:   6    -0.403681204761E+02   -0.26828E-03   -0.86264E-04  1740   0.310E-01    0.645E-02
DAV:   7    -0.403681515774E+02   -0.31101E-04   -0.72250E-05  1488   0.612E-02    0.285E-02
DAV:   8    -0.403681595017E+02   -0.79243E-05   -0.12686E-05  1500   0.339E-02    0.108E-02
DAV:   9    -0.403681591374E+02    0.36426E-06   -0.19833E-06  1392   0.145E-02    0.342E-03
DAV:  10    -0.403681591194E+02    0.18021E-07   -0.19311E-07  1296   0.394E-03
   3 F= -.40368159E+02 E0= -.40368159E+02  d E =-.125325E+00  mag=    -0.0000
       N       E                     dE             d eps       ncg     rms          rms(c)
DAV:   1    -0.403683339083E+02   -0.17477E-03   -0.33842E-03  1296   0.525E-01    0.110E-01
DAV:   2    -0.403681774147E+02    0.15649E-03   -0.46299E-04  1296   0.157E-01    0.664E-02
DAV:   3    -0.403681732767E+02    0.41380E-05   -0.36220E-05  1344   0.602E-02    0.269E-02
DAV:   4    -0.403681708792E+02    0.23975E-05   -0.27679E-06  1596   0.138E-02    0.171E-02
DAV:   5    -0.403681699301E+02    0.94910E-06   -0.66948E-07  1560   0.634E-03    0.541E-03
DAV:   6    -0.403681699737E+02   -0.43611E-07   -0.50177E-08   876   0.227E-03
   4 F= -.40368170E+02 E0= -.40368170E+02  d E =-.125336E+00  mag=     0.0000
       N       E                     dE             d eps       ncg     rms          rms(c)
DAV:   1    -0.403756078249E+02   -0.74379E-02   -0.68610E-01  1296   0.571E+00    0.684E-01
DAV:   2    -0.403722532378E+02    0.33546E-02   -0.17696E-02  1584   0.100E+00    0.418E-01
DAV:   3    -0.403706357846E+02    0.16175E-02   -0.11655E-03  1608   0.272E-01    0.232E-01
DAV:   4    -0.403702067016E+02    0.42908E-03   -0.63879E-04  1608   0.176E-01    0.670E-02
DAV:   5    -0.403702045145E+02    0.21871E-05   -0.74365E-05  1392   0.603E-02    0.361E-02
DAV:   6    -0.403702034719E+02    0.10426E-05   -0.46499E-06  1920   0.178E-02    0.180E-02
DAV:   7    -0.403702037104E+02   -0.23846E-06   -0.70014E-07  1512   0.652E-03    0.437E-03
DAV:   8    -0.403702037689E+02   -0.58558E-07   -0.84827E-08   792   0.213E-03
   5 F= -.40370204E+02 E0= -.40370204E+02  d E =-.203380E-02  mag=    -0.0000
       N       E                     dE             d eps       ncg     rms          rms(c)
DAV:   1    -0.403707596371E+02   -0.55593E-03   -0.55547E-02  1296   0.163E+00    0.195E-01
DAV:   2    -0.403704872067E+02    0.27243E-03   -0.14281E-03  1584   0.286E-01    0.119E-01
DAV:   3    -0.403703565782E+02    0.13063E-03   -0.94141E-05  1584   0.768E-02    0.664E-02
DAV:   4    -0.403703216375E+02    0.34941E-04   -0.51718E-05  1608   0.499E-02    0.192E-02
DAV:   5    -0.403703214386E+02    0.19893E-06   -0.60703E-06  1392   0.170E-02    0.103E-02
DAV:   6    -0.403703213541E+02    0.84480E-07   -0.37247E-07  1728   0.497E-03
   6 F= -.40370321E+02 E0= -.40370321E+02  d E =-.215138E-02  mag=    -0.0000
       N       E                     dE             d eps       ncg     rms          rms(c)
DAV:   1    -0.403703257807E+02   -0.43421E-05   -0.48598E-04  1296   0.152E-01    0.177E-02
DAV:   2    -0.403703235278E+02    0.22529E-05   -0.12736E-05  1584   0.270E-02    0.109E-02
DAV:   3    -0.403703223896E+02    0.11382E-05   -0.83705E-07  1584   0.727E-03    0.617E-03
DAV:   4    -0.403703221034E+02    0.28620E-06   -0.43688E-07  1512   0.457E-03    0.209E-03
DAV:   5    -0.403703221017E+02    0.16671E-08   -0.48639E-08   648   0.156E-03
   7 F= -.40370322E+02 E0= -.40370322E+02  d E =-.215213E-02  mag=     0.0000
       N       E                     dE             d eps       ncg     rms          rms(c)
DAV:   1    -0.403703875453E+02   -0.65442E-04   -0.11825E-02  1296   0.723E-01    0.538E-02
DAV:   2    -0.403703752514E+02    0.12294E-04   -0.24138E-04  1632   0.105E-01    0.318E-02
DAV:   3    -0.403703625411E+02    0.12710E-04   -0.93615E-06  1788   0.243E-02    0.161E-02
DAV:   4    -0.403703606816E+02    0.18595E-05   -0.27810E-06  1572   0.117E-02    0.531E-03
DAV:   5    -0.403703607166E+02   -0.34944E-07   -0.17956E-07  1152   0.297E-03
   8 F= -.40370361E+02 E0= -.40370361E+02  d E =-.386148E-04  mag=     0.0000
       N       E                     dE             d eps       ncg     rms          rms(c)
DAV:   1    -0.403704770948E+02   -0.11641E-03   -0.46246E-02  1296   0.143E+00    0.106E-01
DAV:   2    -0.403704289297E+02    0.48165E-04   -0.94583E-04  1620   0.207E-01    0.629E-02
DAV:   3    -0.403703793220E+02    0.49608E-04   -0.36396E-05  1764   0.480E-02    0.317E-02
DAV:   4    -0.403703719217E+02    0.74003E-05   -0.11048E-05  1572   0.233E-02    0.103E-02
DAV:   5    -0.403703720758E+02   -0.15410E-06   -0.73586E-07  1416   0.595E-03    0.625E-03
DAV:   6    -0.403703720826E+02   -0.67248E-08   -0.37509E-08   744   0.138E-03
   9 F= -.40370372E+02 E0= -.40370372E+02  d E =-.499808E-04  mag=    -0.0000
