 vasp.5.4.4.18Apr17-6-g9f103f2a35 (build Apr 27 2017 11:13:10) complex          
  
 executed on           IFC91_ompi date 2020.05.13  11:08:45
 running on   12 total cores
 distrk:  each k-point on   12 cores,    1 groups
 distr:  one band on NCORES_PER_BAND=   1 cores,   12 groups


--------------------------------------------------------------------------------------------------------


 INCAR:
 POTCAR:    PAW Mn_pv 02Aug2007                   
 POTCAR:    PAW F 31May2000                       

 ----------------------------------------------------------------------------- 
|                                                                             |
|           W    W    AA    RRRRR   N    N  II  N    N   GGGG   !!!           |
|           W    W   A  A   R    R  NN   N  II  NN   N  G    G  !!!           |
|           W    W  A    A  R    R  N N  N  II  N N  N  G       !!!           |
|           W WW W  AAAAAA  RRRRR   N  N N  II  N  N N  G  GGG   !            |
|           WW  WW  A    A  R   R   N   NN  II  N   NN  G    G                |
|           W    W  A    A  R    R  N    N  II  N    N   GGGG   !!!           |
|                                                                             |
|      For optimal performance we recommend to set                            |
|        NCORE= 4 - approx SQRT( number of cores)                             |
|      NCORE specifies how many cores store one orbital (NPAR=cpu/NCORE).     |
|      This setting can  greatly improve the performance of VASP for DFT.     |
|      The default,   NCORE=1            might be grossly inefficient         |
|      on modern multi-core architectures or massively parallel machines.     |
|      Do your own testing !!!!                                               |
|      Unfortunately you need to use the default for GW and RPA calculations. |
|      (for HF NCORE is supported but not extensively tested yet)             |
|                                                                             |
 ----------------------------------------------------------------------------- 

 POTCAR:    PAW Mn_pv 02Aug2007                   
   VRHFIN =Mn: 3p4s3d                                                           
   LEXCH  = CA                                                                  
   EATOM  =  2028.0466 eV,  149.0572 Ry                                         
                                                                                
   TITEL  = PAW Mn_pv 02Aug2007                                                 
   LULTRA =        F    use ultrasoft PP ?                                      
   IUNSCR =        1    unscreen: 0-lin 1-nonlin 2-no                           
   RPACOR =    2.080    partial core radius                                     
   POMASS =   54.938; ZVAL   =   13.000    mass and valenz                      
   RCORE  =    2.300    outmost cutoff radius                                   
   RWIGS  =    2.500; RWIGS  =    1.323    wigner-seitz radius (au A)           
   ENMAX  =  269.944; ENMIN  =  202.458 eV                                      
   ICORE  =        3    local potential                                         
   LCOR   =        T    correct aug charges                                     
   LPAW   =        T    paw PP                                                  
   EAUG   =  569.085                                                            
   DEXC   =    0.000                                                            
   RMAX   =    2.343    core radius for proj-oper                               
   RAUG   =    1.300    factor for augmentation sphere                          
   RDEP   =    2.338    radius for radial grids                                 
   RDEPT  =    1.798    core radius for aug-charge                              
                                                                                
   Atomic configuration                                                         
    8 entries                                                                   
     n  l   j            E        occ.                                          
     1  0  0.50     -6393.6057   2.0000                                         
     2  0  0.50      -735.9993   2.0000                                         
     2  1  1.50      -624.3417   6.0000                                         
     3  0  0.50       -80.9782   2.0000                                         
     3  1  1.50       -50.3144   6.0000                                         
     3  2  2.50        -3.6171   6.0000                                         
     4  0  0.50        -4.3304   1.0000                                         
     4  3  2.50        -1.3606   0.0000                                         
   Description                                                                  
     l       E           TYP  RCUT    TYP  RCUT                                 
     1    -50.3143634     23  2.000                                             
     1     -1.3605826     23  2.000                                             
     2     -3.6171470     23  2.300                                             
     2     -4.9777296     23  2.300                                             
     0     -4.3303688     23  2.300                                             
     0      7.3408788     23  2.300                                             
     3      9.5240782     23  2.300                                             
  local pseudopotential read in
  partial core-charges read in
  partial kinetic energy density read in
  atomic valenz-charges read in
  non local Contribution for L=           1  read in
    real space projection operators read in
  non local Contribution for L=           1  read in
    real space projection operators read in
  non local Contribution for L=           2  read in
    real space projection operators read in
  non local Contribution for L=           2  read in
    real space projection operators read in
  non local Contribution for L=           0  read in
    real space projection operators read in
  non local Contribution for L=           0  read in
    real space projection operators read in
    PAW grid and wavefunctions read in
 
   number of l-projection  operators is LMAX  =           6
   number of lm-projection operators is LMMAX =          18
 
 POTCAR:    PAW F 31May2000                       
   VRHFIN =F: s2p5                                                              
   LEXCH  = CA                                                                  
   EATOM  =   658.3685 eV,   48.3887 Ry                                         
                                                                                
   TITEL  = PAW F 31May2000                                                     
   LULTRA =        F    use ultrasoft PP ?                                      
   IUNSCR =        1    unscreen: 0-lin 1-nonlin 2-no                           
   RPACOR =    1.200    partial core radius                                     
   POMASS =   18.998; ZVAL   =    7.000    mass and valenz                      
   RCORE  =    1.520    outmost cutoff radius                                   
   RWIGS  =    1.500; RWIGS  =    0.794    wigner-seitz radius (au A)           
   ENMAX  =  400.000; ENMIN  =  300.000 eV                                      
   ICORE  =        2    local potential                                         
   LCOR   =        T    correct aug charges                                     
   LPAW   =        T    paw PP                                                  
   EAUG   =  613.614                                                            
   DEXC   =    0.000                                                            
   RMAX   =    1.555    core radius for proj-oper                               
   RAUG   =    1.300    factor for augmentation sphere                          
   RDEP   =    1.539    radius for radial grids                                 
   RDEPT  =    1.299    core radius for aug-charge                              
                                                                                
   Atomic configuration                                                         
    4 entries                                                                   
     n  l   j            E        occ.                                          
     1  0  0.50      -658.3386   2.0000                                         
     2  0  0.50       -29.6221   2.0000                                         
     2  1  0.50       -11.2952   5.0000                                         
     3  2  1.50       -12.2452   0.0000                                         
   Description                                                                  
     l       E           TYP  RCUT    TYP  RCUT                                 
     0    -29.6221019     23  1.200                                             
     0     -9.5240782     23  1.200                                             
     1    -11.2951545     23  1.520                                             
     1      1.3605826     23  1.520                                             
     2    -12.2452434      7  1.500                                             
  local pseudopotential read in
  partial core-charges read in
  partial kinetic energy density read in
  kinetic energy density of atom read in
  atomic valenz-charges read in
  non local Contribution for L=           0  read in
    real space projection operators read in
  non local Contribution for L=           0  read in
    real space projection operators read in
  non local Contribution for L=           1  read in
    real space projection operators read in
  non local Contribution for L=           1  read in
    real space projection operators read in
    PAW grid and wavefunctions read in
 
   number of l-projection  operators is LMAX  =           4
   number of lm-projection operators is LMMAX =           8
 
  PAW Mn_pv 02Aug2007                   :
 energy of atom  1       EATOM=-2028.0466
 kinetic energy error for atom=    0.0284 (will be added to EATOM!!)
  PAW F 31May2000                       :
 energy of atom  2       EATOM= -658.3685
 kinetic energy error for atom=    0.1928 (will be added to EATOM!!)
 
 
 POSCAR: Mn  F                                   
  positions in cartesian coordinates
  No initial velocities read in
 exchange correlation table for  LEXCH =        2
   RHO(1)=    0.500       N(1)  =     2000
   RHO(2)=  100.500       N(2)  =     4000
 


--------------------------------------------------------------------------------------------------------


 ion  position               nearest neighbor table
   1  0.500  0.500  0.500-   3 2.06   4 2.06   5 2.10   6 2.10   5 2.10   6 2.10
   2  0.000  0.000  0.000-   5 2.06   6 2.06   3 2.10   4 2.10   3 2.10   4 2.10
   3  0.196  0.804  0.500-   1 2.06   2 2.10   2 2.10
   4  0.804  0.196  0.500-   1 2.06   2 2.10   2 2.10
   5  0.304  0.304  0.000-   2 2.06   1 2.10   1 2.10
   6  0.696  0.696  0.000-   2 2.06   1 2.10   1 2.10
 
  LATTYP: Found a simple tetragonal cell.
 ALAT       =     4.7959042861
 C/A-ratio  =     0.6772201529
  
  Lattice vectors:
  
 A1 = (   4.7959042861,   0.0000000000,   0.0000000000)
 A2 = (   0.0000000000,   4.7959042861,   0.0000000000)
 A3 = (   0.0000000000,   0.0000000000,   3.2478830338)


Analysis of symmetry for initial positions (statically):
=====================================================================
 Subroutine PRICEL returns:
 Original cell was already a primitive cell.
 

 Routine SETGRP: Setting up the symmetry group for a 
 simple tetragonal supercell.


 Subroutine GETGRP returns: Found 16 space group operations
 (whereof  8 operations were pure point group operations)
 out of a pool of 16 trial point group operations.


The static configuration has the point symmetry D_2h.
 The point group associated with its full space group is D_4h.


Analysis of symmetry for dynamics (positions and initial velocities):
=====================================================================
 Subroutine PRICEL returns:
 Original cell was already a primitive cell.
 

 Routine SETGRP: Setting up the symmetry group for a 
 simple tetragonal supercell.


 Subroutine GETGRP returns: Found 16 space group operations
 (whereof  8 operations were pure point group operations)
 out of a pool of 16 trial point group operations.


The dynamic configuration has the point symmetry D_2h.
 The point group associated with its full space group is D_4h.


Analysis of structural, dynamic, and magnetic symmetry:
=====================================================================
 Subroutine PRICEL returns:
 Original cell was already a primitive cell.
 

 Routine SETGRP: Setting up the symmetry group for a 
 simple tetragonal supercell.


 Subroutine GETGRP returns: Found 16 space group operations
 (whereof  8 operations were pure point group operations)
 out of a pool of 16 trial point group operations.


The magnetic configuration has the point symmetry D_2h.
 The point group associated with its full space group is D_4h.


 Subroutine INISYM returns: Found 16 space group operations
 (whereof  8 operations are pure point group operations),
 and found     1 'primitive' translations

 
 
 KPOINTS: KPOINTS created by Atomic Simulation Env

Automatic generation of k-mesh.
Space group operators:
 irot       det(A)        alpha          n_x          n_y          n_z        tau_x        tau_y        tau_z
    1     1.000000     0.000000     1.000000     0.000000     0.000000     0.000000     0.000000     0.000000
    2    -1.000000     0.000000     1.000000     0.000000     0.000000     0.000000     0.000000     0.000000
    3     1.000000   180.000000     0.000000     0.000000     1.000000     0.000000     0.000000     0.000000
    4    -1.000000   180.000000     0.000000     0.000000     1.000000     0.000000     0.000000     0.000000
    5     1.000000   180.000000     0.707107     0.707107     0.000000     0.000000     0.000000     0.000000
    6    -1.000000   180.000000     0.707107     0.707107     0.000000     0.000000     0.000000     0.000000
    7     1.000000   180.000000     0.707107    -0.707107     0.000000     0.000000     0.000000     0.000000
    8    -1.000000   180.000000     0.707107    -0.707107     0.000000     0.000000     0.000000     0.000000
    9     1.000000    90.000000     0.000000     0.000000    -1.000000     0.500000     0.500000     0.500000
   10    -1.000000    90.000000     0.000000     0.000000    -1.000000     0.500000     0.500000     0.500000
   11     1.000000    90.000000     0.000000     0.000000     1.000000     0.500000     0.500000     0.500000
   12    -1.000000    90.000000     0.000000     0.000000     1.000000     0.500000     0.500000     0.500000
   13     1.000000   180.000000     0.000000     1.000000     0.000000     0.500000     0.500000     0.500000
   14    -1.000000   180.000000     0.000000     1.000000     0.000000     0.500000     0.500000     0.500000
   15     1.000000   180.000000     1.000000     0.000000     0.000000     0.500000     0.500000     0.500000
   16    -1.000000   180.000000     1.000000     0.000000     0.000000     0.500000     0.500000     0.500000
 
 Subroutine IBZKPT returns following result:
 ===========================================
 
 Found      9 irreducible k-points:
 
 Following reciprocal coordinates:
            Coordinates               Weight
  0.125000  0.125000  0.083333      8.000000
  0.375000  0.125000  0.083333     16.000000
  0.375000  0.375000  0.083333      8.000000
  0.125000  0.125000  0.250000      8.000000
  0.375000  0.125000  0.250000     16.000000
  0.375000  0.375000  0.250000      8.000000
  0.125000  0.125000  0.416667      8.000000
  0.375000  0.125000  0.416667     16.000000
  0.375000  0.375000  0.416667      8.000000
 
 Following cartesian coordinates:
            Coordinates               Weight
  0.026064  0.026064  0.025658      8.000000
  0.078192  0.026064  0.025658     16.000000
  0.078192  0.078192  0.025658      8.000000
  0.026064  0.026064  0.076973      8.000000
  0.078192  0.026064  0.076973     16.000000
  0.078192  0.078192  0.076973      8.000000
  0.026064  0.026064  0.128289      8.000000
  0.078192  0.026064  0.128289     16.000000
  0.078192  0.078192  0.128289      8.000000
 


--------------------------------------------------------------------------------------------------------




 Dimension of arrays:
   k-points           NKPTS =      9   k-points in BZ     NKDIM =      9   number of bands    NBANDS=     36
   number of dos      NEDOS =    301   number of ions     NIONS =      6
   non local maximal  LDIM  =      6   non local SUM 2l+1 LMDIM =     18
   total plane-waves  NPLWV =   9216
   max r-space proj   IRMAX =      1   max aug-charges    IRDMAX=  30142
   dimension x,y,z NGX =    24 NGY =   24 NGZ =   16
   dimension x,y,z NGXF=    48 NGYF=   48 NGZF=   32
   support grid    NGXF=    96 NGYF=   96 NGZF=   64
   ions per type =               2   4
   NGX,Y,Z   is equivalent  to a cutoff of   8.32,  8.32,  8.19 a.u.
   NGXF,Y,Z  is equivalent  to a cutoff of  16.64, 16.64, 16.38 a.u.

 SYSTEM =  unknown system                          
 POSCAR =  Mn  F                                   

 Startparameter for this run:
   NWRITE =      2    write-flag & timer
   PREC   = normal    normal or accurate (medium, high low for compatibility)
   ISTART =      0    job   : 0-new  1-cont  2-samecut
   ICHARG =      2    charge: 1-file 2-atom 10-const
   ISPIN  =      2    spin polarized calculation?
   LNONCOLLINEAR =      F non collinear calculations
   LSORBIT =      F    spin-orbit coupling
   INIWAV =      1    electr: 0-lowe 1-rand  2-diag
   LASPH  =      T    aspherical Exc in radial PAW
   METAGGA=      F    non-selfconsistent MetaGGA calc.

 Electronic Relaxation 1
   ENCUT  =  400.0 eV  29.40 Ry    5.42 a.u.   7.82  7.82  5.30*2*pi/ulx,y,z
   ENINI  =  400.0     initial cutoff
   ENAUG  =  613.6 eV  augmentation charge cutoff
   NELM   =     60;   NELMIN=  2; NELMDL= -5     # of ELM steps 
   EDIFF  = 0.1E-06   stopping-criterion for ELM
   LREAL  =      F    real-space projection
   NLSPLINE    = F    spline interpolate recip. space projectors
   LCOMPAT=      F    compatible to vasp.4.4
   GGA_COMPAT  = T    GGA compatible to vasp.4.4-vasp.4.6
   LMAXPAW     = -100 max onsite density
   LMAXMIX     =    4 max onsite mixed and CHGCAR
   VOSKOWN=      0    Vosko Wilk Nusair interpolation
   ROPT   =    0.00000   0.00000
 Ionic relaxation
   EDIFFG = -.5E-02   stopping-criterion for IOM
   NSW    =     50    number of steps for IOM
   NBLOCK =      1;   KBLOCK =     50    inner block; outer block 
   IBRION =      2    ionic relax: 0-MD 1-quasi-New 2-CG
   NFREE  =      1    steps in history (QN), initial steepest desc. (CG)
   ISIF   =      3    stress and relaxation
   IWAVPR =     11    prediction:  0-non 1-charg 2-wave 3-comb
   ISYM   =      2    0-nonsym 1-usesym 2-fastsym
   LCORR  =      T    Harris-Foulkes like correction to forces

   POTIM  = 0.5000    time-step for ionic-motion
   TEIN   =    0.0    initial temperature
   TEBEG  =    0.0;   TEEND  =   0.0 temperature during run
   SMASS  =  -3.00    Nose mass-parameter (am)
   estimated Nose-frequenzy (Omega)   =  0.10E-29 period in steps =****** mass=  -0.526E-27a.u.
   SCALEE = 1.0000    scale energy and forces
   NPACO  =    256;   APACO  = 16.0  distance and # of slots for P.C.
   PSTRESS=    0.0 pullay stress

  Mass of Ions in am
   POMASS =  54.94 19.00
  Ionic Valenz
   ZVAL   =  13.00  7.00
  Atomic Wigner-Seitz radii
   RWIGS  =  -1.00 -1.00
  virtual crystal weights 
   VCA    =   1.00  1.00
   NELECT =      54.0000    total number of electrons
   NUPDOWN=      -1.0000    fix difference up-down

 DOS related values:
   EMIN   =  10.00;   EMAX   =-10.00  energy-range for DOS
   EFERMI =   0.00
   ISMEAR =     0;   SIGMA  =   0.02  broadening in eV -4-tet -1-fermi 0-gaus

 Electronic relaxation 2 (details)
   IALGO  =     38    algorithm
   LDIAG  =      T    sub-space diagonalisation (order eigenvalues)
   LSUBROT=      F    optimize rotation matrix (better conditioning)
   TURBO    =      0    0=normal 1=particle mesh
   IRESTART =      0    0=no restart 2=restart with 2 vectors
   NREBOOT  =      0    no. of reboots
   NMIN     =      0    reboot dimension
   EREF     =   0.00    reference energy to select bands
   IMIX   =      4    mixing-type and parameters
     AMIX     =   0.40;   BMIX     =  1.00
     AMIX_MAG =   1.60;   BMIX_MAG =  1.00
     AMIN     =   0.10
     WC   =   100.;   INIMIX=   1;  MIXPRE=   1;  MAXMIX= -45

 Intra band minimization:
   WEIMIN = 0.0010     energy-eigenvalue tresh-hold
   EBREAK =  0.69E-09  absolut break condition
   DEPER  =   0.30     relativ break condition  

   TIME   =   0.40     timestep for ELM

  volume/ion in A,a.u.               =      12.45        84.02
  Fermi-wavevector in a.u.,A,eV,Ry     =   1.469238  2.776458 29.370375  2.158662
  Thomas-Fermi vector in A             =   2.584640
 
 Write flags
   LWAVE        =      F    write WAVECAR
   LDOWNSAMPLE  =      F    k-point downsampling of WAVECAR
   LCHARG       =      F    write CHGCAR
   LVTOT        =      F    write LOCPOT, total local potential
   LVHAR        =      F    write LOCPOT, Hartree potential only
   LELF         =      F    write electronic localiz. function (ELF)
   LORBIT       =     11    0 simple, 1 ext, 2 COOP (PROOUT), +10 PAW based schemes


 Dipole corrections
   LMONO  =      F    monopole corrections only (constant potential shift)
   LDIPOL =      F    correct potential (dipole corrections)
   IDIPOL =      0    1-x, 2-y, 3-z, 4-all directions 
   EPSILON=  1.0000000 bulk dielectric constant

 LDA+U is selected, type is set to LDAUTYPE =  2
   angular momentum for each species LDAUL =     2   -1
   U (eV)           for each species LDAUU =   4.0  0.0
   J (eV)           for each species LDAUJ =   0.0  0.0
 Exchange correlation treatment:
   GGA     =    --    GGA type
   LEXCH   =     2    internal setting for exchange type
   VOSKOWN=      0    Vosko Wilk Nusair interpolation
   LHFCALC =     F    Hartree Fock is set to
   LHFONE  =     F    Hartree Fock one center treatment
   AEXX    =    0.0000 exact exchange contribution

 Linear response parameters
   LEPSILON=     F    determine dielectric tensor
   LRPA    =     F    only Hartree local field effects (RPA)
   LNABLA  =     F    use nabla operator in PAW spheres
   LVEL    =     F    velocity operator in full k-point grid
   LINTERFAST=   F  fast interpolation
   KINTER  =     0    interpolate to denser k-point grid
   CSHIFT  =0.1000    complex shift for real part using Kramers Kronig
   OMEGAMAX=  -1.0    maximum frequency
   DEG_THRESHOLD= 0.2000000E-02 threshold for treating states as degnerate
   RTIME   =   -0.100 relaxation time in fs
  (WPLASMAI=    0.000 imaginary part of plasma frequency in eV, 0.658/RTIME)
   DFIELD  = 0.0000000 0.0000000 0.0000000 field for delta impulse in time
 
 Orbital magnetization related:
   ORBITALMAG=     F  switch on orbital magnetization
   LCHIMAG   =     F  perturbation theory with respect to B field
   DQ        =  0.001000  dq finite difference perturbation B field
   LLRAUG    =     F  two centre corrections for induced B field



--------------------------------------------------------------------------------------------------------


 conjugate gradient relaxation of ions
 charge density and potential will be updated during run
 spin polarized calculation
 Variant of blocked Davidson
 Davidson routine will perform the subspace rotation
 perform sub-space diagonalisation
    after iterative eigenvector-optimisation
 modified Broyden-mixing scheme, WC =      100.0
 initial mixing is a Kerker type mixing with AMIX =  0.4000 and BMIX =      1.0000
 Hartree-type preconditioning will be used
 using additional bands            9
 reciprocal scheme for non local part
 use partial core corrections
 calculate Harris-corrections to forces 
   (improved forces if not selfconsistent)
 use of overlap-Matrix (Vanderbilt PP)
 Gauss-broadening in eV      SIGMA  =   0.02


--------------------------------------------------------------------------------------------------------


  energy-cutoff  :      400.00
  volume of cell :       74.70
      direct lattice vectors                 reciprocal lattice vectors
     4.795904286  0.000000000  0.000000000     0.208511251  0.000000000  0.000000000
     0.000000000  4.795904286  0.000000000     0.000000000  0.208511251  0.000000000
     0.000000000  0.000000000  3.247883034     0.000000000  0.000000000  0.307892861

  length of vectors
     4.795904286  4.795904286  3.247883034     0.208511251  0.208511251  0.307892861


 
 k-points in units of 2pi/SCALE and weight: KPOINTS created by Atomic Simulation Env
   0.02606391  0.02606391  0.02565774       0.083
   0.07819172  0.02606391  0.02565774       0.167
   0.07819172  0.07819172  0.02565774       0.083
   0.02606391  0.02606391  0.07697322       0.083
   0.07819172  0.02606391  0.07697322       0.167
   0.07819172  0.07819172  0.07697322       0.083
   0.02606391  0.02606391  0.12828869       0.083
   0.07819172  0.02606391  0.12828869       0.167
   0.07819172  0.07819172  0.12828869       0.083
 
 k-points in reciprocal lattice and weights: KPOINTS created by Atomic Simulation Env
   0.12500000  0.12500000  0.08333333       0.083
   0.37500000  0.12500000  0.08333333       0.167
   0.37500000  0.37500000  0.08333333       0.083
   0.12500000  0.12500000  0.25000000       0.083
   0.37500000  0.12500000  0.25000000       0.167
   0.37500000  0.37500000  0.25000000       0.083
   0.12500000  0.12500000  0.41666667       0.083
   0.37500000  0.12500000  0.41666667       0.167
   0.37500000  0.37500000  0.41666667       0.083
 
 position of ions in fractional coordinates (direct lattice) 
   0.50000000  0.50000000  0.50000000
   0.00000000  0.00000000  0.00000000
   0.19593145  0.80406855  0.50000000
   0.80406855  0.19593145  0.50000000
   0.30406855  0.30406855  0.00000000
   0.69593145  0.69593145  0.00000000
 
 position of ions in cartesian coordinates  (Angst):
   2.39795214  2.39795214  1.62394152
   0.00000000  0.00000000  0.00000000
   0.93966849  3.85623580  1.62394152
   3.85623580  0.93966849  1.62394152
   1.45828365  1.45828365  0.00000000
   3.33762063  3.33762063  0.00000000
 


--------------------------------------------------------------------------------------------------------


 k-point  1 :   0.1250 0.1250 0.0833  plane waves:    1365
 k-point  2 :   0.3750 0.1250 0.0833  plane waves:    1360
 k-point  3 :   0.3750 0.3750 0.0833  plane waves:    1359
 k-point  4 :   0.1250 0.1250 0.2500  plane waves:    1351
 k-point  5 :   0.3750 0.1250 0.2500  plane waves:    1359
 k-point  6 :   0.3750 0.3750 0.2500  plane waves:    1351
 k-point  7 :   0.1250 0.1250 0.4167  plane waves:    1347
 k-point  8 :   0.3750 0.1250 0.4167  plane waves:    1358
 k-point  9 :   0.3750 0.3750 0.4167  plane waves:    1366

 maximum and minimum number of plane-waves per node :      1366     1347

 maximum number of plane-waves:      1366
 maximum index in each direction: 
   IXMAX=    7   IYMAX=    7   IZMAX=    5
   IXMIN=   -8   IYMIN=   -8   IZMIN=   -5


 serial   3D FFT for wavefunctions
 parallel 3D FFT for charge:
    minimum data exchange during FFTs selected (reduces bandwidth)


 total amount of memory used by VASP MPI-rank0    37344. kBytes
=======================================================================

   base      :      30000. kBytes
   nonl-proj :       3677. kBytes
   fftplans  :        966. kBytes
   grid      :       1271. kBytes
   one-center:        186. kBytes
   wavefun   :       1244. kBytes
 
     INWAV:  cpu time    0.0000: real time    0.0000
 Broyden mixing: mesh for mixing (old mesh)
   NGX = 15   NGY = 15   NGZ = 11
  (NGX  = 48   NGY  = 48   NGZ  = 32)
  gives a total of   2475 points

 initial charge density was supplied:
 charge density of overlapping atoms calculated
 number of electron      54.0000000 magnetization       0.0000000
 keeping initial charge density in first step


--------------------------------------------------------------------------------------------------------


 Maximum index for augmentation-charges         2501 (set IRDMAX)


--------------------------------------------------------------------------------------------------------


 First call to EWALD:  gamma=   0.421
 Maximum number of real-space cells 2x 2x 3
 Maximum number of reciprocal cells 3x 3x 2

    FEWALD:  cpu time    0.0010: real time    0.0010


--------------------------------------- Iteration      1(   1)  ---------------------------------------


    POTLOK:  cpu time    0.0044: real time    0.0044
    SETDIJ:  cpu time    0.2204: real time    0.2204
atom =   1  type =  1  l = 2
 
 onsite density matrix
 
spin component  1
 
  0.2837  0.0000  0.0000  0.0000  0.0000
  0.0000  0.2837  0.0000  0.0000  0.0000
  0.0000  0.0000  0.2837  0.0000  0.0000
  0.0000  0.0000  0.0000  0.2837  0.0000
  0.0000  0.0000  0.0000  0.0000  0.2837
 
spin component  2
 
  0.7701  0.0000  0.0000  0.0000  0.0000
  0.0000  0.7701  0.0000  0.0000  0.0000
  0.0000  0.0000  0.7701  0.0000  0.0000
  0.0000  0.0000  0.0000  0.7701  0.0000
  0.0000  0.0000  0.0000  0.0000  0.7701
 
 occupancies and eigenvectors
 
  o =  0.2837  v =  1.0000  0.0000  0.0000  0.0000  0.0000  0.0000  0.0000  0.0000  0.0000  0.0000      0.0000  0.0000  0.0000  0.0000  0.0000  0.0000  0.0000  0.0000  0.0000  0.0000
  o =  0.2837  v =  0.0000  1.0000  0.0000  0.0000  0.0000  0.0000  0.0000  0.0000  0.0000  0.0000      0.0000  0.0000  0.0000  0.0000  0.0000  0.0000  0.0000  0.0000  0.0000  0.0000
  o =  0.2837  v =  0.0000  0.0000  1.0000  0.0000  0.0000  0.0000  0.0000  0.0000  0.0000  0.0000      0.0000  0.0000  0.0000  0.0000  0.0000  0.0000  0.0000  0.0000  0.0000  0.0000
  o =  0.2837  v =  0.0000  0.0000  0.0000  1.0000  0.0000  0.0000  0.0000  0.0000  0.0000  0.0000      0.0000  0.0000  0.0000  0.0000  0.0000  0.0000  0.0000  0.0000  0.0000  0.0000
  o =  0.2837  v =  0.0000  0.0000  0.0000  0.0000  1.0000  0.0000  0.0000  0.0000  0.0000  0.0000      0.0000  0.0000  0.0000  0.0000  0.0000  0.0000  0.0000  0.0000  0.0000  0.0000
  o =  0.7701  v =  0.0000  0.0000  0.0000  0.0000  0.0000  1.0000  0.0000  0.0000  0.0000  0.0000      0.0000  0.0000  0.0000  0.0000  0.0000  0.0000  0.0000  0.0000  0.0000  0.0000
  o =  0.7701  v =  0.0000  0.0000  0.0000  0.0000  0.0000  0.0000  1.0000  0.0000  0.0000  0.0000      0.0000  0.0000  0.0000  0.0000  0.0000  0.0000  0.0000  0.0000  0.0000  0.0000
  o =  0.7701  v =  0.0000  0.0000  0.0000  0.0000  0.0000  0.0000  0.0000  1.0000  0.0000  0.0000      0.0000  0.0000  0.0000  0.0000  0.0000  0.0000  0.0000  0.0000  0.0000  0.0000
  o =  0.7701  v =  0.0000  0.0000  0.0000  0.0000  0.0000  0.0000  0.0000  0.0000  1.0000  0.0000      0.0000  0.0000  0.0000  0.0000  0.0000  0.0000  0.0000  0.0000  0.0000  0.0000
  o =  0.7701  v =  0.0000  0.0000  0.0000  0.0000  0.0000  0.0000  0.0000  0.0000  0.0000  1.0000      0.0000  0.0000  0.0000  0.0000  0.0000  0.0000  0.0000  0.0000  0.0000  0.0000
atom =   2  type =  1  l = 2
 
 onsite density matrix
 
spin component  1
 
  0.7701  0.0000  0.0000  0.0000  0.0000
  0.0000  0.7701  0.0000  0.0000  0.0000
  0.0000  0.0000  0.7701  0.0000  0.0000
  0.0000  0.0000  0.0000  0.7701  0.0000
  0.0000  0.0000  0.0000  0.0000  0.7701
 
spin component  2
 
  0.2837  0.0000  0.0000  0.0000  0.0000
  0.0000  0.2837  0.0000  0.0000  0.0000
  0.0000  0.0000  0.2837  0.0000  0.0000
  0.0000  0.0000  0.0000  0.2837  0.0000
  0.0000  0.0000  0.0000  0.0000  0.2837
 
 occupancies and eigenvectors
 
  o =  0.2837  v =  0.0000  0.0000  0.0000  0.0000  0.0000  1.0000  0.0000  0.0000  0.0000  0.0000      0.0000  0.0000  0.0000  0.0000  0.0000  0.0000  0.0000  0.0000  0.0000  0.0000
  o =  0.2837  v =  0.0000  0.0000  0.0000  0.0000  0.0000  0.0000  1.0000  0.0000  0.0000  0.0000      0.0000  0.0000  0.0000  0.0000  0.0000  0.0000  0.0000  0.0000  0.0000  0.0000
  o =  0.2837  v =  0.0000  0.0000  0.0000  0.0000  0.0000  0.0000  0.0000  1.0000  0.0000  0.0000      0.0000  0.0000  0.0000  0.0000  0.0000  0.0000  0.0000  0.0000  0.0000  0.0000
  o =  0.2837  v =  0.0000  0.0000  0.0000  0.0000  0.0000  0.0000  0.0000  0.0000  1.0000  0.0000      0.0000  0.0000  0.0000  0.0000  0.0000  0.0000  0.0000  0.0000  0.0000  0.0000
  o =  0.2837  v =  0.0000  0.0000  0.0000  0.0000  0.0000  0.0000  0.0000  0.0000  0.0000  1.0000      0.0000  0.0000  0.0000  0.0000  0.0000  0.0000  0.0000  0.0000  0.0000  0.0000
  o =  0.7701  v =  1.0000  0.0000  0.0000  0.0000  0.0000  0.0000  0.0000  0.0000  0.0000  0.0000      0.0000  0.0000  0.0000  0.0000  0.0000  0.0000  0.0000  0.0000  0.0000  0.0000
  o =  0.7701  v =  0.0000  1.0000  0.0000  0.0000  0.0000  0.0000  0.0000  0.0000  0.0000  0.0000      0.0000  0.0000  0.0000  0.0000  0.0000  0.0000  0.0000  0.0000  0.0000  0.0000
  o =  0.7701  v =  0.0000  0.0000  1.0000  0.0000  0.0000  0.0000  0.0000  0.0000  0.0000  0.0000      0.0000  0.0000  0.0000  0.0000  0.0000  0.0000  0.0000  0.0000  0.0000  0.0000
  o =  0.7701  v =  0.0000  0.0000  0.0000  1.0000  0.0000  0.0000  0.0000  0.0000  0.0000  0.0000      0.0000  0.0000  0.0000  0.0000  0.0000  0.0000  0.0000  0.0000  0.0000  0.0000
  o =  0.7701  v =  0.0000  0.0000  0.0000  0.0000  1.0000  0.0000  0.0000  0.0000  0.0000  0.0000      0.0000  0.0000  0.0000  0.0000  0.0000  0.0000  0.0000  0.0000  0.0000  0.0000
     EDDAV:  cpu time    0.1993: real time    0.2188
       DOS:  cpu time    0.0004: real time    0.0004
    --------------------------------------------
      LOOP:  cpu time    0.4245: real time    0.4441

 eigenvalue-minimisations  :  1308
 total energy-change (2. order) : 0.5597072E+03  (-0.2771456E+04)
 number of electron      54.0000000 magnetization      -0.0000000
 augmentation part       54.0000000 magnetization      -0.0000000

 Free energy of the ion-electron system (eV)
  ---------------------------------------------------
  alpha Z        PSCENC =       203.95051221
  Ewald energy   TEWEN  =     -4253.05950503
  -Hartree energ DENC   =     -2091.75274371
  -exchange      EXHF   =         0.00000000
  -V(xc)+E(xc)   XCENC  =       295.21109386
  PAW double counting   =      5431.03059579    -5549.10764102
  entropy T*S    EENTRO =        -0.00092944
  eigenvalues    EBANDS =      -165.30324778
  atomic energy  EATOM  =      6688.73902225
  Solvation  Ediel_sol  =         0.00000000
  ---------------------------------------------------
  free energy    TOTEN  =       559.70715713 eV

  energy without entropy =      559.70808657  energy(sigma->0) =      559.70762185


--------------------------------------------------------------------------------------------------------




--------------------------------------- Iteration      1(   2)  ---------------------------------------


     EDDAV:  cpu time    0.2216: real time    0.2216
       DOS:  cpu time    0.0002: real time    0.0002
    --------------------------------------------
      LOOP:  cpu time    0.2218: real time    0.2218

 eigenvalue-minimisations  :  1488
 total energy-change (2. order) :-0.5635680E+03  (-0.5494465E+03)
 number of electron      54.0000000 magnetization      -0.0000000
 augmentation part       54.0000000 magnetization      -0.0000000

 Free energy of the ion-electron system (eV)
  ---------------------------------------------------
  alpha Z        PSCENC =       203.95051221
  Ewald energy   TEWEN  =     -4253.05950503
  -Hartree energ DENC   =     -2091.75274371
  -exchange      EXHF   =         0.00000000
  -V(xc)+E(xc)   XCENC  =       295.21109386
  PAW double counting   =      5431.03059579    -5549.10764102
  entropy T*S    EENTRO =        -0.00000000
  eigenvalues    EBANDS =      -728.87218924
  atomic energy  EATOM  =      6688.73902225
  Solvation  Ediel_sol  =         0.00000000
  ---------------------------------------------------
  free energy    TOTEN  =        -3.86085489 eV

  energy without entropy =       -3.86085489  energy(sigma->0) =       -3.86085489


--------------------------------------------------------------------------------------------------------




--------------------------------------- Iteration      1(   3)  ---------------------------------------


     EDDAV:  cpu time    0.2442: real time    0.2442
       DOS:  cpu time    0.0002: real time    0.0002
    --------------------------------------------
      LOOP:  cpu time    0.2444: real time    0.2444

 eigenvalue-minimisations  :  1608
 total energy-change (2. order) :-0.3705466E+02  (-0.3692488E+02)
 number of electron      54.0000000 magnetization      -0.0000000
 augmentation part       54.0000000 magnetization      -0.0000000

 Free energy of the ion-electron system (eV)
  ---------------------------------------------------
  alpha Z        PSCENC =       203.95051221
  Ewald energy   TEWEN  =     -4253.05950503
  -Hartree energ DENC   =     -2091.75274371
  -exchange      EXHF   =         0.00000000
  -V(xc)+E(xc)   XCENC  =       295.21109386
  PAW double counting   =      5431.03059579    -5549.10764102
  entropy T*S    EENTRO =        -0.00000000
  eigenvalues    EBANDS =      -765.92685260
  atomic energy  EATOM  =      6688.73902225
  Solvation  Ediel_sol  =         0.00000000
  ---------------------------------------------------
  free energy    TOTEN  =       -40.91551825 eV

  energy without entropy =      -40.91551825  energy(sigma->0) =      -40.91551825


--------------------------------------------------------------------------------------------------------




--------------------------------------- Iteration      1(   4)  ---------------------------------------


     EDDAV:  cpu time    0.2109: real time    0.2109
       DOS:  cpu time    0.0002: real time    0.0002
    --------------------------------------------
      LOOP:  cpu time    0.2111: real time    0.2111

 eigenvalue-minimisations  :  1404
 total energy-change (2. order) :-0.4311007E+00  (-0.4310485E+00)
 number of electron      54.0000000 magnetization      -0.0000000
 augmentation part       54.0000000 magnetization      -0.0000000

 Free energy of the ion-electron system (eV)
  ---------------------------------------------------
  alpha Z        PSCENC =       203.95051221
  Ewald energy   TEWEN  =     -4253.05950503
  -Hartree energ DENC   =     -2091.75274371
  -exchange      EXHF   =         0.00000000
  -V(xc)+E(xc)   XCENC  =       295.21109386
  PAW double counting   =      5431.03059579    -5549.10764102
  entropy T*S    EENTRO =        -0.00000000
  eigenvalues    EBANDS =      -766.35795328
  atomic energy  EATOM  =      6688.73902225
  Solvation  Ediel_sol  =         0.00000000
  ---------------------------------------------------
  free energy    TOTEN  =       -41.34661893 eV

  energy without entropy =      -41.34661893  energy(sigma->0) =      -41.34661893


--------------------------------------------------------------------------------------------------------




--------------------------------------- Iteration      1(   5)  ---------------------------------------


     EDDAV:  cpu time    0.2374: real time    0.2374
       DOS:  cpu time    0.0002: real time    0.0002
    CHARGE:  cpu time    0.0165: real time    0.0165
    MIXING:  cpu time    0.0003: real time    0.0003
    --------------------------------------------
      LOOP:  cpu time    0.2543: real time    0.2543

 eigenvalue-minimisations  :  1572
 total energy-change (2. order) :-0.6752287E-02  (-0.6752241E-02)
 number of electron      54.0000015 magnetization      -0.0000000
 augmentation part       20.0818516 magnetization      -0.0000000

 Broyden mixing:
  rms(total) = 0.24624E+01    rms(broyden)= 0.24619E+01
  rms(prec ) = 0.31690E+01
  weight for this iteration     100.00

 Free energy of the ion-electron system (eV)
  ---------------------------------------------------
  alpha Z        PSCENC =       203.95051221
  Ewald energy   TEWEN  =     -4253.05950503
  -Hartree energ DENC   =     -2091.75274371
  -exchange      EXHF   =         0.00000000
  -V(xc)+E(xc)   XCENC  =       295.21109386
  PAW double counting   =      5431.03059579    -5549.10764102
  entropy T*S    EENTRO =        -0.00000000
  eigenvalues    EBANDS =      -766.36470557
  atomic energy  EATOM  =      6688.73902225
  Solvation  Ediel_sol  =         0.00000000
  ---------------------------------------------------
  free energy    TOTEN  =       -41.35337122 eV

  energy without entropy =      -41.35337122  energy(sigma->0) =      -41.35337122


--------------------------------------------------------------------------------------------------------




--------------------------------------- Iteration      1(   6)  ---------------------------------------


    POTLOK:  cpu time    0.0028: real time    0.0028
    SETDIJ:  cpu time    0.2197: real time    0.2197
atom =   1  type =  1  l = 2
 
 onsite density matrix
 
spin component  1
 
 -0.0727  0.0000  0.0051  0.0000 -0.0000
  0.0000 -0.0762  0.0000  0.0034  0.0000
  0.0051  0.0000 -0.0740  0.0000 -0.0000
  0.0000  0.0034  0.0000 -0.0762  0.0000
 -0.0000  0.0000 -0.0000  0.0000 -0.0828
 
spin component  2
 
  1.1007  0.0000  0.0136  0.0000 -0.0000
  0.0000  1.0985  0.0000  0.0122  0.0000
  0.0136  0.0000  1.0919  0.0000  0.0000
  0.0000  0.0122  0.0000  1.0985  0.0000
 -0.0000  0.0000  0.0000  0.0000  1.0887
 
 occupancies and eigenvectors
 
  o = -0.0828  v = -0.0000 -0.0000  0.0000 -0.0000  1.0000  0.0000  0.0000  0.0000  0.0000  0.0000      0.0000  0.0000  0.0000  0.0000  0.0000  0.0000  0.0000  0.0000  0.0000  0.0000
  o = -0.0797  v =  0.0000 -0.7071 -0.0000  0.7071  0.0000  0.0000  0.0000  0.0000  0.0000  0.0000      0.0000  0.0000  0.0000  0.0000  0.0000  0.0000  0.0000  0.0000  0.0000  0.0000
  o = -0.0784  v =  0.6612  0.0000 -0.7502 -0.0000  0.0000  0.0000  0.0000  0.0000  0.0000  0.0000      0.0000  0.0000  0.0000  0.0000  0.0000  0.0000  0.0000  0.0000  0.0000  0.0000
  o = -0.0728  v =  0.0000  0.7071 -0.0000  0.7071  0.0000  0.0000  0.0000  0.0000  0.0000  0.0000      0.0000  0.0000  0.0000  0.0000  0.0000  0.0000  0.0000  0.0000  0.0000  0.0000
  o = -0.0682  v =  0.7502 -0.0000  0.6612 -0.0000 -0.0000  0.0000  0.0000  0.0000  0.0000  0.0000      0.0000  0.0000  0.0000  0.0000  0.0000  0.0000  0.0000  0.0000  0.0000  0.0000
  o =  1.0820  v =  0.0000  0.0000  0.0000  0.0000  0.0000 -0.5886  0.0000  0.8084 -0.0000 -0.0000      0.0000  0.0000  0.0000  0.0000  0.0000  0.0000  0.0000  0.0000  0.0000  0.0000
  o =  1.0863  v =  0.0000  0.0000  0.0000  0.0000  0.0000 -0.0000 -0.7071  0.0000  0.7071  0.0000      0.0000  0.0000  0.0000  0.0000  0.0000  0.0000  0.0000  0.0000  0.0000  0.0000
  o =  1.0887  v =  0.0000  0.0000  0.0000  0.0000  0.0000 -0.0000  0.0000  0.0000 -0.0000  1.0000      0.0000  0.0000  0.0000  0.0000  0.0000  0.0000  0.0000  0.0000  0.0000  0.0000
  o =  1.1106  v =  0.0000  0.0000  0.0000  0.0000  0.0000 -0.8084 -0.0000 -0.5886 -0.0000 -0.0000      0.0000  0.0000  0.0000  0.0000  0.0000  0.0000  0.0000  0.0000  0.0000  0.0000
  o =  1.1107  v =  0.0000  0.0000  0.0000  0.0000  0.0000  0.0000 -0.7071  0.0000 -0.7071 -0.0000      0.0000  0.0000  0.0000  0.0000  0.0000  0.0000  0.0000  0.0000  0.0000  0.0000
atom =   2  type =  1  l = 2
 
 onsite density matrix
 
spin component  1
 
  1.1007  0.0000 -0.0136  0.0000 -0.0000
  0.0000  1.0985  0.0000 -0.0122  0.0000
 -0.0136  0.0000  1.0919  0.0000 -0.0000
  0.0000 -0.0122  0.0000  1.0985  0.0000
 -0.0000  0.0000 -0.0000  0.0000  1.0887
 
spin component  2
 
 -0.0727  0.0000 -0.0051  0.0000 -0.0000
  0.0000 -0.0762  0.0000 -0.0034  0.0000
 -0.0051  0.0000 -0.0740  0.0000  0.0000
  0.0000 -0.0034  0.0000 -0.0762  0.0000
 -0.0000  0.0000  0.0000  0.0000 -0.0828
 
 occupancies and eigenvectors
 
  o = -0.0828  v =  0.0000  0.0000  0.0000  0.0000  0.0000  0.0000  0.0000  0.0000  0.0000 -1.0000      0.0000  0.0000  0.0000  0.0000  0.0000  0.0000  0.0000  0.0000  0.0000  0.0000
  o = -0.0797  v =  0.0000  0.0000  0.0000  0.0000  0.0000  0.0000 -0.7071  0.0000 -0.7071 -0.0000      0.0000  0.0000  0.0000  0.0000  0.0000  0.0000  0.0000  0.0000  0.0000  0.0000
  o = -0.0784  v =  0.0000  0.0000  0.0000  0.0000  0.0000  0.6612  0.0000  0.7502  0.0000  0.0000      0.0000  0.0000  0.0000  0.0000  0.0000  0.0000  0.0000  0.0000  0.0000  0.0000
  o = -0.0728  v =  0.0000  0.0000  0.0000  0.0000  0.0000 -0.0000 -0.7071 -0.0000  0.7071 -0.0000      0.0000  0.0000  0.0000  0.0000  0.0000  0.0000  0.0000  0.0000  0.0000  0.0000
  o = -0.0682  v =  0.0000  0.0000  0.0000  0.0000  0.0000  0.7502 -0.0000 -0.6612  0.0000 -0.0000      0.0000  0.0000  0.0000  0.0000  0.0000  0.0000  0.0000  0.0000  0.0000  0.0000
  o =  1.0820  v = -0.5886  0.0000 -0.8084  0.0000 -0.0000  0.0000  0.0000  0.0000  0.0000  0.0000      0.0000  0.0000  0.0000  0.0000  0.0000  0.0000  0.0000  0.0000  0.0000  0.0000
  o =  1.0863  v = -0.0000 -0.7071 -0.0000 -0.7071  0.0000  0.0000  0.0000  0.0000  0.0000  0.0000      0.0000  0.0000  0.0000  0.0000  0.0000  0.0000  0.0000  0.0000  0.0000  0.0000
  o =  1.0887  v = -0.0000  0.0000 -0.0000  0.0000  1.0000  0.0000  0.0000  0.0000  0.0000  0.0000      0.0000  0.0000  0.0000  0.0000  0.0000  0.0000  0.0000  0.0000  0.0000  0.0000
  o =  1.1106  v = -0.8084 -0.0000  0.5886  0.0000 -0.0000  0.0000  0.0000  0.0000  0.0000  0.0000      0.0000  0.0000  0.0000  0.0000  0.0000  0.0000  0.0000  0.0000  0.0000  0.0000
  o =  1.1107  v =  0.0000 -0.7071 -0.0000  0.7071 -0.0000  0.0000  0.0000  0.0000  0.0000  0.0000      0.0000  0.0000  0.0000  0.0000  0.0000  0.0000  0.0000  0.0000  0.0000  0.0000
     EDDAV:  cpu time    0.2386: real time    0.2386
       DOS:  cpu time    0.0002: real time    0.0002
    CHARGE:  cpu time    0.0159: real time    0.0159
    MIXING:  cpu time    0.0004: real time    0.0004
    --------------------------------------------
      LOOP:  cpu time    0.4775: real time    0.4775

 eigenvalue-minimisations  :  1608
 total energy-change (2. order) : 0.1920731E+01  (-0.1434433E+01)
 number of electron      54.0000015 magnetization      -0.0000000
 augmentation part       19.9614014 magnetization      -0.0000000

 Broyden mixing:
  rms(total) = 0.15905E+01    rms(broyden)= 0.15904E+01
  rms(prec ) = 0.16423E+01
  weight for this iteration     100.00

 eigenvalues of (default mixing * dielectric matrix)
  average eigenvalue GAMMA=   0.8140
  0.8140

 Free energy of the ion-electron system (eV)
  ---------------------------------------------------
  alpha Z        PSCENC =       203.95051221
  Ewald energy   TEWEN  =     -4253.05950503
  -Hartree energ DENC   =     -2112.80067856
  -exchange      EXHF   =         0.00000000
  -V(xc)+E(xc)   XCENC  =       295.70592724
  PAW double counting   =      5750.33372835    -5859.65847151
  entropy T*S    EENTRO =        -0.00000000
  eigenvalues    EBANDS =      -752.64317538
  atomic energy  EATOM  =      6688.73902225
  Solvation  Ediel_sol  =         0.00000000
  ---------------------------------------------------
  free energy    TOTEN  =       -39.43264045 eV

  energy without entropy =      -39.43264045  energy(sigma->0) =      -39.43264045


--------------------------------------------------------------------------------------------------------




--------------------------------------- Iteration      1(   7)  ---------------------------------------


    POTLOK:  cpu time    0.0026: real time    0.0026
    SETDIJ:  cpu time    0.2193: real time    0.2193
atom =   1  type =  1  l = 2
 
 onsite density matrix
 
spin component  1
 
  0.1265  0.0000  0.0221  0.0000  0.0000
  0.0000  0.1195  0.0000  0.0183  0.0000
  0.0221  0.0000  0.1141  0.0000  0.0000
  0.0000  0.0183  0.0000  0.1195  0.0000
  0.0000  0.0000  0.0000  0.0000  0.1001
 
spin component  2
 
  0.8967  0.0000  0.0076  0.0000 -0.0000
  0.0000  0.8944  0.0000  0.0066  0.0000
  0.0076  0.0000  0.8928  0.0000 -0.0000
  0.0000  0.0066  0.0000  0.8944  0.0000
 -0.0000  0.0000 -0.0000  0.0000  0.8875
 
 occupancies and eigenvectors
 
  o =  0.0973  v = -0.6037 -0.0000  0.7972  0.0000 -0.0000  0.0000  0.0000  0.0000  0.0000  0.0000      0.0000  0.0000  0.0000  0.0000  0.0000  0.0000  0.0000  0.0000  0.0000  0.0000
  o =  0.1001  v = -0.0000  0.0000  0.0000 -0.0000  1.0000  0.0000  0.0000  0.0000  0.0000  0.0000      0.0000  0.0000  0.0000  0.0000  0.0000  0.0000  0.0000  0.0000  0.0000  0.0000
  o =  0.1012  v =  0.0000  0.7071 -0.0000 -0.7071 -0.0000  0.0000  0.0000  0.0000  0.0000  0.0000      0.0000  0.0000  0.0000  0.0000  0.0000  0.0000  0.0000  0.0000  0.0000  0.0000
  o =  0.1378  v = -0.0000 -0.7071 -0.0000 -0.7071  0.0000  0.0000  0.0000  0.0000  0.0000  0.0000      0.0000  0.0000  0.0000  0.0000  0.0000  0.0000  0.0000  0.0000  0.0000  0.0000
  o =  0.1433  v = -0.7972  0.0000 -0.6037  0.0000 -0.0000  0.0000  0.0000  0.0000  0.0000  0.0000      0.0000  0.0000  0.0000  0.0000  0.0000  0.0000  0.0000  0.0000  0.0000  0.0000
  o =  0.8869  v =  0.0000  0.0000  0.0000  0.0000  0.0000 -0.6150  0.0000  0.7885  0.0000  0.0000      0.0000  0.0000  0.0000  0.0000  0.0000  0.0000  0.0000  0.0000  0.0000  0.0000
  o =  0.8875  v =  0.0000  0.0000  0.0000  0.0000  0.0000 -0.0000 -0.0000  0.0000  0.0000 -1.0000      0.0000  0.0000  0.0000  0.0000  0.0000  0.0000  0.0000  0.0000  0.0000  0.0000
  o =  0.8878  v =  0.0000  0.0000  0.0000  0.0000  0.0000  0.0000  0.7071  0.0000 -0.7071 -0.0000      0.0000  0.0000  0.0000  0.0000  0.0000  0.0000  0.0000  0.0000  0.0000  0.0000
  o =  0.9010  v =  0.0000  0.0000  0.0000  0.0000  0.0000  0.0000  0.7071  0.0000  0.7071 -0.0000      0.0000  0.0000  0.0000  0.0000  0.0000  0.0000  0.0000  0.0000  0.0000  0.0000
  o =  0.9026  v =  0.0000  0.0000  0.0000  0.0000  0.0000 -0.7885  0.0000 -0.6150  0.0000  0.0000      0.0000  0.0000  0.0000  0.0000  0.0000  0.0000  0.0000  0.0000  0.0000  0.0000
atom =   2  type =  1  l = 2
 
 onsite density matrix
 
spin component  1
 
  0.8967  0.0000 -0.0076  0.0000 -0.0000
  0.0000  0.8944  0.0000 -0.0066  0.0000
 -0.0076  0.0000  0.8928  0.0000  0.0000
  0.0000 -0.0066  0.0000  0.8944  0.0000
 -0.0000  0.0000  0.0000  0.0000  0.8875
 
spin component  2
 
  0.1265  0.0000 -0.0221  0.0000  0.0000
  0.0000  0.1195  0.0000 -0.0183  0.0000
 -0.0221  0.0000  0.1141  0.0000 -0.0000
  0.0000 -0.0183  0.0000  0.1195  0.0000
  0.0000  0.0000 -0.0000  0.0000  0.1001
 
 occupancies and eigenvectors
 
  o =  0.0973  v =  0.0000  0.0000  0.0000  0.0000  0.0000 -0.6037  0.0000 -0.7972  0.0000  0.0000      0.0000  0.0000  0.0000  0.0000  0.0000  0.0000  0.0000  0.0000  0.0000  0.0000
  o =  0.1001  v =  0.0000  0.0000  0.0000  0.0000  0.0000  0.0000 -0.0000  0.0000  0.0000  1.0000      0.0000  0.0000  0.0000  0.0000  0.0000  0.0000  0.0000  0.0000  0.0000  0.0000
  o =  0.1012  v =  0.0000  0.0000  0.0000  0.0000  0.0000  0.0000 -0.7071  0.0000 -0.7071 -0.0000      0.0000  0.0000  0.0000  0.0000  0.0000  0.0000  0.0000  0.0000  0.0000  0.0000
  o =  0.1378  v =  0.0000  0.0000  0.0000  0.0000  0.0000  0.0000  0.7071  0.0000 -0.7071  0.0000      0.0000  0.0000  0.0000  0.0000  0.0000  0.0000  0.0000  0.0000  0.0000  0.0000
  o =  0.1433  v =  0.0000  0.0000  0.0000  0.0000  0.0000 -0.7972  0.0000  0.6037  0.0000 -0.0000      0.0000  0.0000  0.0000  0.0000  0.0000  0.0000  0.0000  0.0000  0.0000  0.0000
  o =  0.8869  v = -0.6150  0.0000 -0.7885  0.0000 -0.0000  0.0000  0.0000  0.0000  0.0000  0.0000      0.0000  0.0000  0.0000  0.0000  0.0000  0.0000  0.0000  0.0000  0.0000  0.0000
  o =  0.8875  v =  0.0000  0.0000  0.0000  0.0000 -1.0000  0.0000  0.0000  0.0000  0.0000  0.0000      0.0000  0.0000  0.0000  0.0000  0.0000  0.0000  0.0000  0.0000  0.0000  0.0000
  o =  0.8878  v =  0.0000 -0.7071  0.0000 -0.7071 -0.0000  0.0000  0.0000  0.0000  0.0000  0.0000      0.0000  0.0000  0.0000  0.0000  0.0000  0.0000  0.0000  0.0000  0.0000  0.0000
  o =  0.9010  v =  0.0000  0.7071 -0.0000 -0.7071  0.0000  0.0000  0.0000  0.0000  0.0000  0.0000      0.0000  0.0000  0.0000  0.0000  0.0000  0.0000  0.0000  0.0000  0.0000  0.0000
  o =  0.9026  v = -0.7885  0.0000  0.6150  0.0000  0.0000  0.0000  0.0000  0.0000  0.0000  0.0000      0.0000  0.0000  0.0000  0.0000  0.0000  0.0000  0.0000  0.0000  0.0000  0.0000
     EDDAV:  cpu time    0.2266: real time    0.2266
       DOS:  cpu time    0.0002: real time    0.0002
    CHARGE:  cpu time    0.0159: real time    0.0159
    MIXING:  cpu time    0.0004: real time    0.0004
    --------------------------------------------
      LOOP:  cpu time    0.4650: real time    0.4650

 eigenvalue-minimisations  :  1512
 total energy-change (2. order) :-0.6061080E+00  (-0.1529229E+00)
 number of electron      54.0000014 magnetization       0.0000000
 augmentation part       19.9347331 magnetization       0.0000000

 Broyden mixing:
  rms(total) = 0.11791E+01    rms(broyden)= 0.11791E+01
  rms(prec ) = 0.12077E+01
  weight for this iteration     100.00

 eigenvalues of (default mixing * dielectric matrix)
  average eigenvalue GAMMA=   1.4636
  0.6986  2.2287

 Free energy of the ion-electron system (eV)
  ---------------------------------------------------
  alpha Z        PSCENC =       203.95051221
  Ewald energy   TEWEN  =     -4253.05950503
  -Hartree energ DENC   =     -2109.85714945
  -exchange      EXHF   =         0.00000000
  -V(xc)+E(xc)   XCENC  =       296.41495804
  PAW double counting   =      6016.75071590    -6135.97691566
  entropy T*S    EENTRO =        -0.00000000
  eigenvalues    EBANDS =      -747.00038671
  atomic energy  EATOM  =      6688.73902225
  Solvation  Ediel_sol  =         0.00000000
  ---------------------------------------------------
  free energy    TOTEN  =       -40.03874845 eV

  energy without entropy =      -40.03874845  energy(sigma->0) =      -40.03874845


--------------------------------------------------------------------------------------------------------




--------------------------------------- Iteration      1(   8)  ---------------------------------------


    POTLOK:  cpu time    0.0027: real time    0.0027
    SETDIJ:  cpu time    0.2195: real time    0.2195
atom =   1  type =  1  l = 2
 
 onsite density matrix
 
spin component  1
 
 -0.0217  0.0000  0.0240  0.0000 -0.0000
  0.0000 -0.0298  0.0000  0.0186  0.0000
  0.0240  0.0000 -0.0328  0.0000 -0.0000
  0.0000  0.0186  0.0000 -0.0298  0.0000
 -0.0000  0.0000 -0.0000  0.0000 -0.0529
 
spin component  2
 
  1.0461  0.0000  0.0204  0.0000  0.0000
  0.0000  1.0401  0.0000  0.0187  0.0000
  0.0204  0.0000  1.0323  0.0000  0.0000
  0.0000  0.0187  0.0000  1.0401  0.0000
  0.0000  0.0000  0.0000  0.0000  1.0234
 
 occupancies and eigenvectors
 
  o = -0.0529  v =  0.0000 -0.0000 -0.0000  0.0000 -1.0000  0.0000  0.0000  0.0000  0.0000  0.0000      0.0000  0.0000  0.0000  0.0000  0.0000  0.0000  0.0000  0.0000  0.0000  0.0000
  o = -0.0519  v =  0.6228  0.0000 -0.7824 -0.0000  0.0000  0.0000  0.0000  0.0000  0.0000  0.0000      0.0000  0.0000  0.0000  0.0000  0.0000  0.0000  0.0000  0.0000  0.0000  0.0000
  o = -0.0484  v = -0.0000  0.7071  0.0000 -0.7071 -0.0000  0.0000  0.0000  0.0000  0.0000  0.0000      0.0000  0.0000  0.0000  0.0000  0.0000  0.0000  0.0000  0.0000  0.0000  0.0000
  o = -0.0112  v = -0.0000  0.7071 -0.0000  0.7071 -0.0000  0.0000  0.0000  0.0000  0.0000  0.0000      0.0000  0.0000  0.0000  0.0000  0.0000  0.0000  0.0000  0.0000  0.0000  0.0000
  o = -0.0026  v =  0.7824  0.0000  0.6228  0.0000 -0.0000  0.0000  0.0000  0.0000  0.0000  0.0000      0.0000  0.0000  0.0000  0.0000  0.0000  0.0000  0.0000  0.0000  0.0000  0.0000
  o =  1.0177  v =  0.0000  0.0000  0.0000  0.0000  0.0000 -0.5823  0.0000  0.8130 -0.0000 -0.0000      0.0000  0.0000  0.0000  0.0000  0.0000  0.0000  0.0000  0.0000  0.0000  0.0000
  o =  1.0214  v =  0.0000  0.0000  0.0000  0.0000  0.0000 -0.0000 -0.7071  0.0000  0.7071  0.0000      0.0000  0.0000  0.0000  0.0000  0.0000  0.0000  0.0000  0.0000  0.0000  0.0000
  o =  1.0234  v =  0.0000  0.0000  0.0000  0.0000  0.0000 -0.0000  0.0000  0.0000 -0.0000  1.0000      0.0000  0.0000  0.0000  0.0000  0.0000  0.0000  0.0000  0.0000  0.0000  0.0000
  o =  1.0588  v =  0.0000  0.0000  0.0000  0.0000  0.0000  0.0000 -0.7071  0.0000 -0.7071 -0.0000      0.0000  0.0000  0.0000  0.0000  0.0000  0.0000  0.0000  0.0000  0.0000  0.0000
  o =  1.0607  v =  0.0000  0.0000  0.0000  0.0000  0.0000 -0.8130 -0.0000 -0.5823 -0.0000 -0.0000      0.0000  0.0000  0.0000  0.0000  0.0000  0.0000  0.0000  0.0000  0.0000  0.0000
atom =   2  type =  1  l = 2
 
 onsite density matrix
 
spin component  1
 
  1.0461  0.0000 -0.0204  0.0000 -0.0000
  0.0000  1.0401  0.0000 -0.0187  0.0000
 -0.0204  0.0000  1.0323  0.0000 -0.0000
  0.0000 -0.0187  0.0000  1.0401  0.0000
 -0.0000  0.0000 -0.0000  0.0000  1.0234
 
spin component  2
 
 -0.0217  0.0000 -0.0240  0.0000  0.0000
  0.0000 -0.0298  0.0000 -0.0186  0.0000
 -0.0240  0.0000 -0.0328  0.0000  0.0000
  0.0000 -0.0186  0.0000 -0.0298  0.0000
  0.0000  0.0000  0.0000  0.0000 -0.0529
 
 occupancies and eigenvectors
 
  o = -0.0529  v =  0.0000  0.0000  0.0000  0.0000  0.0000  0.0000  0.0000  0.0000  0.0000 -1.0000      0.0000  0.0000  0.0000  0.0000  0.0000  0.0000  0.0000  0.0000  0.0000  0.0000
  o = -0.0519  v =  0.0000  0.0000  0.0000  0.0000  0.0000  0.6228  0.0000  0.7824  0.0000  0.0000      0.0000  0.0000  0.0000  0.0000  0.0000  0.0000  0.0000  0.0000  0.0000  0.0000
  o = -0.0484  v =  0.0000  0.0000  0.0000  0.0000  0.0000 -0.0000  0.7071 -0.0000  0.7071  0.0000      0.0000  0.0000  0.0000  0.0000  0.0000  0.0000  0.0000  0.0000  0.0000  0.0000
  o = -0.0112  v =  0.0000  0.0000  0.0000  0.0000  0.0000 -0.0000  0.7071  0.0000 -0.7071  0.0000      0.0000  0.0000  0.0000  0.0000  0.0000  0.0000  0.0000  0.0000  0.0000  0.0000
  o = -0.0026  v =  0.0000  0.0000  0.0000  0.0000  0.0000  0.7824  0.0000 -0.6228 -0.0000 -0.0000      0.0000  0.0000  0.0000  0.0000  0.0000  0.0000  0.0000  0.0000  0.0000  0.0000
  o =  1.0177  v = -0.5823 -0.0000 -0.8130  0.0000 -0.0000  0.0000  0.0000  0.0000  0.0000  0.0000      0.0000  0.0000  0.0000  0.0000  0.0000  0.0000  0.0000  0.0000  0.0000  0.0000
  o =  1.0214  v =  0.0000 -0.7071  0.0000 -0.7071  0.0000  0.0000  0.0000  0.0000  0.0000  0.0000      0.0000  0.0000  0.0000  0.0000  0.0000  0.0000  0.0000  0.0000  0.0000  0.0000
  o =  1.0234  v = -0.0000  0.0000 -0.0000  0.0000  1.0000  0.0000  0.0000  0.0000  0.0000  0.0000      0.0000  0.0000  0.0000  0.0000  0.0000  0.0000  0.0000  0.0000  0.0000  0.0000
  o =  1.0588  v =  0.0000  0.7071  0.0000 -0.7071 -0.0000  0.0000  0.0000  0.0000  0.0000  0.0000      0.0000  0.0000  0.0000  0.0000  0.0000  0.0000  0.0000  0.0000  0.0000  0.0000
  o =  1.0607  v = -0.8130 -0.0000  0.5823  0.0000 -0.0000  0.0000  0.0000  0.0000  0.0000  0.0000      0.0000  0.0000  0.0000  0.0000  0.0000  0.0000  0.0000  0.0000  0.0000  0.0000
     EDDAV:  cpu time    0.2242: real time    0.2242
       DOS:  cpu time    0.0002: real time    0.0002
    CHARGE:  cpu time    0.0158: real time    0.0158
    MIXING:  cpu time    0.0004: real time    0.0004
    --------------------------------------------
      LOOP:  cpu time    0.4629: real time    0.4629

 eigenvalue-minimisations  :  1500
 total energy-change (2. order) : 0.4720266E-01  (-0.4807029E-01)
 number of electron      54.0000015 magnetization      -0.0000000
 augmentation part       19.9616481 magnetization      -0.0000000

 Broyden mixing:
  rms(total) = 0.47213E+00    rms(broyden)= 0.47212E+00
  rms(prec ) = 0.49992E+00
  weight for this iteration     100.00

 eigenvalues of (default mixing * dielectric matrix)
  average eigenvalue GAMMA=   1.2463
  2.0863  1.0232  0.6294

 Free energy of the ion-electron system (eV)
  ---------------------------------------------------
  alpha Z        PSCENC =       203.95051221
  Ewald energy   TEWEN  =     -4253.05950503
  -Hartree energ DENC   =     -2104.78767543
  -exchange      EXHF   =         0.00000000
  -V(xc)+E(xc)   XCENC  =       295.76679587
  PAW double counting   =      6298.97140845    -6414.88738307
  entropy T*S    EENTRO =        -0.00000000
  eigenvalues    EBANDS =      -754.68472104
  atomic energy  EATOM  =      6688.73902225
  Solvation  Ediel_sol  =         0.00000000
  ---------------------------------------------------
  free energy    TOTEN  =       -39.99154579 eV

  energy without entropy =      -39.99154579  energy(sigma->0) =      -39.99154579


--------------------------------------------------------------------------------------------------------




--------------------------------------- Iteration      1(   9)  ---------------------------------------


    POTLOK:  cpu time    0.0027: real time    0.0027
    SETDIJ:  cpu time    0.2194: real time    0.2194
atom =   1  type =  1  l = 2
 
 onsite density matrix
 
spin component  1
 
  0.0486  0.0000  0.0274  0.0000  0.0000
  0.0000  0.0391  0.0000  0.0228  0.0000
  0.0274  0.0000  0.0333  0.0000  0.0000
  0.0000  0.0228  0.0000  0.0391  0.0000
  0.0000  0.0000  0.0000  0.0000  0.0138
 
spin component  2
 
  0.9751  0.0000  0.0241  0.0000 -0.0000
  0.0000  0.9680  0.0000  0.0205  0.0000
  0.0241  0.0000  0.9611  0.0000 -0.0000
  0.0000  0.0205  0.0000  0.9680  0.0000
 -0.0000  0.0000 -0.0000  0.0000  0.9472
 
 occupancies and eigenvectors
 
  o =  0.0125  v = -0.6050  0.0000  0.7962  0.0000 -0.0000  0.0000  0.0000  0.0000  0.0000  0.0000      0.0000  0.0000  0.0000  0.0000  0.0000  0.0000  0.0000  0.0000  0.0000  0.0000
  o =  0.0138  v = -0.0000 -0.0000  0.0000  0.0000  1.0000  0.0000  0.0000  0.0000  0.0000  0.0000      0.0000  0.0000  0.0000  0.0000  0.0000  0.0000  0.0000  0.0000  0.0000  0.0000
  o =  0.0162  v =  0.0000  0.7071  0.0000 -0.7071  0.0000  0.0000  0.0000  0.0000  0.0000  0.0000      0.0000  0.0000  0.0000  0.0000  0.0000  0.0000  0.0000  0.0000  0.0000  0.0000
  o =  0.0619  v =  0.0000 -0.7071  0.0000 -0.7071 -0.0000  0.0000  0.0000  0.0000  0.0000  0.0000      0.0000  0.0000  0.0000  0.0000  0.0000  0.0000  0.0000  0.0000  0.0000  0.0000
  o =  0.0694  v = -0.7962  0.0000 -0.6050  0.0000 -0.0000  0.0000  0.0000  0.0000  0.0000  0.0000      0.0000  0.0000  0.0000  0.0000  0.0000  0.0000  0.0000  0.0000  0.0000  0.0000
  o =  0.9430  v =  0.0000  0.0000  0.0000  0.0000  0.0000 -0.6006  0.0000  0.7995  0.0000 -0.0000      0.0000  0.0000  0.0000  0.0000  0.0000  0.0000  0.0000  0.0000  0.0000  0.0000
  o =  0.9472  v =  0.0000  0.0000  0.0000  0.0000  0.0000  0.0000 -0.0000 -0.0000  0.0000 -1.0000      0.0000  0.0000  0.0000  0.0000  0.0000  0.0000  0.0000  0.0000  0.0000  0.0000
  o =  0.9475  v =  0.0000  0.0000  0.0000  0.0000  0.0000  0.0000  0.7071  0.0000 -0.7071 -0.0000      0.0000  0.0000  0.0000  0.0000  0.0000  0.0000  0.0000  0.0000  0.0000  0.0000
  o =  0.9886  v =  0.0000  0.0000  0.0000  0.0000  0.0000  0.0000  0.7071  0.0000  0.7071 -0.0000      0.0000  0.0000  0.0000  0.0000  0.0000  0.0000  0.0000  0.0000  0.0000  0.0000
  o =  0.9931  v =  0.0000  0.0000  0.0000  0.0000  0.0000 -0.7995  0.0000 -0.6006  0.0000  0.0000      0.0000  0.0000  0.0000  0.0000  0.0000  0.0000  0.0000  0.0000  0.0000  0.0000
atom =   2  type =  1  l = 2
 
 onsite density matrix
 
spin component  1
 
  0.9751  0.0000 -0.0241  0.0000  0.0000
  0.0000  0.9680  0.0000 -0.0205  0.0000
 -0.0241  0.0000  0.9611  0.0000 -0.0000
  0.0000 -0.0205  0.0000  0.9680  0.0000
  0.0000  0.0000 -0.0000  0.0000  0.9472
 
spin component  2
 
  0.0486  0.0000 -0.0274  0.0000 -0.0000
  0.0000  0.0391  0.0000 -0.0228  0.0000
 -0.0274  0.0000  0.0333  0.0000  0.0000
  0.0000 -0.0228  0.0000  0.0391  0.0000
 -0.0000  0.0000  0.0000  0.0000  0.0138
 
 occupancies and eigenvectors
 
  o =  0.0125  v =  0.0000  0.0000  0.0000  0.0000  0.0000 -0.6050  0.0000 -0.7962  0.0000  0.0000      0.0000  0.0000  0.0000  0.0000  0.0000  0.0000  0.0000  0.0000  0.0000  0.0000
  o =  0.0138  v =  0.0000  0.0000  0.0000  0.0000  0.0000 -0.0000 -0.0000 -0.0000  0.0000 -1.0000      0.0000  0.0000  0.0000  0.0000  0.0000  0.0000  0.0000  0.0000  0.0000  0.0000
  o =  0.0162  v =  0.0000  0.0000  0.0000  0.0000  0.0000  0.0000 -0.7071  0.0000 -0.7071  0.0000      0.0000  0.0000  0.0000  0.0000  0.0000  0.0000  0.0000  0.0000  0.0000  0.0000
  o =  0.0619  v =  0.0000  0.0000  0.0000  0.0000  0.0000  0.0000 -0.7071  0.0000  0.7071  0.0000      0.0000  0.0000  0.0000  0.0000  0.0000  0.0000  0.0000  0.0000  0.0000  0.0000
  o =  0.0694  v =  0.0000  0.0000  0.0000  0.0000  0.0000 -0.7962  0.0000  0.6050  0.0000  0.0000      0.0000  0.0000  0.0000  0.0000  0.0000  0.0000  0.0000  0.0000  0.0000  0.0000
  o =  0.9430  v = -0.6006  0.0000 -0.7995  0.0000 -0.0000  0.0000  0.0000  0.0000  0.0000  0.0000      0.0000  0.0000  0.0000  0.0000  0.0000  0.0000  0.0000  0.0000  0.0000  0.0000
  o =  0.9472  v = -0.0000 -0.0000 -0.0000  0.0000  1.0000  0.0000  0.0000  0.0000  0.0000  0.0000      0.0000  0.0000  0.0000  0.0000  0.0000  0.0000  0.0000  0.0000  0.0000  0.0000
  o =  0.9475  v =  0.0000 -0.7071  0.0000 -0.7071 -0.0000  0.0000  0.0000  0.0000  0.0000  0.0000      0.0000  0.0000  0.0000  0.0000  0.0000  0.0000  0.0000  0.0000  0.0000  0.0000
  o =  0.9886  v =  0.0000  0.7071  0.0000 -0.7071  0.0000  0.0000  0.0000  0.0000  0.0000  0.0000      0.0000  0.0000  0.0000  0.0000  0.0000  0.0000  0.0000  0.0000  0.0000  0.0000
  o =  0.9931  v = -0.7995  0.0000  0.6006  0.0000 -0.0000  0.0000  0.0000  0.0000  0.0000  0.0000      0.0000  0.0000  0.0000  0.0000  0.0000  0.0000  0.0000  0.0000  0.0000  0.0000
     EDDAV:  cpu time    0.2139: real time    0.2139
       DOS:  cpu time    0.0002: real time    0.0002
    CHARGE:  cpu time    0.0158: real time    0.0158
    MIXING:  cpu time    0.0004: real time    0.0004
    --------------------------------------------
      LOOP:  cpu time    0.4525: real time    0.4525

 eigenvalue-minimisations  :  1440
 total energy-change (2. order) :-0.2501024E+00  (-0.6411961E-02)
 number of electron      54.0000015 magnetization      -0.0000000
 augmentation part       19.9526735 magnetization      -0.0000000

 Broyden mixing:
  rms(total) = 0.13702E+00    rms(broyden)= 0.13701E+00
  rms(prec ) = 0.14572E+00
  weight for this iteration     100.00

 eigenvalues of (default mixing * dielectric matrix)
  average eigenvalue GAMMA=   1.2146
  2.6140  0.8111  0.8111  0.6221

 Free energy of the ion-electron system (eV)
  ---------------------------------------------------
  alpha Z        PSCENC =       203.95051221
  Ewald energy   TEWEN  =     -4253.05950503
  -Hartree energ DENC   =     -2104.78551529
  -exchange      EXHF   =         0.00000000
  -V(xc)+E(xc)   XCENC  =       296.02363612
  PAW double counting   =      6437.78822888    -6557.63753038
  entropy T*S    EENTRO =        -0.00000000
  eigenvalues    EBANDS =      -751.26049698
  atomic energy  EATOM  =      6688.73902225
  Solvation  Ediel_sol  =         0.00000000
  ---------------------------------------------------
  free energy    TOTEN  =       -40.24164822 eV

  energy without entropy =      -40.24164822  energy(sigma->0) =      -40.24164822


--------------------------------------------------------------------------------------------------------




--------------------------------------- Iteration      1(  10)  ---------------------------------------


    POTLOK:  cpu time    0.0027: real time    0.0027
    SETDIJ:  cpu time    0.2194: real time    0.2194
atom =   1  type =  1  l = 2
 
 onsite density matrix
 
spin component  1
 
  0.0545  0.0000  0.0297  0.0000  0.0000
  0.0000  0.0445  0.0000  0.0243  0.0000
  0.0297  0.0000  0.0384  0.0000  0.0000
  0.0000  0.0243  0.0000  0.0445  0.0000
  0.0000  0.0000  0.0000  0.0000  0.0173
 
spin component  2
 
  0.9695  0.0000  0.0217  0.0000 -0.0000
  0.0000  0.9629  0.0000  0.0190  0.0000
  0.0217  0.0000  0.9564  0.0000 -0.0000
  0.0000  0.0190  0.0000  0.9629  0.0000
 -0.0000  0.0000 -0.0000  0.0000  0.9441
 
 occupancies and eigenvectors
 
  o =  0.0157  v = -0.6077  0.0000  0.7942  0.0000 -0.0000  0.0000  0.0000  0.0000  0.0000  0.0000      0.0000  0.0000  0.0000  0.0000  0.0000  0.0000  0.0000  0.0000  0.0000  0.0000
  o =  0.0173  v = -0.0000 -0.0000  0.0000  0.0000  1.0000  0.0000  0.0000  0.0000  0.0000  0.0000      0.0000  0.0000  0.0000  0.0000  0.0000  0.0000  0.0000  0.0000  0.0000  0.0000
  o =  0.0202  v =  0.0000  0.7071  0.0000 -0.7071  0.0000  0.0000  0.0000  0.0000  0.0000  0.0000      0.0000  0.0000  0.0000  0.0000  0.0000  0.0000  0.0000  0.0000  0.0000  0.0000
  o =  0.0689  v =  0.0000 -0.7071  0.0000 -0.7071 -0.0000  0.0000  0.0000  0.0000  0.0000  0.0000      0.0000  0.0000  0.0000  0.0000  0.0000  0.0000  0.0000  0.0000  0.0000  0.0000
  o =  0.0772  v = -0.7942  0.0000 -0.6077  0.0000 -0.0000  0.0000  0.0000  0.0000  0.0000  0.0000      0.0000  0.0000  0.0000  0.0000  0.0000  0.0000  0.0000  0.0000  0.0000  0.0000
  o =  0.9403  v =  0.0000  0.0000  0.0000  0.0000  0.0000 -0.5958  0.0000  0.8031  0.0000 -0.0000      0.0000  0.0000  0.0000  0.0000  0.0000  0.0000  0.0000  0.0000  0.0000  0.0000
  o =  0.9439  v =  0.0000  0.0000  0.0000  0.0000  0.0000  0.0000  0.7071  0.0000 -0.7071 -0.0000      0.0000  0.0000  0.0000  0.0000  0.0000  0.0000  0.0000  0.0000  0.0000  0.0000
  o =  0.9441  v =  0.0000  0.0000  0.0000  0.0000  0.0000  0.0000 -0.0000 -0.0000  0.0000 -1.0000      0.0000  0.0000  0.0000  0.0000  0.0000  0.0000  0.0000  0.0000  0.0000  0.0000
  o =  0.9819  v =  0.0000  0.0000  0.0000  0.0000  0.0000  0.0000  0.7071  0.0000  0.7071 -0.0000      0.0000  0.0000  0.0000  0.0000  0.0000  0.0000  0.0000  0.0000  0.0000  0.0000
  o =  0.9856  v =  0.0000  0.0000  0.0000  0.0000  0.0000 -0.8031  0.0000 -0.5958  0.0000  0.0000      0.0000  0.0000  0.0000  0.0000  0.0000  0.0000  0.0000  0.0000  0.0000  0.0000
atom =   2  type =  1  l = 2
 
 onsite density matrix
 
spin component  1
 
  0.9695  0.0000 -0.0217  0.0000 -0.0000
  0.0000  0.9629  0.0000 -0.0190  0.0000
 -0.0217  0.0000  0.9564  0.0000 -0.0000
  0.0000 -0.0190  0.0000  0.9629  0.0000
 -0.0000  0.0000 -0.0000  0.0000  0.9441
 
spin component  2
 
  0.0545  0.0000 -0.0297  0.0000  0.0000
  0.0000  0.0445  0.0000 -0.0243  0.0000
 -0.0297  0.0000  0.0384  0.0000 -0.0000
  0.0000 -0.0243  0.0000  0.0445  0.0000
  0.0000  0.0000 -0.0000  0.0000  0.0173
 
 occupancies and eigenvectors
 
  o =  0.0157  v =  0.0000  0.0000  0.0000  0.0000  0.0000 -0.6077  0.0000 -0.7942  0.0000 -0.0000      0.0000  0.0000  0.0000  0.0000  0.0000  0.0000  0.0000  0.0000  0.0000  0.0000
  o =  0.0173  v =  0.0000  0.0000  0.0000  0.0000  0.0000 -0.0000 -0.0000 -0.0000 -0.0000  1.0000      0.0000  0.0000  0.0000  0.0000  0.0000  0.0000  0.0000  0.0000  0.0000  0.0000
  o =  0.0202  v =  0.0000  0.0000  0.0000  0.0000  0.0000  0.0000 -0.7071  0.0000 -0.7071 -0.0000      0.0000  0.0000  0.0000  0.0000  0.0000  0.0000  0.0000  0.0000  0.0000  0.0000
  o =  0.0689  v =  0.0000  0.0000  0.0000  0.0000  0.0000 -0.0000  0.7071  0.0000 -0.7071  0.0000      0.0000  0.0000  0.0000  0.0000  0.0000  0.0000  0.0000  0.0000  0.0000  0.0000
  o =  0.0772  v =  0.0000  0.0000  0.0000  0.0000  0.0000 -0.7942 -0.0000  0.6077  0.0000 -0.0000      0.0000  0.0000  0.0000  0.0000  0.0000  0.0000  0.0000  0.0000  0.0000  0.0000
  o =  0.9403  v = -0.5958  0.0000 -0.8031  0.0000 -0.0000  0.0000  0.0000  0.0000  0.0000  0.0000      0.0000  0.0000  0.0000  0.0000  0.0000  0.0000  0.0000  0.0000  0.0000  0.0000
  o =  0.9439  v =  0.0000 -0.7071  0.0000 -0.7071  0.0000  0.0000  0.0000  0.0000  0.0000  0.0000      0.0000  0.0000  0.0000  0.0000  0.0000  0.0000  0.0000  0.0000  0.0000  0.0000
  o =  0.9441  v =  0.0000  0.0000 -0.0000  0.0000  1.0000  0.0000  0.0000  0.0000  0.0000  0.0000      0.0000  0.0000  0.0000  0.0000  0.0000  0.0000  0.0000  0.0000  0.0000  0.0000
  o =  0.9819  v =  0.0000  0.7071  0.0000 -0.7071 -0.0000  0.0000  0.0000  0.0000  0.0000  0.0000      0.0000  0.0000  0.0000  0.0000  0.0000  0.0000  0.0000  0.0000  0.0000  0.0000
  o =  0.9856  v = -0.8031  0.0000  0.5958  0.0000  0.0000  0.0000  0.0000  0.0000  0.0000  0.0000      0.0000  0.0000  0.0000  0.0000  0.0000  0.0000  0.0000  0.0000  0.0000  0.0000
     EDDAV:  cpu time    0.2363: real time    0.2363
       DOS:  cpu time    0.0002: real time    0.0002
    CHARGE:  cpu time    0.0158: real time    0.0158
    MIXING:  cpu time    0.0004: real time    0.0004
    --------------------------------------------
      LOOP:  cpu time    0.4748: real time    0.4748

 eigenvalue-minimisations  :  1572
 total energy-change (2. order) :-0.1138606E-02  (-0.1457168E-02)
 number of electron      54.0000015 magnetization      -0.0000000
 augmentation part       19.9509875 magnetization      -0.0000000

 Broyden mixing:
  rms(total) = 0.23335E-01    rms(broyden)= 0.23320E-01
  rms(prec ) = 0.25886E-01
  weight for this iteration     100.00

 eigenvalues of (default mixing * dielectric matrix)
  average eigenvalue GAMMA=   1.1547
  2.5386  0.9515  0.9515  0.7272  0.6046

 Free energy of the ion-electron system (eV)
  ---------------------------------------------------
  alpha Z        PSCENC =       203.95051221
  Ewald energy   TEWEN  =     -4253.05950503
  -Hartree energ DENC   =     -2105.36932922
  -exchange      EXHF   =         0.00000000
  -V(xc)+E(xc)   XCENC  =       296.11818866
  PAW double counting   =      6427.37807438    -6547.34667215
  entropy T*S    EENTRO =        -0.00000000
  eigenvalues    EBANDS =      -750.65307793
  atomic energy  EATOM  =      6688.73902225
  Solvation  Ediel_sol  =         0.00000000
  ---------------------------------------------------
  free energy    TOTEN  =       -40.24278683 eV

  energy without entropy =      -40.24278683  energy(sigma->0) =      -40.24278683


--------------------------------------------------------------------------------------------------------




--------------------------------------- Iteration      1(  11)  ---------------------------------------


    POTLOK:  cpu time    0.0027: real time    0.0027
    SETDIJ:  cpu time    0.2194: real time    0.2194
atom =   1  type =  1  l = 2
 
 onsite density matrix
 
spin component  1
 
  0.0529  0.0000  0.0295  0.0000 -0.0000
  0.0000  0.0430  0.0000  0.0242  0.0000
  0.0295  0.0000  0.0368  0.0000 -0.0000
  0.0000  0.0242  0.0000  0.0430  0.0000
 -0.0000  0.0000 -0.0000  0.0000  0.0160
 
spin component  2
 
  0.9718  0.0000  0.0217  0.0000  0.0000
  0.0000  0.9653  0.0000  0.0189  0.0000
  0.0217  0.0000  0.9587  0.0000  0.0000
  0.0000  0.0189  0.0000  0.9653  0.0000
  0.0000  0.0000  0.0000  0.0000  0.9465
 
 occupancies and eigenvectors
 
  o =  0.0143  v = -0.6069  0.0000  0.7948  0.0000  0.0000  0.0000  0.0000  0.0000  0.0000  0.0000      0.0000  0.0000  0.0000  0.0000  0.0000  0.0000  0.0000  0.0000  0.0000  0.0000
  o =  0.0160  v = -0.0000 -0.0000  0.0000  0.0000 -1.0000  0.0000  0.0000  0.0000  0.0000  0.0000      0.0000  0.0000  0.0000  0.0000  0.0000  0.0000  0.0000  0.0000  0.0000  0.0000
  o =  0.0188  v =  0.0000  0.7071  0.0000 -0.7071 -0.0000  0.0000  0.0000  0.0000  0.0000  0.0000      0.0000  0.0000  0.0000  0.0000  0.0000  0.0000  0.0000  0.0000  0.0000  0.0000
  o =  0.0672  v =  0.0000  0.7071  0.0000  0.7071 -0.0000  0.0000  0.0000  0.0000  0.0000  0.0000      0.0000  0.0000  0.0000  0.0000  0.0000  0.0000  0.0000  0.0000  0.0000  0.0000
  o =  0.0755  v = -0.7948  0.0000 -0.6069  0.0000  0.0000  0.0000  0.0000  0.0000  0.0000  0.0000      0.0000  0.0000  0.0000  0.0000  0.0000  0.0000  0.0000  0.0000  0.0000  0.0000
  o =  0.9426  v =  0.0000  0.0000  0.0000  0.0000  0.0000 -0.5961  0.0000  0.8029  0.0000 -0.0000      0.0000  0.0000  0.0000  0.0000  0.0000  0.0000  0.0000  0.0000  0.0000  0.0000
  o =  0.9464  v =  0.0000  0.0000  0.0000  0.0000  0.0000  0.0000  0.7071  0.0000 -0.7071  0.0000      0.0000  0.0000  0.0000  0.0000  0.0000  0.0000  0.0000  0.0000  0.0000  0.0000
  o =  0.9465  v =  0.0000  0.0000  0.0000  0.0000  0.0000 -0.0000 -0.0000  0.0000  0.0000  1.0000      0.0000  0.0000  0.0000  0.0000  0.0000  0.0000  0.0000  0.0000  0.0000  0.0000
  o =  0.9842  v =  0.0000  0.0000  0.0000  0.0000  0.0000  0.0000 -0.7071  0.0000 -0.7071 -0.0000      0.0000  0.0000  0.0000  0.0000  0.0000  0.0000  0.0000  0.0000  0.0000  0.0000
  o =  0.9879  v =  0.0000  0.0000  0.0000  0.0000  0.0000 -0.8029  0.0000 -0.5961  0.0000 -0.0000      0.0000  0.0000  0.0000  0.0000  0.0000  0.0000  0.0000  0.0000  0.0000  0.0000
atom =   2  type =  1  l = 2
 
 onsite density matrix
 
spin component  1
 
  0.9718  0.0000 -0.0217  0.0000  0.0000
  0.0000  0.9653  0.0000 -0.0189  0.0000
 -0.0217  0.0000  0.9587  0.0000  0.0000
  0.0000 -0.0189  0.0000  0.9653  0.0000
  0.0000  0.0000  0.0000  0.0000  0.9465
 
spin component  2
 
  0.0529  0.0000 -0.0295  0.0000 -0.0000
  0.0000  0.0430  0.0000 -0.0242  0.0000
 -0.0295  0.0000  0.0368  0.0000 -0.0000
  0.0000 -0.0242  0.0000  0.0430  0.0000
 -0.0000  0.0000 -0.0000  0.0000  0.0160
 
 occupancies and eigenvectors
 
  o =  0.0143  v =  0.0000  0.0000  0.0000  0.0000  0.0000 -0.6069 -0.0000 -0.7948  0.0000 -0.0000      0.0000  0.0000  0.0000  0.0000  0.0000  0.0000  0.0000  0.0000  0.0000  0.0000
  o =  0.0160  v =  0.0000  0.0000  0.0000  0.0000  0.0000 -0.0000  0.0000 -0.0000  0.0000  1.0000      0.0000  0.0000  0.0000  0.0000  0.0000  0.0000  0.0000  0.0000  0.0000  0.0000
  o =  0.0188  v =  0.0000  0.0000  0.0000  0.0000  0.0000  0.0000  0.7071  0.0000  0.7071 -0.0000      0.0000  0.0000  0.0000  0.0000  0.0000  0.0000  0.0000  0.0000  0.0000  0.0000
  o =  0.0672  v =  0.0000  0.0000  0.0000  0.0000  0.0000  0.0000  0.7071  0.0000 -0.7071 -0.0000      0.0000  0.0000  0.0000  0.0000  0.0000  0.0000  0.0000  0.0000  0.0000  0.0000
  o =  0.0755  v =  0.0000  0.0000  0.0000  0.0000  0.0000 -0.7948 -0.0000  0.6069  0.0000 -0.0000      0.0000  0.0000  0.0000  0.0000  0.0000  0.0000  0.0000  0.0000  0.0000  0.0000
  o =  0.9426  v = -0.5961  0.0000 -0.8029  0.0000  0.0000  0.0000  0.0000  0.0000  0.0000  0.0000      0.0000  0.0000  0.0000  0.0000  0.0000  0.0000  0.0000  0.0000  0.0000  0.0000
  o =  0.9464  v =  0.0000  0.7071  0.0000  0.7071  0.0000  0.0000  0.0000  0.0000  0.0000  0.0000      0.0000  0.0000  0.0000  0.0000  0.0000  0.0000  0.0000  0.0000  0.0000  0.0000
  o =  0.9465  v =  0.0000  0.0000 -0.0000  0.0000 -1.0000  0.0000  0.0000  0.0000  0.0000  0.0000      0.0000  0.0000  0.0000  0.0000  0.0000  0.0000  0.0000  0.0000  0.0000  0.0000
  o =  0.9842  v =  0.0000  0.7071  0.0000 -0.7071  0.0000  0.0000  0.0000  0.0000  0.0000  0.0000      0.0000  0.0000  0.0000  0.0000  0.0000  0.0000  0.0000  0.0000  0.0000  0.0000
  o =  0.9879  v = -0.8029  0.0000  0.5961  0.0000 -0.0000  0.0000  0.0000  0.0000  0.0000  0.0000      0.0000  0.0000  0.0000  0.0000  0.0000  0.0000  0.0000  0.0000  0.0000  0.0000
     EDDAV:  cpu time    0.2027: real time    0.2027
       DOS:  cpu time    0.0002: real time    0.0002
    CHARGE:  cpu time    0.0160: real time    0.0160
    MIXING:  cpu time    0.0004: real time    0.0004
    --------------------------------------------
      LOOP:  cpu time    0.4414: real time    0.4414

 eigenvalue-minimisations  :  1356
 total energy-change (2. order) : 0.1471037E-04  (-0.1407823E-03)
 number of electron      54.0000015 magnetization      -0.0000000
 augmentation part       19.9472640 magnetization      -0.0000000

 Broyden mixing:
  rms(total) = 0.12303E-01    rms(broyden)= 0.12298E-01
  rms(prec ) = 0.13467E-01
  weight for this iteration     100.00

 eigenvalues of (default mixing * dielectric matrix)
  average eigenvalue GAMMA=   1.1229
  2.5300  1.3248  0.8196  0.8196  0.6353  0.6081

 Free energy of the ion-electron system (eV)
[...]
      1     -45.2891      1.00000
      2     -45.2605      1.00000
      3     -45.2256      1.00000
      4     -40.7196      1.00000
      5     -40.7030      1.00000
      6     -40.6589      1.00000
      7     -20.3294      1.00000
      8     -20.1546      1.00000
      9     -20.0965      1.00000
     10     -19.9746      1.00000
     11      -4.1277      1.00000
     12      -3.8037      1.00000
     13      -3.4303      1.00000
     14      -3.3179      1.00000
     15      -3.2585      1.00000
     16      -2.9316      1.00000
     17      -2.4120      1.00000
     18      -2.2546      1.00000
     19      -2.1545      1.00000
     20      -1.6201      1.00000
     21      -1.5030      1.00000
     22      -1.4649      1.00000
     23       0.6429      1.00000
     24       0.8537      1.00000
     25       1.1862      1.00000
     26       1.8043      1.00000
     27       2.2282      1.00000
     28       7.7132      0.00000
     29       7.7149      0.00000
     30       7.8076      0.00000
     31       8.7296      0.00000
     32       9.0146      0.00000
     33       9.7208      0.00000
     34      11.9324      0.00000
     35      13.4426      0.00000
     36      13.5276      0.00000

 k-point     8 :       0.3750    0.1250    0.4167
  band No.  band energies     occupation 
      1     -45.2892      1.00000
      2     -45.2606      1.00000
      3     -45.2258      1.00000
      4     -40.7198      1.00000
      5     -40.7030      1.00000
      6     -40.6591      1.00000
      7     -20.2495      1.00000
      8     -20.1690      1.00000
      9     -20.1215      1.00000
     10     -20.0177      1.00000
     11      -4.0157      1.00000
     12      -3.8711      1.00000
     13      -3.7985      1.00000
     14      -3.4569      1.00000
     15      -3.1759      1.00000
     16      -2.7553      1.00000
     17      -2.5530      1.00000
     18      -2.3809      1.00000
     19      -1.9231      1.00000
     20      -1.5808      1.00000
     21      -1.3737      1.00000
     22      -1.2428      1.00000
     23       0.6534      1.00000
     24       0.7757      1.00000
     25       1.0692      1.00000
     26       1.7474      1.00000
     27       2.4383      1.00000
     28       7.6946      0.00000
     29       7.7099      0.00000
     30       7.9359      0.00000
     31       8.6551      0.00000
     32       9.2497      0.00000
     33      10.2986      0.00000
     34      11.6469      0.00000
     35      12.3875      0.00000
     36      13.4216      0.00000

 k-point     9 :       0.3750    0.3750    0.4167
  band No.  band energies     occupation 
      1     -45.2894      1.00000
      2     -45.2606      1.00000
      3     -45.2259      1.00000
      4     -40.7199      1.00000
      5     -40.7031      1.00000
      6     -40.6593      1.00000
      7     -20.2151      1.00000
      8     -20.2105      1.00000
      9     -20.1222      1.00000
     10     -20.0051      1.00000
     11      -4.3083      1.00000
     12      -4.0496      1.00000
     13      -3.7712      1.00000
     14      -3.7375      1.00000
     15      -3.2113      1.00000
     16      -2.7038      1.00000
     17      -2.4212      1.00000
     18      -2.1278      1.00000
     19      -1.6851      1.00000
     20      -1.3927      1.00000
     21      -1.2739      1.00000
     22      -1.1640      1.00000
     23       0.6556      1.00000
     24       0.7664      1.00000
     25       1.0297      1.00000
     26       1.8003      1.00000
     27       2.3917      1.00000
     28       7.7076      0.00000
     29       7.7131      0.00000
     30       7.9722      0.00000
     31       8.6191      0.00000
     32       9.1265      0.00000
     33      10.8539      0.00000
     34      12.1462      0.00000
     35      12.4018      0.00000
     36      12.4384      0.00000


--------------------------------------------------------------------------------------------------------


 soft charge-density along one line, spin component           1
         0         1         2         3         4         5         6         7         8         9
 total charge-density along one line
 
 soft charge-density along one line, spin component           2
         0         1         2         3         4         5         6         7         8         9
 total charge-density along one line
 
 pseudopotential strength for first ion, spin component:           1
-41.424  -0.000  -0.038   7.687   0.000   0.015   0.000  -0.000
 -0.000 -41.399  -0.000   0.000   7.677   0.000  -0.000  -0.000
 -0.038  -0.000 -41.424   0.015   0.000   7.687  -0.000  -0.000
  7.687   0.000   0.015   5.410  -0.000  -0.006  -0.000   0.000
  0.000   7.677   0.000  -0.000   5.415  -0.000   0.000  -0.000
  0.015   0.000   7.687  -0.006  -0.000   5.410  -0.000   0.000
  0.000  -0.000  -0.000  -0.000   0.000  -0.000  -1.012  -0.000
 -0.000  -0.000  -0.000   0.000  -0.000   0.000  -0.000  -0.958
  0.000  -0.000   0.000   0.000   0.000   0.000  -0.085   0.000
 -0.000   0.000  -0.000   0.000   0.000   0.000  -0.000  -0.099
  0.000   0.000  -0.000   0.000  -0.000   0.000   0.000   0.000
  0.000  -0.000  -0.000  -0.000   0.000  -0.000  -1.462   0.000
 -0.000  -0.000  -0.000   0.000  -0.000   0.000   0.000  -1.407
  0.000  -0.000   0.000   0.000   0.000   0.000  -0.089   0.000
 -0.000   0.000  -0.000   0.000   0.000   0.000   0.000  -0.102
  0.000   0.000  -0.000   0.000  -0.000   0.000   0.000   0.000
 -0.000   0.000  -0.000  -0.000   0.000  -0.000   0.008   0.000
 -0.000   0.000  -0.000  -0.000   0.000  -0.000   0.015   0.000
 pseudopotential strength for first ion, spin component:           2
-44.485  -0.000  -0.029   9.169   0.000   0.010   0.000  -0.000
 -0.000 -44.467  -0.000   0.000   9.163   0.000  -0.000  -0.000
 -0.029  -0.000 -44.485   0.010   0.000   9.169  -0.000  -0.000
  9.169   0.000   0.010   4.917  -0.000  -0.003   0.000   0.000
  0.000   9.163   0.000  -0.000   4.919  -0.000   0.000  -0.000
  0.010   0.000   9.169  -0.003  -0.000   4.917  -0.000   0.000
  0.000  -0.000  -0.000   0.000   0.000  -0.000  -6.993   0.000
 -0.000  -0.000  -0.000   0.000  -0.000   0.000   0.000  -6.957
  0.000  -0.000   0.000   0.000   0.000   0.000  -0.061   0.000
 -0.000   0.000  -0.000   0.000   0.000   0.000   0.000  -0.082
  0.000   0.000  -0.000   0.000  -0.000  -0.000   0.000   0.000
  0.000  -0.000  -0.000   0.000   0.000  -0.000  -7.492   0.000
 -0.000  -0.000  -0.000   0.000  -0.000   0.000   0.000  -7.456
  0.000  -0.000   0.000   0.000   0.000   0.000  -0.064   0.000
 -0.000   0.000  -0.000   0.000   0.000   0.000   0.000  -0.084
  0.000   0.000  -0.000   0.000  -0.000  -0.000   0.000   0.000
 -0.000   0.000  -0.000  -0.000   0.000  -0.000   0.004   0.000
 -0.000   0.000  -0.000  -0.000   0.000  -0.000   0.008   0.000
 total augmentation occupancy for first ion, spin component:           1
  1.999   0.000  -0.000  -0.010   0.000   0.000   0.000   0.000   0.000   0.000   0.000   0.000   0.000   0.000   0.000   0.000
  0.000   1.999   0.000   0.000  -0.010   0.000   0.000   0.000   0.000   0.000   0.000   0.000   0.000   0.000   0.000   0.000
 -0.000   0.000   1.999   0.000   0.000  -0.010   0.000   0.000   0.000   0.000   0.000   0.000   0.000   0.000   0.000   0.000
 -0.010   0.000   0.000   0.108   0.000  -0.013   0.000   0.000   0.000   0.000   0.000   0.000   0.000   0.000   0.000   0.000
  0.000  -0.010   0.000   0.000   0.118   0.000   0.000   0.000   0.000   0.000   0.000   0.000   0.000   0.000   0.000   0.000
  0.000   0.000  -0.010  -0.013   0.000   0.108   0.000   0.000   0.000   0.000   0.000   0.000   0.000   0.000   0.000   0.000
  0.000   0.000   0.000   0.000   0.000   0.000   9.296   0.000   4.035   0.000   0.000  -7.384   0.000  -3.839   0.000   0.000
  0.000   0.000   0.000   0.000   0.000   0.000   0.000   7.488   0.000   3.278   0.000   0.000  -5.647   0.000  -3.099   0.000
  0.000   0.000   0.000   0.000   0.000   0.000   4.035   0.000   6.837   0.000  -0.000  -3.840   0.000  -5.061   0.000   0.000
  0.000   0.000   0.000   0.000   0.000   0.000   0.000   3.278   0.000   7.488   0.000   0.000  -3.099   0.000  -5.647   0.000
  0.000   0.000   0.000   0.000   0.000   0.000  -0.000   0.000  -0.000   0.000   4.068  -0.000   0.000   0.000   0.000  -2.382
  0.000   0.000   0.000   0.000   0.000   0.000  -7.384   0.000  -3.840   0.000  -0.000   6.646   0.000   3.693   0.000   0.000
  0.000   0.000   0.000   0.000   0.000   0.000   0.000  -5.647   0.000  -3.099   0.000   0.000   4.968   0.000   2.961   0.000
  0.000   0.000   0.000   0.000   0.000   0.000  -3.839   0.000  -5.061   0.000  -0.000   3.693   0.000   4.433   0.000   0.000
  0.000   0.000   0.000   0.000   0.000   0.000   0.000  -3.099   0.000  -5.647   0.000   0.000   2.961   0.000   4.968   0.000
  0.000   0.000   0.000   0.000   0.000   0.000   0.000   0.000   0.000   0.000  -2.382   0.000   0.000   0.000   0.000   1.816
  0.000   0.000   0.000   0.000   0.000   0.000   0.374   0.000  -0.220   0.000  -0.000  -0.409   0.000   0.227   0.000   0.000
  0.000   0.000   0.000   0.000   0.000   0.000  -0.017   0.000   0.031   0.000  -0.000   0.049   0.000  -0.041   0.000  -0.000
 total augmentation occupancy for first ion, spin component:           2
  0.004   0.000  -0.000   0.017   0.000  -0.000   0.000   0.000   0.000   0.000   0.000   0.000   0.000   0.000   0.000   0.000
  0.000   0.004   0.000   0.000   0.017   0.000   0.000   0.000   0.000   0.000   0.000   0.000   0.000   0.000   0.000   0.000
 -0.000   0.000   0.004  -0.000   0.000   0.017   0.000   0.000   0.000   0.000   0.000   0.000   0.000   0.000   0.000   0.000
  0.017   0.000  -0.000  -0.010   0.000  -0.000   0.000   0.000   0.000   0.000   0.000   0.000   0.000   0.000   0.000   0.000
  0.000   0.017   0.000   0.000  -0.009   0.000   0.000   0.000   0.000   0.000   0.000   0.000   0.000   0.000   0.000   0.000
 -0.000   0.000   0.017  -0.000   0.000  -0.010   0.000   0.000   0.000   0.000   0.000   0.000   0.000   0.000   0.000   0.000
  0.000   0.000   0.000   0.000   0.000   0.000  -6.020   0.000  -2.185   0.000  -0.000   3.639   0.000   1.732   0.000   0.000
  0.000   0.000   0.000   0.000   0.000   0.000   0.000  -5.049   0.000  -1.815   0.000   0.000   2.840   0.000   1.436   0.000
  0.000   0.000   0.000   0.000   0.000   0.000  -2.185   0.000  -4.600   0.000   0.000   1.732   0.000   2.500   0.000   0.000
  0.000   0.000   0.000   0.000   0.000   0.000   0.000  -1.815   0.000  -5.049   0.000   0.000   1.436   0.000   2.840   0.000
  0.000   0.000   0.000   0.000   0.000   0.000   0.000   0.000   0.000   0.000  -3.241  -0.000   0.000   0.000   0.000   1.410
  0.000   0.000   0.000   0.000   0.000   0.000   3.639   0.000   1.732   0.000   0.000  -2.355   0.000  -1.286   0.000  -0.000
  0.000   0.000   0.000   0.000   0.000   0.000   0.000   2.840   0.000   1.436   0.000   0.000  -1.729   0.000  -1.064   0.000
  0.000   0.000   0.000   0.000   0.000   0.000   1.732   0.000   2.500   0.000   0.000  -1.286   0.000  -1.493   0.000   0.000
  0.000   0.000   0.000   0.000   0.000   0.000   0.000   1.436   0.000   2.840   0.000   0.000  -1.064   0.000  -1.729   0.000
  0.000   0.000   0.000   0.000   0.000   0.000  -0.000   0.000   0.000   0.000   1.410  -0.000   0.000  -0.000   0.000  -0.672
  0.000   0.000   0.000   0.000   0.000   0.000  -0.004   0.000   0.020   0.000   0.000  -0.011   0.000  -0.000   0.000   0.000
  0.000   0.000   0.000   0.000   0.000   0.000  -0.058   0.000   0.007   0.000   0.000   0.035   0.000  -0.001   0.000  -0.000


------------------------ aborting loop because EDIFF is reached ----------------------------------------


 


 total charge     
 
# of ion       s       p       d       tot
------------------------------------------
    1        0.191   6.195   5.013  11.398
    2        0.196   6.189   5.020  11.405
    3        1.753   4.388   0.000   6.141
    4        1.753   4.388   0.000   6.141
    5        1.752   4.385   0.000   6.137
    6        1.752   4.385   0.000   6.137
--------------------------------------------------
tot          7.396  29.930  10.033  47.358
 


 magnetization (x)
 
# of ion       s       p       d       tot
------------------------------------------
    1       -0.014  -0.015  -4.584  -4.613
    2        0.014   0.014   4.581   4.609
    3        0.002   0.022   0.000   0.024
    4        0.002   0.022   0.000   0.024
    5       -0.003  -0.018   0.000  -0.021
    6       -0.003  -0.018   0.000  -0.021
--------------------------------------------------
tot         -0.001   0.007  -0.003   0.002
 
    CHARGE:  cpu time    0.0163: real time    0.0163
    FORLOC:  cpu time    0.0005: real time    0.0005
    FORNL :  cpu time    0.0813: real time    0.0813
    STRESS:  cpu time    0.2302: real time    0.2302
    FORCOR:  cpu time    0.0024: real time    0.0024
    FORHAR:  cpu time    0.0011: real time    0.0011
    MIXING:  cpu time    0.0003: real time    0.0003
    OFIELD:  cpu time    0.0000: real time    0.0000

  FORCE on cell =-STRESS in cart. coord.  units (eV):
  Direction    XX          YY          ZZ          XY          YZ          ZX
  --------------------------------------------------------------------------------------
  Alpha Z   215.80080   215.80080   215.80080
  Ewald   -1631.42343 -1631.42343 -1074.73644     0.00000     0.00000    -0.00000
  Hartree   562.33633   562.33633   932.73377    -0.00000    -0.00000    -0.00000
  E(xc)    -310.14397  -310.14397  -310.18836     0.00000     0.00000     0.00000
  Local     210.76588   210.76588  -709.04091     0.00000     0.00000    -0.00000
  n-local  -238.93810  -239.30446  -238.18483     0.04590     0.09567     0.10157
  augment   266.80764   266.80764   266.19030     0.00000    -0.00001    -0.00001
  Kinetic   924.62996   925.33370   917.42934    -0.54202    -1.01818    -1.07366
  Fock        0.00000     0.00000     0.00000     0.00000     0.00000     0.00000
  -------------------------------------------------------------------------------------
  Total       0.00381     0.00381     0.00367     0.00000     0.00000     0.00000
  in kB       0.08645     0.08645     0.08323     0.00000     0.00000     0.00000
  external pressure =        0.09 kB  Pullay stress =        0.00 kB


 VOLUME and BASIS-vectors are now :
 -----------------------------------------------------------------------------
  energy-cutoff  :      400.00
  volume of cell :       70.60
      direct lattice vectors                 reciprocal lattice vectors
     4.693170846  0.000000000  0.000000000     0.213075559 -0.000000000  0.000000000
     0.000000000  4.693170846  0.000000000    -0.000000000  0.213075559  0.000000000
     0.000000000  0.000000000  3.205386539     0.000000000  0.000000000  0.311974855

  length of vectors
     4.693170846  4.693170846  3.205386539     0.213075559  0.213075559  0.311974855


 FORCES acting on ions
    electron-ion (+dipol)            ewald-force                    non-local-force                 convergence-correction
 -----------------------------------------------------------------------------------------------
   0.363E-11 -.126E-11 -.338E-11   -.568E-13 0.000E+00 -.204E-15   0.977E-26 0.000E+00 0.000E+00   0.173E-12 -.104E-12 -.766E-13
   -.746E-13 -.445E-13 0.595E-12   -.568E-13 0.568E-13 -.420E-15   -.976E-26 0.000E+00 0.000E+00   0.162E-12 0.889E-13 0.113E-12
   -.315E+02 0.315E+02 0.255E-11   0.325E+02 -.325E+02 0.490E-14   -.955E+00 0.955E+00 0.434E-18   0.124E-03 -.124E-03 -.120E-12
   0.315E+02 -.315E+02 -.420E-11   -.325E+02 0.325E+02 0.557E-14   0.955E+00 -.955E+00 -.434E-18   -.124E-03 0.124E-03 -.498E-13
   0.315E+02 0.315E+02 0.211E-06   -.325E+02 -.325E+02 0.473E-14   0.955E+00 0.955E+00 0.434E-18   -.124E-03 -.124E-03 -.367E-11
   -.315E+02 -.315E+02 -.211E-06   0.325E+02 0.325E+02 0.454E-14   -.955E+00 -.955E+00 -.434E-18   0.124E-03 0.124E-03 0.383E-11
 -----------------------------------------------------------------------------------------------
   0.146E-11 -.991E-11 0.314E-11   -.711E-14 0.000E+00 0.191E-13   -.111E-15 0.111E-15 0.000E+00   0.382E-12 0.138E-12 0.257E-13
 
 
 POSITION                                       TOTAL-FORCE (eV/Angst)
 -----------------------------------------------------------------------------------
      2.34659      2.34659      1.60269         0.000000      0.000000      0.000000
      0.00000     -0.00000      0.00000         0.000000      0.000000      0.000000
      0.92131      3.77186      1.60269        -0.000011      0.000011      0.000000
      3.77186      0.92131      1.60269         0.000011     -0.000011      0.000000
      1.42528      1.42528      0.00000         0.000011      0.000011      0.000000
      3.26789      3.26789     -0.00000        -0.000011     -0.000011      0.000000
 -----------------------------------------------------------------------------------
    total drift:                                0.000000     -0.000000      0.000000


--------------------------------------------------------------------------------------------------------



  FREE ENERGIE OF THE ION-ELECTRON SYSTEM (eV)
  ---------------------------------------------------
  free  energy   TOTEN  =       -40.37037208 eV

  energy  without entropy=      -40.37037208  energy(sigma->0) =      -40.37037208
 
 d Force = 0.2057843E-04[ 0.716E-07, 0.411E-04]  d Energy = 0.1136599E-04 0.921E-05
 d Force =-0.2097228E+00[-0.210E+00,-0.209E+00]  d Ewald  = 0.2244293E+00-0.434E+00


--------------------------------------------------------------------------------------------------------


    POTLOK:  cpu time    0.2234: real time    0.2234


--------------------------------------------------------------------------------------------------------




--------------------------------------------------------------------------------------------------------


  
 reached required accuracy - stopping structural energy minimisation
     LOOP+:  cpu time    3.5031: real time    3.5031
    4ORBIT:  cpu time    0.0000: real time    0.0000
 


 total charge     
 
# of ion       s       p       d       tot
------------------------------------------
    1        0.191   6.195   5.013  11.398
    2        0.196   6.189   5.020  11.405
    3        1.753   4.388   0.000   6.141
    4        1.753   4.388   0.000   6.141
    5        1.752   4.385   0.000   6.137
    6        1.752   4.385   0.000   6.137
--------------------------------------------------
tot          7.396  29.930  10.033  47.358
 


 magnetization (x)
 
# of ion       s       p       d       tot
------------------------------------------
    1       -0.014  -0.015  -4.584  -4.613
    2        0.014   0.014   4.581   4.609
    3        0.002   0.022   0.000   0.024
    4        0.002   0.022   0.000   0.024
    5       -0.003  -0.018   0.000  -0.021
    6       -0.003  -0.018   0.000  -0.021
--------------------------------------------------
tot         -0.001   0.007  -0.003   0.002
 

 total amount of memory used by VASP MPI-rank0    37344. kBytes
=======================================================================

   base      :      30000. kBytes
   nonl-proj :       3677. kBytes
   fftplans  :        966. kBytes
   grid      :       1271. kBytes
   one-center:        186. kBytes
   wavefun   :       1244. kBytes
 
  
  
 General timing and accounting informations for this job:
 ========================================================
  
                  Total CPU time used (sec):       40.773
                            User time (sec):       30.416
                          System time (sec):       10.357
                         Elapsed time (sec):       40.850
  
                   Maximum memory used (kb):       51988.
                   Average memory used (kb):           0.
  
                          Minor page faults:         7932
                          Major page faults:            7
                 Voluntary context switches:          260
