       N       E                     dE             d eps       ncg     rms          rms(c)
DAV:   1     0.956586307270E+03    0.95659E+03   -0.37539E+04  7296   0.200E+03
DAV:   2     0.402720315894E+03   -0.55387E+03   -0.53010E+03  8412   0.509E+02
DAV:   3     0.369526429828E+03   -0.33194E+02   -0.32891E+02  8412   0.134E+02
DAV:   4     0.369126273507E+03   -0.40016E+00   -0.39990E+00  8292   0.160E+01
DAV:   5     0.369119455712E+03   -0.68178E-02   -0.68175E-02  8544   0.194E+00    0.588E+01
DAV:   6    -0.687960662725E+02   -0.43792E+03   -0.28329E+02  8760   0.213E+02    0.628E+01
DAV:   7    -0.714882337611E+02   -0.26922E+01   -0.50847E+01  7644   0.453E+01    0.172E+01
DAV:   8    -0.686482024976E+02    0.28400E+01   -0.71122E+00  8760   0.218E+01    0.656E+00
DAV:   9    -0.681653147589E+02    0.48289E+00   -0.48910E+00  8520   0.190E+01    0.812E+00
DAV:  10    -0.681040344256E+02    0.61280E-01   -0.42954E-01  7716   0.565E+00    0.589E+00
DAV:  11    -0.680754100106E+02    0.28624E-01   -0.10830E+00  8616   0.761E+00    0.196E+00
DAV:  12    -0.680375092758E+02    0.37901E-01   -0.10152E-01  8952   0.321E+00    0.127E+00
DAV:  13    -0.680293429092E+02    0.81664E-02   -0.72196E-02  8268   0.158E+00    0.107E+00
DAV:  14    -0.680243914857E+02    0.49514E-02   -0.51509E-02  7212   0.252E+00    0.410E-01
DAV:  15    -0.680252342505E+02   -0.84276E-03   -0.37965E-03  7944   0.428E-01    0.396E-01
DAV:  16    -0.680245549644E+02    0.67929E-03   -0.26275E-03  7620   0.361E-01    0.155E-01
DAV:  17    -0.680244412664E+02    0.11370E-03   -0.31712E-03  7920   0.399E-01    0.109E-01
DAV:  18    -0.680242455976E+02    0.19567E-03   -0.14842E-04  7392   0.905E-02    0.347E-02
DAV:  19    -0.680242484100E+02   -0.28124E-05   -0.10134E-04  8556   0.620E-02    0.592E-03
DAV:  20    -0.680242617118E+02   -0.13302E-04   -0.62177E-06  7992   0.168E-02    0.687E-03
DAV:  21    -0.680242657147E+02   -0.40029E-05   -0.12802E-06  4068   0.822E-03    0.335E-03
DAV:  22    -0.680242652625E+02    0.45226E-06   -0.81716E-07  3804   0.530E-03
   1 F= -.68024265E+02 E0= -.68024265E+02  d E =-.218633E-42  mag=     0.0000
