 vasp.5.4.4.18Apr17-6-g9f103f2a35 (build Apr 27 2017 11:13:10) complex          
  
 executed on           IFC91_ompi date 2020.05.13  12:53:49
 running on   12 total cores
 distrk:  each k-point on   12 cores,    1 groups
 distr:  one band on NCORES_PER_BAND=   1 cores,   12 groups


--------------------------------------------------------------------------------------------------------


 INCAR:
 POTCAR:    PAW_PBE Mn_pv 02Aug2007               
 POTCAR:    PAW_PBE F 08Apr2002                   

 ----------------------------------------------------------------------------- 
|                                                                             |
|           W    W    AA    RRRRR   N    N  II  N    N   GGGG   !!!           |
|           W    W   A  A   R    R  NN   N  II  NN   N  G    G  !!!           |
|           W    W  A    A  R    R  N N  N  II  N N  N  G       !!!           |
|           W WW W  AAAAAA  RRRRR   N  N N  II  N  N N  G  GGG   !            |
|           WW  WW  A    A  R   R   N   NN  II  N   NN  G    G                |
|           W    W  A    A  R    R  N    N  II  N    N   GGGG   !!!           |
|                                                                             |
|      For optimal performance we recommend to set                            |
|        NCORE= 4 - approx SQRT( number of cores)                             |
|      NCORE specifies how many cores store one orbital (NPAR=cpu/NCORE).     |
|      This setting can  greatly improve the performance of VASP for DFT.     |
|      The default,   NCORE=1            might be grossly inefficient         |
|      on modern multi-core architectures or massively parallel machines.     |
|      Do your own testing !!!!                                               |
|      Unfortunately you need to use the default for GW and RPA calculations. |
|      (for HF NCORE is supported but not extensively tested yet)             |
|                                                                             |
 ----------------------------------------------------------------------------- 

 POTCAR:    PAW_PBE Mn_pv 02Aug2007               
   VRHFIN =Mn: 3p4s3d                                                           
   LEXCH  = PE                                                                  
   EATOM  =  2025.2664 eV,  148.8529 Ry                                         
                                                                                
   TITEL  = PAW_PBE Mn_pv 02Aug2007                                             
   LULTRA =        F    use ultrasoft PP ?                                      
   IUNSCR =        1    unscreen: 0-lin 1-nonlin 2-no                           
   RPACOR =    2.080    partial core radius                                     
   POMASS =   54.938; ZVAL   =   13.000    mass and valenz                      
   RCORE  =    2.300    outmost cutoff radius                                   
   RWIGS  =    2.500; RWIGS  =    1.323    wigner-seitz radius (au A)           
   ENMAX  =  269.864; ENMIN  =  202.398 eV                                      
   ICORE  =        3    local potential                                         
   LCOR   =        T    correct aug charges                                     
   LPAW   =        T    paw PP                                                  
   EAUG   =  569.085                                                            
   DEXC   =    0.000                                                            
   RMAX   =    2.343    core radius for proj-oper                               
   RAUG   =    1.300    factor for augmentation sphere                          
   RDEP   =    2.338    radius for radial grids                                 
   RDEPT  =    1.798    core radius for aug-charge                              
                                                                                
   Atomic configuration                                                         
    8 entries                                                                   
     n  l   j            E        occ.                                          
     1  0  0.50     -6424.8287   2.0000                                         
     2  0  0.50      -739.1154   2.0000                                         
     2  1  1.50      -625.3949   6.0000                                         
     3  0  0.50       -81.6100   2.0000                                         
     3  1  1.50       -50.4667   6.0000                                         
     3  2  2.50        -3.3745   6.0000                                         
     4  0  0.50        -4.1331   1.0000                                         
     4  3  2.50        -1.3606   0.0000                                         
   Description                                                                  
     l       E           TYP  RCUT    TYP  RCUT                                 
     1    -50.4666628     23  2.000                                             
     1     -1.3605826     23  2.000                                             
     2     -3.3744729     23  2.300                                             
     2     -4.7350555     23  2.300                                             
     0     -4.1331431     23  2.300                                             
     0      7.6656591     23  2.300                                             
     3      9.5240782     23  2.300                                             
  local pseudopotential read in
  partial core-charges read in
  partial kinetic energy density read in
  atomic valenz-charges read in
  non local Contribution for L=           1  read in
    real space projection operators read in
  non local Contribution for L=           1  read in
    real space projection operators read in
  non local Contribution for L=           2  read in
    real space projection operators read in
  non local Contribution for L=           2  read in
    real space projection operators read in
  non local Contribution for L=           0  read in
    real space projection operators read in
  non local Contribution for L=           0  read in
    real space projection operators read in
    PAW grid and wavefunctions read in
 
   number of l-projection  operators is LMAX  =           6
   number of lm-projection operators is LMMAX =          18
 
 POTCAR:    PAW_PBE F 08Apr2002                   
   VRHFIN =F: s2p5                                                              
   LEXCH  = PE                                                                  
   EATOM  =   659.6475 eV,   48.4827 Ry                                         
                                                                                
   TITEL  = PAW_PBE F 08Apr2002                                                 
   LULTRA =        F    use ultrasoft PP ?                                      
   IUNSCR =        1    unscreen: 0-lin 1-nonlin 2-no                           
   RPACOR =    1.200    partial core radius                                     
   POMASS =   18.998; ZVAL   =    7.000    mass and valenz                      
   RCORE  =    1.520    outmost cutoff radius                                   
   RWIGS  =    1.500; RWIGS  =    0.794    wigner-seitz radius (au A)           
   ENMAX  =  400.000; ENMIN  =  300.000 eV                                      
   ICORE  =        2    local potential                                         
   LCOR   =        T    correct aug charges                                     
   LPAW   =        T    paw PP                                                  
   EAUG   =  613.614                                                            
   RMAX   =    1.555    core radius for proj-oper                               
   RAUG   =    1.300    factor for augmentation sphere                          
   RDEP   =    1.539    radius for radial grids                                 
   RDEPT  =    1.299    core radius for aug-charge                              
                                                                                
   Atomic configuration                                                         
    4 entries                                                                   
     n  l   j            E        occ.                                          
     1  0  0.50      -663.3661   2.0000                                         
     2  0  0.50       -29.8995   2.0000                                         
     2  1  0.50       -11.1114   5.0000                                         
     3  2  1.50       -10.8847   0.0000                                         
   Description                                                                  
     l       E           TYP  RCUT    TYP  RCUT                                 
     0    -29.8995018     23  1.200                                             
     0     -9.5240782     23  1.200                                             
     1    -11.1113914     23  1.520                                             
     1      1.3605826     23  1.520                                             
     2    -10.8846608      7  1.500                                             
  local pseudopotential read in
  partial core-charges read in
  partial kinetic energy density read in
  atomic valenz-charges read in
  non local Contribution for L=           0  read in
    real space projection operators read in
  non local Contribution for L=           0  read in
    real space projection operators read in
  non local Contribution for L=           1  read in
    real space projection operators read in
  non local Contribution for L=           1  read in
    real space projection operators read in
    PAW grid and wavefunctions read in
 
   number of l-projection  operators is LMAX  =           4
   number of lm-projection operators is LMMAX =           8
 
  PAW_PBE Mn_pv 02Aug2007               :
 energy of atom  1       EATOM=-2025.2664
 kinetic energy error for atom=    0.0047 (will be added to EATOM!!)
  PAW_PBE F 08Apr2002                   :
 energy of atom  2       EATOM= -659.6475
 kinetic energy error for atom=    0.0256 (will be added to EATOM!!)
 
 
 POSCAR: Mn  F                                   
  positions in cartesian coordinates
  No initial velocities read in

 METAGGA = SCAN     LMAXTAU =  6    LMIXTAU =  F

 exchange correlation table for  LEXCH =        8
   RHO(1)=    0.500       N(1)  =     2000
   RHO(2)=  100.500       N(2)  =     4000
 


--------------------------------------------------------------------------------------------------------


 ion  position               nearest neighbor table
   1  0.500  0.500  0.500-   3 2.09   4 2.09   5 2.12   6 2.12   5 2.12   6 2.12
   2  0.000  0.000  0.000-   5 2.09   6 2.09   3 2.12   4 2.12   3 2.12   4 2.12
   3  0.196  0.804  0.500-   1 2.09   2 2.12   2 2.12
   4  0.804  0.196  0.500-   1 2.09   2 2.12   2 2.12
   5  0.304  0.304  0.000-   2 2.09   1 2.12   1 2.12
   6  0.696  0.696  0.000-   2 2.09   1 2.12   1 2.12
 
  LATTYP: Found a simple tetragonal cell.
 ALAT       =     4.8525685001
 C/A-ratio  =     0.6775817662
  
  Lattice vectors:
  
 A1 = (   4.8525685001,   0.0000000000,   0.0000000000)
 A2 = (   0.0000000000,   4.8525685001,   0.0000000000)
 A3 = (   0.0000000000,   0.0000000000,   3.2880119349)


Analysis of symmetry for initial positions (statically):
=====================================================================
 Subroutine PRICEL returns:
 Original cell was already a primitive cell.
 

 Routine SETGRP: Setting up the symmetry group for a 
 simple tetragonal supercell.


 Subroutine GETGRP returns: Found 16 space group operations
 (whereof  8 operations were pure point group operations)
 out of a pool of 16 trial point group operations.


The static configuration has the point symmetry D_2h.
 The point group associated with its full space group is D_4h.


Analysis of symmetry for dynamics (positions and initial velocities):
=====================================================================
 Subroutine PRICEL returns:
 Original cell was already a primitive cell.
 

 Routine SETGRP: Setting up the symmetry group for a 
 simple tetragonal supercell.


 Subroutine GETGRP returns: Found 16 space group operations
 (whereof  8 operations were pure point group operations)
 out of a pool of 16 trial point group operations.


The dynamic configuration has the point symmetry D_2h.
 The point group associated with its full space group is D_4h.


Analysis of structural, dynamic, and magnetic symmetry:
=====================================================================
 Subroutine PRICEL returns:
 Original cell was already a primitive cell.
 

 Routine SETGRP: Setting up the symmetry group for a 
 simple tetragonal supercell.


 Subroutine GETGRP returns: Found 16 space group operations
 (whereof  8 operations were pure point group operations)
 out of a pool of 16 trial point group operations.


The magnetic configuration has the point symmetry D_2h.
 The point group associated with its full space group is D_4h.


 Subroutine INISYM returns: Found 16 space group operations
 (whereof  8 operations are pure point group operations),
 and found     1 'primitive' translations

 
 
 KPOINTS: KPOINTS created by Atomic Simulation Env

Automatic generation of k-mesh.
Space group operators:
 irot       det(A)        alpha          n_x          n_y          n_z        tau_x        tau_y        tau_z
    1     1.000000     0.000000     1.000000     0.000000     0.000000     0.000000     0.000000     0.000000
    2    -1.000000     0.000000     1.000000     0.000000     0.000000     0.000000     0.000000     0.000000
    3     1.000000   180.000000     0.000000     0.000000     1.000000     0.000000     0.000000     0.000000
    4    -1.000000   180.000000     0.000000     0.000000     1.000000     0.000000     0.000000     0.000000
    5     1.000000   180.000000     0.707107     0.707107     0.000000     0.000000     0.000000     0.000000
    6    -1.000000   180.000000     0.707107     0.707107     0.000000     0.000000     0.000000     0.000000
    7     1.000000   180.000000     0.707107    -0.707107     0.000000     0.000000     0.000000     0.000000
    8    -1.000000   180.000000     0.707107    -0.707107     0.000000     0.000000     0.000000     0.000000
    9     1.000000    90.000000     0.000000     0.000000    -1.000000     0.500000     0.500000     0.500000
   10    -1.000000    90.000000     0.000000     0.000000    -1.000000     0.500000     0.500000     0.500000
   11     1.000000    90.000000     0.000000     0.000000     1.000000     0.500000     0.500000     0.500000
   12    -1.000000    90.000000     0.000000     0.000000     1.000000     0.500000     0.500000     0.500000
   13     1.000000   180.000000     0.000000     1.000000     0.000000     0.500000     0.500000     0.500000
   14    -1.000000   180.000000     0.000000     1.000000     0.000000     0.500000     0.500000     0.500000
   15     1.000000   180.000000     1.000000     0.000000     0.000000     0.500000     0.500000     0.500000
   16    -1.000000   180.000000     1.000000     0.000000     0.000000     0.500000     0.500000     0.500000
 
 Subroutine IBZKPT returns following result:
 ===========================================
 
 Found     50 irreducible k-points:
 
 Following reciprocal coordinates:
            Coordinates               Weight
  0.000000  0.000000  0.050000      2.000000
  0.142857  0.000000  0.050000      8.000000
  0.285714  0.000000  0.050000      8.000000
  0.428571  0.000000  0.050000      8.000000
  0.142857  0.142857  0.050000      8.000000
  0.285714  0.142857  0.050000     16.000000
  0.428571  0.142857  0.050000     16.000000
  0.285714  0.285714  0.050000      8.000000
  0.428571  0.285714  0.050000     16.000000
  0.428571  0.428571  0.050000      8.000000
  0.000000  0.000000  0.150000      2.000000
  0.142857  0.000000  0.150000      8.000000
  0.285714  0.000000  0.150000      8.000000
  0.428571  0.000000  0.150000      8.000000
  0.142857  0.142857  0.150000      8.000000
  0.285714  0.142857  0.150000     16.000000
  0.428571  0.142857  0.150000     16.000000
  0.285714  0.285714  0.150000      8.000000
  0.428571  0.285714  0.150000     16.000000
  0.428571  0.428571  0.150000      8.000000
  0.000000  0.000000  0.250000      2.000000
  0.142857  0.000000  0.250000      8.000000
  0.285714  0.000000  0.250000      8.000000
  0.428571  0.000000  0.250000      8.000000
  0.142857  0.142857  0.250000      8.000000
  0.285714  0.142857  0.250000     16.000000
  0.428571  0.142857  0.250000     16.000000
  0.285714  0.285714  0.250000      8.000000
  0.428571  0.285714  0.250000     16.000000
  0.428571  0.428571  0.250000      8.000000
  0.000000  0.000000  0.350000      2.000000
  0.142857  0.000000  0.350000      8.000000
  0.285714  0.000000  0.350000      8.000000
  0.428571  0.000000  0.350000      8.000000
  0.142857  0.142857  0.350000      8.000000
  0.285714  0.142857  0.350000     16.000000
  0.428571  0.142857  0.350000     16.000000
  0.285714  0.285714  0.350000      8.000000
  0.428571  0.285714  0.350000     16.000000
  0.428571  0.428571  0.350000      8.000000
  0.000000  0.000000  0.450000      2.000000
  0.142857  0.000000  0.450000      8.000000
  0.285714  0.000000  0.450000      8.000000
  0.428571  0.000000  0.450000      8.000000
  0.142857  0.142857  0.450000      8.000000
  0.285714  0.142857  0.450000     16.000000
  0.428571  0.142857  0.450000     16.000000
  0.285714  0.285714  0.450000      8.000000
  0.428571  0.285714  0.450000     16.000000
  0.428571  0.428571  0.450000      8.000000
 
 Following cartesian coordinates:
            Coordinates               Weight
  0.000000  0.000000  0.015207      2.000000
  0.029439  0.000000  0.015207      8.000000
  0.058879  0.000000  0.015207      8.000000
  0.088318  0.000000  0.015207      8.000000
  0.029439  0.029439  0.015207      8.000000
  0.058879  0.029439  0.015207     16.000000
  0.088318  0.029439  0.015207     16.000000
  0.058879  0.058879  0.015207      8.000000
  0.088318  0.058879  0.015207     16.000000
  0.088318  0.088318  0.015207      8.000000
  0.000000  0.000000  0.045620      2.000000
  0.029439  0.000000  0.045620      8.000000
  0.058879  0.000000  0.045620      8.000000
  0.088318  0.000000  0.045620      8.000000
  0.029439  0.029439  0.045620      8.000000
  0.058879  0.029439  0.045620     16.000000
  0.088318  0.029439  0.045620     16.000000
  0.058879  0.058879  0.045620      8.000000
  0.088318  0.058879  0.045620     16.000000
  0.088318  0.088318  0.045620      8.000000
  0.000000  0.000000  0.076034      2.000000
  0.029439  0.000000  0.076034      8.000000
  0.058879  0.000000  0.076034      8.000000
  0.088318  0.000000  0.076034      8.000000
  0.029439  0.029439  0.076034      8.000000
  0.058879  0.029439  0.076034     16.000000
  0.088318  0.029439  0.076034     16.000000
  0.058879  0.058879  0.076034      8.000000
  0.088318  0.058879  0.076034     16.000000
  0.088318  0.088318  0.076034      8.000000
  0.000000  0.000000  0.106447      2.000000
  0.029439  0.000000  0.106447      8.000000
  0.058879  0.000000  0.106447      8.000000
  0.088318  0.000000  0.106447      8.000000
  0.029439  0.029439  0.106447      8.000000
  0.058879  0.029439  0.106447     16.000000
  0.088318  0.029439  0.106447     16.000000
  0.058879  0.058879  0.106447      8.000000
  0.088318  0.058879  0.106447     16.000000
  0.088318  0.088318  0.106447      8.000000
  0.000000  0.000000  0.136861      2.000000
  0.029439  0.000000  0.136861      8.000000
  0.058879  0.000000  0.136861      8.000000
  0.088318  0.000000  0.136861      8.000000
  0.029439  0.029439  0.136861      8.000000
  0.058879  0.029439  0.136861     16.000000
  0.088318  0.029439  0.136861     16.000000
  0.058879  0.058879  0.136861      8.000000
  0.088318  0.058879  0.136861     16.000000
  0.088318  0.088318  0.136861      8.000000
 


--------------------------------------------------------------------------------------------------------




 Dimension of arrays:
   k-points           NKPTS =     50   k-points in BZ     NKDIM =     50   number of bands    NBANDS=     36
   number of dos      NEDOS =    301   number of ions     NIONS =      6
   non local maximal  LDIM  =      6   non local SUM 2l+1 LMDIM =     18
   total plane-waves  NPLWV =  18000
   max r-space proj   IRMAX =      1   max aug-charges    IRDMAX=  56627
   dimension x,y,z NGX =    30 NGY =   30 NGZ =   20
   dimension x,y,z NGXF=    60 NGYF=   60 NGZF=   40
   support grid    NGXF=   120 NGYF=  120 NGZF=   80
   ions per type =               2   4
   NGX,Y,Z   is equivalent  to a cutoff of  10.28, 10.28, 10.11 a.u.
   NGXF,Y,Z  is equivalent  to a cutoff of  20.56, 20.56, 20.22 a.u.

 SYSTEM =  unknown system                          
 POSCAR =  Mn  F                                   

 Startparameter for this run:
   NWRITE =      2    write-flag & timer
   PREC   = normal    normal or accurate (medium, high low for compatibility)
   ISTART =      0    job   : 0-new  1-cont  2-samecut
   ICHARG =      2    charge: 1-file 2-atom 10-const
   ISPIN  =      2    spin polarized calculation?
   LNONCOLLINEAR =      F non collinear calculations
   LSORBIT =      F    spin-orbit coupling
   INIWAV =      1    electr: 0-lowe 1-rand  2-diag
   LASPH  =      T    aspherical Exc in radial PAW
   METAGGA=      F    non-selfconsistent MetaGGA calc.

 Electronic Relaxation 1
   ENCUT  =  600.0 eV  44.10 Ry    6.64 a.u.   9.69  9.69  6.57*2*pi/ulx,y,z
   ENINI  =  600.0     initial cutoff
   ENAUG  =  613.6 eV  augmentation charge cutoff
   NELM   =     60;   NELMIN=  2; NELMDL= -5     # of ELM steps 
   EDIFF  = 0.1E-05   stopping-criterion for ELM
   LREAL  =      F    real-space projection
   NLSPLINE    = F    spline interpolate recip. space projectors
   LCOMPAT=      F    compatible to vasp.4.4
   GGA_COMPAT  = T    GGA compatible to vasp.4.4-vasp.4.6
   LMAXPAW     = -100 max onsite density
   LMAXMIX     =    4 max onsite mixed and CHGCAR
   VOSKOWN=      0    Vosko Wilk Nusair interpolation
   ROPT   =    0.00000   0.00000
 Ionic relaxation
   EDIFFG = 0.1E-04   stopping-criterion for IOM
   NSW    =      0    number of steps for IOM
   NBLOCK =      1;   KBLOCK =      1    inner block; outer block 
   IBRION =     -1    ionic relax: 0-MD 1-quasi-New 2-CG
   NFREE  =      0    steps in history (QN), initial steepest desc. (CG)
   ISIF   =      2    stress and relaxation
   IWAVPR =     10    prediction:  0-non 1-charg 2-wave 3-comb
   ISYM   =      2    0-nonsym 1-usesym 2-fastsym
   LCORR  =      T    Harris-Foulkes like correction to forces

   POTIM  = 0.5000    time-step for ionic-motion
   TEIN   =    0.0    initial temperature
   TEBEG  =    0.0;   TEEND  =   0.0 temperature during run
   SMASS  =  -3.00    Nose mass-parameter (am)
   estimated Nose-frequenzy (Omega)   =  0.10E-29 period in steps =****** mass=  -0.538E-27a.u.
   SCALEE = 1.0000    scale energy and forces
   NPACO  =    256;   APACO  = 16.0  distance and # of slots for P.C.
   PSTRESS=    0.0 pullay stress

  Mass of Ions in am
   POMASS =  54.94 19.00
  Ionic Valenz
   ZVAL   =  13.00  7.00
  Atomic Wigner-Seitz radii
   RWIGS  =  -1.00 -1.00
  virtual crystal weights 
   VCA    =   1.00  1.00
   NELECT =      54.0000    total number of electrons
   NUPDOWN=      -1.0000    fix difference up-down

 DOS related values:
   EMIN   =  10.00;   EMAX   =-10.00  energy-range for DOS
   EFERMI =   0.00
   ISMEAR =     0;   SIGMA  =   0.01  broadening in eV -4-tet -1-fermi 0-gaus

 Electronic relaxation 2 (details)
   IALGO  =     38    algorithm
   LDIAG  =      T    sub-space diagonalisation (order eigenvalues)
   LSUBROT=      F    optimize rotation matrix (better conditioning)
   TURBO    =      0    0=normal 1=particle mesh
   IRESTART =      0    0=no restart 2=restart with 2 vectors
   NREBOOT  =      0    no. of reboots
   NMIN     =      0    reboot dimension
   EREF     =   0.00    reference energy to select bands
   IMIX   =      4    mixing-type and parameters
     AMIX     =   0.40;   BMIX     =  1.00
     AMIX_MAG =   1.60;   BMIX_MAG =  1.00
     AMIN     =   0.10
     WC   =   100.;   INIMIX=   1;  MIXPRE=   1;  MAXMIX= -45

 Intra band minimization:
   WEIMIN = 0.0000     energy-eigenvalue tresh-hold
   EBREAK =  0.69E-08  absolut break condition
   DEPER  =   0.30     relativ break condition  

   TIME   =   0.40     timestep for ELM

  volume/ion in A,a.u.               =      12.90        87.08
  Fermi-wavevector in a.u.,A,eV,Ry     =   1.451824  2.743549 28.678246  2.107792
  Thomas-Fermi vector in A             =   2.569276
 
 Write flags
   LWAVE        =      T    write WAVECAR
   LDOWNSAMPLE  =      F    k-point downsampling of WAVECAR
   LCHARG       =      T    write CHGCAR
   LVTOT        =      F    write LOCPOT, total local potential
   LVHAR        =      F    write LOCPOT, Hartree potential only
   LELF         =      F    write electronic localiz. function (ELF)
   LORBIT       =     11    0 simple, 1 ext, 2 COOP (PROOUT), +10 PAW based schemes


 Dipole corrections
   LMONO  =      F    monopole corrections only (constant potential shift)
   LDIPOL =      F    correct potential (dipole corrections)
   IDIPOL =      0    1-x, 2-y, 3-z, 4-all directions 
   EPSILON=  1.0000000 bulk dielectric constant

 LDA+U is selected, type is set to LDAUTYPE =  2
   angular momentum for each species LDAUL =     2   -1
   U (eV)           for each species LDAUU =   0.0  0.0
   J (eV)           for each species LDAUJ =   0.0  0.0
 Exchange correlation treatment:
   GGA     =    --    GGA type
   LEXCH   =     8    internal setting for exchange type
   VOSKOWN=      0    Vosko Wilk Nusair interpolation
   LHFCALC =     F    Hartree Fock is set to
   LHFONE  =     F    Hartree Fock one center treatment
   AEXX    =    0.0000 exact exchange contribution

 Linear response parameters
   LEPSILON=     F    determine dielectric tensor
   LRPA    =     F    only Hartree local field effects (RPA)
   LNABLA  =     F    use nabla operator in PAW spheres
   LVEL    =     F    velocity operator in full k-point grid
   LINTERFAST=   F  fast interpolation
   KINTER  =     0    interpolate to denser k-point grid
   CSHIFT  =0.1000    complex shift for real part using Kramers Kronig
   OMEGAMAX=  -1.0    maximum frequency
   DEG_THRESHOLD= 0.2000000E-02 threshold for treating states as degnerate
   RTIME   =   -0.100 relaxation time in fs
  (WPLASMAI=    0.000 imaginary part of plasma frequency in eV, 0.658/RTIME)
   DFIELD  = 0.0000000 0.0000000 0.0000000 field for delta impulse in time
 
 Orbital magnetization related:
   ORBITALMAG=     F  switch on orbital magnetization
   LCHIMAG   =     F  perturbation theory with respect to B field
   DQ        =  0.001000  dq finite difference perturbation B field
   LLRAUG    =     F  two centre corrections for induced B field



--------------------------------------------------------------------------------------------------------


 Static calculation
 charge density and potential will be updated during run
 spin polarized calculation
 Variant of blocked Davidson
 Davidson routine will perform the subspace rotation
 perform sub-space diagonalisation
    after iterative eigenvector-optimisation
 modified Broyden-mixing scheme, WC =      100.0
 initial mixing is a Kerker type mixing with AMIX =  0.4000 and BMIX =      1.0000
 Hartree-type preconditioning will be used
 using additional bands            9
 reciprocal scheme for non local part
 use partial core corrections
 calculate Harris-corrections to forces 
   (improved forces if not selfconsistent)
 use gradient corrections 
 use of overlap-Matrix (Vanderbilt PP)
 Gauss-broadening in eV      SIGMA  =   0.01


--------------------------------------------------------------------------------------------------------


  energy-cutoff  :      600.00
  volume of cell :       77.42
      direct lattice vectors                 reciprocal lattice vectors
     4.852568500  0.000000000  0.000000000     0.206076431  0.000000000  0.000000000
     0.000000000  4.852568500  0.000000000     0.000000000  0.206076431  0.000000000
     0.000000000  0.000000000  3.288011935     0.000000000  0.000000000  0.304135149

  length of vectors
     4.852568500  4.852568500  3.288011935     0.206076431  0.206076431  0.304135149


 
 k-points in units of 2pi/SCALE and weight: KPOINTS created by Atomic Simulation Env
   0.00000000  0.00000000  0.01520676       0.004
   0.02943949  0.00000000  0.01520676       0.016
   0.05887898  0.00000000  0.01520676       0.016
   0.08831847  0.00000000  0.01520676       0.016
   0.02943949  0.02943949  0.01520676       0.016
   0.05887898  0.02943949  0.01520676       0.033
   0.08831847  0.02943949  0.01520676       0.033
   0.05887898  0.05887898  0.01520676       0.016
   0.08831847  0.05887898  0.01520676       0.033
   0.08831847  0.08831847  0.01520676       0.016
   0.00000000  0.00000000  0.04562027       0.004
   0.02943949  0.00000000  0.04562027       0.016
   0.05887898  0.00000000  0.04562027       0.016
   0.08831847  0.00000000  0.04562027       0.016
   0.02943949  0.02943949  0.04562027       0.016
   0.05887898  0.02943949  0.04562027       0.033
   0.08831847  0.02943949  0.04562027       0.033
   0.05887898  0.05887898  0.04562027       0.016
   0.08831847  0.05887898  0.04562027       0.033
   0.08831847  0.08831847  0.04562027       0.016
   0.00000000  0.00000000  0.07603379       0.004
   0.02943949  0.00000000  0.07603379       0.016
   0.05887898  0.00000000  0.07603379       0.016
   0.08831847  0.00000000  0.07603379       0.016
   0.02943949  0.02943949  0.07603379       0.016
   0.05887898  0.02943949  0.07603379       0.033
   0.08831847  0.02943949  0.07603379       0.033
   0.05887898  0.05887898  0.07603379       0.016
   0.08831847  0.05887898  0.07603379       0.033
   0.08831847  0.08831847  0.07603379       0.016
   0.00000000  0.00000000  0.10644730       0.004
   0.02943949  0.00000000  0.10644730       0.016
   0.05887898  0.00000000  0.10644730       0.016
   0.08831847  0.00000000  0.10644730       0.016
   0.02943949  0.02943949  0.10644730       0.016
   0.05887898  0.02943949  0.10644730       0.033
   0.08831847  0.02943949  0.10644730       0.033
   0.05887898  0.05887898  0.10644730       0.016
   0.08831847  0.05887898  0.10644730       0.033
   0.08831847  0.08831847  0.10644730       0.016
   0.00000000  0.00000000  0.13686082       0.004
   0.02943949  0.00000000  0.13686082       0.016
   0.05887898  0.00000000  0.13686082       0.016
   0.08831847  0.00000000  0.13686082       0.016
   0.02943949  0.02943949  0.13686082       0.016
   0.05887898  0.02943949  0.13686082       0.033
   0.08831847  0.02943949  0.13686082       0.033
   0.05887898  0.05887898  0.13686082       0.016
   0.08831847  0.05887898  0.13686082       0.033
   0.08831847  0.08831847  0.13686082       0.016
 
 k-points in reciprocal lattice and weights: KPOINTS created by Atomic Simulation Env
   0.00000000  0.00000000  0.05000000       0.004
   0.14285714  0.00000000  0.05000000       0.016
   0.28571429  0.00000000  0.05000000       0.016
   0.42857143  0.00000000  0.05000000       0.016
   0.14285714  0.14285714  0.05000000       0.016
   0.28571429  0.14285714  0.05000000       0.033
   0.42857143  0.14285714  0.05000000       0.033
   0.28571429  0.28571429  0.05000000       0.016
   0.42857143  0.28571429  0.05000000       0.033
   0.42857143  0.42857143  0.05000000       0.016
   0.00000000  0.00000000  0.15000000       0.004
   0.14285714  0.00000000  0.15000000       0.016
   0.28571429  0.00000000  0.15000000       0.016
   0.42857143  0.00000000  0.15000000       0.016
   0.14285714  0.14285714  0.15000000       0.016
   0.28571429  0.14285714  0.15000000       0.033
   0.42857143  0.14285714  0.15000000       0.033
   0.28571429  0.28571429  0.15000000       0.016
   0.42857143  0.28571429  0.15000000       0.033
   0.42857143  0.42857143  0.15000000       0.016
   0.00000000  0.00000000  0.25000000       0.004
   0.14285714  0.00000000  0.25000000       0.016
   0.28571429  0.00000000  0.25000000       0.016
   0.42857143  0.00000000  0.25000000       0.016
   0.14285714  0.14285714  0.25000000       0.016
   0.28571429  0.14285714  0.25000000       0.033
   0.42857143  0.14285714  0.25000000       0.033
   0.28571429  0.28571429  0.25000000       0.016
   0.42857143  0.28571429  0.25000000       0.033
   0.42857143  0.42857143  0.25000000       0.016
   0.00000000  0.00000000  0.35000000       0.004
   0.14285714  0.00000000  0.35000000       0.016
   0.28571429  0.00000000  0.35000000       0.016
   0.42857143  0.00000000  0.35000000       0.016
   0.14285714  0.14285714  0.35000000       0.016
   0.28571429  0.14285714  0.35000000       0.033
   0.42857143  0.14285714  0.35000000       0.033
   0.28571429  0.28571429  0.35000000       0.016
   0.42857143  0.28571429  0.35000000       0.033
   0.42857143  0.42857143  0.35000000       0.016
   0.00000000  0.00000000  0.45000000       0.004
   0.14285714  0.00000000  0.45000000       0.016
   0.28571429  0.00000000  0.45000000       0.016
   0.42857143  0.00000000  0.45000000       0.016
   0.14285714  0.14285714  0.45000000       0.016
   0.28571429  0.14285714  0.45000000       0.033
   0.42857143  0.14285714  0.45000000       0.033
   0.28571429  0.28571429  0.45000000       0.016
   0.42857143  0.28571429  0.45000000       0.033
   0.42857143  0.42857143  0.45000000       0.016
 
 position of ions in fractional coordinates (direct lattice) 
   0.50000000  0.50000000  0.50000000
   0.00000000  0.00000000  0.00000000
   0.19609954  0.80390046  0.50000000
   0.80390046  0.19609954  0.50000000
   0.30390046  0.30390046  0.00000000
   0.69609954  0.69609954  0.00000000
 
 position of ions in cartesian coordinates  (Angst):
   2.42628425  2.42628425  1.64400597
   0.00000000  0.00000000  0.00000000
   0.95158645  3.90098205  1.64400597
   3.90098205  0.95158645  1.64400597
   1.47469780  1.47469780  0.00000000
   3.37787070  3.37787070  0.00000000
 


--------------------------------------------------------------------------------------------------------


 k-point  1 :   0.0000 0.0000 0.0500  plane waves:    2605
 k-point  2 :   0.1429 0.0000 0.0500  plane waves:    2596
 k-point  3 :   0.2857 0.0000 0.0500  plane waves:    2589
 k-point  4 :   0.4286 0.0000 0.0500  plane waves:    2599
 k-point  5 :   0.1429 0.1429 0.0500  plane waves:    2588
 k-point  6 :   0.2857 0.1429 0.0500  plane waves:    2584
 k-point  7 :   0.4286 0.1429 0.0500  plane waves:    2600
 k-point  8 :   0.2857 0.2857 0.0500  plane waves:    2579
 k-point  9 :   0.4286 0.2857 0.0500  plane waves:    2585
 k-point 10 :   0.4286 0.4286 0.0500  plane waves:    2590
 k-point 11 :   0.0000 0.0000 0.1500  plane waves:    2601
 k-point 12 :   0.1429 0.0000 0.1500  plane waves:    2598
 k-point 13 :   0.2857 0.0000 0.1500  plane waves:    2589
 k-point 14 :   0.4286 0.0000 0.1500  plane waves:    2592
 k-point 15 :   0.1429 0.1429 0.1500  plane waves:    2595
 k-point 16 :   0.2857 0.1429 0.1500  plane waves:    2591
 k-point 17 :   0.4286 0.1429 0.1500  plane waves:    2586
 k-point 18 :   0.2857 0.2857 0.1500  plane waves:    2594
 k-point 19 :   0.4286 0.2857 0.1500  plane waves:    2584
 k-point 20 :   0.4286 0.4286 0.1500  plane waves:    2582
 k-point 21 :   0.0000 0.0000 0.2500  plane waves:    2581
 k-point 22 :   0.1429 0.0000 0.2500  plane waves:    2590
 k-point 23 :   0.2857 0.0000 0.2500  plane waves:    2586
 k-point 24 :   0.4286 0.0000 0.2500  plane waves:    2583
 k-point 25 :   0.1429 0.1429 0.2500  plane waves:    2584
 k-point 26 :   0.2857 0.1429 0.2500  plane waves:    2583
 k-point 27 :   0.4286 0.1429 0.2500  plane waves:    2582
 k-point 28 :   0.2857 0.2857 0.2500  plane waves:    2584
 k-point 29 :   0.4286 0.2857 0.2500  plane waves:    2581
 k-point 30 :   0.4286 0.4286 0.2500  plane waves:    2595
 k-point 31 :   0.0000 0.0000 0.3500  plane waves:    2561
 k-point 32 :   0.1429 0.0000 0.3500  plane waves:    2583
 k-point 33 :   0.2857 0.0000 0.3500  plane waves:    2581
 k-point 34 :   0.4286 0.0000 0.3500  plane waves:    2580
 k-point 35 :   0.1429 0.1429 0.3500  plane waves:    2580
 k-point 36 :   0.2857 0.1429 0.3500  plane waves:    2580
 k-point 37 :   0.4286 0.1429 0.3500  plane waves:    2580
 k-point 38 :   0.2857 0.2857 0.3500  plane waves:    2587
 k-point 39 :   0.4286 0.2857 0.3500  plane waves:    2583
 k-point 40 :   0.4286 0.4286 0.3500  plane waves:    2579
 k-point 41 :   0.0000 0.0000 0.4500  plane waves:    2574
 k-point 42 :   0.1429 0.0000 0.4500  plane waves:    2576
 k-point 43 :   0.2857 0.0000 0.4500  plane waves:    2568
 k-point 44 :   0.4286 0.0000 0.4500  plane waves:    2573
 k-point 45 :   0.1429 0.1429 0.4500  plane waves:    2578
 k-point 46 :   0.2857 0.1429 0.4500  plane waves:    2577
 k-point 47 :   0.4286 0.1429 0.4500  plane waves:    2569
 k-point 48 :   0.2857 0.2857 0.4500  plane waves:    2571
 k-point 49 :   0.4286 0.2857 0.4500  plane waves:    2578
 k-point 50 :   0.4286 0.4286 0.4500  plane waves:    2575

 maximum and minimum number of plane-waves per node :      2605     2561

 maximum number of plane-waves:      2605
 maximum index in each direction: 
   IXMAX=    9   IYMAX=    9   IZMAX=    6
   IXMIN=  -10   IYMIN=  -10   IZMIN=   -7


 serial   3D FFT for wavefunctions
 parallel 3D FFT for charge:
    minimum data exchange during FFTs selected (reduces bandwidth)


 total amount of memory used by VASP MPI-rank0    86704. kBytes
=======================================================================

   base      :      30000. kBytes
   nonl-proj :      37921. kBytes
   fftplans  :       1875. kBytes
   grid      :       3820. kBytes
   one-center:        186. kBytes
   wavefun   :      12902. kBytes
 
     INWAV:  cpu time    0.0000: real time    0.0000
 Broyden mixing: mesh for mixing (old mesh)
   NGX = 19   NGY = 19   NGZ = 13
  (NGX  = 60   NGY  = 60   NGZ  = 40)
  gives a total of   4693 points

 initial charge density was supplied:
 charge density of overlapping atoms calculated
 number of electron      54.0000000 magnetization       0.0000000
 keeping initial charge density in first step


--------------------------------------------------------------------------------------------------------


 Maximum index for augmentation-charges         4323 (set IRDMAX)


--------------------------------------------------------------------------------------------------------


 First call to EWALD:  gamma=   0.416
 Maximum number of real-space cells 2x 2x 3
 Maximum number of reciprocal cells 3x 3x 2

    FEWALD:  cpu time    0.0010: real time    0.0010


--------------------------------------- Iteration      1(   1)  ---------------------------------------


    POTLOK:  cpu time    0.0354: real time    0.0354
    SETDIJ:  cpu time    1.4383: real time    1.4383
atom =   1  type =  1  l = 2
 
 onsite density matrix
 
spin component  1
 
  0.2835  0.0000  0.0000  0.0000  0.0000
  0.0000  0.2835  0.0000  0.0000  0.0000
  0.0000  0.0000  0.2835  0.0000  0.0000
  0.0000  0.0000  0.0000  0.2835  0.0000
  0.0000  0.0000  0.0000  0.0000  0.2835
 
spin component  2
 
  0.7694  0.0000  0.0000  0.0000  0.0000
  0.0000  0.7694  0.0000  0.0000  0.0000
  0.0000  0.0000  0.7694  0.0000  0.0000
  0.0000  0.0000  0.0000  0.7694  0.0000
  0.0000  0.0000  0.0000  0.0000  0.7694
 
 occupancies and eigenvectors
 
  o =  0.2835  v =  1.0000  0.0000  0.0000  0.0000  0.0000  0.0000  0.0000  0.0000  0.0000  0.0000      0.0000  0.0000  0.0000  0.0000  0.0000  0.0000  0.0000  0.0000  0.0000  0.0000
  o =  0.2835  v =  0.0000  1.0000  0.0000  0.0000  0.0000  0.0000  0.0000  0.0000  0.0000  0.0000      0.0000  0.0000  0.0000  0.0000  0.0000  0.0000  0.0000  0.0000  0.0000  0.0000
  o =  0.2835  v =  0.0000  0.0000  1.0000  0.0000  0.0000  0.0000  0.0000  0.0000  0.0000  0.0000      0.0000  0.0000  0.0000  0.0000  0.0000  0.0000  0.0000  0.0000  0.0000  0.0000
  o =  0.2835  v =  0.0000  0.0000  0.0000  1.0000  0.0000  0.0000  0.0000  0.0000  0.0000  0.0000      0.0000  0.0000  0.0000  0.0000  0.0000  0.0000  0.0000  0.0000  0.0000  0.0000
  o =  0.2835  v =  0.0000  0.0000  0.0000  0.0000  1.0000  0.0000  0.0000  0.0000  0.0000  0.0000      0.0000  0.0000  0.0000  0.0000  0.0000  0.0000  0.0000  0.0000  0.0000  0.0000
  o =  0.7694  v =  0.0000  0.0000  0.0000  0.0000  0.0000  1.0000  0.0000  0.0000  0.0000  0.0000      0.0000  0.0000  0.0000  0.0000  0.0000  0.0000  0.0000  0.0000  0.0000  0.0000
  o =  0.7694  v =  0.0000  0.0000  0.0000  0.0000  0.0000  0.0000  1.0000  0.0000  0.0000  0.0000      0.0000  0.0000  0.0000  0.0000  0.0000  0.0000  0.0000  0.0000  0.0000  0.0000
  o =  0.7694  v =  0.0000  0.0000  0.0000  0.0000  0.0000  0.0000  0.0000  1.0000  0.0000  0.0000      0.0000  0.0000  0.0000  0.0000  0.0000  0.0000  0.0000  0.0000  0.0000  0.0000
  o =  0.7694  v =  0.0000  0.0000  0.0000  0.0000  0.0000  0.0000  0.0000  0.0000  1.0000  0.0000      0.0000  0.0000  0.0000  0.0000  0.0000  0.0000  0.0000  0.0000  0.0000  0.0000
  o =  0.7694  v =  0.0000  0.0000  0.0000  0.0000  0.0000  0.0000  0.0000  0.0000  0.0000  1.0000      0.0000  0.0000  0.0000  0.0000  0.0000  0.0000  0.0000  0.0000  0.0000  0.0000
atom =   2  type =  1  l = 2
 
 onsite density matrix
 
spin component  1
 
  0.7694  0.0000  0.0000  0.0000  0.0000
  0.0000  0.7694  0.0000  0.0000  0.0000
  0.0000  0.0000  0.7694  0.0000  0.0000
  0.0000  0.0000  0.0000  0.7694  0.0000
  0.0000  0.0000  0.0000  0.0000  0.7694
 
spin component  2
 
  0.2835  0.0000  0.0000  0.0000  0.0000
  0.0000  0.2835  0.0000  0.0000  0.0000
  0.0000  0.0000  0.2835  0.0000  0.0000
  0.0000  0.0000  0.0000  0.2835  0.0000
  0.0000  0.0000  0.0000  0.0000  0.2835
 
 occupancies and eigenvectors
 
  o =  0.2835  v =  0.0000  0.0000  0.0000  0.0000  0.0000  1.0000  0.0000  0.0000  0.0000  0.0000      0.0000  0.0000  0.0000  0.0000  0.0000  0.0000  0.0000  0.0000  0.0000  0.0000
  o =  0.2835  v =  0.0000  0.0000  0.0000  0.0000  0.0000  0.0000  1.0000  0.0000  0.0000  0.0000      0.0000  0.0000  0.0000  0.0000  0.0000  0.0000  0.0000  0.0000  0.0000  0.0000
  o =  0.2835  v =  0.0000  0.0000  0.0000  0.0000  0.0000  0.0000  0.0000  1.0000  0.0000  0.0000      0.0000  0.0000  0.0000  0.0000  0.0000  0.0000  0.0000  0.0000  0.0000  0.0000
  o =  0.2835  v =  0.0000  0.0000  0.0000  0.0000  0.0000  0.0000  0.0000  0.0000  1.0000  0.0000      0.0000  0.0000  0.0000  0.0000  0.0000  0.0000  0.0000  0.0000  0.0000  0.0000
  o =  0.2835  v =  0.0000  0.0000  0.0000  0.0000  0.0000  0.0000  0.0000  0.0000  0.0000  1.0000      0.0000  0.0000  0.0000  0.0000  0.0000  0.0000  0.0000  0.0000  0.0000  0.0000
  o =  0.7694  v =  1.0000  0.0000  0.0000  0.0000  0.0000  0.0000  0.0000  0.0000  0.0000  0.0000      0.0000  0.0000  0.0000  0.0000  0.0000  0.0000  0.0000  0.0000  0.0000  0.0000
  o =  0.7694  v =  0.0000  1.0000  0.0000  0.0000  0.0000  0.0000  0.0000  0.0000  0.0000  0.0000      0.0000  0.0000  0.0000  0.0000  0.0000  0.0000  0.0000  0.0000  0.0000  0.0000
  o =  0.7694  v =  0.0000  0.0000  1.0000  0.0000  0.0000  0.0000  0.0000  0.0000  0.0000  0.0000      0.0000  0.0000  0.0000  0.0000  0.0000  0.0000  0.0000  0.0000  0.0000  0.0000
  o =  0.7694  v =  0.0000  0.0000  0.0000  1.0000  0.0000  0.0000  0.0000  0.0000  0.0000  0.0000      0.0000  0.0000  0.0000  0.0000  0.0000  0.0000  0.0000  0.0000  0.0000  0.0000
  o =  0.7694  v =  0.0000  0.0000  0.0000  0.0000  1.0000  0.0000  0.0000  0.0000  0.0000  0.0000      0.0000  0.0000  0.0000  0.0000  0.0000  0.0000  0.0000  0.0000  0.0000  0.0000
     EDDAV:  cpu time    3.9726: real time    3.9915
       DOS:  cpu time    0.0010: real time    0.0010
    --------------------------------------------
      LOOP:  cpu time    5.4473: real time    5.4662

 eigenvalue-minimisations  :  7296
 total energy-change (2. order) : 0.9565863E+03  (-0.3753874E+04)
 number of electron      54.0000000 magnetization       0.0000000
 augmentation part       54.0000000 magnetization       0.0000000

 Free energy of the ion-electron system (eV)
  ---------------------------------------------------
  alpha Z        PSCENC =       199.38838823
  Ewald energy   TEWEN  =     -4203.06823030
  -Hartree energ DENC   =     -2130.62061717
  -exchange      EXHF   =         0.00000000
  -V(xc)+E(xc)   XCENC  =        -3.96110837
  PAW double counting   =      5566.43601843    -5528.13058630
  entropy T*S    EENTRO =        -0.00003803
  eigenvalues    EBANDS =       367.53172719
  atomic energy  EATOM  =      6689.01075358
  Solvation  Ediel_sol  =         0.00000000
  ---------------------------------------------------
  free energy    TOTEN  =       956.58630727 eV

  energy without entropy =      956.58634530  energy(sigma->0) =      956.58632629


--------------------------------------------------------------------------------------------------------




--------------------------------------- Iteration      1(   2)  ---------------------------------------


     EDDAV:  cpu time    4.2358: real time    4.2359
       DOS:  cpu time    0.0009: real time    0.0009
    --------------------------------------------
      LOOP:  cpu time    4.2367: real time    4.2367

 eigenvalue-minimisations  :  8412
 total energy-change (2. order) :-0.5538660E+03  (-0.5301011E+03)
 number of electron      54.0000000 magnetization       0.0000000
 augmentation part       54.0000000 magnetization       0.0000000

 Free energy of the ion-electron system (eV)
  ---------------------------------------------------
  alpha Z        PSCENC =       199.38838823
  Ewald energy   TEWEN  =     -4203.06823030
  -Hartree energ DENC   =     -2130.62061717
  -exchange      EXHF   =         0.00000000
  -V(xc)+E(xc)   XCENC  =        -3.96110837
  PAW double counting   =      5566.43601843    -5528.13058630
  entropy T*S    EENTRO =        -0.00000671
  eigenvalues    EBANDS =      -186.33429550
  atomic energy  EATOM  =      6689.01075358
  Solvation  Ediel_sol  =         0.00000000
  ---------------------------------------------------
  free energy    TOTEN  =       402.72031589 eV

  energy without entropy =      402.72032261  energy(sigma->0) =      402.72031925


--------------------------------------------------------------------------------------------------------




--------------------------------------- Iteration      1(   3)  ---------------------------------------


     EDDAV:  cpu time    4.1802: real time    4.1802
       DOS:  cpu time    0.0004: real time    0.0004
    --------------------------------------------
      LOOP:  cpu time    4.1806: real time    4.1806

 eigenvalue-minimisations  :  8412
 total energy-change (2. order) :-0.3319389E+02  (-0.3289091E+02)
 number of electron      54.0000000 magnetization       0.0000000
 augmentation part       54.0000000 magnetization       0.0000000

 Free energy of the ion-electron system (eV)
  ---------------------------------------------------
  alpha Z        PSCENC =       199.38838823
  Ewald energy   TEWEN  =     -4203.06823030
  -Hartree energ DENC   =     -2130.62061717
  -exchange      EXHF   =         0.00000000
  -V(xc)+E(xc)   XCENC  =        -3.96110837
  PAW double counting   =      5566.43601843    -5528.13058630
  entropy T*S    EENTRO =        -0.00000000
  eigenvalues    EBANDS =      -219.52818828
  atomic energy  EATOM  =      6689.01075358
  Solvation  Ediel_sol  =         0.00000000
  ---------------------------------------------------
  free energy    TOTEN  =       369.52642983 eV

  energy without entropy =      369.52642983  energy(sigma->0) =      369.52642983


--------------------------------------------------------------------------------------------------------




--------------------------------------- Iteration      1(   4)  ---------------------------------------


     EDDAV:  cpu time    4.1508: real time    4.1509
       DOS:  cpu time    0.0004: real time    0.0004
    --------------------------------------------
      LOOP:  cpu time    4.1512: real time    4.1513

 eigenvalue-minimisations  :  8292
 total energy-change (2. order) :-0.4001563E+00  (-0.3998994E+00)
 number of electron      54.0000000 magnetization       0.0000000
 augmentation part       54.0000000 magnetization       0.0000000

 Free energy of the ion-electron system (eV)
  ---------------------------------------------------
  alpha Z        PSCENC =       199.38838823
  Ewald energy   TEWEN  =     -4203.06823030
  -Hartree energ DENC   =     -2130.62061717
  -exchange      EXHF   =         0.00000000
  -V(xc)+E(xc)   XCENC  =        -3.96110837
  PAW double counting   =      5566.43601843    -5528.13058630
  entropy T*S    EENTRO =        -0.00000000
  eigenvalues    EBANDS =      -219.92834460
  atomic energy  EATOM  =      6689.01075358
  Solvation  Ediel_sol  =         0.00000000
  ---------------------------------------------------
  free energy    TOTEN  =       369.12627351 eV

  energy without entropy =      369.12627351  energy(sigma->0) =      369.12627351


--------------------------------------------------------------------------------------------------------




--------------------------------------- Iteration      1(   5)  ---------------------------------------


     EDDAV:  cpu time    4.2386: real time    4.2387
       DOS:  cpu time    0.0004: real time    0.0004
    CHARGE:  cpu time    0.5798: real time    0.5798
    MIXING:  cpu time    0.0005: real time    0.0005
    --------------------------------------------
      LOOP:  cpu time    4.8193: real time    4.8194

 eigenvalue-minimisations  :  8544
 total energy-change (2. order) :-0.6817796E-02  (-0.6817510E-02)
 number of electron      54.0000009 magnetization       0.0000000
 augmentation part       22.6529625 magnetization       0.0000000

 Broyden mixing:
  rms(total) = 0.58797E+01    rms(broyden)= 0.58792E+01
  rms(prec ) = 0.61147E+01
  weight for this iteration     100.00

 Free energy of the ion-electron system (eV)
  ---------------------------------------------------
  alpha Z        PSCENC =       199.38838823
  Ewald energy   TEWEN  =     -4203.06823030
  -Hartree energ DENC   =     -2130.62061717
  -exchange      EXHF   =         0.00000000
  -V(xc)+E(xc)   XCENC  =        -3.96110837
  PAW double counting   =      5566.43601843    -5528.13058630
  entropy T*S    EENTRO =        -0.00000000
  eigenvalues    EBANDS =      -219.93516240
  atomic energy  EATOM  =      6689.01075358
  Solvation  Ediel_sol  =         0.00000000
  ---------------------------------------------------
  free energy    TOTEN  =       369.11945571 eV

  energy without entropy =      369.11945571  energy(sigma->0) =      369.11945571


--------------------------------------------------------------------------------------------------------




--------------------------------------- Iteration      1(   6)  ---------------------------------------


    POTLOK:  cpu time    0.0332: real time    0.0332
    SETDIJ:  cpu time    0.7949: real time    0.7949
atom =   1  type =  1  l = 2
 
 onsite density matrix
 
spin component  1
 
  0.0359  0.0000  0.0669  0.0000  0.0000
  0.0000  0.0074  0.0000  0.0614  0.0000
  0.0669  0.0000 -0.0036  0.0000 -0.0000
  0.0000  0.0614  0.0000  0.0074  0.0000
  0.0000  0.0000 -0.0000  0.0000 -0.0736
 
spin component  2
 
  1.0563  0.0000 -0.0323  0.0000  0.0000
  0.0000  1.0711  0.0000 -0.0297  0.0000
 -0.0323  0.0000  1.0750  0.0000  0.0000
  0.0000 -0.0297  0.0000  1.0711  0.0000
  0.0000  0.0000  0.0000  0.0000  1.1111
 
 occupancies and eigenvectors
 
  o = -0.0736  v =  0.0000  0.0000 -0.0000  0.0000 -1.0000  0.0000  0.0000  0.0000  0.0000  0.0000      0.0000  0.0000  0.0000  0.0000  0.0000  0.0000  0.0000  0.0000  0.0000  0.0000
  o = -0.0540  v =  0.0000  0.7071  0.0000 -0.7071  0.0000  0.0000  0.0000  0.0000  0.0000  0.0000      0.0000  0.0000  0.0000  0.0000  0.0000  0.0000  0.0000  0.0000  0.0000  0.0000
  o = -0.0536  v = -0.5986  0.0000  0.8010  0.0000 -0.0000  0.0000  0.0000  0.0000  0.0000  0.0000      0.0000  0.0000  0.0000  0.0000  0.0000  0.0000  0.0000  0.0000  0.0000  0.0000
  o =  0.0687  v =  0.0000  0.7071  0.0000  0.7071  0.0000  0.0000  0.0000  0.0000  0.0000  0.0000      0.0000  0.0000  0.0000  0.0000  0.0000  0.0000  0.0000  0.0000  0.0000  0.0000
  o =  0.0859  v =  0.8010  0.0000  0.5986  0.0000 -0.0000  0.0000  0.0000  0.0000  0.0000  0.0000      0.0000  0.0000  0.0000  0.0000  0.0000  0.0000  0.0000  0.0000  0.0000  0.0000
  o =  1.0320  v =  0.0000  0.0000  0.0000  0.0000  0.0000  0.7997  0.0000  0.6004  0.0000 -0.0000      0.0000  0.0000  0.0000  0.0000  0.0000  0.0000  0.0000  0.0000  0.0000  0.0000
  o =  1.0415  v =  0.0000  0.0000  0.0000  0.0000  0.0000  0.0000  0.7071  0.0000  0.7071  0.0000      0.0000  0.0000  0.0000  0.0000  0.0000  0.0000  0.0000  0.0000  0.0000  0.0000
  o =  1.0993  v =  0.0000  0.0000  0.0000  0.0000  0.0000 -0.6004  0.0000  0.7997  0.0000 -0.0000      0.0000  0.0000  0.0000  0.0000  0.0000  0.0000  0.0000  0.0000  0.0000  0.0000
  o =  1.1008  v =  0.0000  0.0000  0.0000  0.0000  0.0000  0.0000  0.7071  0.0000 -0.7071  0.0000      0.0000  0.0000  0.0000  0.0000  0.0000  0.0000  0.0000  0.0000  0.0000  0.0000
  o =  1.1111  v =  0.0000  0.0000  0.0000  0.0000  0.0000  0.0000  0.0000 -0.0000  0.0000 -1.0000      0.0000  0.0000  0.0000  0.0000  0.0000  0.0000  0.0000  0.0000  0.0000  0.0000
atom =   2  type =  1  l = 2
 
 onsite density matrix
 
spin component  1
 
  1.0563  0.0000  0.0323  0.0000 -0.0000
  0.0000  1.0711  0.0000  0.0297  0.0000
  0.0323  0.0000  1.0750  0.0000 -0.0000
  0.0000  0.0297  0.0000  1.0711  0.0000
 -0.0000  0.0000 -0.0000  0.0000  1.1111
 
spin component  2
 
  0.0359  0.0000 -0.0669  0.0000  0.0000
  0.0000  0.0074  0.0000 -0.0614  0.0000
 -0.0669  0.0000 -0.0036  0.0000  0.0000
  0.0000 -0.0614  0.0000  0.0074  0.0000
  0.0000  0.0000  0.0000  0.0000 -0.0736
 
 occupancies and eigenvectors
 
  o = -0.0736  v =  0.0000  0.0000  0.0000  0.0000  0.0000  0.0000  0.0000  0.0000  0.0000 -1.0000      0.0000  0.0000  0.0000  0.0000  0.0000  0.0000  0.0000  0.0000  0.0000  0.0000
  o = -0.0540  v =  0.0000  0.0000  0.0000  0.0000  0.0000  0.0000  0.7071  0.0000  0.7071  0.0000      0.0000  0.0000  0.0000  0.0000  0.0000  0.0000  0.0000  0.0000  0.0000  0.0000
  o = -0.0536  v =  0.0000  0.0000  0.0000  0.0000  0.0000 -0.5986  0.0000 -0.8010  0.0000 -0.0000      0.0000  0.0000  0.0000  0.0000  0.0000  0.0000  0.0000  0.0000  0.0000  0.0000
  o =  0.0687  v =  0.0000  0.0000  0.0000  0.0000  0.0000  0.0000  0.7071  0.0000 -0.7071  0.0000      0.0000  0.0000  0.0000  0.0000  0.0000  0.0000  0.0000  0.0000  0.0000  0.0000
  o =  0.0859  v =  0.0000  0.0000  0.0000  0.0000  0.0000  0.8010  0.0000 -0.5986  0.0000 -0.0000      0.0000  0.0000  0.0000  0.0000  0.0000  0.0000  0.0000  0.0000  0.0000  0.0000
  o =  1.0320  v = -0.7997  0.0000  0.6004  0.0000 -0.0000  0.0000  0.0000  0.0000  0.0000  0.0000      0.0000  0.0000  0.0000  0.0000  0.0000  0.0000  0.0000  0.0000  0.0000  0.0000
  o =  1.0415  v =  0.0000  0.7071  0.0000 -0.7071 -0.0000  0.0000  0.0000  0.0000  0.0000  0.0000      0.0000  0.0000  0.0000  0.0000  0.0000  0.0000  0.0000  0.0000  0.0000  0.0000
  o =  1.0993  v = -0.6004  0.0000 -0.7997  0.0000  0.0000  0.0000  0.0000  0.0000  0.0000  0.0000      0.0000  0.0000  0.0000  0.0000  0.0000  0.0000  0.0000  0.0000  0.0000  0.0000
  o =  1.1008  v =  0.0000  0.7071  0.0000  0.7071 -0.0000  0.0000  0.0000  0.0000  0.0000  0.0000      0.0000  0.0000  0.0000  0.0000  0.0000  0.0000  0.0000  0.0000  0.0000  0.0000
  o =  1.1111  v =  0.0000 -0.0000 -0.0000  0.0000 -1.0000  0.0000  0.0000  0.0000  0.0000  0.0000      0.0000  0.0000  0.0000  0.0000  0.0000  0.0000  0.0000  0.0000  0.0000  0.0000
     EDDAV:  cpu time    4.2884: real time    4.2885
       DOS:  cpu time    0.0010: real time    0.0010
    CHARGE:  cpu time    0.5845: real time    0.5845
    MIXING:  cpu time    0.0005: real time    0.0005
    --------------------------------------------
      LOOP:  cpu time    5.7026: real time    5.7026

 eigenvalue-minimisations  :  8760
 total energy-change (2. order) :-0.4379155E+03  (-0.2832927E+02)
 number of electron      54.0000008 magnetization       0.0000000
 augmentation part       19.6459395 magnetization       0.0000000

 Broyden mixing:
  rms(total) = 0.62804E+01    rms(broyden)= 0.62803E+01
  rms(prec ) = 0.67821E+01
  weight for this iteration     100.00

 eigenvalues of (default mixing * dielectric matrix)
  average eigenvalue GAMMA=   0.4167
  0.4167

 Free energy of the ion-electron system (eV)
  ---------------------------------------------------
  alpha Z        PSCENC =       199.38838823
  Ewald energy   TEWEN  =     -4203.06823030
  -Hartree energ DENC   =     -2199.43100268
  -exchange      EXHF   =         0.00000000
  -V(xc)+E(xc)   XCENC  =       144.31890461
  PAW double counting   =      6428.46184405    -6394.96131972
  entropy T*S    EENTRO =        -0.00019674
  eigenvalues    EBANDS =      -732.51520732
  atomic energy  EATOM  =      6689.01075358
  Solvation  Ediel_sol  =         0.00000000
  ---------------------------------------------------
  free energy    TOTEN  =       -68.79606627 eV

  energy without entropy =      -68.79586953  energy(sigma->0) =      -68.79596790


--------------------------------------------------------------------------------------------------------




--------------------------------------- Iteration      1(   7)  ---------------------------------------


    POTLOK:  cpu time    0.0328: real time    0.0328
    SETDIJ:  cpu time    0.7854: real time    0.7854
atom =   1  type =  1  l = 2
 
 onsite density matrix
 
spin component  1
 
  0.0897  0.0000  0.0405  0.0000 -0.0000
  0.0000  0.0547  0.0000  0.0247  0.0000
  0.0405  0.0000  0.0617  0.0000 -0.0000
  0.0000  0.0247  0.0000  0.0547  0.0000
 -0.0000  0.0000 -0.0000  0.0000  0.0179
 
spin component  2
 
  0.9663  0.0000 -0.0128  0.0000  0.0000
  0.0000  1.0027  0.0000  0.0084  0.0000
 -0.0128  0.0000  0.9824  0.0000 -0.0000
  0.0000  0.0084  0.0000  1.0027  0.0000
  0.0000  0.0000 -0.0000  0.0000  0.9995
 
 occupancies and eigenvectors
 
  o =  0.0179  v =  0.0000  0.0000 -0.0000 -0.0000 -1.0000  0.0000  0.0000  0.0000  0.0000  0.0000      0.0000  0.0000  0.0000  0.0000  0.0000  0.0000  0.0000  0.0000  0.0000  0.0000
  o =  0.0301  v = -0.0000  0.7071  0.0000 -0.7071  0.0000  0.0000  0.0000  0.0000  0.0000  0.0000      0.0000  0.0000  0.0000  0.0000  0.0000  0.0000  0.0000  0.0000  0.0000  0.0000
  o =  0.0328  v = -0.5801 -0.0000  0.8145  0.0000 -0.0000  0.0000  0.0000  0.0000  0.0000  0.0000      0.0000  0.0000  0.0000  0.0000  0.0000  0.0000  0.0000  0.0000  0.0000  0.0000
  o =  0.0794  v =  0.0000  0.7071 -0.0000  0.7071  0.0000  0.0000  0.0000  0.0000  0.0000  0.0000      0.0000  0.0000  0.0000  0.0000  0.0000  0.0000  0.0000  0.0000  0.0000  0.0000
  o =  0.1186  v = -0.8145  0.0000 -0.5801  0.0000  0.0000  0.0000  0.0000  0.0000  0.0000  0.0000      0.0000  0.0000  0.0000  0.0000  0.0000  0.0000  0.0000  0.0000  0.0000  0.0000
  o =  0.9593  v =  0.0000  0.0000  0.0000  0.0000  0.0000 -0.8753  0.0000 -0.4835  0.0000  0.0000      0.0000  0.0000  0.0000  0.0000  0.0000  0.0000  0.0000  0.0000  0.0000  0.0000
  o =  0.9894  v =  0.0000  0.0000  0.0000  0.0000  0.0000 -0.4835  0.0000  0.8753  0.0000 -0.0000      0.0000  0.0000  0.0000  0.0000  0.0000  0.0000  0.0000  0.0000  0.0000  0.0000
  o =  0.9943  v =  0.0000  0.0000  0.0000  0.0000  0.0000  0.0000  0.7071 -0.0000 -0.7071 -0.0000      0.0000  0.0000  0.0000  0.0000  0.0000  0.0000  0.0000  0.0000  0.0000  0.0000
  o =  0.9995  v =  0.0000  0.0000  0.0000  0.0000  0.0000  0.0000  0.0000  0.0000 -0.0000  1.0000      0.0000  0.0000  0.0000  0.0000  0.0000  0.0000  0.0000  0.0000  0.0000  0.0000
  o =  1.0110  v =  0.0000  0.0000  0.0000  0.0000  0.0000  0.0000 -0.7071 -0.0000 -0.7071 -0.0000      0.0000  0.0000  0.0000  0.0000  0.0000  0.0000  0.0000  0.0000  0.0000  0.0000
atom =   2  type =  1  l = 2
 
 onsite density matrix
 
spin component  1
 
  0.9663  0.0000  0.0128  0.0000  0.0000
  0.0000  1.0027  0.0000 -0.0084  0.0000
  0.0128  0.0000  0.9824  0.0000  0.0000
  0.0000 -0.0084  0.0000  1.0027  0.0000
  0.0000  0.0000  0.0000  0.0000  0.9995
 
spin component  2
 
  0.0897  0.0000 -0.0405  0.0000 -0.0000
  0.0000  0.0547  0.0000 -0.0247  0.0000
 -0.0405  0.0000  0.0617  0.0000  0.0000
  0.0000 -0.0247  0.0000  0.0547  0.0000
 -0.0000  0.0000  0.0000  0.0000  0.0179
 
 occupancies and eigenvectors
 
  o =  0.0179  v =  0.0000  0.0000  0.0000  0.0000  0.0000  0.0000 -0.0000  0.0000  0.0000 -1.0000      0.0000  0.0000  0.0000  0.0000  0.0000  0.0000  0.0000  0.0000  0.0000  0.0000
  o =  0.0301  v =  0.0000  0.0000  0.0000  0.0000  0.0000  0.0000 -0.7071  0.0000 -0.7071  0.0000      0.0000  0.0000  0.0000  0.0000  0.0000  0.0000  0.0000  0.0000  0.0000  0.0000
  o =  0.0328  v =  0.0000  0.0000  0.0000  0.0000  0.0000 -0.5801 -0.0000 -0.8145  0.0000 -0.0000      0.0000  0.0000  0.0000  0.0000  0.0000  0.0000  0.0000  0.0000  0.0000  0.0000
  o =  0.0794  v =  0.0000  0.0000  0.0000  0.0000  0.0000  0.0000  0.7071  0.0000 -0.7071 -0.0000      0.0000  0.0000  0.0000  0.0000  0.0000  0.0000  0.0000  0.0000  0.0000  0.0000
  o =  0.1186  v =  0.0000  0.0000  0.0000  0.0000  0.0000 -0.8145  0.0000  0.5801  0.0000  0.0000      0.0000  0.0000  0.0000  0.0000  0.0000  0.0000  0.0000  0.0000  0.0000  0.0000
  o =  0.9593  v = -0.8753  0.0000  0.4835  0.0000  0.0000  0.0000  0.0000  0.0000  0.0000  0.0000      0.0000  0.0000  0.0000  0.0000  0.0000  0.0000  0.0000  0.0000  0.0000  0.0000
  o =  0.9894  v = -0.4835  0.0000 -0.8753  0.0000 -0.0000  0.0000  0.0000  0.0000  0.0000  0.0000      0.0000  0.0000  0.0000  0.0000  0.0000  0.0000  0.0000  0.0000  0.0000  0.0000
  o =  0.9943  v =  0.0000 -0.7071  0.0000 -0.7071 -0.0000  0.0000  0.0000  0.0000  0.0000  0.0000      0.0000  0.0000  0.0000  0.0000  0.0000  0.0000  0.0000  0.0000  0.0000  0.0000
  o =  0.9995  v =  0.0000 -0.0000 -0.0000 -0.0000  1.0000  0.0000  0.0000  0.0000  0.0000  0.0000      0.0000  0.0000  0.0000  0.0000  0.0000  0.0000  0.0000  0.0000  0.0000  0.0000
  o =  1.0110  v =  0.0000  0.7071  0.0000 -0.7071 -0.0000  0.0000  0.0000  0.0000  0.0000  0.0000      0.0000  0.0000  0.0000  0.0000  0.0000  0.0000  0.0000  0.0000  0.0000  0.0000
     EDDAV:  cpu time    3.9409: real time    3.9411
       DOS:  cpu time    0.0004: real time    0.0004
    CHARGE:  cpu time    0.5856: real time    0.5856
    MIXING:  cpu time    0.0006: real time    0.0006
    --------------------------------------------
      LOOP:  cpu time    5.3457: real time    5.3459

 eigenvalue-minimisations  :  7644
 total energy-change (2. order) :-0.2692167E+01  (-0.5084744E+01)
 number of electron      54.0000008 magnetization       0.0000000
 augmentation part       19.6944599 magnetization       0.0000000

 Broyden mixing:
  rms(total) = 0.17220E+01    rms(broyden)= 0.17217E+01
  rms(prec ) = 0.25161E+01
  weight for this iteration     100.00

 eigenvalues of (default mixing * dielectric matrix)
  average eigenvalue GAMMA=   0.6917
  0.6917  0.6917

 Free energy of the ion-electron system (eV)
  ---------------------------------------------------
  alpha Z        PSCENC =       199.38838823
  Ewald energy   TEWEN  =     -4203.06823030
  -Hartree energ DENC   =     -2178.93112290
  -exchange      EXHF   =         0.00000000
  -V(xc)+E(xc)   XCENC  =       167.70876372
  PAW double counting   =      6484.30289377    -6451.25758537
  entropy T*S    EENTRO =        -0.00000000
  eigenvalues    EBANDS =      -778.64209449
  atomic energy  EATOM  =      6689.01075358
  Solvation  Ediel_sol  =         0.00000000
  ---------------------------------------------------
  free energy    TOTEN  =       -71.48823376 eV

  energy without entropy =      -71.48823376  energy(sigma->0) =      -71.48823376


--------------------------------------------------------------------------------------------------------




--------------------------------------- Iteration      1(   8)  ---------------------------------------


    POTLOK:  cpu time    0.0327: real time    0.0327
    SETDIJ:  cpu time    0.7811: real time    0.7811
atom =   1  type =  1  l = 2
 
 onsite density matrix
 
spin component  1
 
  0.0414  0.0000  0.0100  0.0000  0.0000
  0.0000  0.0505  0.0000  0.0216  0.0000
  0.0100  0.0000  0.0387  0.0000 -0.0000
  0.0000  0.0216  0.0000  0.0505  0.0000
  0.0000  0.0000 -0.0000  0.0000  0.0243
 
spin component  2
 
  0.9959  0.0000  0.0263  0.0000  0.0000
  0.0000  0.9811  0.0000  0.0124  0.0000
  0.0263  0.0000  0.9821  0.0000 -0.0000
  0.0000  0.0124  0.0000  0.9811  0.0000
  0.0000  0.0000 -0.0000  0.0000  0.9676
 
 occupancies and eigenvectors
 
  o =  0.0243  v =  0.0000  0.0000 -0.0000  0.0000 -1.0000  0.0000  0.0000  0.0000  0.0000  0.0000      0.0000  0.0000  0.0000  0.0000  0.0000  0.0000  0.0000  0.0000  0.0000  0.0000
  o =  0.0289  v =  0.0000  0.7071  0.0000 -0.7071  0.0000  0.0000  0.0000  0.0000  0.0000  0.0000      0.0000  0.0000  0.0000  0.0000  0.0000  0.0000  0.0000  0.0000  0.0000  0.0000
  o =  0.0299  v = -0.6592  0.0000  0.7519  0.0000 -0.0000  0.0000  0.0000  0.0000  0.0000  0.0000      0.0000  0.0000  0.0000  0.0000  0.0000  0.0000  0.0000  0.0000  0.0000  0.0000
  o =  0.0502  v = -0.7519 -0.0000 -0.6592  0.0000  0.0000  0.0000  0.0000  0.0000  0.0000  0.0000      0.0000  0.0000  0.0000  0.0000  0.0000  0.0000  0.0000  0.0000  0.0000  0.0000
  o =  0.0721  v =  0.0000 -0.7071  0.0000 -0.7071 -0.0000  0.0000  0.0000  0.0000  0.0000  0.0000      0.0000  0.0000  0.0000  0.0000  0.0000  0.0000  0.0000  0.0000  0.0000  0.0000
  o =  0.9618  v =  0.0000  0.0000  0.0000  0.0000  0.0000 -0.6114  0.0000  0.7914  0.0000  0.0000      0.0000  0.0000  0.0000  0.0000  0.0000  0.0000  0.0000  0.0000  0.0000  0.0000
  o =  0.9676  v =  0.0000  0.0000  0.0000  0.0000  0.0000  0.0000  0.0000  0.0000  0.0000 -1.0000      0.0000  0.0000  0.0000  0.0000  0.0000  0.0000  0.0000  0.0000  0.0000  0.0000
  o =  0.9687  v =  0.0000  0.0000  0.0000  0.0000  0.0000  0.0000 -0.7071  0.0000  0.7071 -0.0000      0.0000  0.0000  0.0000  0.0000  0.0000  0.0000  0.0000  0.0000  0.0000  0.0000
  o =  0.9934  v =  0.0000  0.0000  0.0000  0.0000  0.0000  0.0000 -0.7071  0.0000 -0.7071 -0.0000      0.0000  0.0000  0.0000  0.0000  0.0000  0.0000  0.0000  0.0000  0.0000  0.0000
  o =  1.0162  v =  0.0000  0.0000  0.0000  0.0000  0.0000 -0.7914  0.0000 -0.6114  0.0000 -0.0000      0.0000  0.0000  0.0000  0.0000  0.0000  0.0000  0.0000  0.0000  0.0000  0.0000
atom =   2  type =  1  l = 2
 
 onsite density matrix
 
spin component  1
 
  0.9959  0.0000 -0.0263  0.0000 -0.0000
  0.0000  0.9811  0.0000 -0.0124  0.0000
 -0.0263  0.0000  0.9821  0.0000 -0.0000
  0.0000 -0.0124  0.0000  0.9811  0.0000
 -0.0000  0.0000 -0.0000  0.0000  0.9676
 
spin component  2
 
  0.0414  0.0000 -0.0100  0.0000  0.0000
  0.0000  0.0505  0.0000 -0.0216  0.0000
 -0.0100  0.0000  0.0387  0.0000  0.0000
  0.0000 -0.0216  0.0000  0.0505  0.0000
  0.0000  0.0000  0.0000  0.0000  0.0243
 
 occupancies and eigenvectors
 
  o =  0.0243  v =  0.0000  0.0000  0.0000  0.0000  0.0000  0.0000  0.0000  0.0000  0.0000 -1.0000      0.0000  0.0000  0.0000  0.0000  0.0000  0.0000  0.0000  0.0000  0.0000  0.0000
  o =  0.0289  v =  0.0000  0.0000  0.0000  0.0000  0.0000  0.0000  0.7071  0.0000  0.7071  0.0000      0.0000  0.0000  0.0000  0.0000  0.0000  0.0000  0.0000  0.0000  0.0000  0.0000
  o =  0.0299  v =  0.0000  0.0000  0.0000  0.0000  0.0000 -0.6592  0.0000 -0.7519  0.0000 -0.0000      0.0000  0.0000  0.0000  0.0000  0.0000  0.0000  0.0000  0.0000  0.0000  0.0000
  o =  0.0502  v =  0.0000  0.0000  0.0000  0.0000  0.0000 -0.7519 -0.0000  0.6592  0.0000  0.0000      0.0000  0.0000  0.0000  0.0000  0.0000  0.0000  0.0000  0.0000  0.0000  0.0000
  o =  0.0721  v =  0.0000  0.0000  0.0000  0.0000  0.0000  0.0000 -0.7071  0.0000  0.7071 -0.0000      0.0000  0.0000  0.0000  0.0000  0.0000  0.0000  0.0000  0.0000  0.0000  0.0000
  o =  0.9618  v = -0.6114  0.0000 -0.7914  0.0000 -0.0000  0.0000  0.0000  0.0000  0.0000  0.0000      0.0000  0.0000  0.0000  0.0000  0.0000  0.0000  0.0000  0.0000  0.0000  0.0000
  o =  0.9676  v =  0.0000  0.0000 -0.0000  0.0000  1.0000  0.0000  0.0000  0.0000  0.0000  0.0000      0.0000  0.0000  0.0000  0.0000  0.0000  0.0000  0.0000  0.0000  0.0000  0.0000
  o =  0.9687  v =  0.0000 -0.7071  0.0000 -0.7071  0.0000  0.0000  0.0000  0.0000  0.0000  0.0000      0.0000  0.0000  0.0000  0.0000  0.0000  0.0000  0.0000  0.0000  0.0000  0.0000
  o =  0.9934  v =  0.0000  0.7071  0.0000 -0.7071 -0.0000  0.0000  0.0000  0.0000  0.0000  0.0000      0.0000  0.0000  0.0000  0.0000  0.0000  0.0000  0.0000  0.0000  0.0000  0.0000
  o =  1.0162  v = -0.7914  0.0000  0.6114  0.0000  0.0000  0.0000  0.0000  0.0000  0.0000  0.0000      0.0000  0.0000  0.0000  0.0000  0.0000  0.0000  0.0000  0.0000  0.0000  0.0000
     EDDAV:  cpu time    4.3305: real time    4.3306
       DOS:  cpu time    0.0004: real time    0.0004
    CHARGE:  cpu time    0.6059: real time    0.6059
    MIXING:  cpu time    0.0006: real time    0.0006
    --------------------------------------------
      LOOP:  cpu time    5.7512: real time    5.7512

 eigenvalue-minimisations  :  8760
 total energy-change (2. order) : 0.2840031E+01  (-0.7112192E+00)
 number of electron      54.0000007 magnetization      -0.0000000
 augmentation part       19.8633614 magnetization      -0.0000000

 Broyden mixing:
  rms(total) = 0.65557E+00    rms(broyden)= 0.65539E+00
  rms(prec ) = 0.98504E+00
  weight for this iteration     100.00

 eigenvalues of (default mixing * dielectric matrix)
  average eigenvalue GAMMA=   0.7854
  1.0337  0.6612  0.6612

 Free energy of the ion-electron system (eV)
  ---------------------------------------------------
  alpha Z        PSCENC =       199.38838823
  Ewald energy   TEWEN  =     -4203.06823030
  -Hartree energ DENC   =     -2171.21436247
  -exchange      EXHF   =         0.00000000
  -V(xc)+E(xc)   XCENC  =       170.50554565
  PAW double counting   =      6414.82094540    -6379.75647368
  entropy T*S    EENTRO =        -0.00000000
  eigenvalues    EBANDS =      -788.33476892
  atomic energy  EATOM  =      6689.01075358
  Solvation  Ediel_sol  =         0.00000000
  ---------------------------------------------------
  free energy    TOTEN  =       -68.64820250 eV

  energy without entropy =      -68.64820250  energy(sigma->0) =      -68.64820250


--------------------------------------------------------------------------------------------------------




--------------------------------------- Iteration      1(   9)  ---------------------------------------


    POTLOK:  cpu time    0.0329: real time    0.0329
    SETDIJ:  cpu time    1.4786: real time    1.4786
atom =   1  type =  1  l = 2
 
 onsite density matrix
 
spin component  1
 
  0.0747  0.0000  0.0420  0.0000  0.0000
  0.0000  0.0468  0.0000  0.0200  0.0000
  0.0420  0.0000  0.0525  0.0000 -0.0000
  0.0000  0.0200  0.0000  0.0468  0.0000
  0.0000  0.0000 -0.0000  0.0000  0.0222
 
spin component  2
 
  0.9431  0.0000  0.0021  0.0000  0.0000
  0.0000  0.9586  0.0000  0.0160  0.0000
  0.0021  0.0000  0.9428  0.0000 -0.0000
  0.0000  0.0160  0.0000  0.9586  0.0000
  0.0000  0.0000 -0.0000  0.0000  0.9431
 
 occupancies and eigenvectors
 
  o =  0.0202  v = -0.6099 -0.0000  0.7925  0.0000  0.0000  0.0000  0.0000  0.0000  0.0000  0.0000      0.0000  0.0000  0.0000  0.0000  0.0000  0.0000  0.0000  0.0000  0.0000  0.0000
  o =  0.0222  v = -0.0000  0.0000  0.0000  0.0000 -1.0000  0.0000  0.0000  0.0000  0.0000  0.0000      0.0000  0.0000  0.0000  0.0000  0.0000  0.0000  0.0000  0.0000  0.0000  0.0000
  o =  0.0268  v =  0.0000 -0.7071  0.0000  0.7071 -0.0000  0.0000  0.0000  0.0000  0.0000  0.0000      0.0000  0.0000  0.0000  0.0000  0.0000  0.0000  0.0000  0.0000  0.0000  0.0000
  o =  0.0667  v =  0.0000 -0.7071  0.0000 -0.7071 -0.0000  0.0000  0.0000  0.0000  0.0000  0.0000      0.0000  0.0000  0.0000  0.0000  0.0000  0.0000  0.0000  0.0000  0.0000  0.0000
  o =  0.1070  v = -0.7925 -0.0000 -0.6099  0.0000  0.0000  0.0000  0.0000  0.0000  0.0000  0.0000      0.0000  0.0000  0.0000  0.0000  0.0000  0.0000  0.0000  0.0000  0.0000  0.0000
  o =  0.9408  v =  0.0000  0.0000  0.0000  0.0000  0.0000 -0.6780 -0.0000  0.7351  0.0000  0.0000      0.0000  0.0000  0.0000  0.0000  0.0000  0.0000  0.0000  0.0000  0.0000  0.0000
  o =  0.9426  v =  0.0000  0.0000  0.0000  0.0000  0.0000  0.0000  0.7071  0.0000 -0.7071  0.0000      0.0000  0.0000  0.0000  0.0000  0.0000  0.0000  0.0000  0.0000  0.0000  0.0000
  o =  0.9431  v =  0.0000  0.0000  0.0000  0.0000  0.0000 -0.0000  0.0000 -0.0000  0.0000 -1.0000      0.0000  0.0000  0.0000  0.0000  0.0000  0.0000  0.0000  0.0000  0.0000  0.0000
  o =  0.9451  v =  0.0000  0.0000  0.0000  0.0000  0.0000  0.7351  0.0000  0.6780  0.0000 -0.0000      0.0000  0.0000  0.0000  0.0000  0.0000  0.0000  0.0000  0.0000  0.0000  0.0000
  o =  0.9746  v =  0.0000  0.0000  0.0000  0.0000  0.0000  0.0000 -0.7071  0.0000 -0.7071 -0.0000      0.0000  0.0000  0.0000  0.0000  0.0000  0.0000  0.0000  0.0000  0.0000  0.0000
atom =   2  type =  1  l = 2
 
 onsite density matrix
 
spin component  1
 
  0.9431  0.0000 -0.0021  0.0000 -0.0000
  0.0000  0.9586  0.0000 -0.0160  0.0000
 -0.0021  0.0000  0.9428  0.0000  0.0000
  0.0000 -0.0160  0.0000  0.9586  0.0000
 -0.0000  0.0000  0.0000  0.0000  0.9431
 
spin component  2
 
  0.0747  0.0000 -0.0420  0.0000  0.0000
  0.0000  0.0468  0.0000 -0.0200  0.0000
 -0.0420  0.0000  0.0525  0.0000 -0.0000
  0.0000 -0.0200  0.0000  0.0468  0.0000
  0.0000  0.0000 -0.0000  0.0000  0.0222
 
 occupancies and eigenvectors
 
  o =  0.0202  v =  0.0000  0.0000  0.0000  0.0000  0.0000 -0.6099  0.0000 -0.7925  0.0000 -0.0000      0.0000  0.0000  0.0000  0.0000  0.0000  0.0000  0.0000  0.0000  0.0000  0.0000
  o =  0.0222  v =  0.0000  0.0000  0.0000  0.0000  0.0000 -0.0000 -0.0000 -0.0000  0.0000  1.0000      0.0000  0.0000  0.0000  0.0000  0.0000  0.0000  0.0000  0.0000  0.0000  0.0000
  o =  0.0268  v =  0.0000  0.0000  0.0000  0.0000  0.0000  0.0000 -0.7071  0.0000 -0.7071 -0.0000      0.0000  0.0000  0.0000  0.0000  0.0000  0.0000  0.0000  0.0000  0.0000  0.0000
  o =  0.0667  v =  0.0000  0.0000  0.0000  0.0000  0.0000  0.0000  0.7071  0.0000 -0.7071  0.0000      0.0000  0.0000  0.0000  0.0000  0.0000  0.0000  0.0000  0.0000  0.0000  0.0000
  o =  0.1070  v =  0.0000  0.0000  0.0000  0.0000  0.0000 -0.7925  0.0000  0.6099  0.0000 -0.0000      0.0000  0.0000  0.0000  0.0000  0.0000  0.0000  0.0000  0.0000  0.0000  0.0000
  o =  0.9408  v =  0.6780 -0.0000  0.7351 -0.0000 -0.0000  0.0000  0.0000  0.0000  0.0000  0.0000      0.0000  0.0000  0.0000  0.0000  0.0000  0.0000  0.0000  0.0000  0.0000  0.0000
  o =  0.9426  v =  0.0000  0.7071  0.0000  0.7071  0.0000  0.0000  0.0000  0.0000  0.0000  0.0000      0.0000  0.0000  0.0000  0.0000  0.0000  0.0000  0.0000  0.0000  0.0000  0.0000
  o =  0.9431  v = -0.0000  0.0000  0.0000  0.0000 -1.0000  0.0000  0.0000  0.0000  0.0000  0.0000      0.0000  0.0000  0.0000  0.0000  0.0000  0.0000  0.0000  0.0000  0.0000  0.0000
  o =  0.9451  v =  0.7351  0.0000 -0.6780  0.0000 -0.0000  0.0000  0.0000  0.0000  0.0000  0.0000      0.0000  0.0000  0.0000  0.0000  0.0000  0.0000  0.0000  0.0000  0.0000  0.0000
  o =  0.9746  v = -0.0000 -0.7071  0.0000  0.7071  0.0000  0.0000  0.0000  0.0000  0.0000  0.0000      0.0000  0.0000  0.0000  0.0000  0.0000  0.0000  0.0000  0.0000  0.0000  0.0000
     EDDAV:  cpu time    4.2170: real time    4.2171
       DOS:  cpu time    0.0004: real time    0.0004
    CHARGE:  cpu time    0.6062: real time    0.6062
    MIXING:  cpu time    0.0006: real time    0.0006
    --------------------------------------------
      LOOP:  cpu time    6.3357: real time    6.3358

 eigenvalue-minimisations  :  8520
 total energy-change (2. order) : 0.4828877E+00  (-0.4890983E+00)
 number of electron      54.0000007 magnetization       0.0000000
 augmentation part       19.9947145 magnetization       0.0000000

 Broyden mixing:
  rms(total) = 0.81184E+00    rms(broyden)= 0.81180E+00
  rms(prec ) = 0.89436E+00
  weight for this iteration     100.00

 eigenvalues of (default mixing * dielectric matrix)
  average eigenvalue GAMMA=   0.9462
  1.7159  0.5747  0.7470  0.7470

 Free energy of the ion-electron system (eV)
  ---------------------------------------------------
  alpha Z        PSCENC =       199.38838823
  Ewald energy   TEWEN  =     -4203.06823030
  -Hartree energ DENC   =     -2163.12937344
  -exchange      EXHF   =         0.00000000
  -V(xc)+E(xc)   XCENC  =       168.56630949
  PAW double counting   =      6441.10612320    -6404.87496334
  entropy T*S    EENTRO =        -0.00000000
  eigenvalues    EBANDS =      -795.16432218
  atomic energy  EATOM  =      6689.01075358
  Solvation  Ediel_sol  =         0.00000000
  ---------------------------------------------------
  free energy    TOTEN  =       -68.16531476 eV

  energy without entropy =      -68.16531476  energy(sigma->0) =      -68.16531476


--------------------------------------------------------------------------------------------------------




--------------------------------------- Iteration      1(  10)  ---------------------------------------


    POTLOK:  cpu time    0.0327: real time    0.0327
    SETDIJ:  cpu time    1.4799: real time    1.4799
atom =   1  type =  1  l = 2
 
 onsite density matrix
 
spin component  1
 
  0.0409  0.0000  0.0109  0.0000 -0.0000
  0.0000  0.0514  0.0000  0.0207  0.0000
  0.0109  0.0000  0.0371  0.0000 -0.0000
  0.0000  0.0207  0.0000  0.0514  0.0000
 -0.0000  0.0000 -0.0000  0.0000  0.0294
 
spin component  2
 
  0.9737  0.0000  0.0347  0.0000  0.0000
  0.0000  0.9515  0.0000  0.0171  0.0000
  0.0347  0.0000  0.9544  0.0000  0.0000
  0.0000  0.0171  0.0000  0.9515  0.0000
  0.0000  0.0000  0.0000  0.0000  0.9321
 
 occupancies and eigenvectors
 
  o =  0.0280  v = -0.6437  0.0000  0.7653  0.0000  0.0000  0.0000  0.0000  0.0000  0.0000  0.0000      0.0000  0.0000  0.0000  0.0000  0.0000  0.0000  0.0000  0.0000  0.0000  0.0000
  o =  0.0294  v = -0.0000 -0.0000  0.0000  0.0000 -1.0000  0.0000  0.0000  0.0000  0.0000  0.0000      0.0000  0.0000  0.0000  0.0000  0.0000  0.0000  0.0000  0.0000  0.0000  0.0000
  o =  0.0306  v =  0.0000  0.7071  0.0000 -0.7071 -0.0000  0.0000  0.0000  0.0000  0.0000  0.0000      0.0000  0.0000  0.0000  0.0000  0.0000  0.0000  0.0000  0.0000  0.0000  0.0000
  o =  0.0500  v = -0.7653  0.0000 -0.6437  0.0000  0.0000  0.0000  0.0000  0.0000  0.0000  0.0000      0.0000  0.0000  0.0000  0.0000  0.0000  0.0000  0.0000  0.0000  0.0000  0.0000
  o =  0.0721  v =  0.0000  0.7071  0.0000  0.7071 -0.0000  0.0000  0.0000  0.0000  0.0000  0.0000      0.0000  0.0000  0.0000  0.0000  0.0000  0.0000  0.0000  0.0000  0.0000  0.0000
  o =  0.9281  v =  0.0000  0.0000  0.0000  0.0000  0.0000 -0.6052  0.0000  0.7961  0.0000  0.0000      0.0000  0.0000  0.0000  0.0000  0.0000  0.0000  0.0000  0.0000  0.0000  0.0000
  o =  0.9321  v =  0.0000  0.0000  0.0000  0.0000  0.0000  0.0000 -0.0000 -0.0000  0.0000  1.0000      0.0000  0.0000  0.0000  0.0000  0.0000  0.0000  0.0000  0.0000  0.0000  0.0000
  o =  0.9344  v =  0.0000  0.0000  0.0000  0.0000  0.0000  0.0000  0.7071  0.0000 -0.7071  0.0000      0.0000  0.0000  0.0000  0.0000  0.0000  0.0000  0.0000  0.0000  0.0000  0.0000
[...]
     30       6.6102      0.00000
     31       7.3310      0.00000
     32       7.8559      0.00000
     33      10.1586      0.00000
     34      11.0596      0.00000
     35      11.4459      0.00000
     36      12.5372      0.00000

 k-point    48 :       0.2857    0.2857    0.4500
  band No.  band energies     occupation 
      1     -49.2460      1.00000
      2     -49.2060      1.00000
      3     -49.1851      1.00000
      4     -42.7371      1.00000
      5     -42.6943      1.00000
      6     -42.6628      1.00000
      7     -22.6006      1.00000
      8     -22.5657      1.00000
      9     -22.5314      1.00000
     10     -22.4333      1.00000
     11      -4.6711      1.00000
     12      -4.3289      1.00000
     13      -4.2106      1.00000
     14      -3.9934      1.00000
     15      -3.6296      1.00000
     16      -3.3909      1.00000
     17      -3.1758      1.00000
     18      -2.9381      1.00000
     19      -2.4260      1.00000
     20      -2.2974      1.00000
     21      -2.1993      1.00000
     22      -2.1080      1.00000
     23       0.7788      1.00000
     24       0.7909      1.00000
     25       1.0242      1.00000
     26       1.6444      1.00000
     27       2.1265      1.00000
     28       6.3772      0.00000
     29       6.4003      0.00000
     30       6.5932      0.00000
     31       7.3316      0.00000
     32       7.8550      0.00000
     33       9.8901      0.00000
     34      11.2795      0.00000
     35      12.2702      0.00000
     36      12.3184      0.00000

 k-point    49 :       0.4286    0.2857    0.4500
  band No.  band energies     occupation 
      1     -49.2460      1.00000
      2     -49.2060      1.00000
      3     -49.1852      1.00000
      4     -42.7371      1.00000
      5     -42.6943      1.00000
      6     -42.6628      1.00000
      7     -22.6050      1.00000
      8     -22.5589      1.00000
      9     -22.5220      1.00000
     10     -22.4440      1.00000
     11      -4.6996      1.00000
     12      -4.4996      1.00000
     13      -4.1523      1.00000
     14      -4.0780      1.00000
     15      -3.5542      1.00000
     16      -3.3807      1.00000
     17      -3.1608      1.00000
     18      -3.0098      1.00000
     19      -2.3373      1.00000
     20      -2.2617      1.00000
     21      -2.1016      1.00000
     22      -2.0673      1.00000
     23       0.7547      1.00000
     24       0.7926      1.00000
     25       1.0049      1.00000
     26       1.6695      1.00000
     27       2.1836      1.00000
     28       6.3737      0.00000
     29       6.4067      0.00000
     30       6.6154      0.00000
     31       7.3102      0.00000
     32       7.7957      0.00000
     33      10.3281      0.00000
     34      11.4048      0.00000
     35      11.6055      0.00000
     36      12.4976      0.00000

 k-point    50 :       0.4286    0.4286    0.4500
  band No.  band energies     occupation 
      1     -49.2460      1.00000
      2     -49.2060      1.00000
      3     -49.1852      1.00000
      4     -42.7371      1.00000
      5     -42.6943      1.00000
      6     -42.6628      1.00000
      7     -22.6175      1.00000
      8     -22.5527      1.00000
      9     -22.5157      1.00000
     10     -22.4421      1.00000
     11      -4.7807      1.00000
     12      -4.6164      1.00000
     13      -4.1577      1.00000
     14      -4.1359      1.00000
     15      -3.6345      1.00000
     16      -3.2823      1.00000
     17      -3.1509      1.00000
     18      -2.9256      1.00000
     19      -2.2387      1.00000
     20      -2.1788      1.00000
     21      -2.0567      1.00000
     22      -2.0439      1.00000
     23       0.7487      1.00000
     24       0.7910      1.00000
     25       0.9997      1.00000
     26       1.7015      1.00000
     27       2.1842      1.00000
     28       6.3768      0.00000
     29       6.4089      0.00000
     30       6.6243      0.00000
     31       7.2914      0.00000
     32       7.7126      0.00000
     33      10.6192      0.00000
     34      11.6968      0.00000
     35      11.7410      0.00000
     36      12.0407      0.00000


--------------------------------------------------------------------------------------------------------


 soft charge-density along one line, spin component           1
         0         1         2         3         4         5         6         7         8         9
 total charge-density along one line
 
 soft charge-density along one line, spin component           2
         0         1         2         3         4         5         6         7         8         9
 total charge-density along one line
 
 pseudopotential strength for first ion, spin component:           1
-45.227  -0.000  -0.038   7.798   0.000   0.016  -0.000   0.000
 -0.000 -45.193  -0.000   0.000   7.784   0.000   0.000   0.000
 -0.038  -0.000 -45.227   0.016   0.000   7.798   0.000   0.000
  7.798   0.000   0.016   5.590  -0.000   0.004  -0.000  -0.000
  0.000   7.784   0.000  -0.000   5.585  -0.000  -0.000   0.000
  0.016   0.000   7.798   0.004  -0.000   5.590  -0.000  -0.000
 -0.000   0.000   0.000  -0.000  -0.000  -0.000  -2.984  -0.000
  0.000   0.000   0.000  -0.000   0.000  -0.000  -0.000  -2.966
 -0.000   0.000   0.000   0.000  -0.000   0.000   0.020  -0.000
  0.000   0.000   0.000  -0.000   0.000  -0.000  -0.000  -0.018
  0.000   0.000  -0.000  -0.000  -0.000  -0.000  -0.000   0.000
 -0.000   0.000   0.000  -0.000  -0.000  -0.000  -3.499  -0.000
  0.000   0.000   0.000  -0.000   0.000  -0.000  -0.000  -3.482
 -0.000   0.000   0.000   0.000  -0.000   0.000   0.018  -0.000
  0.000   0.000   0.000  -0.000   0.000  -0.000  -0.000  -0.018
  0.000   0.000  -0.000  -0.000  -0.000  -0.000  -0.000   0.000
  0.000  -0.000   0.000   0.000  -0.000  -0.000   0.011   0.000
  0.000  -0.000   0.000   0.000  -0.000  -0.000   0.022   0.000
 pseudopotential strength for first ion, spin component:           2
-50.980  -0.000  -0.005   9.798   0.000   0.016   0.000   0.000
 -0.000 -50.981  -0.000   0.000   9.783   0.000   0.000   0.000
 -0.005  -0.000 -50.980   0.016   0.000   9.798  -0.000   0.000
  9.798   0.000   0.016   4.707  -0.000   0.001  -0.000  -0.000
  0.000   9.783   0.000  -0.000   4.706  -0.000  -0.000  -0.000
  0.016   0.000   9.798   0.001  -0.000   4.707  -0.000  -0.000
  0.000   0.000  -0.000  -0.000  -0.000  -0.000  -7.337  -0.000
  0.000   0.000   0.000  -0.000  -0.000  -0.000  -0.000  -7.328
  0.000   0.000  -0.000  -0.000  -0.000   0.000  -0.009  -0.000
  0.000  -0.000   0.000  -0.000   0.000  -0.000  -0.000  -0.027
 -0.000   0.000   0.000  -0.000  -0.000  -0.000   0.000   0.000
  0.000   0.000  -0.000  -0.000  -0.000  -0.000  -7.808  -0.000
  0.000   0.000   0.000  -0.000  -0.000  -0.000  -0.000  -7.799
  0.000   0.000  -0.000  -0.000  -0.000   0.000  -0.008  -0.000
  0.000  -0.000   0.000  -0.000   0.000  -0.000  -0.000  -0.027
 -0.000   0.000   0.000  -0.000  -0.000  -0.000   0.000   0.000
  0.000  -0.000  -0.000  -0.000  -0.000   0.000   0.011   0.000
  0.000  -0.000  -0.000  -0.000  -0.000   0.000   0.023   0.000
 total augmentation occupancy for first ion, spin component:           1
  2.001   0.000   0.000  -0.013   0.000   0.001   0.000   0.000   0.000   0.000   0.000   0.000   0.000   0.000   0.000   0.000
  0.000   2.001   0.000   0.000  -0.013   0.000   0.000   0.000   0.000   0.000   0.000   0.000   0.000   0.000   0.000   0.000
  0.000   0.000   2.001   0.001   0.000  -0.013   0.000   0.000   0.000   0.000   0.000   0.000   0.000   0.000   0.000   0.000
 -0.013   0.000   0.001   0.081   0.000  -0.009   0.000   0.000   0.000   0.000   0.000   0.000   0.000   0.000   0.000   0.000
  0.000  -0.013   0.000   0.000   0.090   0.000   0.000   0.000   0.000   0.000   0.000   0.000   0.000   0.000   0.000   0.000
  0.001   0.000  -0.013  -0.009   0.000   0.081   0.000   0.000   0.000   0.000   0.000   0.000   0.000   0.000   0.000   0.000
  0.000   0.000   0.000   0.000   0.000   0.000   7.757   0.000   2.996   0.000   0.000  -5.784   0.000  -2.817   0.000   0.000
  0.000   0.000   0.000   0.000   0.000   0.000   0.000   6.565   0.000   2.534   0.000   0.000  -4.637   0.000  -2.380   0.000
  0.000   0.000   0.000   0.000   0.000   0.000   2.996   0.000   5.955   0.000   0.000  -2.819   0.000  -4.096   0.000   0.000
  0.000   0.000   0.000   0.000   0.000   0.000   0.000   2.534   0.000   6.565   0.000   0.000  -2.380   0.000  -4.637   0.000
  0.000   0.000   0.000   0.000   0.000   0.000   0.000   0.000   0.000   0.000   3.894  -0.000   0.000   0.000   0.000  -2.113
  0.000   0.000   0.000   0.000   0.000   0.000  -5.784   0.000  -2.819   0.000   0.000   4.984   0.000   2.684   0.000  -0.000
  0.000   0.000   0.000   0.000   0.000   0.000   0.000  -4.637   0.000  -2.380   0.000   0.000   3.872   0.000   2.263   0.000
  0.000   0.000   0.000   0.000   0.000   0.000  -2.817   0.000  -4.096   0.000  -0.000   2.684   0.000   3.385   0.000  -0.000
  0.000   0.000   0.000   0.000   0.000   0.000   0.000  -2.380   0.000  -4.637   0.000   0.000   2.263   0.000   3.872   0.000
  0.000   0.000   0.000   0.000   0.000   0.000   0.000   0.000  -0.000   0.000  -2.113  -0.000   0.000  -0.000   0.000   1.456
  0.000   0.000   0.000   0.000   0.000   0.000   0.440   0.000  -0.297   0.000   0.000  -0.417   0.000   0.276   0.000  -0.000
  0.000   0.000   0.000   0.000   0.000   0.000  -0.091   0.000   0.068   0.000   0.000   0.097   0.000  -0.068   0.000   0.000
 total augmentation occupancy for first ion, spin component:           2
  0.004   0.000  -0.000   0.017   0.000  -0.001   0.000   0.000   0.000   0.000   0.000   0.000   0.000   0.000   0.000   0.000
  0.000   0.004   0.000   0.000   0.018   0.000   0.000   0.000   0.000   0.000   0.000   0.000   0.000   0.000   0.000   0.000
 -0.000   0.000   0.004  -0.001   0.000   0.017   0.000   0.000   0.000   0.000   0.000   0.000   0.000   0.000   0.000   0.000
  0.017   0.000  -0.001  -0.011   0.000  -0.000   0.000   0.000   0.000   0.000   0.000   0.000   0.000   0.000   0.000   0.000
  0.000   0.018   0.000   0.000  -0.010   0.000   0.000   0.000   0.000   0.000   0.000   0.000   0.000   0.000   0.000   0.000
 -0.001   0.000   0.017  -0.000   0.000  -0.011   0.000   0.000   0.000   0.000   0.000   0.000   0.000   0.000   0.000   0.000
  0.000   0.000   0.000   0.000   0.000   0.000  -5.102   0.000  -1.493   0.000   0.000   2.727   0.000   1.097   0.000   0.000
  0.000   0.000   0.000   0.000   0.000   0.000   0.000  -4.548   0.000  -1.273   0.000   0.000   2.299   0.000   0.937   0.000
  0.000   0.000   0.000   0.000   0.000   0.000  -1.493   0.000  -4.149   0.000  -0.000   1.097   0.000   2.012   0.000   0.000
  0.000   0.000   0.000   0.000   0.000   0.000   0.000  -1.273   0.000  -4.548   0.000   0.000   0.937   0.000   2.299   0.000
  0.000   0.000   0.000   0.000   0.000   0.000   0.000   0.000   0.000   0.000  -3.256  -0.000   0.000   0.000   0.000   1.355
  0.000   0.000   0.000   0.000   0.000   0.000   2.727   0.000   1.097   0.000   0.000  -1.456   0.000  -0.706   0.000   0.000
  0.000   0.000   0.000   0.000   0.000   0.000   0.000   2.299   0.000   0.937   0.000   0.000  -1.155   0.000  -0.606   0.000
  0.000   0.000   0.000   0.000   0.000   0.000   1.097   0.000   2.012   0.000   0.000  -0.706   0.000  -0.974   0.000   0.000
  0.000   0.000   0.000   0.000   0.000   0.000   0.000   0.937   0.000   2.299   0.000   0.000  -0.606   0.000  -1.155   0.000
  0.000   0.000   0.000   0.000   0.000   0.000  -0.000   0.000   0.000   0.000   1.355   0.000   0.000   0.000   0.000  -0.556
  0.000   0.000   0.000   0.000   0.000   0.000  -0.098   0.000   0.055   0.000   0.000   0.022   0.000   0.001   0.000   0.000
  0.000   0.000   0.000   0.000   0.000   0.000  -0.000   0.000  -0.006   0.000   0.000   0.009   0.000  -0.004   0.000   0.000


------------------------ aborting loop because EDIFF is reached ----------------------------------------


 


 total charge     
 
# of ion       s       p       d       tot
------------------------------------------
    1        0.168   6.148   4.965  11.282
    2        0.172   6.145   4.970  11.287
    3        1.731   4.401   0.000   6.132
    4        1.731   4.401   0.000   6.132
    5        1.730   4.398   0.000   6.129
    6        1.730   4.398   0.000   6.129
--------------------------------------------------
tot          7.262  29.891   9.936  47.090
 


 magnetization (x)
 
# of ion       s       p       d       tot
------------------------------------------
    1       -0.022  -0.018  -4.581  -4.621
    2        0.023   0.016   4.579   4.618
    3        0.003   0.024   0.000   0.027
    4        0.003   0.024   0.000   0.027
    5       -0.003  -0.021   0.000  -0.024
    6       -0.003  -0.021   0.000  -0.024
--------------------------------------------------
tot         -0.001   0.005  -0.002   0.002
 
    CHARGE:  cpu time    0.0991: real time    0.0991
    FORLOC:  cpu time    0.0008: real time    0.0008
    FORNL :  cpu time    0.5637: real time    0.5637
    STRESS:  cpu time   10.7061: real time   10.7062
    FORCOR:  cpu time    0.0295: real time    0.0295
    FORHAR:  cpu time    0.0021: real time    0.0021
    MIXING:  cpu time    0.0012: real time    0.0012
    OFIELD:  cpu time    0.0000: real time    0.0000

  FORCE on cell =-STRESS in cart. coord.  units (eV):
  Direction    XX          YY          ZZ          XY          YZ          ZX
  --------------------------------------------------------------------------------------
  Alpha Z   199.38839   199.38839   199.38839
  Ewald   -1586.09778 -1586.09778 -1030.87583    -0.00000     0.00000     0.00000
  Hartree   594.08448   594.08448   969.39618    -0.00000    -0.00000    -0.00000
  E(xc)    -150.54714  -150.52103  -150.65807    -0.01276    -0.02065    -0.02537
  Local     163.67439   163.67439  -759.97237    -0.00000     0.00000    -0.00000
  n-local  -310.01327  -310.32501  -309.26871     0.01485     0.09020     0.10143
  augment   158.52042   158.52042   158.02819    -0.00000     0.00000    -0.00000
  Kinetic   930.81937   931.45955   923.95672    -0.34142    -0.64767    -0.77271
  Fock        0.00000     0.00000     0.00000     0.00000     0.00000     0.00000
  -------------------------------------------------------------------------------------
  Total       0.00614     0.00614    -0.00550     0.00000     0.00000     0.00000
  in kB       0.12710     0.12710    -0.11378     0.00000     0.00000     0.00000
  external pressure =        0.05 kB  Pullay stress =        0.00 kB


 VOLUME and BASIS-vectors are now :
 -----------------------------------------------------------------------------
  energy-cutoff  :      600.00
  volume of cell :       77.42
      direct lattice vectors                 reciprocal lattice vectors
     4.852568500  0.000000000  0.000000000     0.206076431  0.000000000  0.000000000
     0.000000000  4.852568500  0.000000000     0.000000000  0.206076431  0.000000000
     0.000000000  0.000000000  3.288011935     0.000000000  0.000000000  0.304135149

  length of vectors
     4.852568500  4.852568500  3.288011935     0.206076431  0.206076431  0.304135149


 FORCES acting on ions
    electron-ion (+dipol)            ewald-force                    non-local-force                 convergence-correction
 -----------------------------------------------------------------------------------------------
   -.176E-11 0.656E-11 -.488E-13   -.568E-13 -.568E-13 -.305E-14   0.000E+00 0.000E+00 0.000E+00   -.257E-13 -.171E-13 0.108E-12
   -.226E-13 -.179E-13 0.367E-13   0.171E-12 0.171E-12 -.494E-14   0.000E+00 0.000E+00 0.000E+00   0.104E-13 0.218E-13 -.172E-12
   -.325E+02 0.325E+02 0.111E-11   0.337E+02 -.337E+02 0.930E-15   -.120E+01 0.120E+01 0.000E+00   -.124E-04 0.124E-04 0.570E-13
   0.325E+02 -.325E+02 -.840E-11   -.337E+02 0.337E+02 0.116E-14   0.120E+01 -.120E+01 0.000E+00   0.124E-04 -.124E-04 0.529E-13
   0.325E+02 0.325E+02 0.515E-08   -.337E+02 -.337E+02 -.175E-14   0.120E+01 0.120E+01 0.000E+00   0.124E-04 0.124E-04 -.787E-11
   -.325E+02 -.325E+02 -.515E-08   0.337E+02 0.337E+02 -.154E-14   -.120E+01 -.120E+01 0.000E+00   -.124E-04 -.124E-04 0.775E-11
 -----------------------------------------------------------------------------------------------
   0.844E-12 0.753E-11 -.726E-11   0.000E+00 0.000E+00 -.918E-14   -.222E-15 0.000E+00 0.000E+00   -.200E-13 -.318E-13 -.754E-13
 
 
 POSITION                                       TOTAL-FORCE (eV/Angst)
 -----------------------------------------------------------------------------------
      2.42628      2.42628      1.64401         0.000000      0.000000      0.000000
      0.00000      0.00000      0.00000         0.000000      0.000000      0.000000
      0.95159      3.90098      1.64401         0.001578     -0.001578     -0.000000
      3.90098      0.95159      1.64401        -0.001578      0.001578      0.000000
      1.47470      1.47470      0.00000        -0.001578     -0.001578     -0.000000
      3.37787      3.37787      0.00000         0.001578      0.001578      0.000000
 -----------------------------------------------------------------------------------
    total drift:                                0.000000      0.000000     -0.000000


--------------------------------------------------------------------------------------------------------



  FREE ENERGIE OF THE ION-ELECTRON SYSTEM (eV)
  ---------------------------------------------------
  free  energy   TOTEN  =       -68.02426526 eV

  energy  without entropy=      -68.02426526  energy(sigma->0) =      -68.02426526
 


--------------------------------------------------------------------------------------------------------


    POTLOK:  cpu time    1.3860: real time    1.3861


--------------------------------------------------------------------------------------------------------


 writing wavefunctions
     LOOP+:  cpu time  135.1854: real time  135.2066
    4ORBIT:  cpu time    0.0000: real time    0.0000
 


 total charge     
 
# of ion       s       p       d       tot
------------------------------------------
    1        0.168   6.148   4.965  11.282
    2        0.172   6.145   4.970  11.287
    3        1.731   4.401   0.000   6.132
    4        1.731   4.401   0.000   6.132
    5        1.730   4.398   0.000   6.129
    6        1.730   4.398   0.000   6.129
--------------------------------------------------
tot          7.262  29.891   9.936  47.090
 


 magnetization (x)
 
# of ion       s       p       d       tot
------------------------------------------
    1       -0.022  -0.018  -4.581  -4.621
    2        0.023   0.016   4.579   4.618
    3        0.003   0.024   0.000   0.027
    4        0.003   0.024   0.000   0.027
    5       -0.003  -0.021   0.000  -0.024
    6       -0.003  -0.021   0.000  -0.024
--------------------------------------------------
tot         -0.001   0.005  -0.002   0.002
 

 total amount of memory used by VASP MPI-rank0    86704. kBytes
=======================================================================

   base      :      30000. kBytes
   nonl-proj :      37921. kBytes
   fftplans  :       1875. kBytes
   grid      :       3820. kBytes
   one-center:        186. kBytes
   wavefun   :      12902. kBytes
 
  
  
 General timing and accounting informations for this job:
 ========================================================
  
                  Total CPU time used (sec):      137.370
                            User time (sec):      108.808
                          System time (sec):       28.561
                         Elapsed time (sec):      137.440
  
                   Maximum memory used (kb):       99616.
                   Average memory used (kb):           0.
  
                          Minor page faults:        23410
                          Major page faults:            5
                 Voluntary context switches:          269
