       N       E                     dE             d eps       ncg     rms          rms(c)
DAV:   1     0.674763681009E+03    0.67476E+03   -0.33901E+04   144   0.187E+03
DAV:   2     0.104357819170E+02   -0.66433E+03   -0.64544E+03   156   0.504E+02
DAV:   3    -0.394305844601E+02   -0.49866E+02   -0.49606E+02   168   0.151E+02
DAV:   4    -0.400920837709E+02   -0.66150E+00   -0.66127E+00   168   0.191E+01
DAV:   5    -0.401019993894E+02   -0.99156E-02   -0.99156E-02   168   0.232E+00    0.227E+01
DAV:   6    -0.382620805449E+02    0.18399E+01   -0.15730E+01   216   0.317E+01    0.146E+01
DAV:   7    -0.389865526090E+02   -0.72447E+00   -0.17045E+00   192   0.105E+01    0.113E+01
DAV:   8    -0.389981375287E+02   -0.11585E-01   -0.48236E-01   192   0.576E+00    0.482E+00
DAV:   9    -0.391949822341E+02   -0.19684E+00   -0.58683E-02   168   0.236E+00    0.134E+00
DAV:  10    -0.391943204539E+02    0.66178E-03   -0.15846E-02   168   0.112E+00    0.273E-01
DAV:  11    -0.391945884037E+02   -0.26795E-03   -0.26204E-03   168   0.331E-01    0.123E-01
DAV:  12    -0.391947085489E+02   -0.12015E-03   -0.73491E-05   192   0.102E-01    0.557E-02
DAV:  13    -0.391947755342E+02   -0.66985E-04   -0.98231E-05   144   0.583E-02    0.214E-02
DAV:  14    -0.391947842391E+02   -0.87049E-05   -0.13034E-05   192   0.298E-02    0.101E-02
DAV:  15    -0.391947839992E+02    0.23989E-06   -0.21612E-06   144   0.934E-03    0.363E-03
DAV:  16    -0.391947842250E+02   -0.22581E-06   -0.21031E-07   120   0.284E-03    0.143E-03
DAV:  17    -0.391947842141E+02    0.10863E-07   -0.52587E-08   120   0.144E-03
   1 F= -.39194784E+02 E0= -.39194784E+02  d E =-.391948E+02  mag=    -0.0000
