 vasp.5.4.4.18Apr17-6-g9f103f2a35 (build Apr 27 2017 11:13:10) complex          
  
 executed on           IFC91_ompi date 2020.05.13  12:13:16
 running on   12 total cores
 distrk:  each k-point on   12 cores,    1 groups
 distr:  one band on NCORES_PER_BAND=   1 cores,   12 groups


--------------------------------------------------------------------------------------------------------


 INCAR:
 POTCAR:    PAW Mn_pv 02Aug2007                   
 POTCAR:    PAW F 31May2000                       

 ----------------------------------------------------------------------------- 
|                                                                             |
|           W    W    AA    RRRRR   N    N  II  N    N   GGGG   !!!           |
|           W    W   A  A   R    R  NN   N  II  NN   N  G    G  !!!           |
|           W    W  A    A  R    R  N N  N  II  N N  N  G       !!!           |
|           W WW W  AAAAAA  RRRRR   N  N N  II  N  N N  G  GGG   !            |
|           WW  WW  A    A  R   R   N   NN  II  N   NN  G    G                |
|           W    W  A    A  R    R  N    N  II  N    N   GGGG   !!!           |
|                                                                             |
|      For optimal performance we recommend to set                            |
|        NCORE= 4 - approx SQRT( number of cores)                             |
|      NCORE specifies how many cores store one orbital (NPAR=cpu/NCORE).     |
|      This setting can  greatly improve the performance of VASP for DFT.     |
|      The default,   NCORE=1            might be grossly inefficient         |
|      on modern multi-core architectures or massively parallel machines.     |
|      Do your own testing !!!!                                               |
|      Unfortunately you need to use the default for GW and RPA calculations. |
|      (for HF NCORE is supported but not extensively tested yet)             |
|                                                                             |
 ----------------------------------------------------------------------------- 

 POTCAR:    PAW Mn_pv 02Aug2007                   
   VRHFIN =Mn: 3p4s3d                                                           
   LEXCH  = CA                                                                  
   EATOM  =  2028.0466 eV,  149.0572 Ry                                         
                                                                                
   TITEL  = PAW Mn_pv 02Aug2007                                                 
   LULTRA =        F    use ultrasoft PP ?                                      
   IUNSCR =        1    unscreen: 0-lin 1-nonlin 2-no                           
   RPACOR =    2.080    partial core radius                                     
   POMASS =   54.938; ZVAL   =   13.000    mass and valenz                      
   RCORE  =    2.300    outmost cutoff radius                                   
   RWIGS  =    2.500; RWIGS  =    1.323    wigner-seitz radius (au A)           
   ENMAX  =  269.944; ENMIN  =  202.458 eV                                      
   ICORE  =        3    local potential                                         
   LCOR   =        T    correct aug charges                                     
   LPAW   =        T    paw PP                                                  
   EAUG   =  569.085                                                            
   DEXC   =    0.000                                                            
   RMAX   =    2.343    core radius for proj-oper                               
   RAUG   =    1.300    factor for augmentation sphere                          
   RDEP   =    2.338    radius for radial grids                                 
   RDEPT  =    1.798    core radius for aug-charge                              
                                                                                
   Atomic configuration                                                         
    8 entries                                                                   
     n  l   j            E        occ.                                          
     1  0  0.50     -6393.6057   2.0000                                         
     2  0  0.50      -735.9993   2.0000                                         
     2  1  1.50      -624.3417   6.0000                                         
     3  0  0.50       -80.9782   2.0000                                         
     3  1  1.50       -50.3144   6.0000                                         
     3  2  2.50        -3.6171   6.0000                                         
     4  0  0.50        -4.3304   1.0000                                         
     4  3  2.50        -1.3606   0.0000                                         
   Description                                                                  
     l       E           TYP  RCUT    TYP  RCUT                                 
     1    -50.3143634     23  2.000                                             
     1     -1.3605826     23  2.000                                             
     2     -3.6171470     23  2.300                                             
     2     -4.9777296     23  2.300                                             
     0     -4.3303688     23  2.300                                             
     0      7.3408788     23  2.300                                             
     3      9.5240782     23  2.300                                             
  local pseudopotential read in
  partial core-charges read in
  partial kinetic energy density read in
  atomic valenz-charges read in
  non local Contribution for L=           1  read in
    real space projection operators read in
  non local Contribution for L=           1  read in
    real space projection operators read in
  non local Contribution for L=           2  read in
    real space projection operators read in
  non local Contribution for L=           2  read in
    real space projection operators read in
  non local Contribution for L=           0  read in
    real space projection operators read in
  non local Contribution for L=           0  read in
    real space projection operators read in
    PAW grid and wavefunctions read in
 
   number of l-projection  operators is LMAX  =           6
   number of lm-projection operators is LMMAX =          18
 
 POTCAR:    PAW F 31May2000                       
   VRHFIN =F: s2p5                                                              
   LEXCH  = CA                                                                  
   EATOM  =   658.3685 eV,   48.3887 Ry                                         
                                                                                
   TITEL  = PAW F 31May2000                                                     
   LULTRA =        F    use ultrasoft PP ?                                      
   IUNSCR =        1    unscreen: 0-lin 1-nonlin 2-no                           
   RPACOR =    1.200    partial core radius                                     
   POMASS =   18.998; ZVAL   =    7.000    mass and valenz                      
   RCORE  =    1.520    outmost cutoff radius                                   
   RWIGS  =    1.500; RWIGS  =    0.794    wigner-seitz radius (au A)           
   ENMAX  =  400.000; ENMIN  =  300.000 eV                                      
   ICORE  =        2    local potential                                         
   LCOR   =        T    correct aug charges                                     
   LPAW   =        T    paw PP                                                  
   EAUG   =  613.614                                                            
   DEXC   =    0.000                                                            
   RMAX   =    1.555    core radius for proj-oper                               
   RAUG   =    1.300    factor for augmentation sphere                          
   RDEP   =    1.539    radius for radial grids                                 
   RDEPT  =    1.299    core radius for aug-charge                              
                                                                                
   Atomic configuration                                                         
    4 entries                                                                   
     n  l   j            E        occ.                                          
     1  0  0.50      -658.3386   2.0000                                         
     2  0  0.50       -29.6221   2.0000                                         
     2  1  0.50       -11.2952   5.0000                                         
     3  2  1.50       -12.2452   0.0000                                         
   Description                                                                  
     l       E           TYP  RCUT    TYP  RCUT                                 
     0    -29.6221019     23  1.200                                             
     0     -9.5240782     23  1.200                                             
     1    -11.2951545     23  1.520                                             
     1      1.3605826     23  1.520                                             
     2    -12.2452434      7  1.500                                             
  local pseudopotential read in
  partial core-charges read in
  partial kinetic energy density read in
  kinetic energy density of atom read in
  atomic valenz-charges read in
  non local Contribution for L=           0  read in
    real space projection operators read in
  non local Contribution for L=           0  read in
    real space projection operators read in
  non local Contribution for L=           1  read in
    real space projection operators read in
  non local Contribution for L=           1  read in
    real space projection operators read in
    PAW grid and wavefunctions read in
 
   number of l-projection  operators is LMAX  =           4
   number of lm-projection operators is LMMAX =           8
 
  PAW Mn_pv 02Aug2007                   :
 energy of atom  1       EATOM=-2028.0466
 kinetic energy error for atom=    0.0047 (will be added to EATOM!!)
  PAW F 31May2000                       :
 energy of atom  2       EATOM= -658.3685
 kinetic energy error for atom=    0.0252 (will be added to EATOM!!)
 
 
 POSCAR: Mn  F                                   
  positions in cartesian coordinates
  No initial velocities read in
 exchange correlation table for  LEXCH =        2
   RHO(1)=    0.500       N(1)  =     2000
   RHO(2)=  100.500       N(2)  =     4000
 


--------------------------------------------------------------------------------------------------------


 ion  position               nearest neighbor table
   1  0.500  0.500  0.500-   3 2.06   4 2.06   5 2.10   6 2.10   5 2.10   6 2.10
   2  0.000  0.000  0.000-   5 2.06   6 2.06   3 2.10   4 2.10   3 2.10   4 2.10
   3  0.196  0.804  0.500-   1 2.06   2 2.10   2 2.10
   4  0.804  0.196  0.500-   1 2.06   2 2.10   2 2.10
   5  0.304  0.304  0.000-   2 2.06   1 2.10   1 2.10
   6  0.696  0.696  0.000-   2 2.06   1 2.10   1 2.10
 
  LATTYP: Found a simple tetragonal cell.
 ALAT       =     4.7959042861
 C/A-ratio  =     0.6772201529
  
  Lattice vectors:
  
 A1 = (   4.7959042861,   0.0000000000,   0.0000000000)
 A2 = (   0.0000000000,   4.7959042861,   0.0000000000)
 A3 = (   0.0000000000,   0.0000000000,   3.2478830338)


Analysis of symmetry for initial positions (statically):
=====================================================================
 Subroutine PRICEL returns:
 Original cell was already a primitive cell.
 

 Routine SETGRP: Setting up the symmetry group for a 
 simple tetragonal supercell.


 Subroutine GETGRP returns: Found 16 space group operations
 (whereof  8 operations were pure point group operations)
 out of a pool of 16 trial point group operations.


The static configuration has the point symmetry D_2h.
 The point group associated with its full space group is D_4h.


Analysis of symmetry for dynamics (positions and initial velocities):
=====================================================================
 Subroutine PRICEL returns:
 Original cell was already a primitive cell.
 

 Routine SETGRP: Setting up the symmetry group for a 
 simple tetragonal supercell.


 Subroutine GETGRP returns: Found 16 space group operations
 (whereof  8 operations were pure point group operations)
 out of a pool of 16 trial point group operations.


The dynamic configuration has the point symmetry D_2h.
 The point group associated with its full space group is D_4h.


Analysis of structural, dynamic, and magnetic symmetry:
=====================================================================
 Subroutine PRICEL returns:
 Original cell was already a primitive cell.
 

 Routine SETGRP: Setting up the symmetry group for a 
 simple tetragonal supercell.


 Subroutine GETGRP returns: Found 16 space group operations
 (whereof  8 operations were pure point group operations)
 out of a pool of 16 trial point group operations.


The magnetic configuration has the point symmetry D_2h.
 The point group associated with its full space group is D_4h.


 Subroutine INISYM returns: Found 16 space group operations
 (whereof  8 operations are pure point group operations),
 and found     1 'primitive' translations

 
 
 KPOINTS: KPOINTS created by Atomic Simulation Env

Automatic generation of k-mesh.
Space group operators:
 irot       det(A)        alpha          n_x          n_y          n_z        tau_x        tau_y        tau_z
    1     1.000000     0.000000     1.000000     0.000000     0.000000     0.000000     0.000000     0.000000
    2    -1.000000     0.000000     1.000000     0.000000     0.000000     0.000000     0.000000     0.000000
    3     1.000000   180.000000     0.000000     0.000000     1.000000     0.000000     0.000000     0.000000
    4    -1.000000   180.000000     0.000000     0.000000     1.000000     0.000000     0.000000     0.000000
    5     1.000000   180.000000     0.707107     0.707107     0.000000     0.000000     0.000000     0.000000
    6    -1.000000   180.000000     0.707107     0.707107     0.000000     0.000000     0.000000     0.000000
    7     1.000000   180.000000     0.707107    -0.707107     0.000000     0.000000     0.000000     0.000000
    8    -1.000000   180.000000     0.707107    -0.707107     0.000000     0.000000     0.000000     0.000000
    9     1.000000    90.000000     0.000000     0.000000    -1.000000     0.500000     0.500000     0.500000
   10    -1.000000    90.000000     0.000000     0.000000    -1.000000     0.500000     0.500000     0.500000
   11     1.000000    90.000000     0.000000     0.000000     1.000000     0.500000     0.500000     0.500000
   12    -1.000000    90.000000     0.000000     0.000000     1.000000     0.500000     0.500000     0.500000
   13     1.000000   180.000000     0.000000     1.000000     0.000000     0.500000     0.500000     0.500000
   14    -1.000000   180.000000     0.000000     1.000000     0.000000     0.500000     0.500000     0.500000
   15     1.000000   180.000000     1.000000     0.000000     0.000000     0.500000     0.500000     0.500000
   16    -1.000000   180.000000     1.000000     0.000000     0.000000     0.500000     0.500000     0.500000
 
 Subroutine IBZKPT returns following result:
 ===========================================
 
 Found      6 irreducible k-points:
 
 Following reciprocal coordinates:
            Coordinates               Weight
  0.000000  0.000000  0.125000      2.000000
  0.333333  0.000000  0.125000      8.000000
  0.333333  0.333333  0.125000      8.000000
  0.000000  0.000000  0.375000      2.000000
  0.333333  0.000000  0.375000      8.000000
  0.333333  0.333333  0.375000      8.000000
 
 Following cartesian coordinates:
            Coordinates               Weight
  0.000000  0.000000  0.038487      2.000000
  0.069504  0.000000  0.038487      8.000000
  0.069504  0.069504  0.038487      8.000000
  0.000000  0.000000  0.115460      2.000000
  0.069504  0.000000  0.115460      8.000000
  0.069504  0.069504  0.115460      8.000000
 


--------------------------------------------------------------------------------------------------------




 Dimension of arrays:
   k-points           NKPTS =      6   k-points in BZ     NKDIM =      6   number of bands    NBANDS=     36
   number of dos      NEDOS =    301   number of ions     NIONS =      6
   non local maximal  LDIM  =      6   non local SUM 2l+1 LMDIM =     18
   total plane-waves  NPLWV =  18000
   max r-space proj   IRMAX =      1   max aug-charges    IRDMAX=  58682
   dimension x,y,z NGX =    30 NGY =   30 NGZ =   20
   dimension x,y,z NGXF=    60 NGYF=   60 NGZF=   40
   support grid    NGXF=   120 NGYF=  120 NGZF=   80
   ions per type =               2   4
   NGX,Y,Z   is equivalent  to a cutoff of  10.40, 10.40, 10.24 a.u.
   NGXF,Y,Z  is equivalent  to a cutoff of  20.80, 20.80, 20.47 a.u.

 SYSTEM =  unknown system                          
 POSCAR =  Mn  F                                   

 Startparameter for this run:
   NWRITE =      2    write-flag & timer
   PREC   = normal    normal or accurate (medium, high low for compatibility)
   ISTART =      0    job   : 0-new  1-cont  2-samecut
   ICHARG =      2    charge: 1-file 2-atom 10-const
   ISPIN  =      2    spin polarized calculation?
   LNONCOLLINEAR =      F non collinear calculations
   LSORBIT =      F    spin-orbit coupling
   INIWAV =      1    electr: 0-lowe 1-rand  2-diag
   LASPH  =      T    aspherical Exc in radial PAW
   METAGGA=      F    non-selfconsistent MetaGGA calc.

 Electronic Relaxation 1
   ENCUT  =  600.0 eV  44.10 Ry    6.64 a.u.   9.58  9.58  6.49*2*pi/ulx,y,z
   ENINI  =  600.0     initial cutoff
   ENAUG  =  613.6 eV  augmentation charge cutoff
   NELM   =     60;   NELMIN=  2; NELMDL= -5     # of ELM steps 
   EDIFF  = 0.1E-06   stopping-criterion for ELM
   LREAL  =      F    real-space projection
   NLSPLINE    = F    spline interpolate recip. space projectors
   LCOMPAT=      F    compatible to vasp.4.4
   GGA_COMPAT  = T    GGA compatible to vasp.4.4-vasp.4.6
   LMAXPAW     = -100 max onsite density
   LMAXMIX     =    4 max onsite mixed and CHGCAR
   VOSKOWN=      0    Vosko Wilk Nusair interpolation
   ROPT   =    0.00000   0.00000
 Ionic relaxation
   EDIFFG = -.5E-02   stopping-criterion for IOM
   NSW    =     50    number of steps for IOM
   NBLOCK =      1;   KBLOCK =     50    inner block; outer block 
   IBRION =      2    ionic relax: 0-MD 1-quasi-New 2-CG
   NFREE  =      1    steps in history (QN), initial steepest desc. (CG)
   ISIF   =      3    stress and relaxation
   IWAVPR =     11    prediction:  0-non 1-charg 2-wave 3-comb
   ISYM   =      2    0-nonsym 1-usesym 2-fastsym
   LCORR  =      T    Harris-Foulkes like correction to forces

   POTIM  = 0.5000    time-step for ionic-motion
   TEIN   =    0.0    initial temperature
   TEBEG  =    0.0;   TEEND  =   0.0 temperature during run
   SMASS  =  -3.00    Nose mass-parameter (am)
   estimated Nose-frequenzy (Omega)   =  0.10E-29 period in steps =****** mass=  -0.526E-27a.u.
   SCALEE = 1.0000    scale energy and forces
   NPACO  =    256;   APACO  = 16.0  distance and # of slots for P.C.
   PSTRESS=    0.0 pullay stress

  Mass of Ions in am
   POMASS =  54.94 19.00
  Ionic Valenz
   ZVAL   =  13.00  7.00
  Atomic Wigner-Seitz radii
   RWIGS  =  -1.00 -1.00
  virtual crystal weights 
   VCA    =   1.00  1.00
   NELECT =      54.0000    total number of electrons
   NUPDOWN=      -1.0000    fix difference up-down

 DOS related values:
   EMIN   =  10.00;   EMAX   =-10.00  energy-range for DOS
   EFERMI =   0.00
   ISMEAR =     0;   SIGMA  =   0.02  broadening in eV -4-tet -1-fermi 0-gaus

 Electronic relaxation 2 (details)
   IALGO  =     38    algorithm
   LDIAG  =      T    sub-space diagonalisation (order eigenvalues)
   LSUBROT=      F    optimize rotation matrix (better conditioning)
   TURBO    =      0    0=normal 1=particle mesh
   IRESTART =      0    0=no restart 2=restart with 2 vectors
   NREBOOT  =      0    no. of reboots
   NMIN     =      0    reboot dimension
   EREF     =   0.00    reference energy to select bands
   IMIX   =      4    mixing-type and parameters
     AMIX     =   0.40;   BMIX     =  1.00
     AMIX_MAG =   1.60;   BMIX_MAG =  1.00
     AMIN     =   0.10
     WC   =   100.;   INIMIX=   1;  MIXPRE=   1;  MAXMIX= -45

 Intra band minimization:
   WEIMIN = 0.0010     energy-eigenvalue tresh-hold
   EBREAK =  0.69E-09  absolut break condition
   DEPER  =   0.30     relativ break condition  

   TIME   =   0.40     timestep for ELM

  volume/ion in A,a.u.               =      12.45        84.02
  Fermi-wavevector in a.u.,A,eV,Ry     =   1.469238  2.776458 29.370375  2.158662
  Thomas-Fermi vector in A             =   2.584640
 
 Write flags
   LWAVE        =      F    write WAVECAR
   LDOWNSAMPLE  =      F    k-point downsampling of WAVECAR
   LCHARG       =      F    write CHGCAR
   LVTOT        =      F    write LOCPOT, total local potential
   LVHAR        =      F    write LOCPOT, Hartree potential only
   LELF         =      F    write electronic localiz. function (ELF)
   LORBIT       =     11    0 simple, 1 ext, 2 COOP (PROOUT), +10 PAW based schemes


 Dipole corrections
   LMONO  =      F    monopole corrections only (constant potential shift)
   LDIPOL =      F    correct potential (dipole corrections)
   IDIPOL =      0    1-x, 2-y, 3-z, 4-all directions 
   EPSILON=  1.0000000 bulk dielectric constant

 LDA+U is selected, type is set to LDAUTYPE =  2
   angular momentum for each species LDAUL =     2   -1
   U (eV)           for each species LDAUU =   4.0  0.0
   J (eV)           for each species LDAUJ =   0.0  0.0
 Exchange correlation treatment:
   GGA     =    --    GGA type
   LEXCH   =     2    internal setting for exchange type
   VOSKOWN=      0    Vosko Wilk Nusair interpolation
   LHFCALC =     F    Hartree Fock is set to
   LHFONE  =     F    Hartree Fock one center treatment
   AEXX    =    0.0000 exact exchange contribution

 Linear response parameters
   LEPSILON=     F    determine dielectric tensor
   LRPA    =     F    only Hartree local field effects (RPA)
   LNABLA  =     F    use nabla operator in PAW spheres
   LVEL    =     F    velocity operator in full k-point grid
   LINTERFAST=   F  fast interpolation
   KINTER  =     0    interpolate to denser k-point grid
   CSHIFT  =0.1000    complex shift for real part using Kramers Kronig
   OMEGAMAX=  -1.0    maximum frequency
   DEG_THRESHOLD= 0.2000000E-02 threshold for treating states as degnerate
   RTIME   =   -0.100 relaxation time in fs
  (WPLASMAI=    0.000 imaginary part of plasma frequency in eV, 0.658/RTIME)
   DFIELD  = 0.0000000 0.0000000 0.0000000 field for delta impulse in time
 
 Orbital magnetization related:
   ORBITALMAG=     F  switch on orbital magnetization
   LCHIMAG   =     F  perturbation theory with respect to B field
   DQ        =  0.001000  dq finite difference perturbation B field
   LLRAUG    =     F  two centre corrections for induced B field



--------------------------------------------------------------------------------------------------------


 conjugate gradient relaxation of ions
 charge density and potential will be updated during run
 spin polarized calculation
 Variant of blocked Davidson
 Davidson routine will perform the subspace rotation
 perform sub-space diagonalisation
    after iterative eigenvector-optimisation
 modified Broyden-mixing scheme, WC =      100.0
 initial mixing is a Kerker type mixing with AMIX =  0.4000 and BMIX =      1.0000
 Hartree-type preconditioning will be used
 using additional bands            9
 reciprocal scheme for non local part
 use partial core corrections
 calculate Harris-corrections to forces 
   (improved forces if not selfconsistent)
 use of overlap-Matrix (Vanderbilt PP)
 Gauss-broadening in eV      SIGMA  =   0.02


--------------------------------------------------------------------------------------------------------


  energy-cutoff  :      600.00
  volume of cell :       74.70
      direct lattice vectors                 reciprocal lattice vectors
     4.795904286  0.000000000  0.000000000     0.208511251  0.000000000  0.000000000
     0.000000000  4.795904286  0.000000000     0.000000000  0.208511251  0.000000000
     0.000000000  0.000000000  3.247883034     0.000000000  0.000000000  0.307892861

  length of vectors
     4.795904286  4.795904286  3.247883034     0.208511251  0.208511251  0.307892861


 
 k-points in units of 2pi/SCALE and weight: KPOINTS created by Atomic Simulation Env
   0.00000000  0.00000000  0.03848661       0.056
   0.06950375  0.00000000  0.03848661       0.222
   0.06950375  0.06950375  0.03848661       0.222
   0.00000000  0.00000000  0.11545982       0.056
   0.06950375  0.00000000  0.11545982       0.222
   0.06950375  0.06950375  0.11545982       0.222
 
 k-points in reciprocal lattice and weights: KPOINTS created by Atomic Simulation Env
   0.00000000  0.00000000  0.12500000       0.056
   0.33333333  0.00000000  0.12500000       0.222
   0.33333333  0.33333333  0.12500000       0.222
   0.00000000  0.00000000  0.37500000       0.056
   0.33333333  0.00000000  0.37500000       0.222
   0.33333333  0.33333333  0.37500000       0.222
 
 position of ions in fractional coordinates (direct lattice) 
   0.50000000  0.50000000  0.50000000
   0.00000000  0.00000000  0.00000000
   0.19593145  0.80406855  0.50000000
   0.80406855  0.19593145  0.50000000
   0.30406855  0.30406855  0.00000000
   0.69593145  0.69593145  0.00000000
 
 position of ions in cartesian coordinates  (Angst):
   2.39795214  2.39795214  1.62394152
   0.00000000  0.00000000  0.00000000
   0.93966849  3.85623580  1.62394152
   3.85623580  0.93966849  1.62394152
   1.45828365  1.45828365  0.00000000
   3.33762063  3.33762063  0.00000000
 


--------------------------------------------------------------------------------------------------------


 k-point  1 :   0.0000 0.0000 0.1250  plane waves:    2501
 k-point  2 :   0.3333 0.0000 0.1250  plane waves:    2504
 k-point  3 :   0.3333 0.3333 0.1250  plane waves:    2500
 k-point  4 :   0.0000 0.0000 0.3750  plane waves:    2501
 k-point  5 :   0.3333 0.0000 0.3750  plane waves:    2488
 k-point  6 :   0.3333 0.3333 0.3750  plane waves:    2488

 maximum and minimum number of plane-waves per node :      2504     2488

 maximum number of plane-waves:      2504
 maximum index in each direction: 
   IXMAX=    9   IYMAX=    9   IZMAX=    6
   IXMIN=   -9   IYMIN=   -9   IZMIN=   -6


 serial   3D FFT for wavefunctions
 parallel 3D FFT for charge:
    minimum data exchange during FFTs selected (reduces bandwidth)


 total amount of memory used by VASP MPI-rank0    40588. kBytes
=======================================================================

   base      :      30000. kBytes
   nonl-proj :       4574. kBytes
   fftplans  :       1875. kBytes
   grid      :       2467. kBytes
   one-center:        186. kBytes
   wavefun   :       1486. kBytes
 
     INWAV:  cpu time    0.0000: real time    0.0000
 Broyden mixing: mesh for mixing (old mesh)
   NGX = 19   NGY = 19   NGZ = 13
  (NGX  = 60   NGY  = 60   NGZ  = 40)
  gives a total of   4693 points

 initial charge density was supplied:
 charge density of overlapping atoms calculated
 number of electron      54.0000000 magnetization       0.0000000
 keeping initial charge density in first step


--------------------------------------------------------------------------------------------------------


 Maximum index for augmentation-charges         4435 (set IRDMAX)


--------------------------------------------------------------------------------------------------------


 First call to EWALD:  gamma=   0.421
 Maximum number of real-space cells 2x 2x 3
 Maximum number of reciprocal cells 3x 3x 2

    FEWALD:  cpu time    0.0010: real time    0.0010


--------------------------------------- Iteration      1(   1)  ---------------------------------------


    POTLOK:  cpu time    0.0065: real time    0.0065
    SETDIJ:  cpu time    0.4225: real time    0.4225
atom =   1  type =  1  l = 2
 
 onsite density matrix
 
spin component  1
 
  0.2837  0.0000  0.0000  0.0000  0.0000
  0.0000  0.2837  0.0000  0.0000  0.0000
  0.0000  0.0000  0.2837  0.0000  0.0000
  0.0000  0.0000  0.0000  0.2837  0.0000
  0.0000  0.0000  0.0000  0.0000  0.2837
 
spin component  2
 
  0.7701  0.0000  0.0000  0.0000  0.0000
  0.0000  0.7701  0.0000  0.0000  0.0000
  0.0000  0.0000  0.7701  0.0000  0.0000
  0.0000  0.0000  0.0000  0.7701  0.0000
  0.0000  0.0000  0.0000  0.0000  0.7701
 
 occupancies and eigenvectors
 
  o =  0.2837  v =  1.0000  0.0000  0.0000  0.0000  0.0000  0.0000  0.0000  0.0000  0.0000  0.0000      0.0000  0.0000  0.0000  0.0000  0.0000  0.0000  0.0000  0.0000  0.0000  0.0000
  o =  0.2837  v =  0.0000  1.0000  0.0000  0.0000  0.0000  0.0000  0.0000  0.0000  0.0000  0.0000      0.0000  0.0000  0.0000  0.0000  0.0000  0.0000  0.0000  0.0000  0.0000  0.0000
  o =  0.2837  v =  0.0000  0.0000  1.0000  0.0000  0.0000  0.0000  0.0000  0.0000  0.0000  0.0000      0.0000  0.0000  0.0000  0.0000  0.0000  0.0000  0.0000  0.0000  0.0000  0.0000
  o =  0.2837  v =  0.0000  0.0000  0.0000  1.0000  0.0000  0.0000  0.0000  0.0000  0.0000  0.0000      0.0000  0.0000  0.0000  0.0000  0.0000  0.0000  0.0000  0.0000  0.0000  0.0000
  o =  0.2837  v =  0.0000  0.0000  0.0000  0.0000  1.0000  0.0000  0.0000  0.0000  0.0000  0.0000      0.0000  0.0000  0.0000  0.0000  0.0000  0.0000  0.0000  0.0000  0.0000  0.0000
  o =  0.7701  v =  0.0000  0.0000  0.0000  0.0000  0.0000  1.0000  0.0000  0.0000  0.0000  0.0000      0.0000  0.0000  0.0000  0.0000  0.0000  0.0000  0.0000  0.0000  0.0000  0.0000
  o =  0.7701  v =  0.0000  0.0000  0.0000  0.0000  0.0000  0.0000  1.0000  0.0000  0.0000  0.0000      0.0000  0.0000  0.0000  0.0000  0.0000  0.0000  0.0000  0.0000  0.0000  0.0000
  o =  0.7701  v =  0.0000  0.0000  0.0000  0.0000  0.0000  0.0000  0.0000  1.0000  0.0000  0.0000      0.0000  0.0000  0.0000  0.0000  0.0000  0.0000  0.0000  0.0000  0.0000  0.0000
  o =  0.7701  v =  0.0000  0.0000  0.0000  0.0000  0.0000  0.0000  0.0000  0.0000  1.0000  0.0000      0.0000  0.0000  0.0000  0.0000  0.0000  0.0000  0.0000  0.0000  0.0000  0.0000
  o =  0.7701  v =  0.0000  0.0000  0.0000  0.0000  0.0000  0.0000  0.0000  0.0000  0.0000  1.0000      0.0000  0.0000  0.0000  0.0000  0.0000  0.0000  0.0000  0.0000  0.0000  0.0000
atom =   2  type =  1  l = 2
 
 onsite density matrix
 
spin component  1
 
  0.7701  0.0000  0.0000  0.0000  0.0000
  0.0000  0.7701  0.0000  0.0000  0.0000
  0.0000  0.0000  0.7701  0.0000  0.0000
  0.0000  0.0000  0.0000  0.7701  0.0000
  0.0000  0.0000  0.0000  0.0000  0.7701
 
spin component  2
 
  0.2837  0.0000  0.0000  0.0000  0.0000
  0.0000  0.2837  0.0000  0.0000  0.0000
  0.0000  0.0000  0.2837  0.0000  0.0000
  0.0000  0.0000  0.0000  0.2837  0.0000
  0.0000  0.0000  0.0000  0.0000  0.2837
 
 occupancies and eigenvectors
 
  o =  0.2837  v =  0.0000  0.0000  0.0000  0.0000  0.0000  1.0000  0.0000  0.0000  0.0000  0.0000      0.0000  0.0000  0.0000  0.0000  0.0000  0.0000  0.0000  0.0000  0.0000  0.0000
  o =  0.2837  v =  0.0000  0.0000  0.0000  0.0000  0.0000  0.0000  1.0000  0.0000  0.0000  0.0000      0.0000  0.0000  0.0000  0.0000  0.0000  0.0000  0.0000  0.0000  0.0000  0.0000
  o =  0.2837  v =  0.0000  0.0000  0.0000  0.0000  0.0000  0.0000  0.0000  1.0000  0.0000  0.0000      0.0000  0.0000  0.0000  0.0000  0.0000  0.0000  0.0000  0.0000  0.0000  0.0000
  o =  0.2837  v =  0.0000  0.0000  0.0000  0.0000  0.0000  0.0000  0.0000  0.0000  1.0000  0.0000      0.0000  0.0000  0.0000  0.0000  0.0000  0.0000  0.0000  0.0000  0.0000  0.0000
  o =  0.2837  v =  0.0000  0.0000  0.0000  0.0000  0.0000  0.0000  0.0000  0.0000  0.0000  1.0000      0.0000  0.0000  0.0000  0.0000  0.0000  0.0000  0.0000  0.0000  0.0000  0.0000
  o =  0.7701  v =  1.0000  0.0000  0.0000  0.0000  0.0000  0.0000  0.0000  0.0000  0.0000  0.0000      0.0000  0.0000  0.0000  0.0000  0.0000  0.0000  0.0000  0.0000  0.0000  0.0000
  o =  0.7701  v =  0.0000  1.0000  0.0000  0.0000  0.0000  0.0000  0.0000  0.0000  0.0000  0.0000      0.0000  0.0000  0.0000  0.0000  0.0000  0.0000  0.0000  0.0000  0.0000  0.0000
  o =  0.7701  v =  0.0000  0.0000  1.0000  0.0000  0.0000  0.0000  0.0000  0.0000  0.0000  0.0000      0.0000  0.0000  0.0000  0.0000  0.0000  0.0000  0.0000  0.0000  0.0000  0.0000
  o =  0.7701  v =  0.0000  0.0000  0.0000  1.0000  0.0000  0.0000  0.0000  0.0000  0.0000  0.0000      0.0000  0.0000  0.0000  0.0000  0.0000  0.0000  0.0000  0.0000  0.0000  0.0000
  o =  0.7701  v =  0.0000  0.0000  0.0000  0.0000  1.0000  0.0000  0.0000  0.0000  0.0000  0.0000      0.0000  0.0000  0.0000  0.0000  0.0000  0.0000  0.0000  0.0000  0.0000  0.0000
     EDDAV:  cpu time    0.2243: real time    0.2457
       DOS:  cpu time    0.0003: real time    0.0003
    --------------------------------------------
      LOOP:  cpu time    0.6537: real time    0.6752

 eigenvalue-minimisations  :   864
 total energy-change (2. order) : 0.6729759E+03  (-0.3416973E+04)
 number of electron      54.0000000 magnetization       0.0000000
 augmentation part       54.0000000 magnetization       0.0000000

 Free energy of the ion-electron system (eV)
  ---------------------------------------------------
  alpha Z        PSCENC =       203.95051221
  Ewald energy   TEWEN  =     -4253.05950503
  -Hartree energ DENC   =     -2091.75274385
  -exchange      EXHF   =         0.00000000
  -V(xc)+E(xc)   XCENC  =       295.21122973
  PAW double counting   =      5431.03059579    -5549.10764102
  entropy T*S    EENTRO =        -0.00163027
  eigenvalues    EBANDS =       -52.75165320
  atomic energy  EATOM  =      6689.45677594
  Solvation  Ediel_sol  =         0.00000000
  ---------------------------------------------------
  free energy    TOTEN  =       672.97594030 eV

  energy without entropy =      672.97757058  energy(sigma->0) =      672.97675544


--------------------------------------------------------------------------------------------------------




--------------------------------------- Iteration      1(   2)  ---------------------------------------


     EDDAV:  cpu time    0.2409: real time    0.2409
       DOS:  cpu time    0.0002: real time    0.0002
    --------------------------------------------
      LOOP:  cpu time    0.2411: real time    0.2411

 eigenvalue-minimisations  :   972
 total energy-change (2. order) :-0.6664223E+03  (-0.6455273E+03)
 number of electron      54.0000000 magnetization       0.0000000
 augmentation part       54.0000000 magnetization       0.0000000

 Free energy of the ion-electron system (eV)
  ---------------------------------------------------
  alpha Z        PSCENC =       203.95051221
  Ewald energy   TEWEN  =     -4253.05950503
  -Hartree energ DENC   =     -2091.75274385
  -exchange      EXHF   =         0.00000000
  -V(xc)+E(xc)   XCENC  =       295.21122973
  PAW double counting   =      5431.03059579    -5549.10764102
  entropy T*S    EENTRO =        -0.00000000
  eigenvalues    EBANDS =      -719.17558083
  atomic energy  EATOM  =      6689.45677594
  Solvation  Ediel_sol  =         0.00000000
  ---------------------------------------------------
  free energy    TOTEN  =         6.55364294 eV

  energy without entropy =        6.55364294  energy(sigma->0) =        6.55364294


--------------------------------------------------------------------------------------------------------




--------------------------------------- Iteration      1(   3)  ---------------------------------------


     EDDAV:  cpu time    0.2594: real time    0.2594
       DOS:  cpu time    0.0002: real time    0.0002
    --------------------------------------------
      LOOP:  cpu time    0.2596: real time    0.2596

 eigenvalue-minimisations  :  1044
 total energy-change (2. order) :-0.4732841E+02  (-0.4712828E+02)
 number of electron      54.0000000 magnetization       0.0000000
 augmentation part       54.0000000 magnetization       0.0000000

 Free energy of the ion-electron system (eV)
  ---------------------------------------------------
  alpha Z        PSCENC =       203.95051221
  Ewald energy   TEWEN  =     -4253.05950503
  -Hartree energ DENC   =     -2091.75274385
  -exchange      EXHF   =         0.00000000
  -V(xc)+E(xc)   XCENC  =       295.21122973
  PAW double counting   =      5431.03059579    -5549.10764102
  entropy T*S    EENTRO =        -0.00000000
  eigenvalues    EBANDS =      -766.50399256
  atomic energy  EATOM  =      6689.45677594
  Solvation  Ediel_sol  =         0.00000000
  ---------------------------------------------------
  free energy    TOTEN  =       -40.77476879 eV

  energy without entropy =      -40.77476879  energy(sigma->0) =      -40.77476879


--------------------------------------------------------------------------------------------------------




--------------------------------------- Iteration      1(   4)  ---------------------------------------


     EDDAV:  cpu time    0.2350: real time    0.2350
       DOS:  cpu time    0.0002: real time    0.0002
    --------------------------------------------
      LOOP:  cpu time    0.2352: real time    0.2352

 eigenvalue-minimisations  :   936
 total energy-change (2. order) :-0.6344044E+00  (-0.6342732E+00)
 number of electron      54.0000000 magnetization       0.0000000
 augmentation part       54.0000000 magnetization       0.0000000

 Free energy of the ion-electron system (eV)
  ---------------------------------------------------
  alpha Z        PSCENC =       203.95051221
  Ewald energy   TEWEN  =     -4253.05950503
  -Hartree energ DENC   =     -2091.75274385
  -exchange      EXHF   =         0.00000000
  -V(xc)+E(xc)   XCENC  =       295.21122973
  PAW double counting   =      5431.03059579    -5549.10764102
  entropy T*S    EENTRO =        -0.00000000
  eigenvalues    EBANDS =      -767.13839696
  atomic energy  EATOM  =      6689.45677594
  Solvation  Ediel_sol  =         0.00000000
  ---------------------------------------------------
  free energy    TOTEN  =       -41.40917319 eV

  energy without entropy =      -41.40917319  energy(sigma->0) =      -41.40917319


--------------------------------------------------------------------------------------------------------




--------------------------------------- Iteration      1(   5)  ---------------------------------------


     EDDAV:  cpu time    0.2614: real time    0.2614
       DOS:  cpu time    0.0002: real time    0.0002
    CHARGE:  cpu time    0.0324: real time    0.0324
    MIXING:  cpu time    0.0005: real time    0.0005
    --------------------------------------------
      LOOP:  cpu time    0.2945: real time    0.2945

 eigenvalue-minimisations  :  1056
 total energy-change (2. order) :-0.9912985E-02  (-0.9912921E-02)
 number of electron      53.9999998 magnetization       0.0000000
 augmentation part       20.1227997 magnetization       0.0000000

 Broyden mixing:
  rms(total) = 0.24764E+01    rms(broyden)= 0.24763E+01
  rms(prec ) = 0.32114E+01
  weight for this iteration     100.00

 Free energy of the ion-electron system (eV)
  ---------------------------------------------------
  alpha Z        PSCENC =       203.95051221
  Ewald energy   TEWEN  =     -4253.05950503
  -Hartree energ DENC   =     -2091.75274385
  -exchange      EXHF   =         0.00000000
  -V(xc)+E(xc)   XCENC  =       295.21122973
  PAW double counting   =      5431.03059579    -5549.10764102
  entropy T*S    EENTRO =        -0.00000000
  eigenvalues    EBANDS =      -767.14830995
  atomic energy  EATOM  =      6689.45677594
  Solvation  Ediel_sol  =         0.00000000
  ---------------------------------------------------
  free energy    TOTEN  =       -41.41908617 eV

  energy without entropy =      -41.41908617  energy(sigma->0) =      -41.41908617


--------------------------------------------------------------------------------------------------------




--------------------------------------- Iteration      1(   6)  ---------------------------------------


    POTLOK:  cpu time    0.0048: real time    0.0048
    SETDIJ:  cpu time    0.4218: real time    0.4218
atom =   1  type =  1  l = 2
 
 onsite density matrix
 
spin component  1
 
 -0.0729  0.0000  0.0050  0.0000  0.0000
  0.0000 -0.0763  0.0000  0.0034  0.0000
  0.0050  0.0000 -0.0741  0.0000 -0.0000
  0.0000  0.0034  0.0000 -0.0763  0.0000
  0.0000  0.0000 -0.0000  0.0000 -0.0828
 
spin component  2
 
  1.1009  0.0000  0.0137  0.0000 -0.0000
  0.0000  1.0985  0.0000  0.0122  0.0000
  0.0137  0.0000  1.0919  0.0000  0.0000
  0.0000  0.0122  0.0000  1.0985  0.0000
 -0.0000  0.0000  0.0000  0.0000  1.0886
 
 occupancies and eigenvectors
 
  o = -0.0828  v =  0.0000 -0.0000 -0.0000  0.0000 -1.0000  0.0000  0.0000  0.0000  0.0000  0.0000      0.0000  0.0000  0.0000  0.0000  0.0000  0.0000  0.0000  0.0000  0.0000  0.0000
  o = -0.0797  v =  0.0000  0.7071 -0.0000 -0.7071 -0.0000  0.0000  0.0000  0.0000  0.0000  0.0000      0.0000  0.0000  0.0000  0.0000  0.0000  0.0000  0.0000  0.0000  0.0000  0.0000
  o = -0.0785  v =  0.6636 -0.0000 -0.7481  0.0000  0.0000  0.0000  0.0000  0.0000  0.0000  0.0000      0.0000  0.0000  0.0000  0.0000  0.0000  0.0000  0.0000  0.0000  0.0000  0.0000
  o = -0.0729  v = -0.0000  0.7071  0.0000  0.7071 -0.0000  0.0000  0.0000  0.0000  0.0000  0.0000      0.0000  0.0000  0.0000  0.0000  0.0000  0.0000  0.0000  0.0000  0.0000  0.0000
  o = -0.0685  v =  0.7481  0.0000  0.6636  0.0000 -0.0000  0.0000  0.0000  0.0000  0.0000  0.0000      0.0000  0.0000  0.0000  0.0000  0.0000  0.0000  0.0000  0.0000  0.0000  0.0000
  o =  1.0820  v =  0.0000  0.0000  0.0000  0.0000  0.0000 -0.5880 -0.0000  0.8089  0.0000 -0.0000      0.0000  0.0000  0.0000  0.0000  0.0000  0.0000  0.0000  0.0000  0.0000  0.0000
  o =  1.0863  v =  0.0000  0.0000  0.0000  0.0000  0.0000 -0.0000  0.7071  0.0000 -0.7071  0.0000      0.0000  0.0000  0.0000  0.0000  0.0000  0.0000  0.0000  0.0000  0.0000  0.0000
  o =  1.0886  v =  0.0000  0.0000  0.0000  0.0000  0.0000 -0.0000 -0.0000  0.0000  0.0000  1.0000      0.0000  0.0000  0.0000  0.0000  0.0000  0.0000  0.0000  0.0000  0.0000  0.0000
  o =  1.1107  v =  0.0000  0.0000  0.0000  0.0000  0.0000 -0.0000  0.7071 -0.0000  0.7071 -0.0000      0.0000  0.0000  0.0000  0.0000  0.0000  0.0000  0.0000  0.0000  0.0000  0.0000
  o =  1.1109  v =  0.0000  0.0000  0.0000  0.0000  0.0000 -0.8089 -0.0000 -0.5880 -0.0000 -0.0000      0.0000  0.0000  0.0000  0.0000  0.0000  0.0000  0.0000  0.0000  0.0000  0.0000
atom =   2  type =  1  l = 2
 
 onsite density matrix
 
spin component  1
 
  1.1009  0.0000 -0.0137  0.0000  0.0000
  0.0000  1.0985  0.0000 -0.0122  0.0000
 -0.0137  0.0000  1.0919  0.0000  0.0000
  0.0000 -0.0122  0.0000  1.0985  0.0000
  0.0000  0.0000  0.0000  0.0000  1.0886
 
spin component  2
 
 -0.0729  0.0000 -0.0050  0.0000 -0.0000
  0.0000 -0.0763  0.0000 -0.0034  0.0000
 -0.0050  0.0000 -0.0741  0.0000  0.0000
  0.0000 -0.0034  0.0000 -0.0763  0.0000
 -0.0000  0.0000  0.0000  0.0000 -0.0828
 
 occupancies and eigenvectors
 
  o = -0.0828  v =  0.0000  0.0000  0.0000  0.0000  0.0000  0.0000 -0.0000  0.0000  0.0000 -1.0000      0.0000  0.0000  0.0000  0.0000  0.0000  0.0000  0.0000  0.0000  0.0000  0.0000
  o = -0.0797  v =  0.0000  0.0000  0.0000  0.0000  0.0000  0.0000 -0.7071  0.0000 -0.7071  0.0000      0.0000  0.0000  0.0000  0.0000  0.0000  0.0000  0.0000  0.0000  0.0000  0.0000
  o = -0.0785  v =  0.0000  0.0000  0.0000  0.0000  0.0000 -0.6636 -0.0000 -0.7481  0.0000 -0.0000      0.0000  0.0000  0.0000  0.0000  0.0000  0.0000  0.0000  0.0000  0.0000  0.0000
  o = -0.0729  v =  0.0000  0.0000  0.0000  0.0000  0.0000  0.0000 -0.7071  0.0000  0.7071  0.0000      0.0000  0.0000  0.0000  0.0000  0.0000  0.0000  0.0000  0.0000  0.0000  0.0000
  o = -0.0685  v =  0.0000  0.0000  0.0000  0.0000  0.0000  0.7481 -0.0000 -0.6636  0.0000 -0.0000      0.0000  0.0000  0.0000  0.0000  0.0000  0.0000  0.0000  0.0000  0.0000  0.0000
  o =  1.0820  v = -0.5880  0.0000 -0.8089  0.0000  0.0000  0.0000  0.0000  0.0000  0.0000  0.0000      0.0000  0.0000  0.0000  0.0000  0.0000  0.0000  0.0000  0.0000  0.0000  0.0000
  o =  1.0863  v = -0.0000 -0.7071 -0.0000 -0.7071  0.0000  0.0000  0.0000  0.0000  0.0000  0.0000      0.0000  0.0000  0.0000  0.0000  0.0000  0.0000  0.0000  0.0000  0.0000  0.0000
  o =  1.0886  v =  0.0000  0.0000  0.0000  0.0000  1.0000  0.0000  0.0000  0.0000  0.0000  0.0000      0.0000  0.0000  0.0000  0.0000  0.0000  0.0000  0.0000  0.0000  0.0000  0.0000
  o =  1.1107  v = -0.0000 -0.7071  0.0000  0.7071  0.0000  0.0000  0.0000  0.0000  0.0000  0.0000      0.0000  0.0000  0.0000  0.0000  0.0000  0.0000  0.0000  0.0000  0.0000  0.0000
  o =  1.1109  v = -0.8089  0.0000  0.5880 -0.0000  0.0000  0.0000  0.0000  0.0000  0.0000  0.0000      0.0000  0.0000  0.0000  0.0000  0.0000  0.0000  0.0000  0.0000  0.0000  0.0000
     EDDAV:  cpu time    0.2753: real time    0.2753
       DOS:  cpu time    0.0002: real time    0.0002
    CHARGE:  cpu time    0.0323: real time    0.0323
    MIXING:  cpu time    0.0005: real time    0.0005
    --------------------------------------------
      LOOP:  cpu time    0.7349: real time    0.7349

 eigenvalue-minimisations  :  1128
 total energy-change (2. order) : 0.2075399E+01  (-0.1578632E+01)
 number of electron      53.9999998 magnetization      -0.0000000
 augmentation part       19.9692808 magnetization      -0.0000000

 Broyden mixing:
  rms(total) = 0.15895E+01    rms(broyden)= 0.15894E+01
  rms(prec ) = 0.16393E+01
  weight for this iteration     100.00

 eigenvalues of (default mixing * dielectric matrix)
  average eigenvalue GAMMA=   0.8132
  0.8132

 Free energy of the ion-electron system (eV)
  ---------------------------------------------------
  alpha Z        PSCENC =       203.95051221
  Ewald energy   TEWEN  =     -4253.05950503
  -Hartree energ DENC   =     -2114.62236647
  -exchange      EXHF   =         0.00000000
  -V(xc)+E(xc)   XCENC  =       295.82929339
  PAW double counting   =      5723.34254481    -5832.98319674
  entropy T*S    EENTRO =        -0.00000000
  eigenvalues    EBANDS =      -751.25774555
  atomic energy  EATOM  =      6689.45677594
  Solvation  Ediel_sol  =         0.00000000
  ---------------------------------------------------
  free energy    TOTEN  =       -39.34368744 eV

  energy without entropy =      -39.34368744  energy(sigma->0) =      -39.34368744


--------------------------------------------------------------------------------------------------------




--------------------------------------- Iteration      1(   7)  ---------------------------------------


    POTLOK:  cpu time    0.0046: real time    0.0046
    SETDIJ:  cpu time    0.4217: real time    0.4217
atom =   1  type =  1  l = 2
 
 onsite density matrix
 
spin component  1
 
  0.1244  0.0000  0.0222  0.0000 -0.0000
  0.0000  0.1173  0.0000  0.0184  0.0000
  0.0222  0.0000  0.1118  0.0000  0.0000
  0.0000  0.0184  0.0000  0.1173  0.0000
 -0.0000  0.0000  0.0000  0.0000  0.0977
 
spin component  2
 
  0.8990  0.0000  0.0074  0.0000 -0.0000
  0.0000  0.8969  0.0000  0.0064  0.0000
  0.0074  0.0000  0.8954  0.0000 -0.0000
  0.0000  0.0064  0.0000  0.8969  0.0000
 -0.0000  0.0000 -0.0000  0.0000  0.8902
 
 occupancies and eigenvectors
 
  o =  0.0950  v = -0.6028 -0.0000  0.7979  0.0000 -0.0000  0.0000  0.0000  0.0000  0.0000  0.0000      0.0000  0.0000  0.0000  0.0000  0.0000  0.0000  0.0000  0.0000  0.0000  0.0000
  o =  0.0977  v = -0.0000  0.0000  0.0000  0.0000  1.0000  0.0000  0.0000  0.0000  0.0000  0.0000      0.0000  0.0000  0.0000  0.0000  0.0000  0.0000  0.0000  0.0000  0.0000  0.0000
  o =  0.0989  v =  0.0000  0.7071  0.0000 -0.7071 -0.0000  0.0000  0.0000  0.0000  0.0000  0.0000      0.0000  0.0000  0.0000  0.0000  0.0000  0.0000  0.0000  0.0000  0.0000  0.0000
  o =  0.1356  v =  0.0000 -0.7071  0.0000 -0.7071  0.0000  0.0000  0.0000  0.0000  0.0000  0.0000      0.0000  0.0000  0.0000  0.0000  0.0000  0.0000  0.0000  0.0000  0.0000  0.0000
  o =  0.1412  v = -0.7979 -0.0000 -0.6028  0.0000 -0.0000  0.0000  0.0000  0.0000  0.0000  0.0000      0.0000  0.0000  0.0000  0.0000  0.0000  0.0000  0.0000  0.0000  0.0000  0.0000
  o =  0.8896  v =  0.0000  0.0000  0.0000  0.0000  0.0000 -0.6187  0.0000  0.7856  0.0000 -0.0000      0.0000  0.0000  0.0000  0.0000  0.0000  0.0000  0.0000  0.0000  0.0000  0.0000
  o =  0.8902  v =  0.0000  0.0000  0.0000  0.0000  0.0000  0.0000 -0.0000 -0.0000  0.0000 -1.0000      0.0000  0.0000  0.0000  0.0000  0.0000  0.0000  0.0000  0.0000  0.0000  0.0000
  o =  0.8906  v =  0.0000  0.0000  0.0000  0.0000  0.0000  0.0000  0.7071 -0.0000 -0.7071 -0.0000      0.0000  0.0000  0.0000  0.0000  0.0000  0.0000  0.0000  0.0000  0.0000  0.0000
  o =  0.9033  v =  0.0000  0.0000  0.0000  0.0000  0.0000  0.0000 -0.7071  0.0000 -0.7071  0.0000      0.0000  0.0000  0.0000  0.0000  0.0000  0.0000  0.0000  0.0000  0.0000  0.0000
  o =  0.9049  v =  0.0000  0.0000  0.0000  0.0000  0.0000 -0.7856  0.0000 -0.6187  0.0000  0.0000      0.0000  0.0000  0.0000  0.0000  0.0000  0.0000  0.0000  0.0000  0.0000  0.0000
atom =   2  type =  1  l = 2
 
 onsite density matrix
 
spin component  1
 
  0.8990  0.0000 -0.0074  0.0000 -0.0000
  0.0000  0.8969  0.0000 -0.0064  0.0000
 -0.0074  0.0000  0.8954  0.0000 -0.0000
  0.0000 -0.0064  0.0000  0.8969  0.0000
 -0.0000  0.0000 -0.0000  0.0000  0.8902
 
spin component  2
 
  0.1244  0.0000 -0.0222  0.0000  0.0000
  0.0000  0.1173  0.0000 -0.0184  0.0000
 -0.0222  0.0000  0.1118  0.0000  0.0000
  0.0000 -0.0184  0.0000  0.1173  0.0000
  0.0000  0.0000  0.0000  0.0000  0.0977
 
 occupancies and eigenvectors
 
  o =  0.0950  v =  0.0000  0.0000  0.0000  0.0000  0.0000 -0.6028 -0.0000 -0.7979  0.0000  0.0000      0.0000  0.0000  0.0000  0.0000  0.0000  0.0000  0.0000  0.0000  0.0000  0.0000
  o =  0.0977  v =  0.0000  0.0000  0.0000  0.0000  0.0000 -0.0000  0.0000 -0.0000  0.0000 -1.0000      0.0000  0.0000  0.0000  0.0000  0.0000  0.0000  0.0000  0.0000  0.0000  0.0000
  o =  0.0989  v =  0.0000  0.0000  0.0000  0.0000  0.0000  0.0000 -0.7071  0.0000 -0.7071 -0.0000      0.0000  0.0000  0.0000  0.0000  0.0000  0.0000  0.0000  0.0000  0.0000  0.0000
  o =  0.1356  v =  0.0000  0.0000  0.0000  0.0000  0.0000  0.0000 -0.7071  0.0000  0.7071 -0.0000      0.0000  0.0000  0.0000  0.0000  0.0000  0.0000  0.0000  0.0000  0.0000  0.0000
  o =  0.1412  v =  0.0000  0.0000  0.0000  0.0000  0.0000 -0.7979 -0.0000  0.6028  0.0000  0.0000      0.0000  0.0000  0.0000  0.0000  0.0000  0.0000  0.0000  0.0000  0.0000  0.0000
  o =  0.8896  v = -0.6187  0.0000 -0.7856  0.0000 -0.0000  0.0000  0.0000  0.0000  0.0000  0.0000      0.0000  0.0000  0.0000  0.0000  0.0000  0.0000  0.0000  0.0000  0.0000  0.0000
  o =  0.8902  v =  0.0000  0.0000 -0.0000  0.0000  1.0000  0.0000  0.0000  0.0000  0.0000  0.0000      0.0000  0.0000  0.0000  0.0000  0.0000  0.0000  0.0000  0.0000  0.0000  0.0000
  o =  0.8906  v =  0.0000 -0.7071  0.0000 -0.7071  0.0000  0.0000  0.0000  0.0000  0.0000  0.0000      0.0000  0.0000  0.0000  0.0000  0.0000  0.0000  0.0000  0.0000  0.0000  0.0000
  o =  0.9033  v =  0.0000  0.7071  0.0000 -0.7071 -0.0000  0.0000  0.0000  0.0000  0.0000  0.0000      0.0000  0.0000  0.0000  0.0000  0.0000  0.0000  0.0000  0.0000  0.0000  0.0000
  o =  0.9049  v = -0.7856  0.0000  0.6187  0.0000  0.0000  0.0000  0.0000  0.0000  0.0000  0.0000      0.0000  0.0000  0.0000  0.0000  0.0000  0.0000  0.0000  0.0000  0.0000  0.0000
     EDDAV:  cpu time    0.2522: real time    0.2522
       DOS:  cpu time    0.0002: real time    0.0002
    CHARGE:  cpu time    0.0326: real time    0.0326
    MIXING:  cpu time    0.0006: real time    0.0006
    --------------------------------------------
      LOOP:  cpu time    0.7119: real time    0.7119

 eigenvalue-minimisations  :  1020
 total energy-change (2. order) :-0.6372778E+00  (-0.1561164E+00)
 number of electron      53.9999998 magnetization      -0.0000000
 augmentation part       19.9480366 magnetization      -0.0000000

 Broyden mixing:
  rms(total) = 0.11841E+01    rms(broyden)= 0.11841E+01
  rms(prec ) = 0.12120E+01
  weight for this iteration     100.00

 eigenvalues of (default mixing * dielectric matrix)
  average eigenvalue GAMMA=   1.4403
  0.7012  2.1794

 Free energy of the ion-electron system (eV)
  ---------------------------------------------------
  alpha Z        PSCENC =       203.95051221
  Ewald energy   TEWEN  =     -4253.05950503
  -Hartree energ DENC   =     -2110.91515614
  -exchange      EXHF   =         0.00000000
  -V(xc)+E(xc)   XCENC  =       296.46229164
  PAW double counting   =      5974.28417445    -6093.72631886
  entropy T*S    EENTRO =        -0.00000000
  eigenvalues    EBANDS =      -746.43373948
  atomic energy  EATOM  =      6689.45677594
  Solvation  Ediel_sol  =         0.00000000
  ---------------------------------------------------
  free energy    TOTEN  =       -39.98096527 eV

  energy without entropy =      -39.98096527  energy(sigma->0) =      -39.98096527


--------------------------------------------------------------------------------------------------------




--------------------------------------- Iteration      1(   8)  ---------------------------------------


    POTLOK:  cpu time    0.0047: real time    0.0047
    SETDIJ:  cpu time    0.4226: real time    0.4226
atom =   1  type =  1  l = 2
 
 onsite density matrix
 
spin component  1
 
 -0.0251  0.0000  0.0237  0.0000  0.0000
  0.0000 -0.0329  0.0000  0.0183  0.0000
  0.0237  0.0000 -0.0358  0.0000 -0.0000
  0.0000  0.0183  0.0000 -0.0329  0.0000
  0.0000  0.0000 -0.0000  0.0000 -0.0558
 
spin component  2
 
  1.0499  0.0000  0.0209  0.0000 -0.0000
  0.0000  1.0436  0.0000  0.0191  0.0000
  0.0209  0.0000  1.0356  0.0000  0.0000
  0.0000  0.0191  0.0000  1.0436  0.0000
 -0.0000  0.0000  0.0000  0.0000  1.0265
 
 occupancies and eigenvectors
 
  o = -0.0558  v =  0.0000  0.0000 -0.0000  0.0000 -1.0000  0.0000  0.0000  0.0000  0.0000  0.0000      0.0000  0.0000  0.0000  0.0000  0.0000  0.0000  0.0000  0.0000  0.0000  0.0000
  o = -0.0547  v = -0.6244  0.0000  0.7811  0.0000 -0.0000  0.0000  0.0000  0.0000  0.0000  0.0000      0.0000  0.0000  0.0000  0.0000  0.0000  0.0000  0.0000  0.0000  0.0000  0.0000
  o = -0.0512  v =  0.0000  0.7071  0.0000 -0.7071  0.0000  0.0000  0.0000  0.0000  0.0000  0.0000      0.0000  0.0000  0.0000  0.0000  0.0000  0.0000  0.0000  0.0000  0.0000  0.0000
  o = -0.0146  v =  0.0000 -0.7071  0.0000 -0.7071 -0.0000  0.0000  0.0000  0.0000  0.0000  0.0000      0.0000  0.0000  0.0000  0.0000  0.0000  0.0000  0.0000  0.0000  0.0000  0.0000
  o = -0.0062  v =  0.7811  0.0000  0.6244  0.0000 -0.0000  0.0000  0.0000  0.0000  0.0000  0.0000      0.0000  0.0000  0.0000  0.0000  0.0000  0.0000  0.0000  0.0000  0.0000  0.0000
  o =  1.0207  v =  0.0000  0.0000  0.0000  0.0000  0.0000 -0.5816 -0.0000  0.8135  0.0000 -0.0000      0.0000  0.0000  0.0000  0.0000  0.0000  0.0000  0.0000  0.0000  0.0000  0.0000
  o =  1.0245  v =  0.0000  0.0000  0.0000  0.0000  0.0000 -0.0000  0.7071  0.0000 -0.7071  0.0000      0.0000  0.0000  0.0000  0.0000  0.0000  0.0000  0.0000  0.0000  0.0000  0.0000
  o =  1.0265  v =  0.0000  0.0000  0.0000  0.0000  0.0000 -0.0000 -0.0000  0.0000  0.0000  1.0000      0.0000  0.0000  0.0000  0.0000  0.0000  0.0000  0.0000  0.0000  0.0000  0.0000
  o =  1.0627  v =  0.0000  0.0000  0.0000  0.0000  0.0000  0.0000  0.7071  0.0000  0.7071 -0.0000      0.0000  0.0000  0.0000  0.0000  0.0000  0.0000  0.0000  0.0000  0.0000  0.0000
  o =  1.0649  v =  0.0000  0.0000  0.0000  0.0000  0.0000 -0.8135  0.0000 -0.5816  0.0000 -0.0000      0.0000  0.0000  0.0000  0.0000  0.0000  0.0000  0.0000  0.0000  0.0000  0.0000
atom =   2  type =  1  l = 2
 
 onsite density matrix
 
spin component  1
 
  1.0499  0.0000 -0.0209  0.0000 -0.0000
  0.0000  1.0436  0.0000 -0.0191  0.0000
 -0.0209  0.0000  1.0356  0.0000 -0.0000
  0.0000 -0.0191  0.0000  1.0436  0.0000
 -0.0000  0.0000 -0.0000  0.0000  1.0265
 
spin component  2
 
 -0.0251  0.0000 -0.0237  0.0000 -0.0000
  0.0000 -0.0329  0.0000 -0.0183  0.0000
 -0.0237  0.0000 -0.0358  0.0000  0.0000
  0.0000 -0.0183  0.0000 -0.0329  0.0000
 -0.0000  0.0000  0.0000  0.0000 -0.0558
 
 occupancies and eigenvectors
 
  o = -0.0558  v =  0.0000  0.0000  0.0000  0.0000  0.0000  0.0000  0.0000  0.0000  0.0000 -1.0000      0.0000  0.0000  0.0000  0.0000  0.0000  0.0000  0.0000  0.0000  0.0000  0.0000
  o = -0.0547  v =  0.0000  0.0000  0.0000  0.0000  0.0000  0.6244 -0.0000  0.7811 -0.0000  0.0000      0.0000  0.0000  0.0000  0.0000  0.0000  0.0000  0.0000  0.0000  0.0000  0.0000
  o = -0.0512  v =  0.0000  0.0000  0.0000  0.0000  0.0000 -0.0000 -0.7071 -0.0000 -0.7071 -0.0000      0.0000  0.0000  0.0000  0.0000  0.0000  0.0000  0.0000  0.0000  0.0000  0.0000
  o = -0.0146  v =  0.0000  0.0000  0.0000  0.0000  0.0000 -0.0000 -0.7071  0.0000  0.7071 -0.0000      0.0000  0.0000  0.0000  0.0000  0.0000  0.0000  0.0000  0.0000  0.0000  0.0000
  o = -0.0062  v =  0.0000  0.0000  0.0000  0.0000  0.0000  0.7811 -0.0000 -0.6244  0.0000 -0.0000      0.0000  0.0000  0.0000  0.0000  0.0000  0.0000  0.0000  0.0000  0.0000  0.0000
  o =  1.0207  v = -0.5816  0.0000 -0.8135  0.0000 -0.0000  0.0000  0.0000  0.0000  0.0000  0.0000      0.0000  0.0000  0.0000  0.0000  0.0000  0.0000  0.0000  0.0000  0.0000  0.0000
  o =  1.0245  v =  0.0000 -0.7071  0.0000 -0.7071  0.0000  0.0000  0.0000  0.0000  0.0000  0.0000      0.0000  0.0000  0.0000  0.0000  0.0000  0.0000  0.0000  0.0000  0.0000  0.0000
  o =  1.0265  v =  0.0000  0.0000 -0.0000  0.0000  1.0000  0.0000  0.0000  0.0000  0.0000  0.0000      0.0000  0.0000  0.0000  0.0000  0.0000  0.0000  0.0000  0.0000  0.0000  0.0000
  o =  1.0627  v =  0.0000  0.7071  0.0000 -0.7071 -0.0000  0.0000  0.0000  0.0000  0.0000  0.0000      0.0000  0.0000  0.0000  0.0000  0.0000  0.0000  0.0000  0.0000  0.0000  0.0000
  o =  1.0649  v = -0.8135  0.0000  0.5816  0.0000  0.0000  0.0000  0.0000  0.0000  0.0000  0.0000      0.0000  0.0000  0.0000  0.0000  0.0000  0.0000  0.0000  0.0000  0.0000  0.0000
     EDDAV:  cpu time    0.2548: real time    0.2564
       DOS:  cpu time    0.0002: real time    0.0002
    CHARGE:  cpu time    0.0323: real time    0.0323
    MIXING:  cpu time    0.0006: real time    0.0006
    --------------------------------------------
      LOOP:  cpu time    0.7152: real time    0.7167

 eigenvalue-minimisations  :  1032
 total energy-change (2. order) : 0.8355637E-01  (-0.5214840E-01)
 number of electron      53.9999998 magnetization      -0.0000000
 augmentation part       19.9822759 magnetization      -0.0000000

 Broyden mixing:
  rms(total) = 0.47442E+00    rms(broyden)= 0.47442E+00
  rms(prec ) = 0.50532E+00
  weight for this iteration     100.00

 eigenvalues of (default mixing * dielectric matrix)
  average eigenvalue GAMMA=   1.2489
  2.0973  1.0177  0.6317

 Free energy of the ion-electron system (eV)
  ---------------------------------------------------
  alpha Z        PSCENC =       203.95051221
  Ewald energy   TEWEN  =     -4253.05950503
  -Hartree energ DENC   =     -2105.44980452
  -exchange      EXHF   =         0.00000000
  -V(xc)+E(xc)   XCENC  =       295.78991980
  PAW double counting   =      6245.88625330    -6361.99952166
  entropy T*S    EENTRO =        -0.00000000
  eigenvalues    EBANDS =      -754.47203894
  atomic energy  EATOM  =      6689.45677594
  Solvation  Ediel_sol  =         0.00000000
  ---------------------------------------------------
  free energy    TOTEN  =       -39.89740891 eV

  energy without entropy =      -39.89740891  energy(sigma->0) =      -39.89740891


--------------------------------------------------------------------------------------------------------




--------------------------------------- Iteration      1(   9)  ---------------------------------------


    POTLOK:  cpu time    0.0051: real time    0.0051
    SETDIJ:  cpu time    0.4217: real time    0.4217
atom =   1  type =  1  l = 2
 
 onsite density matrix
 
spin component  1
 
  0.0493  0.0000  0.0276  0.0000  0.0000
  0.0000  0.0397  0.0000  0.0230  0.0000
  0.0276  0.0000  0.0340  0.0000 -0.0000
  0.0000  0.0230  0.0000  0.0397  0.0000
  0.0000  0.0000 -0.0000  0.0000  0.0143
 
spin component  2
 
  0.9747  0.0000  0.0241  0.0000 -0.0000
  0.0000  0.9676  0.0000  0.0206  0.0000
  0.0241  0.0000  0.9607  0.0000 -0.0000
  0.0000  0.0206  0.0000  0.9676  0.0000
 -0.0000  0.0000 -0.0000  0.0000  0.9467
 
 occupancies and eigenvectors
 
  o =  0.0130  v = -0.6052 -0.0000  0.7961  0.0000  0.0000  0.0000  0.0000  0.0000  0.0000  0.0000      0.0000  0.0000  0.0000  0.0000  0.0000  0.0000  0.0000  0.0000  0.0000  0.0000
  o =  0.0143  v = -0.0000  0.0000  0.0000  0.0000 -1.0000  0.0000  0.0000  0.0000  0.0000  0.0000      0.0000  0.0000  0.0000  0.0000  0.0000  0.0000  0.0000  0.0000  0.0000  0.0000
  o =  0.0168  v =  0.0000  0.7071  0.0000 -0.7071  0.0000  0.0000  0.0000  0.0000  0.0000  0.0000      0.0000  0.0000  0.0000  0.0000  0.0000  0.0000  0.0000  0.0000  0.0000  0.0000
  o =  0.0627  v =  0.0000  0.7071  0.0000  0.7071  0.0000  0.0000  0.0000  0.0000  0.0000  0.0000      0.0000  0.0000  0.0000  0.0000  0.0000  0.0000  0.0000  0.0000  0.0000  0.0000
  o =  0.0703  v = -0.7961 -0.0000 -0.6052  0.0000  0.0000  0.0000  0.0000  0.0000  0.0000  0.0000      0.0000  0.0000  0.0000  0.0000  0.0000  0.0000  0.0000  0.0000  0.0000  0.0000
  o =  0.9425  v =  0.0000  0.0000  0.0000  0.0000  0.0000 -0.6004  0.0000  0.7997  0.0000 -0.0000      0.0000  0.0000  0.0000  0.0000  0.0000  0.0000  0.0000  0.0000  0.0000  0.0000
  o =  0.9467  v =  0.0000  0.0000  0.0000  0.0000  0.0000  0.0000 -0.0000 -0.0000  0.0000 -1.0000      0.0000  0.0000  0.0000  0.0000  0.0000  0.0000  0.0000  0.0000  0.0000  0.0000
  o =  0.9470  v =  0.0000  0.0000  0.0000  0.0000  0.0000  0.0000 -0.7071  0.0000  0.7071  0.0000      0.0000  0.0000  0.0000  0.0000  0.0000  0.0000  0.0000  0.0000  0.0000  0.0000
  o =  0.9882  v =  0.0000  0.0000  0.0000  0.0000  0.0000  0.0000 -0.7071  0.0000 -0.7071  0.0000      0.0000  0.0000  0.0000  0.0000  0.0000  0.0000  0.0000  0.0000  0.0000  0.0000
  o =  0.9928  v =  0.0000  0.0000  0.0000  0.0000  0.0000 -0.7997  0.0000 -0.6004  0.0000  0.0000      0.0000  0.0000  0.0000  0.0000  0.0000  0.0000  0.0000  0.0000  0.0000  0.0000
atom =   2  type =  1  l = 2
 
 onsite density matrix
 
spin component  1
 
  0.9747  0.0000 -0.0241  0.0000 -0.0000
  0.0000  0.9676  0.0000 -0.0206  0.0000
 -0.0241  0.0000  0.9607  0.0000 -0.0000
  0.0000 -0.0206  0.0000  0.9676  0.0000
 -0.0000  0.0000 -0.0000  0.0000  0.9467
 
spin component  2
 
  0.0493  0.0000 -0.0276  0.0000  0.0000
  0.0000  0.0397  0.0000 -0.0230  0.0000
 -0.0276  0.0000  0.0340  0.0000  0.0000
  0.0000 -0.0230  0.0000  0.0397  0.0000
  0.0000  0.0000  0.0000  0.0000  0.0143
 
 occupancies and eigenvectors
 
  o =  0.0130  v =  0.0000  0.0000  0.0000  0.0000  0.0000 -0.6052 -0.0000 -0.7961  0.0000  0.0000      0.0000  0.0000  0.0000  0.0000  0.0000  0.0000  0.0000  0.0000  0.0000  0.0000
  o =  0.0143  v =  0.0000  0.0000  0.0000  0.0000  0.0000 -0.0000  0.0000 -0.0000  0.0000 -1.0000      0.0000  0.0000  0.0000  0.0000  0.0000  0.0000  0.0000  0.0000  0.0000  0.0000
  o =  0.0168  v =  0.0000  0.0000  0.0000  0.0000  0.0000  0.0000 -0.7071  0.0000 -0.7071 -0.0000      0.0000  0.0000  0.0000  0.0000  0.0000  0.0000  0.0000  0.0000  0.0000  0.0000
  o =  0.0627  v =  0.0000  0.0000  0.0000  0.0000  0.0000  0.0000 -0.7071  0.0000  0.7071 -0.0000      0.0000  0.0000  0.0000  0.0000  0.0000  0.0000  0.0000  0.0000  0.0000  0.0000
  o =  0.0703  v =  0.0000  0.0000  0.0000  0.0000  0.0000 -0.7961 -0.0000  0.6052  0.0000  0.0000      0.0000  0.0000  0.0000  0.0000  0.0000  0.0000  0.0000  0.0000  0.0000  0.0000
  o =  0.9425  v = -0.6004  0.0000 -0.7997  0.0000 -0.0000  0.0000  0.0000  0.0000  0.0000  0.0000      0.0000  0.0000  0.0000  0.0000  0.0000  0.0000  0.0000  0.0000  0.0000  0.0000
  o =  0.9467  v =  0.0000  0.0000 -0.0000  0.0000  1.0000  0.0000  0.0000  0.0000  0.0000  0.0000      0.0000  0.0000  0.0000  0.0000  0.0000  0.0000  0.0000  0.0000  0.0000  0.0000
  o =  0.9470  v =  0.0000  0.7071  0.0000  0.7071 -0.0000  0.0000  0.0000  0.0000  0.0000  0.0000      0.0000  0.0000  0.0000  0.0000  0.0000  0.0000  0.0000  0.0000  0.0000  0.0000
  o =  0.9882  v =  0.0000  0.7071  0.0000 -0.7071 -0.0000  0.0000  0.0000  0.0000  0.0000  0.0000      0.0000  0.0000  0.0000  0.0000  0.0000  0.0000  0.0000  0.0000  0.0000  0.0000
  o =  0.9928  v = -0.7997  0.0000  0.6004  0.0000  0.0000  0.0000  0.0000  0.0000  0.0000  0.0000      0.0000  0.0000  0.0000  0.0000  0.0000  0.0000  0.0000  0.0000  0.0000  0.0000
     EDDAV:  cpu time    0.2404: real time    0.2404
       DOS:  cpu time    0.0002: real time    0.0002
    CHARGE:  cpu time    0.0322: real time    0.0322
    MIXING:  cpu time    0.0006: real time    0.0006
    --------------------------------------------
      LOOP:  cpu time    0.7002: real time    0.7002

 eigenvalue-minimisations  :   984
 total energy-change (2. order) :-0.2733309E+00  (-0.7349102E-02)
 number of electron      53.9999998 magnetization      -0.0000000
 augmentation part       19.9717307 magnetization      -0.0000000

 Broyden mixing:
  rms(total) = 0.13650E+00    rms(broyden)= 0.13650E+00
  rms(prec ) = 0.14605E+00
  weight for this iteration     100.00

 eigenvalues of (default mixing * dielectric matrix)
  average eigenvalue GAMMA=   1.2172
  2.6251  0.8090  0.8090  0.6256

 Free energy of the ion-electron system (eV)
  ---------------------------------------------------
  alpha Z        PSCENC =       203.95051221
  Ewald energy   TEWEN  =     -4253.05950503
  -Hartree energ DENC   =     -2105.62189805
  -exchange      EXHF   =         0.00000000
  -V(xc)+E(xc)   XCENC  =       296.07625464
  PAW double counting   =      6378.98748499    -6499.27922361
  entropy T*S    EENTRO =        -0.00000000
  eigenvalues    EBANDS =      -750.68114087
  atomic energy  EATOM  =      6689.45677594
  Solvation  Ediel_sol  =         0.00000000
  ---------------------------------------------------
  free energy    TOTEN  =       -40.17073978 eV

  energy without entropy =      -40.17073978  energy(sigma->0) =      -40.17073978


--------------------------------------------------------------------------------------------------------




--------------------------------------- Iteration      1(  10)  ---------------------------------------


    POTLOK:  cpu time    0.0046: real time    0.0046
    SETDIJ:  cpu time    0.4220: real time    0.4220
atom =   1  type =  1  l = 2
 
 onsite density matrix
 
spin component  1
 
  0.0547  0.0000  0.0299  0.0000 -0.0000
  0.0000  0.0447  0.0000  0.0245  0.0000
  0.0299  0.0000  0.0385  0.0000 -0.0000
  0.0000  0.0245  0.0000  0.0447  0.0000
 -0.0000  0.0000 -0.0000  0.0000  0.0173
 
spin component  2
 
  0.9697  0.0000  0.0216  0.0000  0.0000
  0.0000  0.9630  0.0000  0.0189  0.0000
  0.0216  0.0000  0.9565  0.0000 -0.0000
  0.0000  0.0189  0.0000  0.9630  0.0000
  0.0000  0.0000 -0.0000  0.0000  0.9443
 
 occupancies and eigenvectors
 
  o =  0.0156  v = -0.6077  0.0000  0.7942 -0.0000  0.0000  0.0000  0.0000  0.0000  0.0000  0.0000      0.0000  0.0000  0.0000  0.0000  0.0000  0.0000  0.0000  0.0000  0.0000  0.0000
  o =  0.0173  v = -0.0000  0.0000  0.0000 -0.0000 -1.0000  0.0000  0.0000  0.0000  0.0000  0.0000      0.0000  0.0000  0.0000  0.0000  0.0000  0.0000  0.0000  0.0000  0.0000  0.0000
  o =  0.0202  v = -0.0000 -0.7071  0.0000  0.7071 -0.0000  0.0000  0.0000  0.0000  0.0000  0.0000      0.0000  0.0000  0.0000  0.0000  0.0000  0.0000  0.0000  0.0000  0.0000  0.0000
  o =  0.0692  v = -0.0000 -0.7071 -0.0000 -0.7071 -0.0000  0.0000  0.0000  0.0000  0.0000  0.0000      0.0000  0.0000  0.0000  0.0000  0.0000  0.0000  0.0000  0.0000  0.0000  0.0000
  o =  0.0775  v = -0.7942  0.0000 -0.6077  0.0000  0.0000  0.0000  0.0000  0.0000  0.0000  0.0000      0.0000  0.0000  0.0000  0.0000  0.0000  0.0000  0.0000  0.0000  0.0000  0.0000
  o =  0.9405  v =  0.0000  0.0000  0.0000  0.0000  0.0000 -0.5957  0.0000  0.8032  0.0000  0.0000      0.0000  0.0000  0.0000  0.0000  0.0000  0.0000  0.0000  0.0000  0.0000  0.0000
  o =  0.9441  v =  0.0000  0.0000  0.0000  0.0000  0.0000  0.0000 -0.7071  0.0000  0.7071 -0.0000      0.0000  0.0000  0.0000  0.0000  0.0000  0.0000  0.0000  0.0000  0.0000  0.0000
  o =  0.9443  v =  0.0000  0.0000  0.0000  0.0000  0.0000  0.0000  0.0000  0.0000  0.0000 -1.0000      0.0000  0.0000  0.0000  0.0000  0.0000  0.0000  0.0000  0.0000  0.0000  0.0000
  o =  0.9820  v =  0.0000  0.0000  0.0000  0.0000  0.0000  0.0000 -0.7071  0.0000 -0.7071 -0.0000      0.0000  0.0000  0.0000  0.0000  0.0000  0.0000  0.0000  0.0000  0.0000  0.0000
  o =  0.9857  v =  0.0000  0.0000  0.0000  0.0000  0.0000 -0.8032  0.0000 -0.5957  0.0000 -0.0000      0.0000  0.0000  0.0000  0.0000  0.0000  0.0000  0.0000  0.0000  0.0000  0.0000
atom =   2  type =  1  l = 2
 
 onsite density matrix
 
spin component  1
 
  0.9697  0.0000 -0.0216  0.0000  0.0000
  0.0000  0.9630  0.0000 -0.0189  0.0000
 -0.0216  0.0000  0.9565  0.0000 -0.0000
  0.0000 -0.0189  0.0000  0.9630  0.0000
  0.0000  0.0000 -0.0000  0.0000  0.9443
 
spin component  2
 
  0.0547  0.0000 -0.0299  0.0000 -0.0000
  0.0000  0.0447  0.0000 -0.0245  0.0000
 -0.0299  0.0000  0.0385  0.0000 -0.0000
  0.0000 -0.0245  0.0000  0.0447  0.0000
 -0.0000  0.0000 -0.0000  0.0000  0.0173
 
 occupancies and eigenvectors
 
  o =  0.0156  v =  0.0000  0.0000  0.0000  0.0000  0.0000 -0.6077  0.0000 -0.7942  0.0000 -0.0000      0.0000  0.0000  0.0000  0.0000  0.0000  0.0000  0.0000  0.0000  0.0000  0.0000
  o =  0.0173  v =  0.0000  0.0000  0.0000  0.0000  0.0000 -0.0000 -0.0000 -0.0000 -0.0000  1.0000      0.0000  0.0000  0.0000  0.0000  0.0000  0.0000  0.0000  0.0000  0.0000  0.0000
  o =  0.0202  v =  0.0000  0.0000  0.0000  0.0000  0.0000  0.0000  0.7071  0.0000  0.7071  0.0000      0.0000  0.0000  0.0000  0.0000  0.0000  0.0000  0.0000  0.0000  0.0000  0.0000
  o =  0.0692  v =  0.0000  0.0000  0.0000  0.0000  0.0000 -0.0000 -0.7071  0.0000  0.7071 -0.0000      0.0000  0.0000  0.0000  0.0000  0.0000  0.0000  0.0000  0.0000  0.0000  0.0000
  o =  0.0775  v =  0.0000  0.0000  0.0000  0.0000  0.0000 -0.7942  0.0000  0.6077 -0.0000 -0.0000      0.0000  0.0000  0.0000  0.0000  0.0000  0.0000  0.0000  0.0000  0.0000  0.0000
  o =  0.9405  v = -0.5957  0.0000 -0.8032  0.0000 -0.0000  0.0000  0.0000  0.0000  0.0000  0.0000      0.0000  0.0000  0.0000  0.0000  0.0000  0.0000  0.0000  0.0000  0.0000  0.0000
  o =  0.9441  v = -0.0000 -0.7071 -0.0000 -0.7071  0.0000  0.0000  0.0000  0.0000  0.0000  0.0000      0.0000  0.0000  0.0000  0.0000  0.0000  0.0000  0.0000  0.0000  0.0000  0.0000
  o =  0.9443  v = -0.0000  0.0000 -0.0000  0.0000  1.0000  0.0000  0.0000  0.0000  0.0000  0.0000      0.0000  0.0000  0.0000  0.0000  0.0000  0.0000  0.0000  0.0000  0.0000  0.0000
  o =  0.9820  v = -0.0000 -0.7071  0.0000  0.7071  0.0000  0.0000  0.0000  0.0000  0.0000  0.0000      0.0000  0.0000  0.0000  0.0000  0.0000  0.0000  0.0000  0.0000  0.0000  0.0000
  o =  0.9857  v = -0.8032  0.0000  0.5957 -0.0000 -0.0000  0.0000  0.0000  0.0000  0.0000  0.0000      0.0000  0.0000  0.0000  0.0000  0.0000  0.0000  0.0000  0.0000  0.0000  0.0000
     EDDAV:  cpu time    0.2469: real time    0.2469
       DOS:  cpu time    0.0002: real time    0.0002
    CHARGE:  cpu time    0.0324: real time    0.0324
    MIXING:  cpu time    0.0007: real time    0.0007
    --------------------------------------------
      LOOP:  cpu time    0.7068: real time    0.7068

 eigenvalue-minimisations  :  1008
 total energy-change (2. order) :-0.5782587E-03  (-0.1604221E-02)
 number of electron      53.9999998 magnetization      -0.0000000
 augmentation part       19.9683957 magnetization      -0.0000000

 Broyden mixing:
  rms(total) = 0.25459E-01    rms(broyden)= 0.25453E-01
  rms(prec ) = 0.28019E-01
  weight for this iteration     100.00

 eigenvalues of (default mixing * dielectric matrix)
  average eigenvalue GAMMA=   1.1588
  2.5366  0.9620  0.9620  0.7281  0.6053

 Free energy of the ion-electron system (eV)
  ---------------------------------------------------
  alpha Z        PSCENC =       203.95051221
  Ewald energy   TEWEN  =     -4253.05950503
  -Hartree energ DENC   =     -2106.31159749
  -exchange      EXHF   =         0.00000000
  -V(xc)+E(xc)   XCENC  =       296.17146099
  PAW double counting   =      6366.73089585    -6487.12123632
  entropy T*S    EENTRO =        -0.00000000
  eigenvalues    EBANDS =      -749.98862419
  atomic energy  EATOM  =      6689.45677594
  Solvation  Ediel_sol  =         0.00000000
  ---------------------------------------------------
  free energy    TOTEN  =       -40.17131803 eV

  energy without entropy =      -40.17131803  energy(sigma->0) =      -40.17131803


--------------------------------------------------------------------------------------------------------




--------------------------------------- Iteration      1(  11)  ---------------------------------------


    POTLOK:  cpu time    0.0046: real time    0.0046
    SETDIJ:  cpu time    0.4225: real time    0.4225
atom =   1  type =  1  l = 2
 
 onsite density matrix
 
spin component  1
 
  0.0532  0.0000  0.0296  0.0000 -0.0000
  0.0000  0.0433  0.0000  0.0243  0.0000
  0.0296  0.0000  0.0371  0.0000  0.0000
  0.0000  0.0243  0.0000  0.0433  0.0000
 -0.0000  0.0000  0.0000  0.0000  0.0162
 
spin component  2
 
  0.9719  0.0000  0.0217  0.0000 -0.0000
  0.0000  0.9653  0.0000  0.0189  0.0000
  0.0217  0.0000  0.9588  0.0000 -0.0000
  0.0000  0.0189  0.0000  0.9653  0.0000
 -0.0000  0.0000 -0.0000  0.0000  0.9466
 
 occupancies and eigenvectors
 
  o =  0.0145  v = -0.6069  0.0000  0.7948 -0.0000 -0.0000  0.0000  0.0000  0.0000  0.0000  0.0000      0.0000  0.0000  0.0000  0.0000  0.0000  0.0000  0.0000  0.0000  0.0000  0.0000
  o =  0.0162  v = -0.0000  0.0000  0.0000 -0.0000  1.0000  0.0000  0.0000  0.0000  0.0000  0.0000      0.0000  0.0000  0.0000  0.0000  0.0000  0.0000  0.0000  0.0000  0.0000  0.0000
  o =  0.0190  v =  0.0000  0.7071 -0.0000 -0.7071 -0.0000  0.0000  0.0000  0.0000  0.0000  0.0000      0.0000  0.0000  0.0000  0.0000  0.0000  0.0000  0.0000  0.0000  0.0000  0.0000
  o =  0.0676  v = -0.0000 -0.7071 -0.0000 -0.7071 -0.0000  0.0000  0.0000  0.0000  0.0000  0.0000      0.0000  0.0000  0.0000  0.0000  0.0000  0.0000  0.0000  0.0000  0.0000  0.0000
  o =  0.0758  v = -0.7948  0.0000 -0.6069  0.0000 -0.0000  0.0000  0.0000  0.0000  0.0000  0.0000      0.0000  0.0000  0.0000  0.0000  0.0000  0.0000  0.0000  0.0000  0.0000  0.0000
  o =  0.9427  v =  0.0000  0.0000  0.0000  0.0000  0.0000 -0.5959  0.0000  0.8030 -0.0000  0.0000      0.0000  0.0000  0.0000  0.0000  0.0000  0.0000  0.0000  0.0000  0.0000  0.0000
  o =  0.9464  v =  0.0000  0.0000  0.0000  0.0000  0.0000 -0.0000 -0.7071  0.0000  0.7071  0.0000      0.0000  0.0000  0.0000  0.0000  0.0000  0.0000  0.0000  0.0000  0.0000  0.0000
  o =  0.9466  v =  0.0000  0.0000  0.0000  0.0000  0.0000 -0.0000 -0.0000  0.0000  0.0000 -1.0000      0.0000  0.0000  0.0000  0.0000  0.0000  0.0000  0.0000  0.0000  0.0000  0.0000
  o =  0.9842  v =  0.0000  0.0000  0.0000  0.0000  0.0000 -0.0000 -0.7071 -0.0000 -0.7071 -0.0000      0.0000  0.0000  0.0000  0.0000  0.0000  0.0000  0.0000  0.0000  0.0000  0.0000
  o =  0.9880  v =  0.0000  0.0000  0.0000  0.0000  0.0000 -0.8030  0.0000 -0.5959  0.0000  0.0000      0.0000  0.0000  0.0000  0.0000  0.0000  0.0000  0.0000  0.0000  0.0000  0.0000
atom =   2  type =  1  l = 2
 
 onsite density matrix
 
spin component  1
 
  0.9719  0.0000 -0.0217  0.0000 -0.0000
  0.0000  0.9653  0.0000 -0.0189  0.0000
 -0.0217  0.0000  0.9588  0.0000 -0.0000
  0.0000 -0.0189  0.0000  0.9653  0.0000
 -0.0000  0.0000 -0.0000  0.0000  0.9466
 
spin component  2
 
  0.0532  0.0000 -0.0296  0.0000  0.0000
  0.0000  0.0433  0.0000 -0.0243  0.0000
 -0.0296  0.0000  0.0371  0.0000 -0.0000
  0.0000 -0.0243  0.0000  0.0433  0.0000
  0.0000  0.0000 -0.0000  0.0000  0.0162
 
 occupancies and eigenvectors
 
  o =  0.0145  v =  0.0000  0.0000  0.0000  0.0000  0.0000 -0.6069  0.0000 -0.7948  0.0000 -0.0000      0.0000  0.0000  0.0000  0.0000  0.0000  0.0000  0.0000  0.0000  0.0000  0.0000
  o =  0.0162  v =  0.0000  0.0000  0.0000  0.0000  0.0000 -0.0000  0.0000 -0.0000  0.0000  1.0000      0.0000  0.0000  0.0000  0.0000  0.0000  0.0000  0.0000  0.0000  0.0000  0.0000
  o =  0.0190  v =  0.0000  0.0000  0.0000  0.0000  0.0000  0.0000  0.7071  0.0000  0.7071 -0.0000      0.0000  0.0000  0.0000  0.0000  0.0000  0.0000  0.0000  0.0000  0.0000  0.0000
  o =  0.0676  v =  0.0000  0.0000  0.0000  0.0000  0.0000 -0.0000 -0.7071  0.0000  0.7071  0.0000      0.0000  0.0000  0.0000  0.0000  0.0000  0.0000  0.0000  0.0000  0.0000  0.0000
  o =  0.0758  v =  0.0000  0.0000  0.0000  0.0000  0.0000 -0.7948  0.0000  0.6069 -0.0000 -0.0000      0.0000  0.0000  0.0000  0.0000  0.0000  0.0000  0.0000  0.0000  0.0000  0.0000
  o =  0.9427  v = -0.5959  0.0000 -0.8030  0.0000 -0.0000  0.0000  0.0000  0.0000  0.0000  0.0000      0.0000  0.0000  0.0000  0.0000  0.0000  0.0000  0.0000  0.0000  0.0000  0.0000
  o =  0.9464  v =  0.0000 -0.7071  0.0000 -0.7071  0.0000  0.0000  0.0000  0.0000  0.0000  0.0000      0.0000  0.0000  0.0000  0.0000  0.0000  0.0000  0.0000  0.0000  0.0000  0.0000
  o =  0.9466  v =  0.0000  0.0000 -0.0000  0.0000  1.0000  0.0000  0.0000  0.0000  0.0000  0.0000      0.0000  0.0000  0.0000  0.0000  0.0000  0.0000  0.0000  0.0000  0.0000  0.0000
  o =  0.9842  v =  0.0000  0.7071  0.0000 -0.7071 -0.0000  0.0000  0.0000  0.0000  0.0000  0.0000      0.0000  0.0000  0.0000  0.0000  0.0000  0.0000  0.0000  0.0000  0.0000  0.0000
  o =  0.9880  v = -0.8030  0.0000  0.5959  0.0000  0.0000  0.0000  0.0000  0.0000  0.0000  0.0000      0.0000  0.0000  0.0000  0.0000  0.0000  0.0000  0.0000  0.0000  0.0000  0.0000
     EDDAV:  cpu time    0.2368: real time    0.2368
       DOS:  cpu time    0.0002: real time    0.0002
    CHARGE:  cpu time    0.0324: real time    0.0324
    MIXING:  cpu time    0.0007: real time    0.0007
    --------------------------------------------
      LOOP:  cpu time    0.6972: real time    0.6972

 eigenvalue-minimisations  :   960
 total energy-change (2. order) : 0.3843972E-04  (-0.1540058E-03)
 number of electron      53.9999998 magnetization       0.0000000
 augmentation part       19.9640763 magnetization       0.0000000

 Broyden mixing:
  rms(total) = 0.13874E-01    rms(broyden)= 0.13872E-01
  rms(prec ) = 0.15154E-01
  weight for this iteration     100.00

 eigenvalues of (default mixing * dielectric matrix)
  average eigenvalue GAMMA=   1.1218
  2.5297  1.3206  0.8155  0.8155  0.6441  0.6053

 Free energy of the ion-electron system (eV)
  ---------------------------------------------------
  alpha Z        PSCENC =       203.95051221
  Ewald energy   TEWEN  =     -4253.05950503
  -Hartree energ DENC   =     -2106.77195463
  -exchange      EXHF   =         0.00000000
  -V(xc)+E(xc)   XCENC  =       296.18749405
  PAW double counting   =      6351.03282677    -6471.28598312
  entropy T*S    EENTRO =        -0.00000000
  eigenvalues    EBANDS =      -749.68144578
  atomic energy  EATOM  =      6689.45677594
  Solvation  Ediel_sol  =         0.00000000
  ---------------------------------------------------
  free energy    TOTEN  =       -40.17127959 eV

  energy without entropy =      -40.17127959  energy(sigma->0) =      -40.17127959


[...]
     34       9.5998      0.00000
     35       9.8742      0.00000
     36      11.5163      0.00000

 k-point     4 :       0.0000    0.0000    0.3750
  band No.  band energies     occupation 
      1     -45.9654      1.00000
      2     -45.9328      1.00000
      3     -45.9082      1.00000
      4     -41.3785      1.00000
      5     -41.3546      1.00000
      6     -41.3229      1.00000
      7     -20.6499      1.00000
      8     -20.4053      1.00000
      9     -20.3570      1.00000
     10     -20.2635      1.00000
     11      -4.3556      1.00000
     12      -3.9980      1.00000
     13      -3.6335      1.00000
     14      -3.5208      1.00000
     15      -3.3073      1.00000
     16      -3.2185      1.00000
     17      -2.7952      1.00000
     18      -2.6395      1.00000
     19      -2.4567      1.00000
     20      -1.9549      1.00000
     21      -1.8127      1.00000
     22      -1.7047      1.00000
     23       0.0043      1.00000
     24       0.2080      1.00000
     25       0.5158      1.00000
     26       1.1801      1.00000
     27       1.3936      1.00000
     28       7.0854      0.00000
     29       7.1069      0.00000
     30       7.1103      0.00000
     31       7.8745      0.00000
     32       8.0256      0.00000
     33       8.5287      0.00000
     34      11.4714      0.00000
     35      12.8925      0.00000
     36      12.9139      0.00000

 k-point     5 :       0.3333    0.0000    0.3750
  band No.  band energies     occupation 
      1     -45.9654      1.00000
      2     -45.9328      1.00000
      3     -45.9082      1.00000
      4     -41.3786      1.00000
      5     -41.3546      1.00000
      6     -41.3229      1.00000
      7     -20.5720      1.00000
      8     -20.4264      1.00000
      9     -20.3702      1.00000
     10     -20.3087      1.00000
     11      -4.1114      1.00000
     12      -4.0046      1.00000
     13      -3.8292      1.00000
     14      -3.7108      1.00000
     15      -3.4821      1.00000
     16      -3.0781      1.00000
     17      -2.9205      1.00000
     18      -2.6707      1.00000
     19      -2.3332      1.00000
     20      -1.9391      1.00000
     21      -1.7301      1.00000
     22      -1.5298      1.00000
     23       0.0227      1.00000
     24       0.1294      1.00000
     25       0.4039      1.00000
     26       1.1002      1.00000
     27       1.6678      1.00000
     28       7.0900      0.00000
     29       7.0978      0.00000
     30       7.2574      0.00000
     31       7.8401      0.00000
     32       8.3742      0.00000
     33       8.9302      0.00000
     34      10.7490      0.00000
     35      11.7222      0.00000
     36      12.9052      0.00000

 k-point     6 :       0.3333    0.3333    0.3750
  band No.  band energies     occupation 
      1     -45.9655      1.00000
      2     -45.9328      1.00000
      3     -45.9082      1.00000
      4     -41.3786      1.00000
      5     -41.3546      1.00000
      6     -41.3229      1.00000
      7     -20.5223      1.00000
      8     -20.4776      1.00000
      9     -20.3833      1.00000
     10     -20.2896      1.00000
     11      -4.4664      1.00000
     12      -4.1535      1.00000
     13      -3.9582      1.00000
     14      -3.8175      1.00000
     15      -3.5160      1.00000
     16      -2.9470      1.00000
     17      -2.6827      1.00000
     18      -2.4334      1.00000
     19      -2.1348      1.00000
     20      -1.7834      1.00000
     21      -1.6767      1.00000
     22      -1.4857      1.00000
     23       0.0273      1.00000
     24       0.1459      1.00000
     25       0.3676      1.00000
     26       1.0906      1.00000
     27       1.5499      1.00000
     28       7.0815      0.00000
     29       7.1109      0.00000
     30       7.2901      0.00000
     31       7.9305      0.00000
     32       8.3497      0.00000
     33       9.3457      0.00000
     34      11.1926      0.00000
     35      11.3228      0.00000
     36      11.9536      0.00000


--------------------------------------------------------------------------------------------------------


 soft charge-density along one line, spin component           1
         0         1         2         3         4         5         6         7         8         9
 total charge-density along one line
 
 soft charge-density along one line, spin component           2
         0         1         2         3         4         5         6         7         8         9
 total charge-density along one line
 
 pseudopotential strength for first ion, spin component:           1
-41.890  -0.000  -0.031   7.900   0.000   0.013   0.000  -0.000
 -0.000 -41.864  -0.000   0.000   7.889   0.000  -0.000  -0.000
 -0.031  -0.000 -41.890   0.013   0.000   7.900  -0.000  -0.000
  7.900   0.000   0.013   5.348  -0.000  -0.005  -0.000   0.000
  0.000   7.889   0.000  -0.000   5.352  -0.000   0.000  -0.000
  0.013   0.000   7.900  -0.005  -0.000   5.348  -0.000   0.000
  0.000  -0.000  -0.000  -0.000   0.000  -0.000  -1.379  -0.000
 -0.000  -0.000  -0.000   0.000  -0.000   0.000  -0.000  -1.334
  0.000  -0.000  -0.000   0.000   0.000  -0.000  -0.075   0.000
 -0.000  -0.000  -0.000   0.000  -0.000   0.000  -0.000  -0.090
  0.000  -0.000  -0.000   0.000   0.000   0.000   0.000   0.000
  0.000  -0.000  -0.000  -0.000   0.000  -0.000  -1.822  -0.000
 -0.000  -0.000  -0.000   0.000  -0.000   0.000  -0.000  -1.776
  0.000  -0.000  -0.000   0.000   0.000  -0.000  -0.078   0.000
 -0.000  -0.000  -0.000   0.000  -0.000   0.000  -0.000  -0.093
  0.000  -0.000  -0.000   0.000   0.000   0.000   0.000   0.000
 -0.000   0.000   0.000  -0.000   0.000   0.000   0.006   0.000
 -0.000   0.000   0.000  -0.000   0.000   0.000   0.012   0.000
 pseudopotential strength for first ion, spin component:           2
-44.959  -0.000  -0.024   9.385   0.000   0.009   0.000  -0.000
 -0.000 -44.941  -0.000   0.000   9.379   0.000  -0.000  -0.000
 -0.024  -0.000 -44.959   0.009   0.000   9.385  -0.000  -0.000
  9.385   0.000   0.009   4.853  -0.000  -0.003   0.000   0.000
  0.000   9.379   0.000  -0.000   4.856  -0.000   0.000  -0.000
  0.009   0.000   9.385  -0.003  -0.000   4.853  -0.000   0.000
  0.000  -0.000  -0.000   0.000   0.000  -0.000  -7.382  -0.000
 -0.000  -0.000  -0.000   0.000  -0.000   0.000  -0.000  -7.351
  0.000  -0.000  -0.000   0.000   0.000  -0.000  -0.053   0.000
 -0.000  -0.000  -0.000   0.000  -0.000   0.000  -0.000  -0.073
  0.000  -0.000  -0.000   0.000   0.000  -0.000   0.000   0.000
  0.000  -0.000  -0.000   0.000   0.000  -0.000  -7.875  -0.000
 -0.000  -0.000  -0.000   0.000  -0.000   0.000  -0.000  -7.843
  0.000  -0.000  -0.000   0.000   0.000  -0.000  -0.055   0.000
 -0.000  -0.000  -0.000   0.000  -0.000   0.000  -0.000  -0.075
  0.000  -0.000  -0.000   0.000   0.000  -0.000   0.000   0.000
 -0.000   0.000   0.000  -0.000   0.000   0.000   0.004   0.000
 -0.000   0.000   0.000  -0.000   0.000   0.000   0.007   0.000
 total augmentation occupancy for first ion, spin component:           1
  1.998   0.000  -0.000  -0.013   0.000   0.000   0.000   0.000   0.000   0.000   0.000   0.000   0.000   0.000   0.000   0.000
  0.000   1.998   0.000   0.000  -0.013   0.000   0.000   0.000   0.000   0.000   0.000   0.000   0.000   0.000   0.000   0.000
 -0.000   0.000   1.998   0.000   0.000  -0.013   0.000   0.000   0.000   0.000   0.000   0.000   0.000   0.000   0.000   0.000
 -0.013   0.000   0.000   0.096   0.000  -0.010   0.000   0.000   0.000   0.000   0.000   0.000   0.000   0.000   0.000   0.000
  0.000  -0.013   0.000   0.000   0.108   0.000   0.000   0.000   0.000   0.000   0.000   0.000   0.000   0.000   0.000   0.000
  0.000   0.000  -0.013  -0.010   0.000   0.096   0.000   0.000   0.000   0.000   0.000   0.000   0.000   0.000   0.000   0.000
  0.000   0.000   0.000   0.000   0.000   0.000   8.374   0.000   3.387   0.000   0.000  -6.445   0.000  -3.213   0.000  -0.000
  0.000   0.000   0.000   0.000   0.000   0.000   0.000   6.991   0.000   2.914   0.000   0.000  -5.126   0.000  -2.752   0.000
  0.000   0.000   0.000   0.000   0.000   0.000   3.387   0.000   6.309   0.000   0.000  -3.214   0.000  -4.507   0.000   0.000
  0.000   0.000   0.000   0.000   0.000   0.000   0.000   2.914   0.000   6.991   0.000   0.000  -2.752   0.000  -5.126   0.000
  0.000   0.000   0.000   0.000   0.000   0.000   0.000   0.000  -0.000   0.000   3.957   0.000   0.000   0.000   0.000  -2.231
  0.000   0.000   0.000   0.000   0.000   0.000  -6.445   0.000  -3.214   0.000   0.000   5.687   0.000   3.085   0.000  -0.000
  0.000   0.000   0.000   0.000   0.000   0.000   0.000  -5.126   0.000  -2.752   0.000   0.000   4.419   0.000   2.629   0.000
  0.000   0.000   0.000   0.000   0.000   0.000  -3.213   0.000  -4.507   0.000   0.000   3.085   0.000   3.850   0.000   0.000
  0.000   0.000   0.000   0.000   0.000   0.000   0.000  -2.752   0.000  -5.126   0.000   0.000   2.629   0.000   4.419   0.000
  0.000   0.000   0.000   0.000   0.000   0.000  -0.000   0.000  -0.000   0.000  -2.231  -0.000   0.000  -0.000   0.000   1.626
  0.000   0.000   0.000   0.000   0.000   0.000   0.265   0.000  -0.230   0.000  -0.000  -0.295   0.000   0.238   0.000  -0.000
  0.000   0.000   0.000   0.000   0.000   0.000  -0.008   0.000   0.027   0.000   0.000   0.033   0.000  -0.038   0.000   0.000
 total augmentation occupancy for first ion, spin component:           2
  0.004   0.000  -0.000   0.016   0.000  -0.000   0.000   0.000   0.000   0.000   0.000   0.000   0.000   0.000   0.000   0.000
  0.000   0.004   0.000   0.000   0.017   0.000   0.000   0.000   0.000   0.000   0.000   0.000   0.000   0.000   0.000   0.000
 -0.000   0.000   0.004  -0.000   0.000   0.016   0.000   0.000   0.000   0.000   0.000   0.000   0.000   0.000   0.000   0.000
  0.016   0.000  -0.000  -0.009   0.000  -0.000   0.000   0.000   0.000   0.000   0.000   0.000   0.000   0.000   0.000   0.000
  0.000   0.017   0.000   0.000  -0.009   0.000   0.000   0.000   0.000   0.000   0.000   0.000   0.000   0.000   0.000   0.000
 -0.000   0.000   0.016  -0.000   0.000  -0.009   0.000   0.000   0.000   0.000   0.000   0.000   0.000   0.000   0.000   0.000
  0.000   0.000   0.000   0.000   0.000   0.000  -5.672   0.000  -1.871   0.000   0.000   3.337   0.000   1.477   0.000   0.000
  0.000   0.000   0.000   0.000   0.000   0.000   0.000  -4.906   0.000  -1.637   0.000   0.000   2.713   0.000   1.292   0.000
  0.000   0.000   0.000   0.000   0.000   0.000  -1.871   0.000  -4.441   0.000  -0.000   1.477   0.000   2.356   0.000   0.000
  0.000   0.000   0.000   0.000   0.000   0.000   0.000  -1.637   0.000  -4.906   0.000   0.000   1.292   0.000   2.713   0.000
  0.000   0.000   0.000   0.000   0.000   0.000   0.000   0.000  -0.000   0.000  -3.276   0.000   0.000  -0.000   0.000   1.425
  0.000   0.000   0.000   0.000   0.000   0.000   3.337   0.000   1.477   0.000  -0.000  -2.102   0.000  -1.089   0.000  -0.000
  0.000   0.000   0.000   0.000   0.000   0.000   0.000   2.713   0.000   1.292   0.000   0.000  -1.620   0.000  -0.952   0.000
  0.000   0.000   0.000   0.000   0.000   0.000   1.477   0.000   2.356   0.000  -0.000  -1.089   0.000  -1.367   0.000  -0.000
  0.000   0.000   0.000   0.000   0.000   0.000   0.000   1.292   0.000   2.713   0.000   0.000  -0.952   0.000  -1.620   0.000
  0.000   0.000   0.000   0.000   0.000   0.000   0.000   0.000   0.000   0.000   1.425   0.000   0.000   0.000   0.000  -0.670
  0.000   0.000   0.000   0.000   0.000   0.000   0.006   0.000   0.024   0.000   0.000  -0.015   0.000  -0.004   0.000   0.000
  0.000   0.000   0.000   0.000   0.000   0.000  -0.047   0.000   0.012   0.000  -0.000   0.028   0.000  -0.006   0.000  -0.000


------------------------ aborting loop because EDIFF is reached ----------------------------------------


 


 total charge     
 
# of ion       s       p       d       tot
------------------------------------------
    1        0.180   6.172   4.982  11.333
    2        0.183   6.168   4.986  11.337
    3        1.721   4.363   0.000   6.084
    4        1.721   4.363   0.000   6.084
    5        1.721   4.360   0.000   6.081
    6        1.721   4.360   0.000   6.081
--------------------------------------------------
tot          7.247  29.786   9.968  47.001
 


 magnetization (x)
 
# of ion       s       p       d       tot
------------------------------------------
    1       -0.014  -0.014  -4.597  -4.626
    2        0.014   0.013   4.595   4.623
    3        0.002   0.020   0.000   0.022
    4        0.002   0.020   0.000   0.022
    5       -0.002  -0.018   0.000  -0.020
    6       -0.002  -0.018   0.000  -0.020
--------------------------------------------------
tot         -0.001   0.004  -0.002   0.002
 
    CHARGE:  cpu time    0.0321: real time    0.0321
    FORLOC:  cpu time    0.0008: real time    0.0008
    FORNL :  cpu time    0.1456: real time    0.1456
    STRESS:  cpu time    0.4430: real time    0.4430
    FORCOR:  cpu time    0.0041: real time    0.0041
    FORHAR:  cpu time    0.0021: real time    0.0021
    MIXING:  cpu time    0.0008: real time    0.0008
    OFIELD:  cpu time    0.0000: real time    0.0000

  FORCE on cell =-STRESS in cart. coord.  units (eV):
  Direction    XX          YY          ZZ          XY          YZ          ZX
  --------------------------------------------------------------------------------------
  Alpha Z   203.95051   203.95051   203.95051
  Ewald   -1606.36587 -1606.36587 -1040.33096    -0.00000    -0.00000    -0.00000
  Hartree   575.74423   575.74423   955.15774    -0.00000    -0.00000    -0.00000
  E(xc)    -309.49797  -309.49797  -309.54241    -0.00000     0.00000     0.00000
  Local     185.49722   185.49722  -752.67226    -0.00000    -0.00000    -0.00000
  n-local  -238.19611  -238.53308  -237.32404     0.01632     0.06738     0.13864
  augment   267.15797   267.15797   266.53430    -0.00000    -0.00000    -0.00000
  Kinetic   921.50793   922.26260   914.22510    -0.32402    -0.52783    -1.15360
  Fock        0.00000     0.00000     0.00000     0.00000     0.00000     0.00000
  -------------------------------------------------------------------------------------
  Total       0.00677     0.00677    -0.00201     0.00000     0.00000     0.00000
  in kB       0.14521     0.14521    -0.04319     0.00000     0.00000     0.00000
  external pressure =        0.08 kB  Pullay stress =        0.00 kB


 VOLUME and BASIS-vectors are now :
 -----------------------------------------------------------------------------
  energy-cutoff  :      600.00
  volume of cell :       74.70
      direct lattice vectors                 reciprocal lattice vectors
     4.795904286  0.000000000  0.000000000     0.208511251  0.000000000  0.000000000
     0.000000000  4.795904286  0.000000000     0.000000000  0.208511251  0.000000000
     0.000000000  0.000000000  3.247883034     0.000000000  0.000000000  0.307892861

  length of vectors
     4.795904286  4.795904286  3.247883034     0.208511251  0.208511251  0.307892861


 FORCES acting on ions
    electron-ion (+dipol)            ewald-force                    non-local-force                 convergence-correction
 -----------------------------------------------------------------------------------------------
   -.180E-11 0.653E-11 -.499E-12   0.000E+00 0.000E+00 0.167E-13   0.000E+00 0.000E+00 0.000E+00   0.145E-12 -.341E-13 0.556E-13
   -.307E-13 -.209E-13 0.492E-12   -.284E-13 -.853E-13 0.162E-13   0.000E+00 0.000E+00 0.000E+00   -.471E-13 0.258E-13 -.860E-13
   -.339E+02 0.339E+02 0.313E-11   0.351E+02 -.351E+02 -.409E-14   -.128E+01 0.128E+01 -.217E-18   -.324E-04 0.324E-04 0.811E-13
   0.339E+02 -.339E+02 0.114E-11   -.351E+02 0.351E+02 -.442E-14   0.128E+01 -.128E+01 0.217E-18   0.324E-04 -.324E-04 -.180E-14
   0.339E+02 0.339E+02 0.121E-08   -.351E+02 -.351E+02 -.835E-14   0.128E+01 0.128E+01 -.434E-18   0.324E-04 0.324E-04 -.241E-10
   -.339E+02 -.339E+02 -.121E-08   0.351E+02 0.351E+02 -.861E-14   -.128E+01 -.128E+01 0.434E-18   -.324E-04 -.324E-04 0.240E-10
 -----------------------------------------------------------------------------------------------
   -.951E-12 0.819E-11 0.650E-11   0.000E+00 -.711E-14 0.747E-14   0.222E-15 0.000E+00 0.000E+00   0.779E-13 0.227E-13 -.157E-13
 
 
 POSITION                                       TOTAL-FORCE (eV/Angst)
 -----------------------------------------------------------------------------------
      2.39795      2.39795      1.62394         0.000000      0.000000      0.000000
      0.00000      0.00000      0.00000         0.000000      0.000000      0.000000
      0.93967      3.85624      1.62394        -0.003091      0.003091      0.000000
      3.85624      0.93967      1.62394         0.003091     -0.003091     -0.000000
      1.45828      1.45828      0.00000         0.003091      0.003091      0.000000
      3.33762      3.33762      0.00000        -0.003091     -0.003091     -0.000000
 -----------------------------------------------------------------------------------
    total drift:                               -0.000000      0.000000      0.000000


--------------------------------------------------------------------------------------------------------



  FREE ENERGIE OF THE ION-ELECTRON SYSTEM (eV)
  ---------------------------------------------------
  free  energy   TOTEN  =       -40.17133070 eV

  energy  without entropy=      -40.17133070  energy(sigma->0) =      -40.17133070
 


--------------------------------------------------------------------------------------------------------


    POTLOK:  cpu time    0.3984: real time    0.3984


--------------------------------------------------------------------------------------------------------




--------------------------------------------------------------------------------------------------------


  
 reached required accuracy - stopping structural energy minimisation
     LOOP+:  cpu time   10.7643: real time   10.7876
    4ORBIT:  cpu time    0.0000: real time    0.0000
 


 total charge     
 
# of ion       s       p       d       tot
------------------------------------------
    1        0.180   6.172   4.982  11.333
    2        0.183   6.168   4.986  11.337
    3        1.721   4.363   0.000   6.084
    4        1.721   4.363   0.000   6.084
    5        1.721   4.360   0.000   6.081
    6        1.721   4.360   0.000   6.081
--------------------------------------------------
tot          7.247  29.786   9.968  47.001
 


 magnetization (x)
 
# of ion       s       p       d       tot
------------------------------------------
    1       -0.014  -0.014  -4.597  -4.626
    2        0.014   0.013   4.595   4.623
    3        0.002   0.020   0.000   0.022
    4        0.002   0.020   0.000   0.022
    5       -0.002  -0.018   0.000  -0.020
    6       -0.002  -0.018   0.000  -0.020
--------------------------------------------------
tot         -0.001   0.004  -0.002   0.002
 

 total amount of memory used by VASP MPI-rank0    40588. kBytes
=======================================================================

   base      :      30000. kBytes
   nonl-proj :       4574. kBytes
   fftplans  :       1875. kBytes
   grid      :       2467. kBytes
   one-center:        186. kBytes
   wavefun   :       1486. kBytes
 
  
  
 General timing and accounting informations for this job:
 ========================================================
  
                  Total CPU time used (sec):       11.746
                            User time (sec):        8.459
                          System time (sec):        3.287
                         Elapsed time (sec):       11.818
  
                   Maximum memory used (kb):       56744.
                   Average memory used (kb):           0.
  
                          Minor page faults:         8350
                          Major page faults:            8
                 Voluntary context switches:          323
