       N       E                     dE             d eps       ncg     rms          rms(c)
DAV:   1     0.694337127962E+03    0.69434E+03   -0.34274E+04   288   0.193E+03
DAV:   2     0.110162096793E+02   -0.68332E+03   -0.66150E+03   324   0.521E+02
DAV:   3    -0.406199995768E+02   -0.51636E+02   -0.51409E+02   324   0.156E+02
DAV:   4    -0.414079253495E+02   -0.78793E+00   -0.78749E+00   336   0.208E+01
DAV:   5    -0.414195802726E+02   -0.11655E-01   -0.11655E-01   324   0.251E+00    0.248E+01
DAV:   6    -0.393389136879E+02    0.20807E+01   -0.15687E+01   324   0.318E+01    0.159E+01
DAV:   7    -0.399807077454E+02   -0.64179E+00   -0.15942E+00   348   0.107E+01    0.118E+01
DAV:   8    -0.399052620522E+02    0.75446E-01   -0.51243E-01   360   0.588E+00    0.481E+00
DAV:   9    -0.401688576230E+02   -0.26360E+00   -0.69242E-02   324   0.244E+00    0.132E+00
DAV:  10    -0.401699860418E+02   -0.11284E-02   -0.15557E-02   372   0.100E+00    0.244E-01
DAV:  11    -0.401699416908E+02    0.44351E-04   -0.15096E-03   300   0.263E-01    0.143E-01
DAV:  12    -0.401699803361E+02   -0.38645E-04   -0.44173E-05   384   0.869E-02    0.596E-02
DAV:  13    -0.401699877521E+02   -0.74160E-05   -0.36390E-05   312   0.332E-02    0.213E-02
DAV:  14    -0.401699893189E+02   -0.15668E-05   -0.16383E-06   300   0.126E-02    0.370E-03
DAV:  15    -0.401699894783E+02   -0.15931E-06   -0.13475E-07   276   0.281E-03    0.148E-03
DAV:  16    -0.401699894911E+02   -0.12792E-07   -0.16880E-08   144   0.125E-03
   1 F= -.40169989E+02 E0= -.40169989E+02  d E =-.401700E+02  mag=     0.0000
       N       E                     dE             d eps       ncg     rms          rms(c)
DAV:   1    -0.401701143210E+02   -0.12484E-03   -0.57159E-03   288   0.552E-01    0.857E-02
DAV:   2    -0.401700325015E+02    0.81819E-04   -0.21695E-04   324   0.115E-01    0.514E-02
DAV:   3    -0.401700162159E+02    0.16286E-04   -0.24296E-05   348   0.440E-02    0.271E-02
DAV:   4    -0.401700099772E+02    0.62387E-05   -0.50463E-06   372   0.165E-02    0.117E-02
DAV:   5    -0.401700090812E+02    0.89608E-06   -0.15674E-06   336   0.984E-03    0.477E-03
DAV:   6    -0.401700090992E+02   -0.18013E-07   -0.12972E-07   264   0.255E-03
   2 F= -.40170009E+02 E0= -.40170009E+02  d E =-.196081E-04  mag=    -0.0000
