       N       E                     dE             d eps       ncg     rms          rms(c)
DAV:   1     0.661979690044E+03    0.66198E+03   -0.33886E+04   144   0.189E+03
DAV:   2     0.432086518104E+01   -0.65766E+03   -0.63604E+03   168   0.508E+02
DAV:   3    -0.408297075181E+02   -0.45151E+02   -0.45011E+02   156   0.152E+02
DAV:   4    -0.414160341913E+02   -0.58633E+00   -0.58590E+00   192   0.188E+01
DAV:   5    -0.414255731289E+02   -0.95389E-02   -0.95389E-02   144   0.231E+00    0.251E+01
DAV:   6    -0.394216539138E+02    0.20039E+01   -0.15704E+01   216   0.319E+01    0.163E+01
DAV:   7    -0.400563501480E+02   -0.63470E+00   -0.14573E+00   192   0.105E+01    0.119E+01
DAV:   8    -0.399490189282E+02    0.10733E+00   -0.56852E-01   168   0.610E+00    0.434E+00
DAV:   9    -0.402337942225E+02   -0.28478E+00   -0.95315E-02   144   0.283E+00    0.133E+00
DAV:  10    -0.402340454754E+02   -0.25125E-03   -0.14751E-02   168   0.963E-01    0.247E-01
DAV:  11    -0.402340338212E+02    0.11654E-04   -0.11908E-03   168   0.232E-01    0.129E-01
DAV:  12    -0.402340640483E+02   -0.30227E-04   -0.24293E-05   168   0.673E-02    0.650E-02
DAV:  13    -0.402340698341E+02   -0.57858E-05   -0.44435E-05   168   0.427E-02    0.169E-02
DAV:  14    -0.402340705006E+02   -0.66653E-06   -0.50787E-06   144   0.253E-02    0.513E-03
DAV:  15    -0.402340707629E+02   -0.26231E-06   -0.44400E-07   192   0.504E-03    0.179E-03
DAV:  16    -0.402340707735E+02   -0.10547E-07   -0.26702E-08    72   0.171E-03
   1 F= -.40234071E+02 E0= -.40234071E+02  d E =-.402341E+02  mag=     0.0000
