 vasp.5.4.4.18Apr17-6-g9f103f2a35 (build Apr 27 2017 11:13:10) complex          
  
 executed on           IFC91_ompi date 2021.06.08  16:27:20
 running on   12 total cores
 distrk:  each k-point on   12 cores,    1 groups
 distr:  one band on NCORES_PER_BAND=   1 cores,   12 groups


--------------------------------------------------------------------------------------------------------


 INCAR:
 POTCAR:    PAW Mn_pv 02Aug2007                   
 POTCAR:    PAW F 31May2000                       

 ----------------------------------------------------------------------------- 
|                                                                             |
|           W    W    AA    RRRRR   N    N  II  N    N   GGGG   !!!           |
|           W    W   A  A   R    R  NN   N  II  NN   N  G    G  !!!           |
|           W    W  A    A  R    R  N N  N  II  N N  N  G       !!!           |
|           W WW W  AAAAAA  RRRRR   N  N N  II  N  N N  G  GGG   !            |
|           WW  WW  A    A  R   R   N   NN  II  N   NN  G    G                |
|           W    W  A    A  R    R  N    N  II  N    N   GGGG   !!!           |
|                                                                             |
|      For optimal performance we recommend to set                            |
|        NCORE= 4 - approx SQRT( number of cores)                             |
|      NCORE specifies how many cores store one orbital (NPAR=cpu/NCORE).     |
|      This setting can  greatly improve the performance of VASP for DFT.     |
|      The default,   NCORE=1            might be grossly inefficient         |
|      on modern multi-core architectures or massively parallel machines.     |
|      Do your own testing !!!!                                               |
|      Unfortunately you need to use the default for GW and RPA calculations. |
|      (for HF NCORE is supported but not extensively tested yet)             |
|                                                                             |
 ----------------------------------------------------------------------------- 

 POTCAR:    PAW Mn_pv 02Aug2007                   
   VRHFIN =Mn: 3p4s3d                                                           
   LEXCH  = CA                                                                  
   EATOM  =  2028.0466 eV,  149.0572 Ry                                         
                                                                                
   TITEL  = PAW Mn_pv 02Aug2007                                                 
   LULTRA =        F    use ultrasoft PP ?                                      
   IUNSCR =        1    unscreen: 0-lin 1-nonlin 2-no                           
   RPACOR =    2.080    partial core radius                                     
   POMASS =   54.938; ZVAL   =   13.000    mass and valenz                      
   RCORE  =    2.300    outmost cutoff radius                                   
   RWIGS  =    2.500; RWIGS  =    1.323    wigner-seitz radius (au A)           
   ENMAX  =  269.944; ENMIN  =  202.458 eV                                      
   ICORE  =        3    local potential                                         
   LCOR   =        T    correct aug charges                                     
   LPAW   =        T    paw PP                                                  
   EAUG   =  569.085                                                            
   DEXC   =    0.000                                                            
   RMAX   =    2.343    core radius for proj-oper                               
   RAUG   =    1.300    factor for augmentation sphere                          
   RDEP   =    2.338    radius for radial grids                                 
   RDEPT  =    1.798    core radius for aug-charge                              
                                                                                
   Atomic configuration                                                         
    8 entries                                                                   
     n  l   j            E        occ.                                          
     1  0  0.50     -6393.6057   2.0000                                         
     2  0  0.50      -735.9993   2.0000                                         
     2  1  1.50      -624.3417   6.0000                                         
     3  0  0.50       -80.9782   2.0000                                         
     3  1  1.50       -50.3144   6.0000                                         
     3  2  2.50        -3.6171   6.0000                                         
     4  0  0.50        -4.3304   1.0000                                         
     4  3  2.50        -1.3606   0.0000                                         
   Description                                                                  
     l       E           TYP  RCUT    TYP  RCUT                                 
     1    -50.3143634     23  2.000                                             
     1     -1.3605826     23  2.000                                             
     2     -3.6171470     23  2.300                                             
     2     -4.9777296     23  2.300                                             
     0     -4.3303688     23  2.300                                             
     0      7.3408788     23  2.300                                             
     3      9.5240782     23  2.300                                             
  local pseudopotential read in
  partial core-charges read in
  partial kinetic energy density read in
  atomic valenz-charges read in
  non local Contribution for L=           1  read in
    real space projection operators read in
  non local Contribution for L=           1  read in
    real space projection operators read in
  non local Contribution for L=           2  read in
    real space projection operators read in
  non local Contribution for L=           2  read in
    real space projection operators read in
  non local Contribution for L=           0  read in
    real space projection operators read in
  non local Contribution for L=           0  read in
    real space projection operators read in
    PAW grid and wavefunctions read in
 
   number of l-projection  operators is LMAX  =           6
   number of lm-projection operators is LMMAX =          18
 
 POTCAR:    PAW F 31May2000                       
   VRHFIN =F: s2p5                                                              
   LEXCH  = CA                                                                  
   EATOM  =   658.3685 eV,   48.3887 Ry                                         
                                                                                
   TITEL  = PAW F 31May2000                                                     
   LULTRA =        F    use ultrasoft PP ?                                      
   IUNSCR =        1    unscreen: 0-lin 1-nonlin 2-no                           
   RPACOR =    1.200    partial core radius                                     
   POMASS =   18.998; ZVAL   =    7.000    mass and valenz                      
   RCORE  =    1.520    outmost cutoff radius                                   
   RWIGS  =    1.500; RWIGS  =    0.794    wigner-seitz radius (au A)           
   ENMAX  =  400.000; ENMIN  =  300.000 eV                                      
   ICORE  =        2    local potential                                         
   LCOR   =        T    correct aug charges                                     
   LPAW   =        T    paw PP                                                  
   EAUG   =  613.614                                                            
   DEXC   =    0.000                                                            
   RMAX   =    1.555    core radius for proj-oper                               
   RAUG   =    1.300    factor for augmentation sphere                          
   RDEP   =    1.539    radius for radial grids                                 
   RDEPT  =    1.299    core radius for aug-charge                              
                                                                                
   Atomic configuration                                                         
    4 entries                                                                   
     n  l   j            E        occ.                                          
     1  0  0.50      -658.3386   2.0000                                         
     2  0  0.50       -29.6221   2.0000                                         
     2  1  0.50       -11.2952   5.0000                                         
     3  2  1.50       -12.2452   0.0000                                         
   Description                                                                  
     l       E           TYP  RCUT    TYP  RCUT                                 
     0    -29.6221019     23  1.200                                             
     0     -9.5240782     23  1.200                                             
     1    -11.2951545     23  1.520                                             
     1      1.3605826     23  1.520                                             
     2    -12.2452434      7  1.500                                             
  local pseudopotential read in
  partial core-charges read in
  partial kinetic energy density read in
  kinetic energy density of atom read in
  atomic valenz-charges read in
  non local Contribution for L=           0  read in
    real space projection operators read in
  non local Contribution for L=           0  read in
    real space projection operators read in
  non local Contribution for L=           1  read in
    real space projection operators read in
  non local Contribution for L=           1  read in
    real space projection operators read in
    PAW grid and wavefunctions read in
 
   number of l-projection  operators is LMAX  =           4
   number of lm-projection operators is LMMAX =           8
 
  PAW Mn_pv 02Aug2007                   :
 energy of atom  1       EATOM=-2028.0466
 kinetic energy error for atom=    0.0047 (will be added to EATOM!!)
  PAW F 31May2000                       :
 energy of atom  2       EATOM= -658.3685
 kinetic energy error for atom=    0.0252 (will be added to EATOM!!)
 
 
 POSCAR: Mn  F                                   
  positions in cartesian coordinates
  No initial velocities read in
 exchange correlation table for  LEXCH =        2
   RHO(1)=    0.500       N(1)  =     2000
   RHO(2)=  100.500       N(2)  =     4000
 


--------------------------------------------------------------------------------------------------------


 ion  position               nearest neighbor table
   1  0.500  0.500  0.500-   3 2.06   4 2.06   5 2.10   6 2.10   5 2.10   6 2.10
   2  0.000  0.000  0.000-   5 2.06   6 2.06   3 2.10   4 2.10   3 2.10   4 2.10
   3  0.196  0.804  0.500-   1 2.06   2 2.10   2 2.10
   4  0.804  0.196  0.500-   1 2.06   2 2.10   2 2.10
   5  0.304  0.304  0.000-   2 2.06   1 2.10   1 2.10
   6  0.696  0.696  0.000-   2 2.06   1 2.10   1 2.10
 

IMPORTANT INFORMATION: All symmetrisations will be switched off!
NOSYMM: (Re-)initialisation of all symmetry stuff for point group C_1.

 
 
 KPOINTS: KPOINTS created by Atomic Simulation Env

Automatic generation of k-mesh.
Space group operators:
 irot       det(A)        alpha          n_x          n_y          n_z        tau_x        tau_y        tau_z
    1     1.000000     0.000000     1.000000     0.000000     0.000000     0.000000     0.000000     0.000000
 
 Subroutine IBZKPT returns following result:
 ===========================================
 
 Found     48 irreducible k-points:
 
 Following reciprocal coordinates:
            Coordinates               Weight
  0.125000  0.125000  0.083333      2.000000
  0.375000  0.125000  0.083333      2.000000
 -0.375000  0.125000  0.083333      2.000000
 -0.125000  0.125000  0.083333      2.000000
  0.125000  0.375000  0.083333      2.000000
  0.375000  0.375000  0.083333      2.000000
 -0.375000  0.375000  0.083333      2.000000
 -0.125000  0.375000  0.083333      2.000000
  0.125000 -0.375000  0.083333      2.000000
  0.375000 -0.375000  0.083333      2.000000
 -0.375000 -0.375000  0.083333      2.000000
 -0.125000 -0.375000  0.083333      2.000000
  0.125000 -0.125000  0.083333      2.000000
  0.375000 -0.125000  0.083333      2.000000
 -0.375000 -0.125000  0.083333      2.000000
 -0.125000 -0.125000  0.083333      2.000000
  0.125000  0.125000  0.250000      2.000000
  0.375000  0.125000  0.250000      2.000000
 -0.375000  0.125000  0.250000      2.000000
 -0.125000  0.125000  0.250000      2.000000
  0.125000  0.375000  0.250000      2.000000
  0.375000  0.375000  0.250000      2.000000
 -0.375000  0.375000  0.250000      2.000000
 -0.125000  0.375000  0.250000      2.000000
  0.125000 -0.375000  0.250000      2.000000
  0.375000 -0.375000  0.250000      2.000000
 -0.375000 -0.375000  0.250000      2.000000
 -0.125000 -0.375000  0.250000      2.000000
  0.125000 -0.125000  0.250000      2.000000
  0.375000 -0.125000  0.250000      2.000000
 -0.375000 -0.125000  0.250000      2.000000
 -0.125000 -0.125000  0.250000      2.000000
  0.125000  0.125000  0.416667      2.000000
  0.375000  0.125000  0.416667      2.000000
 -0.375000  0.125000  0.416667      2.000000
 -0.125000  0.125000  0.416667      2.000000
  0.125000  0.375000  0.416667      2.000000
  0.375000  0.375000  0.416667      2.000000
 -0.375000  0.375000  0.416667      2.000000
 -0.125000  0.375000  0.416667      2.000000
  0.125000 -0.375000  0.416667      2.000000
  0.375000 -0.375000  0.416667      2.000000
 -0.375000 -0.375000  0.416667      2.000000
 -0.125000 -0.375000  0.416667      2.000000
  0.125000 -0.125000  0.416667      2.000000
  0.375000 -0.125000  0.416667      2.000000
 -0.375000 -0.125000  0.416667      2.000000
 -0.125000 -0.125000  0.416667      2.000000
 
 Following cartesian coordinates:
            Coordinates               Weight
  0.026064  0.026064  0.025658      2.000000
  0.078192  0.026064  0.025658      2.000000
 -0.078192  0.026064  0.025658      2.000000
 -0.026064  0.026064  0.025658      2.000000
  0.026064  0.078192  0.025658      2.000000
  0.078192  0.078192  0.025658      2.000000
 -0.078192  0.078192  0.025658      2.000000
 -0.026064  0.078192  0.025658      2.000000
  0.026064 -0.078192  0.025658      2.000000
  0.078192 -0.078192  0.025658      2.000000
 -0.078192 -0.078192  0.025658      2.000000
 -0.026064 -0.078192  0.025658      2.000000
  0.026064 -0.026064  0.025658      2.000000
  0.078192 -0.026064  0.025658      2.000000
 -0.078192 -0.026064  0.025658      2.000000
 -0.026064 -0.026064  0.025658      2.000000
  0.026064  0.026064  0.076973      2.000000
  0.078192  0.026064  0.076973      2.000000
 -0.078192  0.026064  0.076973      2.000000
 -0.026064  0.026064  0.076973      2.000000
  0.026064  0.078192  0.076973      2.000000
  0.078192  0.078192  0.076973      2.000000
 -0.078192  0.078192  0.076973      2.000000
 -0.026064  0.078192  0.076973      2.000000
  0.026064 -0.078192  0.076973      2.000000
  0.078192 -0.078192  0.076973      2.000000
 -0.078192 -0.078192  0.076973      2.000000
 -0.026064 -0.078192  0.076973      2.000000
  0.026064 -0.026064  0.076973      2.000000
  0.078192 -0.026064  0.076973      2.000000
 -0.078192 -0.026064  0.076973      2.000000
 -0.026064 -0.026064  0.076973      2.000000
  0.026064  0.026064  0.128289      2.000000
  0.078192  0.026064  0.128289      2.000000
 -0.078192  0.026064  0.128289      2.000000
 -0.026064  0.026064  0.128289      2.000000
  0.026064  0.078192  0.128289      2.000000
  0.078192  0.078192  0.128289      2.000000
 -0.078192  0.078192  0.128289      2.000000
 -0.026064  0.078192  0.128289      2.000000
  0.026064 -0.078192  0.128289      2.000000
  0.078192 -0.078192  0.128289      2.000000
 -0.078192 -0.078192  0.128289      2.000000
 -0.026064 -0.078192  0.128289      2.000000
  0.026064 -0.026064  0.128289      2.000000
  0.078192 -0.026064  0.128289      2.000000
 -0.078192 -0.026064  0.128289      2.000000
 -0.026064 -0.026064  0.128289      2.000000
 
 TETIRR: Found    288 inequivalent tetrahedra from      576


--------------------------------------------------------------------------------------------------------




 Dimension of arrays:
   k-points           NKPTS =     48   k-points in BZ     NKDIM =     48   number of bands    NBANDS=     36
   number of dos      NEDOS =    301   number of ions     NIONS =      6
   non local maximal  LDIM  =      6   non local SUM 2l+1 LMDIM =     18
   total plane-waves  NPLWV =  18000
   max r-space proj   IRMAX =      1   max aug-charges    IRDMAX=  58682
   dimension x,y,z NGX =    30 NGY =   30 NGZ =   20
   dimension x,y,z NGXF=    60 NGYF=   60 NGZF=   40
   support grid    NGXF=   120 NGYF=  120 NGZF=   80
   ions per type =               2   4
   NGX,Y,Z   is equivalent  to a cutoff of  10.40, 10.40, 10.24 a.u.
   NGXF,Y,Z  is equivalent  to a cutoff of  20.80, 20.80, 20.47 a.u.

 SYSTEM =  unknown system                          
 POSCAR =  Mn  F                                   

 Startparameter for this run:
   NWRITE =      2    write-flag & timer
   PREC   = normal    normal or accurate (medium, high low for compatibility)
   ISTART =      1    job   : 0-new  1-cont  2-samecut
   ICHARG =      0    charge: 1-file 2-atom 10-const
   ISPIN  =      2    spin polarized calculation?
   LNONCOLLINEAR =      F non collinear calculations
   LSORBIT =      F    spin-orbit coupling
   INIWAV =      1    electr: 0-lowe 1-rand  2-diag
   LASPH  =      T    aspherical Exc in radial PAW
   METAGGA=      F    non-selfconsistent MetaGGA calc.

 Electronic Relaxation 1
   ENCUT  =  600.0 eV  44.10 Ry    6.64 a.u.   9.58  9.58  6.49*2*pi/ulx,y,z
   ENINI  =  600.0     initial cutoff
   ENAUG  =  613.6 eV  augmentation charge cutoff
   NELM   =     60;   NELMIN=  2; NELMDL=  0     # of ELM steps 
   EDIFF  = 0.1E-07   stopping-criterion for ELM
   LREAL  =      F    real-space projection
   NLSPLINE    = F    spline interpolate recip. space projectors
   LCOMPAT=      F    compatible to vasp.4.4
   GGA_COMPAT  = T    GGA compatible to vasp.4.4-vasp.4.6
   LMAXPAW     = -100 max onsite density
   LMAXMIX     =    4 max onsite mixed and CHGCAR
   VOSKOWN=      0    Vosko Wilk Nusair interpolation
   ROPT   =    0.00000   0.00000
 Ionic relaxation
   EDIFFG = 0.1E-06   stopping-criterion for IOM
   NSW    =      0    number of steps for IOM
   NBLOCK =      1;   KBLOCK =      1    inner block; outer block 
   IBRION =     -1    ionic relax: 0-MD 1-quasi-New 2-CG
   NFREE  =      0    steps in history (QN), initial steepest desc. (CG)
   ISIF   =      2    stress and relaxation
   IWAVPR =     10    prediction:  0-non 1-charg 2-wave 3-comb
   ISYM   =      0    0-nonsym 1-usesym 2-fastsym
   LCORR  =      T    Harris-Foulkes like correction to forces

   POTIM  = 0.5000    time-step for ionic-motion
   TEIN   =    0.0    initial temperature
   TEBEG  =    0.0;   TEEND  =   0.0 temperature during run
   SMASS  =  -3.00    Nose mass-parameter (am)
   estimated Nose-frequenzy (Omega)   =  0.10E-29 period in steps =****** mass=  -0.526E-27a.u.
   SCALEE = 1.0000    scale energy and forces
   NPACO  =    256;   APACO  = 16.0  distance and # of slots for P.C.
   PSTRESS=    0.0 pullay stress

  Mass of Ions in am
   POMASS =  54.94 19.00
  Ionic Valenz
   ZVAL   =  13.00  7.00
  Atomic Wigner-Seitz radii
   RWIGS  =  -1.00 -1.00
  virtual crystal weights 
   VCA    =   1.00  1.00
   NELECT =      54.0000    total number of electrons
   NUPDOWN=      -1.0000    fix difference up-down

 DOS related values:
   EMIN   =  10.00;   EMAX   =-10.00  energy-range for DOS
   EFERMI =   0.00
   ISMEAR =    -5;   SIGMA  =   0.20  broadening in eV -4-tet -1-fermi 0-gaus

 Electronic relaxation 2 (details)
   IALGO  =     38    algorithm
   LDIAG  =      T    sub-space diagonalisation (order eigenvalues)
   LSUBROT=      F    optimize rotation matrix (better conditioning)
   TURBO    =      0    0=normal 1=particle mesh
   IRESTART =      0    0=no restart 2=restart with 2 vectors
   NREBOOT  =      0    no. of reboots
   NMIN     =      0    reboot dimension
   EREF     =   0.00    reference energy to select bands
   IMIX   =      4    mixing-type and parameters
     AMIX     =   0.40;   BMIX     =  1.00
     AMIX_MAG =   1.60;   BMIX_MAG =  1.00
     AMIN     =   0.10
     WC   =   100.;   INIMIX=   1;  MIXPRE=   1;  MAXMIX= -45

 Intra band minimization:
   WEIMIN = 0.0000     energy-eigenvalue tresh-hold
   EBREAK =  0.69E-10  absolut break condition
   DEPER  =   0.30     relativ break condition  

   TIME   =   0.40     timestep for ELM

  volume/ion in A,a.u.               =      12.45        84.02
  Fermi-wavevector in a.u.,A,eV,Ry     =   1.469238  2.776458 29.370375  2.158662
  Thomas-Fermi vector in A             =   2.584640
 
 Write flags
   LWAVE        =      T    write WAVECAR
   LDOWNSAMPLE  =      F    k-point downsampling of WAVECAR
   LCHARG       =      T    write CHGCAR
   LVTOT        =      F    write LOCPOT, total local potential
   LVHAR        =      F    write LOCPOT, Hartree potential only
   LELF         =      F    write electronic localiz. function (ELF)
   LORBIT       =     11    0 simple, 1 ext, 2 COOP (PROOUT), +10 PAW based schemes


 Dipole corrections
   LMONO  =      F    monopole corrections only (constant potential shift)
   LDIPOL =      F    correct potential (dipole corrections)
   IDIPOL =      0    1-x, 2-y, 3-z, 4-all directions 
   EPSILON=  1.0000000 bulk dielectric constant

 LDA+U is selected, type is set to LDAUTYPE =  2
   angular momentum for each species LDAUL =     2   -1
   U (eV)           for each species LDAUU =   4.0  0.0
   J (eV)           for each species LDAUJ =   0.0  0.0
 Exchange correlation treatment:
   GGA     =    --    GGA type
   LEXCH   =     2    internal setting for exchange type
   VOSKOWN=      0    Vosko Wilk Nusair interpolation
   LHFCALC =     F    Hartree Fock is set to
   LHFONE  =     F    Hartree Fock one center treatment
   AEXX    =    0.0000 exact exchange contribution

 Linear response parameters
   LEPSILON=     F    determine dielectric tensor
   LRPA    =     F    only Hartree local field effects (RPA)
   LNABLA  =     F    use nabla operator in PAW spheres
   LVEL    =     F    velocity operator in full k-point grid
   LINTERFAST=   F  fast interpolation
   KINTER  =     0    interpolate to denser k-point grid
   CSHIFT  =0.1000    complex shift for real part using Kramers Kronig
   OMEGAMAX=  -1.0    maximum frequency
   DEG_THRESHOLD= 0.2000000E-02 threshold for treating states as degnerate
   RTIME   =   -0.100 relaxation time in fs
  (WPLASMAI=    0.000 imaginary part of plasma frequency in eV, 0.658/RTIME)
   DFIELD  = 0.0000000 0.0000000 0.0000000 field for delta impulse in time
 
 Orbital magnetization related:
   ORBITALMAG=     F  switch on orbital magnetization
   LCHIMAG   =     F  perturbation theory with respect to B field
   DQ        =  0.001000  dq finite difference perturbation B field
   LLRAUG    =     F  two centre corrections for induced B field



--------------------------------------------------------------------------------------------------------


 Static calculation
 charge density and potential will be updated during run
 spin polarized calculation
 Variant of blocked Davidson
 Davidson routine will perform the subspace rotation
 perform sub-space diagonalisation
    after iterative eigenvector-optimisation
 modified Broyden-mixing scheme, WC =      100.0
 initial mixing is a Kerker type mixing with AMIX =  0.4000 and BMIX =      1.0000
 Hartree-type preconditioning will be used
 using additional bands            9
 reciprocal scheme for non local part
 use partial core corrections
 calculate Harris-corrections to forces 
   (improved forces if not selfconsistent)
 use of overlap-Matrix (Vanderbilt PP)
 Fermi weights with tetrahedron method with Bloechl corrections


--------------------------------------------------------------------------------------------------------


  energy-cutoff  :      600.00
  volume of cell :       74.70
      direct lattice vectors                 reciprocal lattice vectors
     4.795904286  0.000000000  0.000000000     0.208511251  0.000000000  0.000000000
     0.000000000  4.795904286  0.000000000     0.000000000  0.208511251  0.000000000
     0.000000000  0.000000000  3.247883034     0.000000000  0.000000000  0.307892861

  length of vectors
     4.795904286  4.795904286  3.247883034     0.208511251  0.208511251  0.307892861


 
 old parameters found on file WAVECAR:
  energy-cutoff  :      600.00
  volume of cell :       74.70
      direct lattice vectors                 reciprocal lattice vectors
     4.795904286  0.000000000  0.000000000     0.208511251  0.000000000  0.000000000
     0.000000000  4.795904286  0.000000000     0.000000000  0.208511251  0.000000000
     0.000000000  0.000000000  3.247883034     0.000000000  0.000000000  0.307892861

  length of vectors

 
 k-points in units of 2pi/SCALE and weight: KPOINTS created by Atomic Simulation Env
   0.02606391  0.02606391  0.02565774       0.021
   0.07819172  0.02606391  0.02565774       0.021
  -0.07819172  0.02606391  0.02565774       0.021
  -0.02606391  0.02606391  0.02565774       0.021
   0.02606391  0.07819172  0.02565774       0.021
   0.07819172  0.07819172  0.02565774       0.021
  -0.07819172  0.07819172  0.02565774       0.021
  -0.02606391  0.07819172  0.02565774       0.021
   0.02606391 -0.07819172  0.02565774       0.021
   0.07819172 -0.07819172  0.02565774       0.021
  -0.07819172 -0.07819172  0.02565774       0.021
  -0.02606391 -0.07819172  0.02565774       0.021
   0.02606391 -0.02606391  0.02565774       0.021
   0.07819172 -0.02606391  0.02565774       0.021
  -0.07819172 -0.02606391  0.02565774       0.021
  -0.02606391 -0.02606391  0.02565774       0.021
   0.02606391  0.02606391  0.07697322       0.021
   0.07819172  0.02606391  0.07697322       0.021
  -0.07819172  0.02606391  0.07697322       0.021
  -0.02606391  0.02606391  0.07697322       0.021
   0.02606391  0.07819172  0.07697322       0.021
   0.07819172  0.07819172  0.07697322       0.021
  -0.07819172  0.07819172  0.07697322       0.021
  -0.02606391  0.07819172  0.07697322       0.021
   0.02606391 -0.07819172  0.07697322       0.021
   0.07819172 -0.07819172  0.07697322       0.021
  -0.07819172 -0.07819172  0.07697322       0.021
  -0.02606391 -0.07819172  0.07697322       0.021
   0.02606391 -0.02606391  0.07697322       0.021
   0.07819172 -0.02606391  0.07697322       0.021
  -0.07819172 -0.02606391  0.07697322       0.021
  -0.02606391 -0.02606391  0.07697322       0.021
   0.02606391  0.02606391  0.12828869       0.021
   0.07819172  0.02606391  0.12828869       0.021
  -0.07819172  0.02606391  0.12828869       0.021
  -0.02606391  0.02606391  0.12828869       0.021
   0.02606391  0.07819172  0.12828869       0.021
   0.07819172  0.07819172  0.12828869       0.021
  -0.07819172  0.07819172  0.12828869       0.021
  -0.02606391  0.07819172  0.12828869       0.021
   0.02606391 -0.07819172  0.12828869       0.021
   0.07819172 -0.07819172  0.12828869       0.021
  -0.07819172 -0.07819172  0.12828869       0.021
  -0.02606391 -0.07819172  0.12828869       0.021
   0.02606391 -0.02606391  0.12828869       0.021
   0.07819172 -0.02606391  0.12828869       0.021
  -0.07819172 -0.02606391  0.12828869       0.021
  -0.02606391 -0.02606391  0.12828869       0.021
 
 k-points in reciprocal lattice and weights: KPOINTS created by Atomic Simulation Env
   0.12500000  0.12500000  0.08333333       0.021
   0.37500000  0.12500000  0.08333333       0.021
  -0.37500000  0.12500000  0.08333333       0.021
  -0.12500000  0.12500000  0.08333333       0.021
   0.12500000  0.37500000  0.08333333       0.021
   0.37500000  0.37500000  0.08333333       0.021
  -0.37500000  0.37500000  0.08333333       0.021
  -0.12500000  0.37500000  0.08333333       0.021
   0.12500000 -0.37500000  0.08333333       0.021
   0.37500000 -0.37500000  0.08333333       0.021
  -0.37500000 -0.37500000  0.08333333       0.021
  -0.12500000 -0.37500000  0.08333333       0.021
   0.12500000 -0.12500000  0.08333333       0.021
   0.37500000 -0.12500000  0.08333333       0.021
  -0.37500000 -0.12500000  0.08333333       0.021
  -0.12500000 -0.12500000  0.08333333       0.021
   0.12500000  0.12500000  0.25000000       0.021
   0.37500000  0.12500000  0.25000000       0.021
  -0.37500000  0.12500000  0.25000000       0.021
  -0.12500000  0.12500000  0.25000000       0.021
   0.12500000  0.37500000  0.25000000       0.021
   0.37500000  0.37500000  0.25000000       0.021
  -0.37500000  0.37500000  0.25000000       0.021
  -0.12500000  0.37500000  0.25000000       0.021
   0.12500000 -0.37500000  0.25000000       0.021
   0.37500000 -0.37500000  0.25000000       0.021
  -0.37500000 -0.37500000  0.25000000       0.021
  -0.12500000 -0.37500000  0.25000000       0.021
   0.12500000 -0.12500000  0.25000000       0.021
   0.37500000 -0.12500000  0.25000000       0.021
  -0.37500000 -0.12500000  0.25000000       0.021
  -0.12500000 -0.12500000  0.25000000       0.021
   0.12500000  0.12500000  0.41666667       0.021
   0.37500000  0.12500000  0.41666667       0.021
  -0.37500000  0.12500000  0.41666667       0.021
  -0.12500000  0.12500000  0.41666667       0.021
   0.12500000  0.37500000  0.41666667       0.021
   0.37500000  0.37500000  0.41666667       0.021
  -0.37500000  0.37500000  0.41666667       0.021
  -0.12500000  0.37500000  0.41666667       0.021
   0.12500000 -0.37500000  0.41666667       0.021
   0.37500000 -0.37500000  0.41666667       0.021
  -0.37500000 -0.37500000  0.41666667       0.021
  -0.12500000 -0.37500000  0.41666667       0.021
   0.12500000 -0.12500000  0.41666667       0.021
   0.37500000 -0.12500000  0.41666667       0.021
  -0.37500000 -0.12500000  0.41666667       0.021
  -0.12500000 -0.12500000  0.41666667       0.021
 
 position of ions in fractional coordinates (direct lattice) 
   0.50000000  0.50000000  0.50000000
   0.00000000  0.00000000  0.00000000
   0.19593145  0.80406855  0.50000000
   0.80406855  0.19593145  0.50000000
   0.30406855  0.30406855  0.00000000
   0.69593145  0.69593145  0.00000000
 
 position of ions in cartesian coordinates  (Angst):
   2.39795214  2.39795214  1.62394152
   0.00000000  0.00000000  0.00000000
   0.93966849  3.85623580  1.62394152
   3.85623580  0.93966849  1.62394152
   1.45828365  1.45828365  0.00000000
   3.33762063  3.33762063  0.00000000
 


--------------------------------------------------------------------------------------------------------


 k-point  1 :   0.1250 0.1250 0.0833  plane waves:    2517
 k-point  2 :   0.3750 0.1250 0.0833  plane waves:    2502
 k-point  3 :  -0.3750 0.1250 0.0833  plane waves:    2502
 k-point  4 :  -0.1250 0.1250 0.0833  plane waves:    2517
 k-point  5 :   0.1250 0.3750 0.0833  plane waves:    2502
 k-point  6 :   0.3750 0.3750 0.0833  plane waves:    2496
 k-point  7 :  -0.3750 0.3750 0.0833  plane waves:    2496
 k-point  8 :  -0.1250 0.3750 0.0833  plane waves:    2502
 k-point  9 :   0.1250-0.3750 0.0833  plane waves:    2502
 k-point 10 :   0.3750-0.3750 0.0833  plane waves:    2496
 k-point 11 :  -0.3750-0.3750 0.0833  plane waves:    2496
 k-point 12 :  -0.1250-0.3750 0.0833  plane waves:    2502
 k-point 13 :   0.1250-0.1250 0.0833  plane waves:    2517
 k-point 14 :   0.3750-0.1250 0.0833  plane waves:    2502
 k-point 15 :  -0.3750-0.1250 0.0833  plane waves:    2502
 k-point 16 :  -0.1250-0.1250 0.0833  plane waves:    2517
 k-point 17 :   0.1250 0.1250 0.2500  plane waves:    2509
 k-point 18 :   0.3750 0.1250 0.2500  plane waves:    2494
 k-point 19 :  -0.3750 0.1250 0.2500  plane waves:    2494
 k-point 20 :  -0.1250 0.1250 0.2500  plane waves:    2509
 k-point 21 :   0.1250 0.3750 0.2500  plane waves:    2494
 k-point 22 :   0.3750 0.3750 0.2500  plane waves:    2489
 k-point 23 :  -0.3750 0.3750 0.2500  plane waves:    2489
 k-point 24 :  -0.1250 0.3750 0.2500  plane waves:    2494
 k-point 25 :   0.1250-0.3750 0.2500  plane waves:    2494
 k-point 26 :   0.3750-0.3750 0.2500  plane waves:    2489
 k-point 27 :  -0.3750-0.3750 0.2500  plane waves:    2489
 k-point 28 :  -0.1250-0.3750 0.2500  plane waves:    2494
 k-point 29 :   0.1250-0.1250 0.2500  plane waves:    2509
 k-point 30 :   0.3750-0.1250 0.2500  plane waves:    2494
 k-point 31 :  -0.3750-0.1250 0.2500  plane waves:    2494
 k-point 32 :  -0.1250-0.1250 0.2500  plane waves:    2509
 k-point 33 :   0.1250 0.1250 0.4167  plane waves:    2483
 k-point 34 :   0.3750 0.1250 0.4167  plane waves:    2479
 k-point 35 :  -0.3750 0.1250 0.4167  plane waves:    2479
 k-point 36 :  -0.1250 0.1250 0.4167  plane waves:    2483
 k-point 37 :   0.1250 0.3750 0.4167  plane waves:    2479
 k-point 38 :   0.3750 0.3750 0.4167  plane waves:    2487
 k-point 39 :  -0.3750 0.3750 0.4167  plane waves:    2487
 k-point 40 :  -0.1250 0.3750 0.4167  plane waves:    2479
 k-point 41 :   0.1250-0.3750 0.4167  plane waves:    2479
 k-point 42 :   0.3750-0.3750 0.4167  plane waves:    2487
 k-point 43 :  -0.3750-0.3750 0.4167  plane waves:    2487
 k-point 44 :  -0.1250-0.3750 0.4167  plane waves:    2479
 k-point 45 :   0.1250-0.1250 0.4167  plane waves:    2483
 k-point 46 :   0.3750-0.1250 0.4167  plane waves:    2479
 k-point 47 :  -0.3750-0.1250 0.4167  plane waves:    2479
 k-point 48 :  -0.1250-0.1250 0.4167  plane waves:    2483

 maximum and minimum number of plane-waves per node :      2517     2479

 maximum number of plane-waves:      2517
 maximum index in each direction: 
   IXMAX=    9   IYMAX=    9   IZMAX=    6
   IXMIN=   -9   IYMIN=   -9   IZMIN=   -6


 serial   3D FFT for wavefunctions
 parallel 3D FFT for charge:
    minimum data exchange during FFTs selected (reduces bandwidth)


 total amount of memory used by VASP MPI-rank0    81549. kBytes
=======================================================================

   base      :      30000. kBytes
   nonl-proj :      35078. kBytes
   fftplans  :       1875. kBytes
   grid      :       2467. kBytes
   one-center:        186. kBytes
   wavefun   :      11943. kBytes
 
     INWAV:  cpu time    0.7002: real time    0.7002
 Broyden mixing: mesh for mixing (old mesh)
   NGX = 19   NGY = 19   NGZ = 13
  (NGX  = 60   NGY  = 60   NGZ  = 40)
  gives a total of   4693 points

 charge density for first step will be calculated from the start-wavefunctions


--------------------------------------------------------------------------------------------------------


 Maximum index for augmentation-charges         4435 (set IRDMAX)


--------------------------------------------------------------------------------------------------------


 initial charge from wavefunction
 First call to EWALD:  gamma=   0.421
 Maximum number of real-space cells 2x 2x 3
 Maximum number of reciprocal cells 3x 3x 2

    FEWALD:  cpu time    0.0011: real time    0.0011


--------------------------------------- Iteration      1(   1)  ---------------------------------------


    POTLOK:  cpu time    0.0068: real time    0.0068
    SETDIJ:  cpu time    1.9646: real time    1.9646
atom =   1  type =  1  l = 2
 
 onsite density matrix
 
spin component  1
 
  0.1351  0.0118 -0.0037  0.0120  0.0000
  0.0118  0.0949  0.0091  0.0400 -0.0144
 -0.0037  0.0091  0.0724  0.0091  0.0014
  0.0120  0.0400  0.0091  0.0933  0.0148
  0.0000 -0.0144  0.0014  0.0148  0.0972
 
spin component  2
 
  0.9220 -0.0047  0.0289 -0.0048 -0.0001
 -0.0047  0.9128 -0.0035  0.0130  0.0054
  0.0289 -0.0035  0.9220 -0.0034 -0.0005
 -0.0048  0.0130 -0.0034  0.9134 -0.0055
 -0.0001  0.0054 -0.0005 -0.0055  0.8830
 
 occupancies and eigenvectors
 
  o =  0.0458  v =  0.0024  0.6507 -0.0157 -0.6614  0.3728  0.0000  0.0000  0.0000  0.0000  0.0000      0.0000  0.0000  0.0000  0.0000  0.0000  0.0000  0.0000  0.0000  0.0000  0.0000
  o =  0.0690  v = -0.1096  0.1380 -0.9686  0.1732  0.0264  0.0000  0.0000  0.0000  0.0000  0.0000      0.0000  0.0000  0.0000  0.0000  0.0000  0.0000  0.0000  0.0000  0.0000  0.0000
  o =  0.1055  v =  0.0115 -0.2770  0.0291  0.2495  0.9274  0.0000  0.0000  0.0000  0.0000  0.0000      0.0000  0.0000  0.0000  0.0000  0.0000  0.0000  0.0000  0.0000  0.0000  0.0000
  o =  0.1206  v = -0.7099  0.4731  0.2317  0.4671  0.0171  0.0000  0.0000  0.0000  0.0000  0.0000      0.0000  0.0000  0.0000  0.0000  0.0000  0.0000  0.0000  0.0000  0.0000  0.0000
  o =  0.1520  v = -0.6956 -0.5070 -0.0834 -0.5022 -0.0050  0.0000  0.0000  0.0000  0.0000  0.0000      0.0000  0.0000  0.0000  0.0000  0.0000  0.0000  0.0000  0.0000  0.0000  0.0000
  o =  0.8800  v =  0.0000  0.0000  0.0000  0.0000  0.0000 -0.0058 -0.2530  0.0134  0.2544  0.9333      0.0000  0.0000  0.0000  0.0000  0.0000  0.0000  0.0000  0.0000  0.0000  0.0000
  o =  0.8931  v =  0.0000  0.0000  0.0000  0.0000  0.0000  0.7099  0.0139 -0.7029  0.0425  0.0067      0.0000  0.0000  0.0000  0.0000  0.0000  0.0000  0.0000  0.0000  0.0000  0.0000
  o =  0.9031  v =  0.0000  0.0000  0.0000  0.0000  0.0000 -0.0157 -0.6717  0.0066  0.6478 -0.3589      0.0000  0.0000  0.0000  0.0000  0.0000  0.0000  0.0000  0.0000  0.0000  0.0000
  o =  0.9237  v =  0.0000  0.0000  0.0000  0.0000  0.0000  0.1751  0.6658  0.2315  0.6873 -0.0090      0.0000  0.0000  0.0000  0.0000  0.0000  0.0000  0.0000  0.0000  0.0000  0.0000
  o =  0.9533  v =  0.0000  0.0000  0.0000  0.0000  0.0000 -0.6820  0.2031 -0.6724  0.2036  0.0049      0.0000  0.0000  0.0000  0.0000  0.0000  0.0000  0.0000  0.0000  0.0000  0.0000
atom =   2  type =  1  l = 2
 
 onsite density matrix
 
spin component  1
 
  0.9247 -0.0041 -0.0116 -0.0043  0.0001
 -0.0041  0.9125 -0.0026 -0.0305  0.0051
 -0.0116 -0.0026  0.9234 -0.0025 -0.0005
 -0.0043 -0.0305 -0.0025  0.9131 -0.0053
  0.0001  0.0051 -0.0005 -0.0053  0.8827
 
spin component  2
 
  0.1392  0.0136 -0.0535  0.0139  0.0001
  0.0136  0.0941  0.0098  0.0088 -0.0145
 -0.0535  0.0098  0.0725  0.0096  0.0013
  0.0139  0.0088  0.0096  0.0925  0.0148
  0.0001 -0.0145  0.0013  0.0148  0.0978
 
 occupancies and eigenvectors
 
  o =  0.0358  v =  0.0000  0.0000  0.0000  0.0000  0.0000 -0.4819  0.2216 -0.8193  0.2169  0.0183      0.0000  0.0000  0.0000  0.0000  0.0000  0.0000  0.0000  0.0000  0.0000  0.0000
  o =  0.0693  v =  0.0000  0.0000  0.0000  0.0000  0.0000  0.0096  0.5507  0.0000 -0.5910  0.5894      0.0000  0.0000  0.0000  0.0000  0.0000  0.0000  0.0000  0.0000  0.0000  0.0000
  o =  0.1074  v =  0.0000  0.0000  0.0000  0.0000  0.0000  0.0122  0.6833  0.3476  0.6419  0.0050      0.0000  0.0000  0.0000  0.0000  0.0000  0.0000  0.0000  0.0000  0.0000  0.0000
  o =  0.1129  v =  0.0000  0.0000  0.0000  0.0000  0.0000  0.0116 -0.4102  0.0123  0.4234  0.8076      0.0000  0.0000  0.0000  0.0000  0.0000  0.0000  0.0000  0.0000  0.0000  0.0000
  o =  0.1705  v =  0.0000  0.0000  0.0000  0.0000  0.0000 -0.8760 -0.1118  0.4557 -0.1112  0.0072      0.0000  0.0000  0.0000  0.0000  0.0000  0.0000  0.0000  0.0000  0.0000  0.0000
  o =  0.8807  v = -0.1645 -0.6772 -0.1287 -0.6929 -0.1326  0.0000  0.0000  0.0000  0.0000  0.0000      0.0000  0.0000  0.0000  0.0000  0.0000  0.0000  0.0000  0.0000  0.0000  0.0000
  o =  0.8819  v = -0.0214 -0.1761 -0.0068 -0.0099  0.9841  0.0000  0.0000  0.0000  0.0000  0.0000      0.0000  0.0000  0.0000  0.0000  0.0000  0.0000  0.0000  0.0000  0.0000  0.0000
  o =  0.9139  v = -0.6604  0.1469 -0.7218  0.1457  0.0084  0.0000  0.0000  0.0000  0.0000  0.0000      0.0000  0.0000  0.0000  0.0000  0.0000  0.0000  0.0000  0.0000  0.0000  0.0000
  o =  0.9357  v =  0.7321 -0.0419 -0.6798 -0.0073  0.0037  0.0000  0.0000  0.0000  0.0000  0.0000      0.0000  0.0000  0.0000  0.0000  0.0000  0.0000  0.0000  0.0000  0.0000  0.0000
  o =  0.9442  v =  0.0179  0.6979 -0.0155 -0.7060  0.1180  0.0000  0.0000  0.0000  0.0000  0.0000      0.0000  0.0000  0.0000  0.0000  0.0000  0.0000  0.0000  0.0000  0.0000  0.0000
     EDDAV:  cpu time    2.2267: real time    2.2467
 BZINTS: Fermi energy:  4.297537; 54.000000 electrons
         Band energy:-752.068294;  BLOECHL correction:  0.000000
       DOS:  cpu time    0.0080: real time    0.0080
    CHARGE:  cpu time    0.0969: real time    0.0969
    MIXING:  cpu time    0.0005: real time    0.0005
    --------------------------------------------
      LOOP:  cpu time    4.3035: real time    4.3235

 eigenvalue-minimisations  :  8724
 total energy-change (2. order) :-0.2094348E+02  (-0.1074472E+03)
 number of electron      53.9999998 magnetization      -0.0000000
 augmentation part       20.6361520 magnetization      -0.0055052

 Broyden mixing:
  rms(total) = 0.20664E+01    rms(broyden)= 0.20664E+01
  rms(prec ) = 0.22392E+01
  weight for this iteration     100.00

 Free energy of the ion-electron system (eV)
  ---------------------------------------------------
  alpha Z        PSCENC =       203.95051221
  Ewald energy   TEWEN  =     -4253.05950503
  -Hartree energ DENC   =     -2074.32076226
  -exchange      EXHF   =         0.00000000
  -V(xc)+E(xc)   XCENC  =       294.24765633
  PAW double counting   =      7524.23027502    -7653.38013575
  entropy T*S    EENTRO =         0.00000000
  eigenvalues    EBANDS =      -752.06829395
  atomic energy  EATOM  =      6689.45677594
  Solvation  Ediel_sol  =         0.00000000
  ---------------------------------------------------
  free energy    TOTEN  =       -20.94347748 eV

  energy without entropy =      -20.94347748  energy(sigma->0) =      -20.94347748


--------------------------------------------------------------------------------------------------------




--------------------------------------- Iteration      1(   2)  ---------------------------------------


    POTLOK:  cpu time    0.0052: real time    0.0052
    SETDIJ:  cpu time    1.9818: real time    1.9818
atom =   1  type =  1  l = 2
 
 onsite density matrix
 
spin component  1
 
  0.0340 -0.0013  0.0356 -0.0014 -0.0000
 -0.0013  0.0238 -0.0009  0.0254  0.0016
  0.0356 -0.0009  0.0232 -0.0010 -0.0002
 -0.0014  0.0254 -0.0010  0.0238 -0.0022
 -0.0000  0.0016 -0.0002 -0.0022 -0.0194
 
spin component  2
 
  1.0111  0.0057 -0.0008  0.0061  0.0000
  0.0057  0.9856  0.0050  0.0242 -0.0063
 -0.0008  0.0050  0.9739  0.0052  0.0007
  0.0061  0.0242  0.0052  0.9851  0.0072
  0.0000 -0.0063  0.0007  0.0072  0.9952
 
 occupancies and eigenvectors
 
  o = -0.0198  v =  0.0058  0.0982 -0.0106 -0.1071 -0.9893  0.0000  0.0000  0.0000  0.0000  0.0000      0.0000  0.0000  0.0000  0.0000  0.0000  0.0000  0.0000  0.0000  0.0000  0.0000
  o = -0.0074  v =  0.6522  0.0014 -0.7579  0.0042  0.0116  0.0000  0.0000  0.0000  0.0000  0.0000      0.0000  0.0000  0.0000  0.0000  0.0000  0.0000  0.0000  0.0000  0.0000  0.0000
  o = -0.0012  v = -0.0010  0.7003 -0.0012 -0.6989  0.1452  0.0000  0.0000  0.0000  0.0000  0.0000      0.0000  0.0000  0.0000  0.0000  0.0000  0.0000  0.0000  0.0000  0.0000  0.0000
  o =  0.0488  v =  0.1101  0.6994  0.0998  0.6991 -0.0067  0.0000  0.0000  0.0000  0.0000  0.0000      0.0000  0.0000  0.0000  0.0000  0.0000  0.0000  0.0000  0.0000  0.0000  0.0000
  o =  0.0649  v = -0.7500  0.1037 -0.6446  0.1064  0.0013  0.0000  0.0000  0.0000  0.0000  0.0000      0.0000  0.0000  0.0000  0.0000  0.0000  0.0000  0.0000  0.0000  0.0000  0.0000
  o =  0.9587  v =  0.0000  0.0000  0.0000  0.0000  0.0000  0.0052  0.6783  0.0014 -0.6904  0.2514      0.0000  0.0000  0.0000  0.0000  0.0000  0.0000  0.0000  0.0000  0.0000  0.0000
  o =  0.9723  v =  0.0000  0.0000  0.0000  0.0000  0.0000  0.0647 -0.1427  0.9766 -0.1458 -0.0221      0.0000  0.0000  0.0000  0.0000  0.0000  0.0000  0.0000  0.0000  0.0000  0.0000
  o =  0.9977  v =  0.0000  0.0000  0.0000  0.0000  0.0000  0.0411 -0.2323  0.0035  0.1230  0.9639      0.0000  0.0000  0.0000  0.0000  0.0000  0.0000  0.0000  0.0000  0.0000  0.0000
  o =  1.0032  v =  0.0000  0.0000  0.0000  0.0000  0.0000  0.6985 -0.4760 -0.1912 -0.4923 -0.0810      0.0000  0.0000  0.0000  0.0000  0.0000  0.0000  0.0000  0.0000  0.0000  0.0000
  o =  1.0192  v =  0.0000  0.0000  0.0000  0.0000  0.0000 -0.7114 -0.4888 -0.0986 -0.4946 -0.0240      0.0000  0.0000  0.0000  0.0000  0.0000  0.0000  0.0000  0.0000  0.0000  0.0000
atom =   2  type =  1  l = 2
 
 onsite density matrix
 
spin component  1
 
  1.0069  0.0064 -0.0282  0.0065 -0.0001
  0.0064  0.9894  0.0078  0.0014 -0.0082
 -0.0282  0.0078  0.9749  0.0077  0.0008
  0.0065  0.0014  0.0077  0.9879  0.0087
 -0.0001 -0.0082  0.0008  0.0087  0.9905
 
spin component  2
 
  0.0413 -0.0020 -0.0307 -0.0019  0.0002
 -0.0020  0.0193 -0.0014 -0.0311  0.0027
 -0.0307 -0.0014  0.0237 -0.0014 -0.0004
 -0.0019 -0.0311 -0.0014  0.0202 -0.0031
  0.0002  0.0027 -0.0004 -0.0031 -0.0163
 
 occupancies and eigenvectors
 
  o = -0.0165  v =  0.0000  0.0000  0.0000  0.0000  0.0000  0.0112  0.0067  0.0213  0.0917  0.9955      0.0000  0.0000  0.0000  0.0000  0.0000  0.0000  0.0000  0.0000  0.0000  0.0000
  o = -0.0121  v =  0.0000  0.0000  0.0000  0.0000  0.0000  0.1586  0.6916  0.1886  0.6750 -0.0727      0.0000  0.0000  0.0000  0.0000  0.0000  0.0000  0.0000  0.0000  0.0000  0.0000
  o =  0.0014  v =  0.0000  0.0000  0.0000  0.0000  0.0000 -0.5797  0.1757 -0.7765  0.1737  0.0060      0.0000  0.0000  0.0000  0.0000  0.0000  0.0000  0.0000  0.0000  0.0000  0.0000
  o =  0.0511  v =  0.0000  0.0000  0.0000  0.0000  0.0000 -0.0016 -0.7004  0.0013  0.7111 -0.0608      0.0000  0.0000  0.0000  0.0000  0.0000  0.0000  0.0000  0.0000  0.0000  0.0000
  o =  0.0644  v =  0.0000  0.0000  0.0000  0.0000  0.0000  0.7992 -0.0113 -0.6009 -0.0078  0.0046      0.0000  0.0000  0.0000  0.0000  0.0000  0.0000  0.0000  0.0000  0.0000  0.0000
  o =  0.9531  v = -0.4810  0.2499 -0.8013  0.2530  0.0137  0.0000  0.0000  0.0000  0.0000  0.0000      0.0000  0.0000  0.0000  0.0000  0.0000  0.0000  0.0000  0.0000  0.0000  0.0000
  o =  0.9768  v =  0.0041  0.4985 -0.0145 -0.5659  0.6566  0.0000  0.0000  0.0000  0.0000  0.0000      0.0000  0.0000  0.0000  0.0000  0.0000  0.0000  0.0000  0.0000  0.0000  0.0000
  o =  0.9952  v = -0.1114 -0.6819 -0.3464 -0.6336 -0.0354  0.0000  0.0000  0.0000  0.0000  0.0000      0.0000  0.0000  0.0000  0.0000  0.0000  0.0000  0.0000  0.0000  0.0000  0.0000
  o =  1.0009  v = -0.0164  0.4700 -0.0017 -0.4599 -0.7532  0.0000  0.0000  0.0000  0.0000  0.0000      0.0000  0.0000  0.0000  0.0000  0.0000  0.0000  0.0000  0.0000  0.0000  0.0000
  o =  1.0235  v = -0.8695 -0.0574  0.4876 -0.0528  0.0142  0.0000  0.0000  0.0000  0.0000  0.0000      0.0000  0.0000  0.0000  0.0000  0.0000  0.0000  0.0000  0.0000  0.0000  0.0000
     EDDAV:  cpu time    1.9520: real time    1.9520
 BZINTS: Fermi energy:  2.398308; 54.000000 electrons
         Band energy:-740.152477;  BLOECHL correction:  0.000000
       DOS:  cpu time    0.0055: real time    0.0055
    CHARGE:  cpu time    0.0967: real time    0.0967
    MIXING:  cpu time    0.0005: real time    0.0005
    --------------------------------------------
      LOOP:  cpu time    4.0419: real time    4.0419

 eigenvalue-minimisations  :  7656
 total energy-change (2. order) :-0.1910264E+02  (-0.2010509E+02)
 number of electron      53.9999998 magnetization      -0.0000000
 augmentation part       19.8794173 magnetization       0.0003200

 Broyden mixing:
  rms(total) = 0.22201E+01    rms(broyden)= 0.22201E+01
  rms(prec ) = 0.22534E+01
  weight for this iteration     100.00

 eigenvalues of (default mixing * dielectric matrix)
  average eigenvalue GAMMA=   0.2593
  0.2593

 Free energy of the ion-electron system (eV)
  ---------------------------------------------------
  alpha Z        PSCENC =       203.95051221
  Ewald energy   TEWEN  =     -4253.05950503
  -Hartree energ DENC   =     -2106.49913926
  -exchange      EXHF   =         0.00000000
  -V(xc)+E(xc)   XCENC  =       296.27918470
  PAW double counting   =      7376.97585276    -7506.99732058
  entropy T*S    EENTRO =         0.00000000
  eigenvalues    EBANDS =      -740.15247724
  atomic energy  EATOM  =      6689.45677594
  Solvation  Ediel_sol  =         0.00000000
  ---------------------------------------------------
  free energy    TOTEN  =       -40.04611651 eV

  energy without entropy =      -40.04611651  energy(sigma->0) =      -40.04611651


--------------------------------------------------------------------------------------------------------




--------------------------------------- Iteration      1(   3)  ---------------------------------------


    POTLOK:  cpu time    0.0048: real time    0.0048
    SETDIJ:  cpu time    1.9638: real time    1.9638
atom =   1  type =  1  l = 2
 
 onsite density matrix
 
spin component  1
 
  0.0537  0.0009  0.0242  0.0010 -0.0000
  0.0009  0.0383  0.0010  0.0250 -0.0012
  0.0242  0.0010  0.0344  0.0010  0.0001
  0.0010  0.0250  0.0010  0.0382  0.0011
 -0.0000 -0.0012  0.0001  0.0011  0.0126
 
spin component  2
 
  0.9863  0.0027  0.0138  0.0028  0.0000
  0.0027  0.9699  0.0023  0.0232 -0.0025
  0.0138  0.0023  0.9614  0.0023  0.0003
  0.0028  0.0232  0.0023  0.9697  0.0028
  0.0000 -0.0025  0.0003  0.0028  0.9597
 
 occupancies and eigenvectors
 
  o =  0.0113  v =  0.0058  0.4564 -0.0095 -0.4567  0.7636  0.0000  0.0000  0.0000  0.0000  0.0000      0.0000  0.0000  0.0000  0.0000  0.0000  0.0000  0.0000  0.0000  0.0000  0.0000
  o =  0.0145  v =  0.0062 -0.5389 -0.0102  0.5411  0.6455  0.0000  0.0000  0.0000  0.0000  0.0000      0.0000  0.0000  0.0000  0.0000  0.0000  0.0000  0.0000  0.0000  0.0000  0.0000
  o =  0.0180  v = -0.5605 -0.0079  0.8280 -0.0052  0.0162  0.0000  0.0000  0.0000  0.0000  0.0000      0.0000  0.0000  0.0000  0.0000  0.0000  0.0000  0.0000  0.0000  0.0000  0.0000
  o =  0.0628  v =  0.2155 -0.6847  0.1351 -0.6829  0.0009  0.0000  0.0000  0.0000  0.0000  0.0000      0.0000  0.0000  0.0000  0.0000  0.0000  0.0000  0.0000  0.0000  0.0000  0.0000
  o =  0.0705  v = -0.7996 -0.1799 -0.5441 -0.1796 -0.0006  0.0000  0.0000  0.0000  0.0000  0.0000      0.0000  0.0000  0.0000  0.0000  0.0000  0.0000  0.0000  0.0000  0.0000  0.0000
  o =  0.9456  v =  0.0000  0.0000  0.0000  0.0000  0.0000 -0.0040 -0.6811  0.0044  0.6862 -0.2553      0.0000  0.0000  0.0000  0.0000  0.0000  0.0000  0.0000  0.0000  0.0000  0.0000
  o =  0.9552  v =  0.0000  0.0000  0.0000  0.0000  0.0000  0.4011  0.0157 -0.9144  0.0375  0.0367      0.0000  0.0000  0.0000  0.0000  0.0000  0.0000  0.0000  0.0000  0.0000  0.0000
  o =  0.9607  v =  0.0000  0.0000  0.0000  0.0000  0.0000 -0.0191 -0.1843  0.0344  0.1763  0.9661      0.0000  0.0000  0.0000  0.0000  0.0000  0.0000  0.0000  0.0000  0.0000  0.0000
  o =  0.9879  v =  0.0000  0.0000  0.0000  0.0000  0.0000 -0.6771  0.4871 -0.2688  0.4817  0.0012      0.0000  0.0000  0.0000  0.0000  0.0000  0.0000  0.0000  0.0000  0.0000  0.0000
  o =  0.9976  v =  0.0000  0.0000  0.0000  0.0000  0.0000 -0.6167 -0.5144 -0.3006 -0.5145 -0.0058      0.0000  0.0000  0.0000  0.0000  0.0000  0.0000  0.0000  0.0000  0.0000  0.0000
atom =   2  type =  1  l = 2
 
 onsite density matrix
 
spin component  1
 
  0.9862  0.0025 -0.0269  0.0026  0.0000
  0.0025  0.9704  0.0036 -0.0120 -0.0035
 -0.0269  0.0036  0.9625  0.0035  0.0003
  0.0026 -0.0120  0.0035  0.9699  0.0036
  0.0000 -0.0035  0.0003  0.0036  0.9580
 
spin component  2
 
  0.0563  0.0009 -0.0304  0.0010  0.0001
  0.0009  0.0370  0.0016 -0.0203 -0.0010
 -0.0304  0.0016  0.0345  0.0015  0.0001
  0.0010 -0.0203  0.0015  0.0371  0.0009
  0.0001 -0.0010  0.0001  0.0009  0.0130
 
 occupancies and eigenvectors
 
  o =  0.0118  v =  0.0000  0.0000  0.0000  0.0000  0.0000 -0.5082  0.3247 -0.7232  0.3198  0.1048      0.0000  0.0000  0.0000  0.0000  0.0000  0.0000  0.0000  0.0000  0.0000  0.0000
  o =  0.0130  v =  0.0000  0.0000  0.0000  0.0000  0.0000  0.0542 -0.0106  0.0783 -0.0519  0.9940      0.0000  0.0000  0.0000  0.0000  0.0000  0.0000  0.0000  0.0000  0.0000  0.0000
  o =  0.0181  v =  0.0000  0.0000  0.0000  0.0000  0.0000  0.2653  0.6288  0.3731  0.6285 -0.0043      0.0000  0.0000  0.0000  0.0000  0.0000  0.0000  0.0000  0.0000  0.0000  0.0000
  o =  0.0574  v =  0.0000  0.0000  0.0000  0.0000  0.0000  0.0030  0.7065 -0.0019 -0.7071 -0.0294      0.0000  0.0000  0.0000  0.0000  0.0000  0.0000  0.0000  0.0000  0.0000  0.0000
  o =  0.0777  v =  0.0000  0.0000  0.0000  0.0000  0.0000 -0.8176  0.0041  0.5758 -0.0008 -0.0008      0.0000  0.0000  0.0000  0.0000  0.0000  0.0000  0.0000  0.0000  0.0000  0.0000
  o =  0.9425  v = -0.5096  0.2603 -0.7772  0.2613  0.0145  0.0000  0.0000  0.0000  0.0000  0.0000      0.0000  0.0000  0.0000  0.0000  0.0000  0.0000  0.0000  0.0000  0.0000  0.0000
  o =  0.9569  v = -0.0007  0.0988 -0.0084 -0.1790  0.9788  0.0000  0.0000  0.0000  0.0000  0.0000      0.0000  0.0000  0.0000  0.0000  0.0000  0.0000  0.0000  0.0000  0.0000  0.0000
  o =  0.9606  v = -0.1959 -0.6581 -0.3128 -0.6539 -0.0559  0.0000  0.0000  0.0000  0.0000  0.0000      0.0000  0.0000  0.0000  0.0000  0.0000  0.0000  0.0000  0.0000  0.0000  0.0000
  o =  0.9831  v =  0.0012  0.6996 -0.0012 -0.6871 -0.1963  0.0000  0.0000  0.0000  0.0000  0.0000      0.0000  0.0000  0.0000  0.0000  0.0000  0.0000  0.0000  0.0000  0.0000  0.0000
  o =  1.0037  v = -0.8378 -0.0035  0.5459 -0.0068  0.0032  0.0000  0.0000  0.0000  0.0000  0.0000      0.0000  0.0000  0.0000  0.0000  0.0000  0.0000  0.0000  0.0000  0.0000  0.0000
     EDDAV:  cpu time    2.0613: real time    2.0614
 BZINTS: Fermi energy:  2.123700; 54.000000 electrons
         Band energy:-743.274206;  BLOECHL correction:  0.000000
       DOS:  cpu time    0.0055: real time    0.0055
    CHARGE:  cpu time    0.0968: real time    0.0968
    MIXING:  cpu time    0.0006: real time    0.0006
    --------------------------------------------
      LOOP:  cpu time    4.1328: real time    4.1328

 eigenvalue-minimisations  :  8124
 total energy-change (2. order) :-0.2177328E+00  (-0.2848398E+00)
 number of electron      53.9999998 magnetization       0.0000000
 augmentation part       19.9061247 magnetization       0.0007341

 Broyden mixing:
  rms(total) = 0.16650E+01    rms(broyden)= 0.16650E+01
  rms(prec ) = 0.16862E+01
  weight for this iteration     100.00

 eigenvalues of (default mixing * dielectric matrix)
  average eigenvalue GAMMA=   1.1352
  1.7199  0.5504

 Free energy of the ion-electron system (eV)
  ---------------------------------------------------
  alpha Z        PSCENC =       203.95051221
  Ewald energy   TEWEN  =     -4253.05950503
  -Hartree energ DENC   =     -2105.18521029
  -exchange      EXHF   =         0.00000000
  -V(xc)+E(xc)   XCENC  =       296.07084278
  PAW double counting   =      7167.60747663    -7295.83053576
  entropy T*S    EENTRO =         0.00000000
  eigenvalues    EBANDS =      -743.27420576
  atomic energy  EATOM  =      6689.45677594
  Solvation  Ediel_sol  =         0.00000000
  ---------------------------------------------------
  free energy    TOTEN  =       -40.26384927 eV

  energy without entropy =      -40.26384927  energy(sigma->0) =      -40.26384927


--------------------------------------------------------------------------------------------------------




--------------------------------------- Iteration      1(   4)  ---------------------------------------


    POTLOK:  cpu time    0.0047: real time    0.0047
    SETDIJ:  cpu time    1.9442: real time    1.9442
atom =   1  type =  1  l = 2
 
 onsite density matrix
 
spin component  1
 
  0.0529  0.0003  0.0322  0.0003  0.0000
  0.0003  0.0426 -0.0000  0.0258  0.0007
  0.0322 -0.0000  0.0362 -0.0000 -0.0001
  0.0003  0.0258 -0.0000  0.0425 -0.0008
  0.0000  0.0007 -0.0001 -0.0008  0.0118
 
spin component  2
 
  0.9744  0.0009  0.0140  0.0009 -0.0000
  0.0009  0.9632  0.0012  0.0187 -0.0020
  0.0140  0.0012  0.9573  0.0012  0.0002
  0.0009  0.0187  0.0012  0.9632  0.0022
 -0.0000 -0.0020  0.0002  0.0022  0.9521
 
 occupancies and eigenvectors
 
  o =  0.0113  v = -0.5962 -0.0302  0.7700  0.0372  0.2223  0.0000  0.0000  0.0000  0.0000  0.0000      0.0000  0.0000  0.0000  0.0000  0.0000  0.0000  0.0000  0.0000  0.0000  0.0000
  o =  0.0116  v = -0.1397  0.1381  0.1794 -0.1393 -0.9539  0.0000  0.0000  0.0000  0.0000  0.0000      0.0000  0.0000  0.0000  0.0000  0.0000  0.0000  0.0000  0.0000  0.0000  0.0000
  o =  0.0169  v = -0.0011  0.6925  0.0016 -0.6926  0.2019  0.0000  0.0000  0.0000  0.0000  0.0000      0.0000  0.0000  0.0000  0.0000  0.0000  0.0000  0.0000  0.0000  0.0000  0.0000
  o =  0.0684  v =  0.0220 -0.7071  0.0229 -0.7064  0.0019  0.0000  0.0000  0.0000  0.0000  0.0000      0.0000  0.0000  0.0000  0.0000  0.0000  0.0000  0.0000  0.0000  0.0000  0.0000
  o =  0.0778  v = -0.7903 -0.0222 -0.6119 -0.0222  0.0007  0.0000  0.0000  0.0000  0.0000  0.0000      0.0000  0.0000  0.0000  0.0000  0.0000  0.0000  0.0000  0.0000  0.0000  0.0000
  o =  0.9435  v =  0.0000  0.0000  0.0000  0.0000  0.0000 -0.0039 -0.6660  0.0065  0.6690 -0.3300      0.0000  0.0000  0.0000  0.0000  0.0000  0.0000  0.0000  0.0000  0.0000  0.0000
  o =  0.9493  v =  0.0000  0.0000  0.0000  0.0000  0.0000  0.4876  0.0024 -0.8715  0.0335  0.0402      0.0000  0.0000  0.0000  0.0000  0.0000  0.0000  0.0000  0.0000  0.0000  0.0000
  o =  0.9531  v =  0.0000  0.0000  0.0000  0.0000  0.0000 -0.0245 -0.2375  0.0380  0.2283  0.9431      0.0000  0.0000  0.0000  0.0000  0.0000  0.0000  0.0000  0.0000  0.0000  0.0000
  o =  0.9801  v =  0.0000  0.0000  0.0000  0.0000  0.0000 -0.5945  0.5251 -0.3109  0.5236  0.0026      0.0000  0.0000  0.0000  0.0000  0.0000  0.0000  0.0000  0.0000  0.0000  0.0000
  o =  0.9840  v =  0.0000  0.0000  0.0000  0.0000  0.0000 -0.6389 -0.4736 -0.3773 -0.4744 -0.0058      0.0000  0.0000  0.0000  0.0000  0.0000  0.0000  0.0000  0.0000  0.0000  0.0000
atom =   2  type =  1  l = 2
 
 onsite density matrix
 
spin component  1
 
  0.9737  0.0018 -0.0215  0.0018  0.0000
  0.0018  0.9644  0.0018 -0.0126 -0.0015
 -0.0215  0.0018  0.9562  0.0017  0.0002
  0.0018 -0.0126  0.0017  0.9640  0.0016
  0.0000 -0.0015  0.0002  0.0016  0.9518
 
spin component  2
 
  0.0544 -0.0006 -0.0315 -0.0005 -0.0000
 -0.0006  0.0411  0.0000 -0.0263  0.0000
 -0.0315  0.0000  0.0374  0.0001 -0.0001
 -0.0005 -0.0263  0.0001  0.0412 -0.0001
 -0.0000  0.0000 -0.0001 -0.0001  0.0117
 
 occupancies and eigenvectors
 
  o =  0.0117  v =  0.0000  0.0000  0.0000  0.0000  0.0000 -0.0237 -0.0133 -0.0317 -0.0147 -0.9990      0.0000  0.0000  0.0000  0.0000  0.0000  0.0000  0.0000  0.0000  0.0000  0.0000
  o =  0.0131  v =  0.0000  0.0000  0.0000  0.0000  0.0000  0.5902  0.1768  0.7667  0.1751 -0.0433      0.0000  0.0000  0.0000  0.0000  0.0000  0.0000  0.0000  0.0000  0.0000  0.0000
  o =  0.0150  v =  0.0000  0.0000  0.0000  0.0000  0.0000 -0.1438  0.6856 -0.2041  0.6838 -0.0093      0.0000  0.0000  0.0000  0.0000  0.0000  0.0000  0.0000  0.0000  0.0000  0.0000
  o =  0.0674  v =  0.0000  0.0000  0.0000  0.0000  0.0000 -0.0002  0.7060 -0.0009 -0.7082  0.0011      0.0000  0.0000  0.0000  0.0000  0.0000  0.0000  0.0000  0.0000  0.0000  0.0000
  o =  0.0786  v =  0.0000  0.0000  0.0000  0.0000  0.0000  0.7940 -0.0075 -0.6079 -0.0070  0.0006      0.0000  0.0000  0.0000  0.0000  0.0000  0.0000  0.0000  0.0000  0.0000  0.0000
  o =  0.9406  v = -0.5358  0.2133 -0.7888  0.2121  0.0151  0.0000  0.0000  0.0000  0.0000  0.0000      0.0000  0.0000  0.0000  0.0000  0.0000  0.0000  0.0000  0.0000  0.0000  0.0000
  o =  0.9516  v = -0.0072 -0.0180 -0.0187 -0.1400  0.9898  0.0000  0.0000  0.0000  0.0000  0.0000      0.0000  0.0000  0.0000  0.0000  0.0000  0.0000  0.0000  0.0000  0.0000  0.0000
  o =  0.9527  v =  0.1506  0.6718  0.2609  0.6672  0.1126  0.0000  0.0000  0.0000  0.0000  0.0000      0.0000  0.0000  0.0000  0.0000  0.0000  0.0000  0.0000  0.0000  0.0000  0.0000
  o =  0.9770  v =  0.0031  0.7090 -0.0002 -0.6999 -0.0861  0.0000  0.0000  0.0000  0.0000  0.0000      0.0000  0.0000  0.0000  0.0000  0.0000  0.0000  0.0000  0.0000  0.0000  0.0000
  o =  0.9881  v = -0.8307 -0.0130  0.5562 -0.0172  0.0018  0.0000  0.0000  0.0000  0.0000  0.0000      0.0000  0.0000  0.0000  0.0000  0.0000  0.0000  0.0000  0.0000  0.0000  0.0000
     EDDAV:  cpu time    2.0511: real time    2.0511
 BZINTS: Fermi energy:  1.737527; 54.000000 electrons
         Band energy:-750.310281;  BLOECHL correction:  0.000000
       DOS:  cpu time    0.0055: real time    0.0055
    CHARGE:  cpu time    0.0967: real time    0.0967
    MIXING:  cpu time    0.0006: real time    0.0006
    --------------------------------------------
      LOOP:  cpu time    4.1028: real time    4.1029

 eigenvalue-minimisations  :  8172
 total energy-change (2. order) : 0.6407838E-01  (-0.1051599E+00)
 number of electron      53.9999998 magnetization      -0.0000000
 augmentation part       19.9752239 magnetization       0.0003249

 Broyden mixing:
  rms(total) = 0.37437E+00    rms(broyden)= 0.37435E+00
  rms(prec ) = 0.42428E+00
  weight for this iteration     100.00

 eigenvalues of (default mixing * dielectric matrix)
  average eigenvalue GAMMA=   1.1883
  1.9742  0.7954  0.7954

 Free energy of the ion-electron system (eV)
  ---------------------------------------------------
  alpha Z        PSCENC =       203.95051221
  Ewald energy   TEWEN  =     -4253.05950503
  -Hartree energ DENC   =     -2104.40431677
  -exchange      EXHF   =         0.00000000
  -V(xc)+E(xc)   XCENC  =       296.13454691
  PAW double counting   =      6554.73982720    -6676.70733062
  entropy T*S    EENTRO =         0.00000000
  eigenvalues    EBANDS =      -750.31028071
  atomic energy  EATOM  =      6689.45677594
  Solvation  Ediel_sol  =         0.00000000
  ---------------------------------------------------
  free energy    TOTEN  =       -40.19977089 eV

  energy without entropy =      -40.19977089  energy(sigma->0) =      -40.19977089


--------------------------------------------------------------------------------------------------------




--------------------------------------- Iteration      1(   5)  ---------------------------------------


    POTLOK:  cpu time    0.0047: real time    0.0047
    SETDIJ:  cpu time    1.9398: real time    1.9398
atom =   1  type =  1  l = 2
 
 onsite density matrix
 
spin component  1
 
  0.0644  0.0010  0.0251  0.0010 -0.0000
  0.0010  0.0500  0.0011  0.0257 -0.0018
  0.0251  0.0011  0.0426  0.0011  0.0002
  0.0010  0.0257  0.0011  0.0500  0.0021
 -0.0000 -0.0018  0.0002  0.0021  0.0297
 
spin component  2
 
  0.9615 -0.0008  0.0257 -0.0008 -0.0000
 -0.0008  0.9584 -0.0008  0.0180  0.0015
  0.0257 -0.0008  0.9530 -0.0009 -0.0002
 -0.0008  0.0180 -0.0009  0.9585 -0.0018
 -0.0000  0.0015 -0.0002 -0.0018  0.9333
 
 occupancies and eigenvectors
 
  o =  0.0231  v = -0.0086 -0.6522  0.0128  0.6546 -0.3819  0.0000  0.0000  0.0000  0.0000  0.0000      0.0000  0.0000  0.0000  0.0000  0.0000  0.0000  0.0000  0.0000  0.0000  0.0000
  o =  0.0262  v =  0.5480 -0.0117 -0.8357  0.0258  0.0237  0.0000  0.0000  0.0000  0.0000  0.0000      0.0000  0.0000  0.0000  0.0000  0.0000  0.0000  0.0000  0.0000  0.0000  0.0000
  o =  0.0309  v = -0.0193 -0.2725  0.0256  0.2666  0.9239  0.0000  0.0000  0.0000  0.0000  0.0000      0.0000  0.0000  0.0000  0.0000  0.0000  0.0000  0.0000  0.0000  0.0000  0.0000
  o =  0.0750  v = -0.2794  0.6684 -0.1719  0.6676  0.0034  0.0000  0.0000  0.0000  0.0000  0.0000      0.0000  0.0000  0.0000  0.0000  0.0000  0.0000  0.0000  0.0000  0.0000  0.0000
  o =  0.0815  v = -0.7882 -0.2313 -0.5208 -0.2324 -0.0031  0.0000  0.0000  0.0000  0.0000  0.0000      0.0000  0.0000  0.0000  0.0000  0.0000  0.0000  0.0000  0.0000  0.0000  0.0000
  o =  0.9311  v =  0.0000  0.0000  0.0000  0.0000  0.0000  0.6448  0.0121 -0.7596 -0.0182 -0.0822      0.0000  0.0000  0.0000  0.0000  0.0000  0.0000  0.0000  0.0000  0.0000  0.0000
  o =  0.9326  v =  0.0000  0.0000  0.0000  0.0000  0.0000 -0.0568  0.1976  0.0632 -0.2026 -0.9553      0.0000  0.0000  0.0000  0.0000  0.0000  0.0000  0.0000  0.0000  0.0000  0.0000
  o =  0.9412  v =  0.0000  0.0000  0.0000  0.0000  0.0000  0.0016  0.6793 -0.0023 -0.6767  0.2838      0.0000  0.0000  0.0000  0.0000  0.0000  0.0000  0.0000  0.0000  0.0000  0.0000
  o =  0.9760  v =  0.0000  0.0000  0.0000  0.0000  0.0000  0.1681  0.6899  0.1376  0.6905 -0.0047      0.0000  0.0000  0.0000  0.0000  0.0000  0.0000  0.0000  0.0000  0.0000  0.0000
  o =  0.9837  v =  0.0000  0.0000  0.0000  0.0000  0.0000 -0.7435  0.1529 -0.6325  0.1543  0.0013      0.0000  0.0000  0.0000  0.0000  0.0000  0.0000  0.0000  0.0000  0.0000  0.0000
atom =   2  type =  1  l = 2
 
 onsite density matrix
 
spin component  1
 
  0.9637 -0.0015 -0.0206 -0.0015  0.0000
 -0.0015  0.9565 -0.0013 -0.0224  0.0014
 -0.0206 -0.0013  0.9537 -0.0012 -0.0002
 -0.0015 -0.0224 -0.0012  0.9569 -0.0015
  0.0000  0.0014 -0.0002 -0.0015  0.9340
 
spin component  2
 
  0.0623  0.0017 -0.0314  0.0017  0.0000
  0.0017  0.0518  0.0016 -0.0203 -0.0016
 -0.0314  0.0016  0.0418  0.0016  0.0002
  0.0017 -0.0203  0.0016  0.0514  0.0018
  0.0000 -0.0016  0.0002  0.0018  0.0289
 
 occupancies and eigenvectors
 
  o =  0.0182  v =  0.0000  0.0000  0.0000  0.0000  0.0000 -0.5718  0.1697 -0.7845  0.1690  0.0144      0.0000  0.0000  0.0000  0.0000  0.0000  0.0000  0.0000  0.0000  0.0000  0.0000
  o =  0.0287  v =  0.0000  0.0000  0.0000  0.0000  0.0000  0.0044  0.0079  0.0014 -0.0714  0.9974      0.0000  0.0000  0.0000  0.0000  0.0000  0.0000  0.0000  0.0000  0.0000  0.0000
  o =  0.0321  v =  0.0000  0.0000  0.0000  0.0000  0.0000  0.1317  0.6840  0.2009  0.6874  0.0430      0.0000  0.0000  0.0000  0.0000  0.0000  0.0000  0.0000  0.0000  0.0000  0.0000
  o =  0.0721  v =  0.0000  0.0000  0.0000  0.0000  0.0000  0.0013  0.7094  0.0001 -0.7026 -0.0559      0.0000  0.0000  0.0000  0.0000  0.0000  0.0000  0.0000  0.0000  0.0000  0.0000
  o =  0.0851  v =  0.0000  0.0000  0.0000  0.0000  0.0000 -0.8097 -0.0074  0.5867 -0.0091  0.0022      0.0000  0.0000  0.0000  0.0000  0.0000  0.0000  0.0000  0.0000  0.0000  0.0000
  o =  0.9328  v = -0.3125 -0.6084 -0.3813 -0.6105 -0.1185  0.0000  0.0000  0.0000  0.0000  0.0000      0.0000  0.0000  0.0000  0.0000  0.0000  0.0000  0.0000  0.0000  0.0000  0.0000
  o =  0.9340  v = -0.0301 -0.1109 -0.0317 -0.0469  0.9918  0.0000  0.0000  0.0000  0.0000  0.0000      0.0000  0.0000  0.0000  0.0000  0.0000  0.0000  0.0000  0.0000  0.0000  0.0000
  o =  0.9390  v =  0.5323 -0.3500  0.6869 -0.3493 -0.0176  0.0000  0.0000  0.0000  0.0000  0.0000      0.0000  0.0000  0.0000  0.0000  0.0000  0.0000  0.0000  0.0000  0.0000  0.0000
  o =  0.9791  v =  0.0219 -0.7035 -0.0162  0.7088 -0.0450  0.0000  0.0000  0.0000  0.0000  0.0000      0.0000  0.0000  0.0000  0.0000  0.0000  0.0000  0.0000  0.0000  0.0000  0.0000
  o =  0.9799  v = -0.7859 -0.0105  0.6176  0.0277 -0.0040  0.0000  0.0000  0.0000  0.0000  0.0000      0.0000  0.0000  0.0000  0.0000  0.0000  0.0000  0.0000  0.0000  0.0000  0.0000
     EDDAV:  cpu time    2.0583: real time    2.0584
 BZINTS: Fermi energy:  1.703690; 54.000000 electrons
         Band energy:-751.804233;  BLOECHL correction:  0.000000
       DOS:  cpu time    0.0047: real time    0.0047
    CHARGE:  cpu time    0.0968: real time    0.0968
    MIXING:  cpu time    0.0006: real time    0.0006
    --------------------------------------------
      LOOP:  cpu time    4.1050: real time    4.1050

 eigenvalue-minimisations  :  8208
 total energy-change (2. order) : 0.2953664E-01  (-0.1119067E-01)
 number of electron      53.9999998 magnetization      -0.0000000
 augmentation part       19.9762416 magnetization      -0.0001697

 Broyden mixing:
  rms(total) = 0.13520E+00    rms(broyden)= 0.13520E+00
  rms(prec ) = 0.15321E+00
  weight for this iteration     100.00

 eigenvalues of (default mixing * dielectric matrix)
  average eigenvalue GAMMA=   1.1278
  2.3484  0.7767  0.7767  0.6093

 Free energy of the ion-electron system (eV)
  ---------------------------------------------------
  alpha Z        PSCENC =       203.95051221
  Ewald energy   TEWEN  =     -4253.05950503
  -Hartree energ DENC   =     -2104.19138597
  -exchange      EXHF   =         0.00000000
  -V(xc)+E(xc)   XCENC  =       296.06034758
  PAW double counting   =      6375.74603109    -6496.32877746
  entropy T*S    EENTRO =         0.00000000
  eigenvalues    EBANDS =      -751.80423261
  atomic energy  EATOM  =      6689.45677594
  Solvation  Ediel_sol  =         0.00000000
  ---------------------------------------------------
  free energy    TOTEN  =       -40.17023425 eV

  energy without entropy =      -40.17023425  energy(sigma->0) =      -40.17023425


--------------------------------------------------------------------------------------------------------




--------------------------------------- Iteration      1(   6)  ---------------------------------------


    POTLOK:  cpu time    0.0051: real time    0.0051
    SETDIJ:  cpu time    1.9406: real time    1.9406
atom =   1  type =  1  l = 2
 
 onsite density matrix
 
spin component  1
 
  0.0537  0.0000  0.0304  0.0000  0.0000
  0.0000  0.0440 -0.0000  0.0246  0.0002
  0.0304 -0.0000  0.0375 -0.0000 -0.0000
  0.0000  0.0246 -0.0000  0.0440 -0.0002
  0.0000  0.0002 -0.0000 -0.0002  0.0161
 
spin component  2
 
  0.9723  0.0001  0.0211  0.0001 -0.0000
  0.0001  0.9651  0.0001  0.0190 -0.0003
  0.0211  0.0001  0.9587  0.0001  0.0000
  0.0001  0.0190  0.0001  0.9651  0.0003
 -0.0000 -0.0003  0.0000  0.0003  0.9471
 
 occupancies and eigenvectors
 
  o =  0.0142  v = -0.6094 -0.0003  0.7928  0.0011  0.0087  0.0000  0.0000  0.0000  0.0000  0.0000      0.0000  0.0000  0.0000  0.0000  0.0000  0.0000  0.0000  0.0000  0.0000  0.0000
  o =  0.0161  v = -0.0054  0.0546  0.0069 -0.0549 -0.9970  0.0000  0.0000  0.0000  0.0000  0.0000      0.0000  0.0000  0.0000  0.0000  0.0000  0.0000  0.0000  0.0000  0.0000  0.0000
  o =  0.0195  v = -0.0002  0.7050  0.0003 -0.7050  0.0774  0.0000  0.0000  0.0000  0.0000  0.0000      0.0000  0.0000  0.0000  0.0000  0.0000  0.0000  0.0000  0.0000  0.0000  0.0000
  o =  0.0687  v =  0.0004 -0.7071  0.0010 -0.7071  0.0002  0.0000  0.0000  0.0000  0.0000  0.0000      0.0000  0.0000  0.0000  0.0000  0.0000  0.0000  0.0000  0.0000  0.0000  0.0000
  o =  0.0770  v = -0.7929 -0.0006 -0.6094 -0.0006  0.0001  0.0000  0.0000  0.0000  0.0000  0.0000      0.0000  0.0000  0.0000  0.0000  0.0000  0.0000  0.0000  0.0000  0.0000  0.0000
  o =  0.9434  v =  0.0000  0.0000  0.0000  0.0000  0.0000 -0.5884 -0.0007  0.8086 -0.0017 -0.0066      0.0000  0.0000  0.0000  0.0000  0.0000  0.0000  0.0000  0.0000  0.0000  0.0000
  o =  0.9459  v =  0.0000  0.0000  0.0000  0.0000  0.0000 -0.0009  0.6672  0.0012 -0.6676  0.3304      0.0000  0.0000  0.0000  0.0000  0.0000  0.0000  0.0000  0.0000  0.0000  0.0000
  o =  0.9472  v =  0.0000  0.0000  0.0000  0.0000  0.0000  0.0040  0.2340 -0.0051 -0.2332 -0.9438      0.0000  0.0000  0.0000  0.0000  0.0000  0.0000  0.0000  0.0000  0.0000  0.0000
  o =  0.9841  v =  0.0000  0.0000  0.0000  0.0000  0.0000  0.0408 -0.7063  0.0277 -0.7062 -0.0006      0.0000  0.0000  0.0000  0.0000  0.0000  0.0000  0.0000  0.0000  0.0000  0.0000
  o =  0.9877  v =  0.0000  0.0000  0.0000  0.0000  0.0000 -0.8075 -0.0348 -0.5877 -0.0349 -0.0003      0.0000  0.0000  0.0000  0.0000  0.0000  0.0000  0.0000  0.0000  0.0000  0.0000
atom =   2  type =  1  l = 2
 
 onsite density matrix
 
spin component  1
 
  0.9721  0.0002 -0.0219  0.0002  0.0000
  0.0002  0.9654  0.0002 -0.0185 -0.0001
 -0.0219  0.0002  0.9584  0.0002  0.0000
  0.0002 -0.0185  0.0002  0.9653  0.0001
  0.0000 -0.0001  0.0000  0.0001  0.9471
 
spin component  2
 
  0.0540 -0.0001 -0.0300 -0.0001 -0.0000
 -0.0001  0.0437 -0.0001 -0.0248  0.0000
 -0.0300 -0.0001  0.0378 -0.0001 -0.0000
 -0.0001 -0.0248 -0.0001  0.0437 -0.0000
 -0.0000  0.0000 -0.0000 -0.0000  0.0160
 
 occupancies and eigenvectors
 
  o =  0.0148  v =  0.0000  0.0000  0.0000  0.0000  0.0000 -0.6073 -0.0319 -0.7931 -0.0317 -0.0125      0.0000  0.0000  0.0000  0.0000  0.0000  0.0000  0.0000  0.0000  0.0000  0.0000
  o =  0.0160  v =  0.0000  0.0000  0.0000  0.0000  0.0000  0.0076  0.0003  0.0099 -0.0009 -0.9999      0.0000  0.0000  0.0000  0.0000  0.0000  0.0000  0.0000  0.0000  0.0000  0.0000
  o =  0.0189  v =  0.0000  0.0000  0.0000  0.0000  0.0000 -0.0258  0.7065 -0.0369  0.7062 -0.0010      0.0000  0.0000  0.0000  0.0000  0.0000  0.0000  0.0000  0.0000  0.0000  0.0000
  o =  0.0685  v =  0.0000  0.0000  0.0000  0.0000  0.0000 -0.0000 -0.7070  0.0002  0.7073 -0.0008      0.0000  0.0000  0.0000  0.0000  0.0000  0.0000  0.0000  0.0000  0.0000  0.0000
  o =  0.0770  v =  0.0000  0.0000  0.0000  0.0000  0.0000  0.7940 -0.0015 -0.6079 -0.0013  0.0001      0.0000  0.0000  0.0000  0.0000  0.0000  0.0000  0.0000  0.0000  0.0000  0.0000
  o =  0.9423  v = -0.5899  0.0617 -0.8027  0.0614  0.0052  0.0000  0.0000  0.0000  0.0000  0.0000      0.0000  0.0000  0.0000  0.0000  0.0000  0.0000  0.0000  0.0000  0.0000  0.0000
  o =  0.9469  v = -0.0494 -0.7029 -0.0712 -0.7040  0.0530  0.0000  0.0000  0.0000  0.0000  0.0000      0.0000  0.0000  0.0000  0.0000  0.0000  0.0000  0.0000  0.0000  0.0000  0.0000
  o =  0.9471  v =  0.0058  0.0407  0.0079  0.0334  0.9986  0.0000  0.0000  0.0000  0.0000  0.0000      0.0000  0.0000  0.0000  0.0000  0.0000  0.0000  0.0000  0.0000  0.0000  0.0000
  o =  0.9838  v = -0.0009 -0.7074  0.0004  0.7068  0.0052  0.0000  0.0000  0.0000  0.0000  0.0000      0.0000  0.0000  0.0000  0.0000  0.0000  0.0000  0.0000  0.0000  0.0000  0.0000
  o =  0.9881  v = -0.8059 -0.0010  0.5920 -0.0024  0.0001  0.0000  0.0000  0.0000  0.0000  0.0000      0.0000  0.0000  0.0000  0.0000  0.0000  0.0000  0.0000  0.0000  0.0000  0.0000
     EDDAV:  cpu time    1.9992: real time    1.9992
 BZINTS: Fermi energy:  1.798737; 54.000000 electrons
         Band energy:-751.508179;  BLOECHL correction:  0.000000
       DOS:  cpu time    0.0055: real time    0.0055
    CHARGE:  cpu time    0.0966: real time    0.0966
    MIXING:  cpu time    0.0007: real time    0.0007
    --------------------------------------------
      LOOP:  cpu time    4.0475: real time    4.0476

 eigenvalue-minimisations  :  7896
 total energy-change (2. order) :-0.1456865E-02  (-0.1897843E-02)
 number of electron      53.9999998 magnetization       0.0000000
 augmentation part       19.9759744 magnetization      -0.0001565

 Broyden mixing:
  rms(total) = 0.57963E-01    rms(broyden)= 0.57961E-01
  rms(prec ) = 0.64835E-01
  weight for this iteration     100.00

 eigenvalues of (default mixing * dielectric matrix)
  average eigenvalue GAMMA=   1.1146
  2.3981  0.8997  0.8997  0.7321  0.6435

 Free energy of the ion-electron system (eV)
  ---------------------------------------------------
  alpha Z        PSCENC =       203.95051221
  Ewald energy   TEWEN  =     -4253.05950503
  -Hartree energ DENC   =     -2104.94516633
  -exchange      EXHF   =         0.00000000
  -V(xc)+E(xc)   XCENC  =       296.08419207
  PAW double counting   =      6355.71560627    -6475.86592719
  entropy T*S    EENTRO =         0.00000000
  eigenvalues    EBANDS =      -751.50817904
  atomic energy  EATOM  =      6689.45677594
  Solvation  Ediel_sol  =         0.00000000
  ---------------------------------------------------
  free energy    TOTEN  =       -40.17169111 eV

  energy without entropy =      -40.17169111  energy(sigma->0) =      -40.17169111


--------------------------------------------------------------------------------------------------------




--------------------------------------- Iteration      1(   7)  ---------------------------------------


    POTLOK:  cpu time    0.0047: real time    0.0047
    SETDIJ:  cpu time    1.9391: real time    1.9391
atom =   1  type =  1  l = 2
 
 onsite density matrix
 
spin component  1
 
  0.0548  0.0001  0.0296  0.0001 -0.0000
  0.0001  0.0447  0.0001  0.0245 -0.0001
  0.0296  0.0001  0.0383  0.0001  0.0000
  0.0001  0.0245  0.0001  0.0447  0.0001
 -0.0000 -0.0001  0.0000  0.0001  0.0176
 
spin component  2
 
  0.9715 -0.0000  0.0220 -0.0000 -0.0000
 -0.0000  0.9648  0.0000  0.0192  0.0000
  0.0220  0.0000  0.9582  0.0000 -0.0000
 -0.0000  0.0192  0.0000  0.9648 -0.0000
 -0.0000  0.0000 -0.0000 -0.0000  0.9457
 
 occupancies and eigenvectors
 
  o =  0.0158  v = -0.6049  0.0000  0.7963 -0.0001 -0.0033  0.0000  0.0000  0.0000  0.0000  0.0000      0.0000  0.0000  0.0000  0.0000  0.0000  0.0000  0.0000  0.0000  0.0000  0.0000
  o =  0.0176  v =  0.0020 -0.0252 -0.0026  0.0253 -0.9994  0.0000  0.0000  0.0000  0.0000  0.0000      0.0000  0.0000  0.0000  0.0000  0.0000  0.0000  0.0000  0.0000  0.0000  0.0000
  o =  0.0201  v =  0.0002  0.7066 -0.0002 -0.7067 -0.0357  0.0000  0.0000  0.0000  0.0000  0.0000      0.0000  0.0000  0.0000  0.0000  0.0000  0.0000  0.0000  0.0000  0.0000  0.0000
  o =  0.0692  v =  0.0120 -0.7071  0.0091 -0.7070 -0.0001  0.0000  0.0000  0.0000  0.0000  0.0000      0.0000  0.0000  0.0000  0.0000  0.0000  0.0000  0.0000  0.0000  0.0000  0.0000
  o =  0.0773  v = -0.7962 -0.0106 -0.6049 -0.0107 -0.0001  0.0000  0.0000  0.0000  0.0000  0.0000      0.0000  0.0000  0.0000  0.0000  0.0000  0.0000  0.0000  0.0000  0.0000  0.0000
  o =  0.9419  v =  0.0000  0.0000  0.0000  0.0000  0.0000  0.5961  0.0001 -0.8029  0.0003 -0.0003      0.0000  0.0000  0.0000  0.0000  0.0000  0.0000  0.0000  0.0000  0.0000  0.0000
  o =  0.9456  v =  0.0000  0.0000  0.0000  0.0000  0.0000 -0.0001 -0.6990  0.0001  0.6990  0.1513      0.0000  0.0000  0.0000  0.0000  0.0000  0.0000  0.0000  0.0000  0.0000  0.0000
  o =  0.9457  v =  0.0000  0.0000  0.0000  0.0000  0.0000  0.0002  0.1070 -0.0002 -0.1070  0.9885      0.0000  0.0000  0.0000  0.0000  0.0000  0.0000  0.0000  0.0000  0.0000  0.0000
  o =  0.9839  v =  0.0000  0.0000  0.0000  0.0000  0.0000  0.0011  0.7071  0.0012  0.7071 -0.0000      0.0000  0.0000  0.0000  0.0000  0.0000  0.0000  0.0000  0.0000  0.0000  0.0000
  o =  0.9878  v =  0.0000  0.0000  0.0000  0.0000  0.0000 -0.8029  0.0011 -0.5961  0.0011  0.0000      0.0000  0.0000  0.0000  0.0000  0.0000  0.0000  0.0000  0.0000  0.0000  0.0000
atom =   2  type =  1  l = 2
 
 onsite density matrix
 
spin component  1
 
  0.9715 -0.0000 -0.0219 -0.0000  0.0000
 -0.0000  0.9647 -0.0000 -0.0192  0.0000
 -0.0219 -0.0000  0.9581 -0.0000 -0.0000
 -0.0000 -0.0192 -0.0000  0.9647 -0.0000
  0.0000  0.0000 -0.0000 -0.0000  0.9457
 
spin component  2
 
  0.0548  0.0001 -0.0299  0.0001  0.0000
  0.0001  0.0446  0.0001 -0.0243 -0.0001
 -0.0299  0.0001  0.0383  0.0001  0.0000
  0.0001 -0.0243  0.0001  0.0446  0.0001
  0.0000 -0.0001  0.0000  0.0001  0.0175
 
 occupancies and eigenvectors
 
  o =  0.0155  v =  0.0000  0.0000  0.0000  0.0000  0.0000  0.6056 -0.0214  0.7952 -0.0214 -0.0032      0.0000  0.0000  0.0000  0.0000  0.0000  0.0000  0.0000  0.0000  0.0000  0.0000
  o =  0.0175  v =  0.0000  0.0000  0.0000  0.0000  0.0000  0.0020  0.0006  0.0025 -0.0026  1.0000      0.0000  0.0000  0.0000  0.0000  0.0000  0.0000  0.0000  0.0000  0.0000  0.0000
  o =  0.0204  v =  0.0000  0.0000  0.0000  0.0000  0.0000  0.0184  0.7067  0.0240  0.7069  0.0013      0.0000  0.0000  0.0000  0.0000  0.0000  0.0000  0.0000  0.0000  0.0000  0.0000
  o =  0.0689  v =  0.0000  0.0000  0.0000  0.0000  0.0000  0.0002  0.7072 -0.0001 -0.7070 -0.0023      0.0000  0.0000  0.0000  0.0000  0.0000  0.0000  0.0000  0.0000  0.0000  0.0000
  o =  0.0776  v =  0.0000  0.0000  0.0000  0.0000  0.0000 -0.7955  0.0002  0.6059 -0.0001  0.0001      0.0000  0.0000  0.0000  0.0000  0.0000  0.0000  0.0000  0.0000  0.0000  0.0000
  o =  0.9419  v =  0.5952  0.0044  0.8035  0.0045  0.0004  0.0000  0.0000  0.0000  0.0000  0.0000      0.0000  0.0000  0.0000  0.0000  0.0000  0.0000  0.0000  0.0000  0.0000  0.0000
[...]
     18      -2.6739      1.00000
     19      -2.2130      1.00000
     20      -1.9118      1.00000
     21      -1.6886      1.00000
     22      -1.5626      1.00000
     23      -0.0036      1.00000
     24       0.1150      1.00000
     25       0.4052      1.00000
     26       1.0389      1.00000
     27       1.6445      1.00000
     28       7.0647      0.00000
     29       7.0714      0.00000
     30       7.3167      0.00000
     31       7.9383      0.00000
     32       8.4632      0.00000
     33       9.4500      0.00000
     34      10.8302      0.00000
     35      11.4542      0.00000
     36      12.5084      0.00000

 k-point    48 :      -0.1250   -0.1250    0.4167
  band No.  band energies     occupation 
      1     -45.9649      1.00000
      2     -45.9350      1.00000
      3     -45.9080      1.00000
      4     -41.3777      1.00000
      5     -41.3576      1.00000
      6     -41.3226      1.00000
      7     -20.5783      1.00000
      8     -20.4265      1.00000
      9     -20.3785      1.00000
     10     -20.2685      1.00000
     11      -4.3170      1.00000
     12      -4.0245      1.00000
     13      -3.6603      1.00000
     14      -3.5787      1.00000
     15      -3.4718      1.00000
     16      -3.2030      1.00000
     17      -2.7128      1.00000
     18      -2.4983      1.00000
     19      -2.4735      1.00000
     20      -1.9538      1.00000
     21      -1.8093      1.00000
     22      -1.7546      1.00000
     23      -0.0132      1.00000
     24       0.1839      1.00000
     25       0.5140      1.00000
     26       1.0918      1.00000
     27       1.4405      1.00000
     28       7.0703      0.00000
     29       7.0828      0.00000
     30       7.1976      0.00000
     31       8.0141      0.00000
     32       8.2284      0.00000
     33       8.9000      0.00000
     34      11.0705      0.00000
     35      12.4833      0.00000
     36      12.7168      0.00000


--------------------------------------------------------------------------------------------------------


 soft charge-density along one line, spin component           1
         0         1         2         3         4         5         6         7         8         9
 total charge-density along one line
 
 soft charge-density along one line, spin component           2
         0         1         2         3         4         5         6         7         8         9
 total charge-density along one line
 
 pseudopotential strength for first ion, spin component:           1
-41.890   0.000  -0.031   7.899  -0.000   0.013   0.000  -0.000
  0.000 -41.864   0.000  -0.000   7.889  -0.000  -0.000  -0.000
 -0.031   0.000 -41.890   0.013  -0.000   7.899  -0.000  -0.000
  7.899  -0.000   0.013   5.348   0.000  -0.005  -0.000  -0.000
 -0.000   7.889  -0.000   0.000   5.352   0.000  -0.000  -0.000
  0.013  -0.000   7.899  -0.005   0.000   5.348  -0.000  -0.000
  0.000  -0.000  -0.000  -0.000  -0.000  -0.000  -1.379   0.000
 -0.000  -0.000  -0.000  -0.000  -0.000  -0.000   0.000  -1.334
  0.000   0.000  -0.000   0.000   0.000  -0.000  -0.075  -0.000
 -0.000  -0.000  -0.000  -0.000  -0.000  -0.000   0.000  -0.090
  0.000   0.000  -0.000   0.000   0.000   0.000   0.000  -0.000
  0.000  -0.000  -0.000  -0.000  -0.000  -0.000  -1.822   0.000
 -0.000  -0.000  -0.000  -0.000  -0.000  -0.000   0.000  -1.776
  0.000   0.000  -0.000   0.000   0.000  -0.000  -0.078  -0.000
 -0.000  -0.000  -0.000  -0.000  -0.000  -0.000   0.000  -0.093
  0.000   0.000  -0.000   0.000   0.000   0.000   0.000  -0.000
 -0.000  -0.000   0.000  -0.000  -0.000   0.000   0.006  -0.000
 -0.000  -0.000   0.000  -0.000  -0.000   0.000   0.012  -0.000
 pseudopotential strength for first ion, spin component:           2
-44.959   0.000  -0.024   9.385  -0.000   0.009   0.000  -0.000
  0.000 -44.940   0.000  -0.000   9.379  -0.000  -0.000  -0.000
 -0.024   0.000 -44.959   0.009  -0.000   9.385  -0.000  -0.000
  9.385  -0.000   0.009   4.853   0.000  -0.003   0.000  -0.000
 -0.000   9.379  -0.000   0.000   4.856   0.000  -0.000  -0.000
  0.009  -0.000   9.385  -0.003   0.000   4.853  -0.000  -0.000
  0.000  -0.000  -0.000   0.000  -0.000  -0.000  -7.382   0.000
 -0.000  -0.000  -0.000  -0.000  -0.000  -0.000   0.000  -7.351
  0.000   0.000  -0.000   0.000  -0.000  -0.000  -0.053   0.000
 -0.000  -0.000   0.000  -0.000  -0.000  -0.000   0.000  -0.073
  0.000   0.000  -0.000   0.000   0.000  -0.000  -0.000  -0.000
  0.000  -0.000  -0.000   0.000  -0.000  -0.000  -7.875   0.000
 -0.000  -0.000  -0.000  -0.000  -0.000  -0.000   0.000  -7.843
  0.000   0.000  -0.000   0.000  -0.000  -0.000  -0.055   0.000
 -0.000  -0.000   0.000  -0.000  -0.000  -0.000   0.000  -0.075
  0.000   0.000  -0.000   0.000   0.000  -0.000  -0.000  -0.000
 -0.000  -0.000   0.000  -0.000  -0.000   0.000   0.004  -0.000
 -0.000  -0.000   0.000  -0.000  -0.000   0.000   0.007  -0.000
 total augmentation occupancy for first ion, spin component:           1
  1.998   0.000  -0.000  -0.013   0.000   0.000  -0.000   0.000   0.000  -0.000   0.000   0.000  -0.000  -0.000   0.000  -0.000
  0.000   1.998   0.000   0.000  -0.013   0.000   0.000  -0.000   0.000   0.000  -0.000  -0.000   0.000  -0.000  -0.000   0.000
 -0.000   0.000   1.998   0.000   0.000  -0.013  -0.000   0.000  -0.000  -0.000   0.000   0.000  -0.000   0.000   0.000  -0.000
 -0.013   0.000   0.000   0.096  -0.000  -0.010  -0.000  -0.000  -0.000   0.000  -0.000   0.000   0.000   0.000  -0.000   0.000
  0.000  -0.013   0.000  -0.000   0.108  -0.000   0.000   0.000  -0.000   0.000  -0.000  -0.000  -0.000   0.000  -0.000   0.000
  0.000   0.000  -0.013  -0.010  -0.000   0.096   0.000  -0.000   0.000   0.000   0.000  -0.000   0.000  -0.000  -0.000  -0.000
 -0.000   0.000  -0.000  -0.000   0.000   0.000   8.373   0.000   3.387  -0.000  -0.000  -6.444  -0.000  -3.213  -0.000  -0.000
  0.000  -0.000   0.000  -0.000   0.000  -0.000   0.000   6.992  -0.000   2.915   0.000  -0.000  -5.127  -0.000  -2.754  -0.000
  0.000   0.000  -0.000  -0.000  -0.000   0.000   3.387  -0.000   6.309  -0.000  -0.000  -3.214  -0.000  -4.507   0.000   0.000
 -0.000   0.000  -0.000   0.000   0.000   0.000  -0.000   2.915  -0.000   6.992  -0.000  -0.000  -2.754   0.000  -5.127   0.000
  0.000  -0.000   0.000  -0.000  -0.000   0.000  -0.000   0.000  -0.000  -0.000   3.957  -0.000  -0.000   0.000   0.000  -2.232
  0.000  -0.000   0.000   0.000  -0.000  -0.000  -6.444  -0.000  -3.214  -0.000  -0.000   5.686   0.000   3.085   0.000   0.000
 -0.000   0.000  -0.000   0.000  -0.000   0.000  -0.000  -5.127  -0.000  -2.754  -0.000   0.000   4.420   0.000   2.630   0.000
 -0.000  -0.000   0.000   0.000   0.000  -0.000  -3.213  -0.000  -4.507   0.000   0.000   3.085   0.000   3.849   0.000  -0.000
  0.000  -0.000   0.000  -0.000  -0.000  -0.000  -0.000  -2.754   0.000  -5.127   0.000   0.000   2.630   0.000   4.420  -0.000
 -0.000   0.000  -0.000   0.000   0.000  -0.000  -0.000  -0.000   0.000   0.000  -2.232   0.000   0.000  -0.000  -0.000   1.626
 -0.000  -0.000   0.000  -0.000   0.000   0.000   0.265   0.000  -0.230   0.000   0.000  -0.295  -0.000   0.238  -0.000  -0.000
  0.000   0.000  -0.000   0.000  -0.000  -0.000  -0.008  -0.000   0.027  -0.000  -0.000   0.033   0.000  -0.038   0.000   0.000
 total augmentation occupancy for first ion, spin component:           2
  0.004   0.000  -0.000   0.016   0.000  -0.000  -0.000   0.000   0.000  -0.000   0.000   0.000  -0.000  -0.000   0.000  -0.000
  0.000   0.004   0.000   0.000   0.017   0.000   0.000   0.000   0.000   0.000  -0.000  -0.000  -0.000  -0.000  -0.000   0.000
 -0.000   0.000   0.004  -0.000   0.000   0.016   0.000   0.000   0.000  -0.000   0.000   0.000  -0.000  -0.000   0.000  -0.000
  0.016   0.000  -0.000  -0.009   0.000  -0.000   0.000  -0.000   0.000   0.000   0.000  -0.000   0.000  -0.000  -0.000  -0.000
  0.000   0.017   0.000   0.000  -0.009  -0.000   0.000  -0.000   0.000  -0.000  -0.000  -0.000   0.000  -0.000   0.000   0.000
 -0.000   0.000   0.016  -0.000  -0.000  -0.009  -0.000  -0.000  -0.000   0.000  -0.000   0.000   0.000   0.000  -0.000   0.000
 -0.000   0.000   0.000   0.000   0.000  -0.000  -5.672   0.000  -1.870   0.000   0.000   3.336  -0.000   1.476  -0.000  -0.000
  0.000   0.000   0.000  -0.000  -0.000  -0.000   0.000  -4.908   0.000  -1.639  -0.000  -0.000   2.714  -0.000   1.293   0.000
  0.000   0.000   0.000   0.000   0.000  -0.000  -1.870   0.000  -4.440   0.000   0.000   1.477   0.000   2.356   0.000  -0.000
 -0.000   0.000  -0.000   0.000  -0.000   0.000   0.000  -1.639   0.000  -4.908   0.000  -0.000   1.293  -0.000   2.714  -0.000
  0.000  -0.000   0.000   0.000  -0.000  -0.000   0.000  -0.000   0.000   0.000  -3.276  -0.000   0.000  -0.000  -0.000   1.425
  0.000  -0.000   0.000  -0.000  -0.000   0.000   3.336  -0.000   1.477  -0.000  -0.000  -2.102   0.000  -1.088   0.000   0.000
 -0.000  -0.000  -0.000   0.000   0.000   0.000  -0.000   2.714   0.000   1.293   0.000   0.000  -1.621  -0.000  -0.954  -0.000
 -0.000  -0.000  -0.000  -0.000  -0.000   0.000   1.476  -0.000   2.356  -0.000  -0.000  -1.088  -0.000  -1.366  -0.000   0.000
  0.000  -0.000   0.000  -0.000   0.000  -0.000  -0.000   1.293   0.000   2.714  -0.000   0.000  -0.954  -0.000  -1.621   0.000
 -0.000   0.000  -0.000  -0.000   0.000   0.000  -0.000   0.000  -0.000  -0.000   1.425   0.000  -0.000   0.000   0.000  -0.670
 -0.000   0.000   0.000  -0.000  -0.000  -0.000   0.006  -0.000   0.024  -0.000  -0.000  -0.015   0.000  -0.004   0.000   0.000
  0.000  -0.000  -0.000   0.000   0.000  -0.000  -0.047   0.000   0.012   0.000   0.000   0.028  -0.000  -0.006  -0.000  -0.000


------------------------ aborting loop because EDIFF is reached ----------------------------------------


 


 total charge     
 
# of ion       s       p       d       tot
------------------------------------------
    1        0.181   6.170   4.984  11.335
    2        0.181   6.170   4.984  11.335
    3        1.721   4.362   0.000   6.083
    4        1.721   4.362   0.000   6.083
    5        1.721   4.362   0.000   6.083
    6        1.721   4.362   0.000   6.083
--------------------------------------------------
tot          7.247  29.786   9.968  47.001
 


 magnetization (x)
 
# of ion       s       p       d       tot
------------------------------------------
    1       -0.014  -0.014  -4.596  -4.625
    2        0.014   0.014   4.596   4.625
    3        0.002   0.019   0.000   0.021
    4        0.002   0.019   0.000   0.021
    5       -0.002  -0.019   0.000  -0.021
    6       -0.002  -0.019   0.000  -0.021
--------------------------------------------------
tot         -0.000  -0.000   0.000  -0.000
 
    CHARGE:  cpu time    0.0738: real time    0.0738
    FORLOC:  cpu time    0.0011: real time    0.0011
    FORNL :  cpu time    0.5273: real time    0.5273
    STRESS:  cpu time    1.4619: real time    1.4620
    FORCOR:  cpu time    0.0041: real time    0.0041
    FORHAR:  cpu time    0.0021: real time    0.0021
    MIXING:  cpu time    0.0008: real time    0.0008
    OFIELD:  cpu time    0.0000: real time    0.0000

  FORCE on cell =-STRESS in cart. coord.  units (eV):
  Direction    XX          YY          ZZ          XY          YZ          ZX
  --------------------------------------------------------------------------------------
  Alpha Z   203.95051   203.95051   203.95051
  Ewald   -1606.36587 -1606.36587 -1040.33096    -0.00000    -0.00000    -0.00000
  Hartree   575.74463   575.74463   955.16562    -0.00002    -0.00001    -0.00001
  E(xc)    -309.49855  -309.49855  -309.54302     0.00000     0.00000     0.00000
  Local     185.50573   185.50574  -752.69042     0.00003     0.00002     0.00002
  n-local  -238.36382  -238.36382  -237.32502    -0.00002    -0.00001    -0.00001
  augment   267.15611   267.15611   266.53828     0.00005     0.00003     0.00003
  Kinetic   921.87839   921.87839   914.24112     0.00002     0.00001     0.00000
  Fock        0.00000     0.00000     0.00000     0.00000     0.00000     0.00000
  -------------------------------------------------------------------------------------
  Total       0.00713     0.00714     0.00612     0.00006     0.00004     0.00004
  in kB       0.15294     0.15306     0.13115     0.00126     0.00083     0.00083
  external pressure =        0.15 kB  Pullay stress =        0.00 kB


 VOLUME and BASIS-vectors are now :
 -----------------------------------------------------------------------------
  energy-cutoff  :      600.00
  volume of cell :       74.70
      direct lattice vectors                 reciprocal lattice vectors
     4.795904286  0.000000000  0.000000000     0.208511251  0.000000000  0.000000000
     0.000000000  4.795904286  0.000000000     0.000000000  0.208511251  0.000000000
     0.000000000  0.000000000  3.247883034     0.000000000  0.000000000  0.307892861

  length of vectors
     4.795904286  4.795904286  3.247883034     0.208511251  0.208511251  0.307892861


 FORCES acting on ions
    electron-ion (+dipol)            ewald-force                    non-local-force                 convergence-correction
 -----------------------------------------------------------------------------------------------
   -.271E-06 0.775E-06 0.860E-10   0.000E+00 0.000E+00 0.167E-13   0.282E-06 -.778E-06 -.105E-08   0.711E-09 0.531E-08 0.259E-09
   -.271E-06 -.779E-06 -.250E-09   -.284E-13 -.853E-13 0.162E-13   0.285E-06 0.778E-06 0.227E-08   -.908E-09 -.152E-08 0.362E-09
   -.339E+02 0.339E+02 -.530E-06   0.351E+02 -.351E+02 -.409E-14   -.128E+01 0.128E+01 -.427E-06   -.885E-04 0.951E-04 0.105E-05
   0.339E+02 -.339E+02 0.530E-06   -.351E+02 0.351E+02 -.442E-14   0.128E+01 -.128E+01 0.428E-06   0.885E-04 -.951E-04 -.105E-05
   0.339E+02 0.339E+02 -.183E-04   -.351E+02 -.351E+02 -.835E-14   0.128E+01 0.128E+01 -.136E-04   -.565E-04 -.683E-04 0.319E-04
   -.339E+02 -.339E+02 0.183E-04   0.351E+02 0.351E+02 -.861E-14   -.128E+01 -.128E+01 0.136E-04   0.565E-04 0.683E-04 -.319E-04
 -----------------------------------------------------------------------------------------------
   -.489E-06 -.162E-08 0.321E-09   0.000E+00 -.711E-14 0.747E-14   0.488E-06 0.986E-09 0.131E-08   0.231E-08 0.112E-08 0.138E-09
 
 
 POSITION                                       TOTAL-FORCE (eV/Angst)
 -----------------------------------------------------------------------------------
      2.39795      2.39795      1.62394         0.000000      0.000000     -0.000000
      0.00000      0.00000      0.00000         0.000000     -0.000000      0.000000
      0.93967      3.85624      1.62394        -0.002623      0.002622      0.000000
      3.85624      0.93967      1.62394         0.002623     -0.002622     -0.000000
      1.45828      1.45828      0.00000         0.002624      0.002625     -0.000000
      3.33762      3.33762      0.00000        -0.002624     -0.002625      0.000000
 -----------------------------------------------------------------------------------
    total drift:                                0.000000      0.000000      0.000000


--------------------------------------------------------------------------------------------------------



  FREE ENERGIE OF THE ION-ELECTRON SYSTEM (eV)
  ---------------------------------------------------
  free  energy   TOTEN  =       -40.17075533 eV

  energy  without entropy=      -40.17075533  energy(sigma->0) =      -40.17075533
 


--------------------------------------------------------------------------------------------------------


    POTLOK:  cpu time    1.9435: real time    1.9435

 Total magnetic moment S=     1.0000000

 Fermi contact (isotropic) hyperfine coupling parameter (MHz) 
 -------------------------------------------------------------
  ion      A_pw      A_1PS     A_1AE     A_1c      A_tot
 -------------------------------------------------------------
   1   -1279.079 -1279.043  -310.047  1065.563  -310.083
   2    1279.079  1279.043   310.047 -1065.563   310.083
   3      40.206    40.093   239.323   -32.253   239.436
   4      40.206    40.093   239.323   -32.253   239.436
   5     -40.207   -40.094  -239.333    32.253  -239.446
   6     -40.207   -40.094  -239.333    32.253  -239.446
 -------------------------------------------------------------


 Dipolar hyperfine coupling parameters (MHz)
 ---------------------------------------------------------------------
  ion      A_xx      A_yy      A_zz      A_xy      A_xz      A_yz
 ---------------------------------------------------------------------
   1       6.906     6.906   -13.812     2.647     0.002     0.002
   2      -6.907    -6.907    13.813     2.647    -0.001    -0.001
   3     -60.944   -60.944   121.888    11.297     0.000     0.000
   4     -60.944   -60.944   121.888    11.297     0.000     0.000
   5      60.943    60.943  -121.887    11.296     0.000     0.000
   6      60.943    60.943  -121.887    11.296     0.000     0.000
 ---------------------------------------------------------------------


 Total hyperfine coupling parameters after diagonalization (MHz)
 (convention: |A_zz| > |A_xx| > |A_yy|)
 ----------------------------------------------------------------------
  ion      A_xx      A_yy      A_zz     asymmetry (A_yy - A_xx)/ A_zz 
 ----------------------------------------------------------------------
   1    -305.824  -300.529  -323.895      -0.016
   2     305.823   300.529   323.896      -0.016
   3     189.789   167.195   361.323      -0.063
   4     189.789   167.195   361.323      -0.063
   5    -189.799  -167.206  -361.332      -0.063
   6    -189.799  -167.206  -361.332      -0.063
 ---------------------------------------------------------------------



--------------------------------------------------------------------------------------------------------


 writing wavefunctions
     LOOP+:  cpu time   58.5599: real time   58.5806
    4ORBIT:  cpu time    0.0000: real time    0.0000
 


 total charge     
 
# of ion       s       p       d       tot
------------------------------------------
    1        0.181   6.170   4.984  11.335
    2        0.181   6.170   4.984  11.335
    3        1.721   4.362   0.000   6.083
    4        1.721   4.362   0.000   6.083
    5        1.721   4.362   0.000   6.083
    6        1.721   4.362   0.000   6.083
--------------------------------------------------
tot          7.247  29.786   9.968  47.001
 


 magnetization (x)
 
# of ion       s       p       d       tot
------------------------------------------
    1       -0.014  -0.014  -4.596  -4.625
    2        0.014   0.014   4.596   4.625
    3        0.002   0.019   0.000   0.021
    4        0.002   0.019   0.000   0.021
    5       -0.002  -0.019   0.000  -0.021
    6       -0.002  -0.019   0.000  -0.021
--------------------------------------------------
tot         -0.000  -0.000   0.000  -0.000
 
 BZINTS: Fermi energy:  1.821574; 54.000000 electrons
         Band energy:-749.773189;  BLOECHL correction:  0.000000

 total amount of memory used by VASP MPI-rank0    81549. kBytes
=======================================================================

   base      :      30000. kBytes
   nonl-proj :      35078. kBytes
   fftplans  :       1875. kBytes
   grid      :       2467. kBytes
   one-center:        186. kBytes
   wavefun   :      11943. kBytes
 
  
  
 General timing and accounting informations for this job:
 ========================================================
  
                  Total CPU time used (sec):       60.795
                            User time (sec):       44.293
                          System time (sec):       16.502
                         Elapsed time (sec):       60.875
  
                   Maximum memory used (kb):       92356.
                   Average memory used (kb):           0.
  
                          Minor page faults:        18868
                          Major page faults:            8
                 Voluntary context switches:          330
