       N       E                     dE             d eps       ncg     rms          rms(c)
DAV:   1     0.759777180482E+03    0.75978E+03   -0.39898E+04  1296   0.233E+03
DAV:   2     0.178181482852E+02   -0.74196E+03   -0.71624E+03  1476   0.573E+02
DAV:   3    -0.404683322933E+02   -0.58286E+02   -0.57953E+02  1560   0.169E+02
DAV:   4    -0.414248793464E+02   -0.95655E+00   -0.95617E+00  1476   0.226E+01
DAV:   5    -0.414388950196E+02   -0.14016E-01   -0.14015E-01  1500   0.279E+00    0.246E+01
DAV:   6    -0.393619983584E+02    0.20769E+01   -0.15656E+01  1608   0.319E+01    0.159E+01
DAV:   7    -0.400000488186E+02   -0.63805E+00   -0.15711E+00  1524   0.108E+01    0.118E+01
DAV:   8    -0.399140472162E+02    0.86002E-01   -0.51929E-01  1524   0.599E+00    0.474E+00
DAV:   9    -0.401869825884E+02   -0.27294E+00   -0.73543E-02  1452   0.259E+00    0.136E+00
DAV:  10    -0.401874421986E+02   -0.45961E-03   -0.15814E-02  1536   0.101E+00    0.251E-01
DAV:  11    -0.401873974961E+02    0.44703E-04   -0.15817E-03  1380   0.274E-01    0.142E-01
DAV:  12    -0.401874401188E+02   -0.42623E-04   -0.41441E-05  1776   0.854E-02    0.637E-02
DAV:  13    -0.401874461177E+02   -0.59990E-05   -0.40729E-05  1392   0.348E-02    0.210E-02
DAV:  14    -0.401874476083E+02   -0.14906E-05   -0.19195E-06  1212   0.142E-02    0.397E-03
DAV:  15    -0.401874477919E+02   -0.18356E-06   -0.16758E-07   648   0.346E-03
   1 F= -.40187448E+02 E0= -.40187448E+02  d E =0.000000E+00  mag=    -0.0000
