       N       E                     dE             d eps       ncg     rms          rms(c)
DAV:   1     0.568523154254E+03    0.56852E+03   -0.28042E+04  1308   0.145E+03
DAV:   2    -0.201472533647E+01   -0.57054E+03   -0.55591E+03  1464   0.450E+02
DAV:   3    -0.391801365722E+02   -0.37165E+02   -0.37036E+02  1560   0.130E+02
DAV:   4    -0.396268365760E+02   -0.44670E+00   -0.44663E+00  1440   0.154E+01
DAV:   5    -0.396333817345E+02   -0.65452E-02   -0.65451E-02  1548   0.182E+00    0.255E+01
DAV:   6    -0.380910469754E+02    0.15423E+01   -0.13141E+01  1596   0.302E+01    0.161E+01
DAV:   7    -0.387160236933E+02   -0.62498E+00   -0.18655E+00  1572   0.106E+01    0.123E+01
DAV:   8    -0.388556102705E+02   -0.13959E+00   -0.47490E-01  1536   0.588E+00    0.526E+00
DAV:   9    -0.390434024883E+02   -0.18779E+00   -0.46944E-02  1344   0.211E+00    0.148E+00
DAV:  10    -0.390509299803E+02   -0.75275E-02   -0.23664E-02  1572   0.131E+00    0.257E-01
DAV:  11    -0.390511401058E+02   -0.21013E-03   -0.21873E-03  1320   0.325E-01    0.100E-01
DAV:  12    -0.390513204066E+02   -0.18030E-03   -0.10110E-04  1548   0.101E-01    0.545E-02
DAV:  13    -0.390513545156E+02   -0.34109E-04   -0.39276E-05  1332   0.396E-02    0.228E-02
DAV:  14    -0.390513594385E+02   -0.49229E-05   -0.45716E-06  1572   0.142E-02    0.363E-03
DAV:  15    -0.390513594285E+02    0.99808E-08   -0.11126E-07   792   0.299E-03
   1 F= -.39051359E+02 E0= -.39051359E+02  d E =0.000000E+00  mag=     0.0000
