       N       E                     dE             d eps       ncg     rms          rms(c)
DAV:   1     0.969389044837E+03    0.96939E+03   -0.37495E+04  1296   0.200E+03
DAV:   2     0.404095730390E+03   -0.56529E+03   -0.54045E+03  1512   0.514E+02
DAV:   3     0.369551172588E+03   -0.34545E+02   -0.34295E+02  1464   0.137E+02
DAV:   4     0.369126653314E+03   -0.42452E+00   -0.42416E+00  1572   0.165E+01
DAV:   5     0.369119446633E+03   -0.72067E-02   -0.72066E-02  1476   0.198E+00    0.588E+01
DAV:   6    -0.688188515933E+02   -0.43794E+03   -0.28332E+02  1584   0.212E+02    0.627E+01
DAV:   7    -0.715487219562E+02   -0.27299E+01   -0.50077E+01  1356   0.451E+01    0.172E+01
DAV:   8    -0.686640390619E+02    0.28847E+01   -0.69923E+00  1560   0.218E+01    0.667E+00
DAV:   9    -0.681614679103E+02    0.50257E+00   -0.50234E+00  1524   0.192E+01    0.817E+00
DAV:  10    -0.681104349177E+02    0.51033E-01   -0.44094E-01  1380   0.557E+00    0.597E+00
DAV:  11    -0.680756070424E+02    0.34828E-01   -0.11180E+00  1560   0.790E+00    0.200E+00
DAV:  12    -0.680375597657E+02    0.38047E-01   -0.10278E-01  1596   0.326E+00    0.123E+00
DAV:  13    -0.680293138621E+02    0.82459E-02   -0.71375E-02  1512   0.157E+00    0.105E+00
DAV:  14    -0.680245085810E+02    0.48053E-02   -0.52291E-02  1296   0.248E+00    0.409E-01
DAV:  15    -0.680253370573E+02   -0.82848E-03   -0.37072E-03  1476   0.441E-01    0.399E-01
DAV:  16    -0.680245478818E+02    0.78918E-03   -0.29387E-03  1404   0.360E-01    0.153E-01
DAV:  17    -0.680244857876E+02    0.62094E-04   -0.34214E-03  1416   0.415E-01    0.110E-01
DAV:  18    -0.680242672260E+02    0.21856E-03   -0.19764E-04  1308   0.103E-01    0.316E-02
DAV:  19    -0.680242598594E+02    0.73666E-05   -0.11143E-04  1512   0.692E-02    0.811E-03
DAV:  20    -0.680242800201E+02   -0.20161E-04   -0.65116E-06  1440   0.162E-02    0.892E-03
DAV:  21    -0.680242822364E+02   -0.22163E-05   -0.27714E-06  1332   0.115E-02    0.381E-03
DAV:  22    -0.680242808457E+02    0.13907E-05   -0.11199E-06  1476   0.633E-03    0.179E-03
DAV:  23    -0.680242837241E+02   -0.28783E-05   -0.89972E-08   732   0.230E-03    0.102E-03
DAV:  24    -0.680242844068E+02   -0.68275E-06   -0.16695E-08   648   0.112E-03    0.347E-04
DAV:  25    -0.680242848381E+02   -0.43132E-06   -0.14330E-08   648   0.805E-04    0.326E-04
DAV:  26    -0.680242849594E+02   -0.12133E-06   -0.13429E-09   648   0.269E-04    0.256E-04
DAV:  27    -0.680242848785E+02    0.80960E-07   -0.70119E-10   648   0.194E-04
   1 F= -.68024285E+02 E0= -.68024285E+02  d E =-.680243E+02  mag=     0.0000
