 vasp.5.4.4.18Apr17-6-g9f103f2a35 (build Apr 27 2017 11:13:10) complex          
  
 executed on           IFC91_ompi date 2021.06.08  16:40:38
 running on   12 total cores
 distrk:  each k-point on   12 cores,    1 groups
 distr:  one band on NCORES_PER_BAND=   1 cores,   12 groups


--------------------------------------------------------------------------------------------------------


 INCAR:
 POTCAR:    PAW_PBE Mn_pv 02Aug2007               
 POTCAR:    PAW_PBE F 08Apr2002                   

 ----------------------------------------------------------------------------- 
|                                                                             |
|           W    W    AA    RRRRR   N    N  II  N    N   GGGG   !!!           |
|           W    W   A  A   R    R  NN   N  II  NN   N  G    G  !!!           |
|           W    W  A    A  R    R  N N  N  II  N N  N  G       !!!           |
|           W WW W  AAAAAA  RRRRR   N  N N  II  N  N N  G  GGG   !            |
|           WW  WW  A    A  R   R   N   NN  II  N   NN  G    G                |
|           W    W  A    A  R    R  N    N  II  N    N   GGGG   !!!           |
|                                                                             |
|      For optimal performance we recommend to set                            |
|        NCORE= 4 - approx SQRT( number of cores)                             |
|      NCORE specifies how many cores store one orbital (NPAR=cpu/NCORE).     |
|      This setting can  greatly improve the performance of VASP for DFT.     |
|      The default,   NCORE=1            might be grossly inefficient         |
|      on modern multi-core architectures or massively parallel machines.     |
|      Do your own testing !!!!                                               |
|      Unfortunately you need to use the default for GW and RPA calculations. |
|      (for HF NCORE is supported but not extensively tested yet)             |
|                                                                             |
 ----------------------------------------------------------------------------- 

 POTCAR:    PAW_PBE Mn_pv 02Aug2007               
   VRHFIN =Mn: 3p4s3d                                                           
   LEXCH  = PE                                                                  
   EATOM  =  2025.2664 eV,  148.8529 Ry                                         
                                                                                
   TITEL  = PAW_PBE Mn_pv 02Aug2007                                             
   LULTRA =        F    use ultrasoft PP ?                                      
   IUNSCR =        1    unscreen: 0-lin 1-nonlin 2-no                           
   RPACOR =    2.080    partial core radius                                     
   POMASS =   54.938; ZVAL   =   13.000    mass and valenz                      
   RCORE  =    2.300    outmost cutoff radius                                   
   RWIGS  =    2.500; RWIGS  =    1.323    wigner-seitz radius (au A)           
   ENMAX  =  269.864; ENMIN  =  202.398 eV                                      
   ICORE  =        3    local potential                                         
   LCOR   =        T    correct aug charges                                     
   LPAW   =        T    paw PP                                                  
   EAUG   =  569.085                                                            
   DEXC   =    0.000                                                            
   RMAX   =    2.343    core radius for proj-oper                               
   RAUG   =    1.300    factor for augmentation sphere                          
   RDEP   =    2.338    radius for radial grids                                 
   RDEPT  =    1.798    core radius for aug-charge                              
                                                                                
   Atomic configuration                                                         
    8 entries                                                                   
     n  l   j            E        occ.                                          
     1  0  0.50     -6424.8287   2.0000                                         
     2  0  0.50      -739.1154   2.0000                                         
     2  1  1.50      -625.3949   6.0000                                         
     3  0  0.50       -81.6100   2.0000                                         
     3  1  1.50       -50.4667   6.0000                                         
     3  2  2.50        -3.3745   6.0000                                         
     4  0  0.50        -4.1331   1.0000                                         
     4  3  2.50        -1.3606   0.0000                                         
   Description                                                                  
     l       E           TYP  RCUT    TYP  RCUT                                 
     1    -50.4666628     23  2.000                                             
     1     -1.3605826     23  2.000                                             
     2     -3.3744729     23  2.300                                             
     2     -4.7350555     23  2.300                                             
     0     -4.1331431     23  2.300                                             
     0      7.6656591     23  2.300                                             
     3      9.5240782     23  2.300                                             
  local pseudopotential read in
  partial core-charges read in
  partial kinetic energy density read in
  atomic valenz-charges read in
  non local Contribution for L=           1  read in
    real space projection operators read in
  non local Contribution for L=           1  read in
    real space projection operators read in
  non local Contribution for L=           2  read in
    real space projection operators read in
  non local Contribution for L=           2  read in
    real space projection operators read in
  non local Contribution for L=           0  read in
    real space projection operators read in
  non local Contribution for L=           0  read in
    real space projection operators read in
    PAW grid and wavefunctions read in
 
   number of l-projection  operators is LMAX  =           6
   number of lm-projection operators is LMMAX =          18
 
 POTCAR:    PAW_PBE F 08Apr2002                   
   VRHFIN =F: s2p5                                                              
   LEXCH  = PE                                                                  
   EATOM  =   659.6475 eV,   48.4827 Ry                                         
                                                                                
   TITEL  = PAW_PBE F 08Apr2002                                                 
   LULTRA =        F    use ultrasoft PP ?                                      
   IUNSCR =        1    unscreen: 0-lin 1-nonlin 2-no                           
   RPACOR =    1.200    partial core radius                                     
   POMASS =   18.998; ZVAL   =    7.000    mass and valenz                      
   RCORE  =    1.520    outmost cutoff radius                                   
   RWIGS  =    1.500; RWIGS  =    0.794    wigner-seitz radius (au A)           
   ENMAX  =  400.000; ENMIN  =  300.000 eV                                      
   ICORE  =        2    local potential                                         
   LCOR   =        T    correct aug charges                                     
   LPAW   =        T    paw PP                                                  
   EAUG   =  613.614                                                            
   RMAX   =    1.555    core radius for proj-oper                               
   RAUG   =    1.300    factor for augmentation sphere                          
   RDEP   =    1.539    radius for radial grids                                 
   RDEPT  =    1.299    core radius for aug-charge                              
                                                                                
   Atomic configuration                                                         
    4 entries                                                                   
     n  l   j            E        occ.                                          
     1  0  0.50      -663.3661   2.0000                                         
     2  0  0.50       -29.8995   2.0000                                         
     2  1  0.50       -11.1114   5.0000                                         
     3  2  1.50       -10.8847   0.0000                                         
   Description                                                                  
     l       E           TYP  RCUT    TYP  RCUT                                 
     0    -29.8995018     23  1.200                                             
     0     -9.5240782     23  1.200                                             
     1    -11.1113914     23  1.520                                             
     1      1.3605826     23  1.520                                             
     2    -10.8846608      7  1.500                                             
  local pseudopotential read in
  partial core-charges read in
  partial kinetic energy density read in
  atomic valenz-charges read in
  non local Contribution for L=           0  read in
    real space projection operators read in
  non local Contribution for L=           0  read in
    real space projection operators read in
  non local Contribution for L=           1  read in
    real space projection operators read in
  non local Contribution for L=           1  read in
    real space projection operators read in
    PAW grid and wavefunctions read in
 
   number of l-projection  operators is LMAX  =           4
   number of lm-projection operators is LMMAX =           8
 
  PAW_PBE Mn_pv 02Aug2007               :
 energy of atom  1       EATOM=-2025.2664
 kinetic energy error for atom=    0.0047 (will be added to EATOM!!)
  PAW_PBE F 08Apr2002                   :
 energy of atom  2       EATOM= -659.6475
 kinetic energy error for atom=    0.0256 (will be added to EATOM!!)
 
 
 POSCAR: Mn  F                                   
  positions in cartesian coordinates
  No initial velocities read in

 METAGGA = SCAN     LMAXTAU =  6    LMIXTAU =  F

 exchange correlation table for  LEXCH =        8
   RHO(1)=    0.500       N(1)  =     2000
   RHO(2)=  100.500       N(2)  =     4000
 


--------------------------------------------------------------------------------------------------------


 ion  position               nearest neighbor table
   1  0.500  0.500  0.500-   3 2.09   4 2.09   5 2.13   6 2.13   5 2.13   6 2.13
   2  0.000  0.000  0.000-   5 2.09   6 2.09   3 2.13   4 2.13   3 2.13   4 2.13
   3  0.196  0.804  0.500-   1 2.09   2 2.13   2 2.13
   4  0.804  0.196  0.500-   1 2.09   2 2.13   2 2.13
   5  0.304  0.304  0.000-   2 2.09   1 2.13   1 2.13
   6  0.696  0.696  0.000-   2 2.09   1 2.13   1 2.13
 

IMPORTANT INFORMATION: All symmetrisations will be switched off!
NOSYMM: (Re-)initialisation of all symmetry stuff for point group C_1.

 
 
 KPOINTS: KPOINTS created by Atomic Simulation Env

Automatic generation of k-mesh.
Space group operators:
 irot       det(A)        alpha          n_x          n_y          n_z        tau_x        tau_y        tau_z
    1     1.000000     0.000000     1.000000     0.000000     0.000000     0.000000     0.000000     0.000000
 
 Subroutine IBZKPT returns following result:
 ===========================================
 
 Found     48 irreducible k-points:
 
 Following reciprocal coordinates:
            Coordinates               Weight
  0.125000  0.125000  0.083333      2.000000
  0.375000  0.125000  0.083333      2.000000
 -0.375000  0.125000  0.083333      2.000000
 -0.125000  0.125000  0.083333      2.000000
  0.125000  0.375000  0.083333      2.000000
  0.375000  0.375000  0.083333      2.000000
 -0.375000  0.375000  0.083333      2.000000
 -0.125000  0.375000  0.083333      2.000000
  0.125000 -0.375000  0.083333      2.000000
  0.375000 -0.375000  0.083333      2.000000
 -0.375000 -0.375000  0.083333      2.000000
 -0.125000 -0.375000  0.083333      2.000000
  0.125000 -0.125000  0.083333      2.000000
  0.375000 -0.125000  0.083333      2.000000
 -0.375000 -0.125000  0.083333      2.000000
 -0.125000 -0.125000  0.083333      2.000000
  0.125000  0.125000  0.250000      2.000000
  0.375000  0.125000  0.250000      2.000000
 -0.375000  0.125000  0.250000      2.000000
 -0.125000  0.125000  0.250000      2.000000
  0.125000  0.375000  0.250000      2.000000
  0.375000  0.375000  0.250000      2.000000
 -0.375000  0.375000  0.250000      2.000000
 -0.125000  0.375000  0.250000      2.000000
  0.125000 -0.375000  0.250000      2.000000
  0.375000 -0.375000  0.250000      2.000000
 -0.375000 -0.375000  0.250000      2.000000
 -0.125000 -0.375000  0.250000      2.000000
  0.125000 -0.125000  0.250000      2.000000
  0.375000 -0.125000  0.250000      2.000000
 -0.375000 -0.125000  0.250000      2.000000
 -0.125000 -0.125000  0.250000      2.000000
  0.125000  0.125000  0.416667      2.000000
  0.375000  0.125000  0.416667      2.000000
 -0.375000  0.125000  0.416667      2.000000
 -0.125000  0.125000  0.416667      2.000000
  0.125000  0.375000  0.416667      2.000000
  0.375000  0.375000  0.416667      2.000000
 -0.375000  0.375000  0.416667      2.000000
 -0.125000  0.375000  0.416667      2.000000
  0.125000 -0.375000  0.416667      2.000000
  0.375000 -0.375000  0.416667      2.000000
 -0.375000 -0.375000  0.416667      2.000000
 -0.125000 -0.375000  0.416667      2.000000
  0.125000 -0.125000  0.416667      2.000000
  0.375000 -0.125000  0.416667      2.000000
 -0.375000 -0.125000  0.416667      2.000000
 -0.125000 -0.125000  0.416667      2.000000
 
 Following cartesian coordinates:
            Coordinates               Weight
  0.025684  0.025684  0.025271      2.000000
  0.077052  0.025684  0.025271      2.000000
 -0.077052  0.025684  0.025271      2.000000
 -0.025684  0.025684  0.025271      2.000000
  0.025684  0.077052  0.025271      2.000000
  0.077052  0.077052  0.025271      2.000000
 -0.077052  0.077052  0.025271      2.000000
 -0.025684  0.077052  0.025271      2.000000
  0.025684 -0.077052  0.025271      2.000000
  0.077052 -0.077052  0.025271      2.000000
 -0.077052 -0.077052  0.025271      2.000000
 -0.025684 -0.077052  0.025271      2.000000
  0.025684 -0.025684  0.025271      2.000000
  0.077052 -0.025684  0.025271      2.000000
 -0.077052 -0.025684  0.025271      2.000000
 -0.025684 -0.025684  0.025271      2.000000
  0.025684  0.025684  0.075812      2.000000
  0.077052  0.025684  0.075812      2.000000
 -0.077052  0.025684  0.075812      2.000000
 -0.025684  0.025684  0.075812      2.000000
  0.025684  0.077052  0.075812      2.000000
  0.077052  0.077052  0.075812      2.000000
 -0.077052  0.077052  0.075812      2.000000
 -0.025684  0.077052  0.075812      2.000000
  0.025684 -0.077052  0.075812      2.000000
  0.077052 -0.077052  0.075812      2.000000
 -0.077052 -0.077052  0.075812      2.000000
 -0.025684 -0.077052  0.075812      2.000000
  0.025684 -0.025684  0.075812      2.000000
  0.077052 -0.025684  0.075812      2.000000
 -0.077052 -0.025684  0.075812      2.000000
 -0.025684 -0.025684  0.075812      2.000000
  0.025684  0.025684  0.126354      2.000000
  0.077052  0.025684  0.126354      2.000000
 -0.077052  0.025684  0.126354      2.000000
 -0.025684  0.025684  0.126354      2.000000
  0.025684  0.077052  0.126354      2.000000
  0.077052  0.077052  0.126354      2.000000
 -0.077052  0.077052  0.126354      2.000000
 -0.025684  0.077052  0.126354      2.000000
  0.025684 -0.077052  0.126354      2.000000
  0.077052 -0.077052  0.126354      2.000000
 -0.077052 -0.077052  0.126354      2.000000
 -0.025684 -0.077052  0.126354      2.000000
  0.025684 -0.025684  0.126354      2.000000
  0.077052 -0.025684  0.126354      2.000000
 -0.077052 -0.025684  0.126354      2.000000
 -0.025684 -0.025684  0.126354      2.000000
 
 TETIRR: Found    288 inequivalent tetrahedra from      576


--------------------------------------------------------------------------------------------------------




 Dimension of arrays:
   k-points           NKPTS =     48   k-points in BZ     NKDIM =     48   number of bands    NBANDS=     36
   number of dos      NEDOS =    301   number of ions     NIONS =      6
   non local maximal  LDIM  =      6   non local SUM 2l+1 LMDIM =     18
   total plane-waves  NPLWV =  18000
   max r-space proj   IRMAX =      1   max aug-charges    IRDMAX=  56133
   dimension x,y,z NGX =    30 NGY =   30 NGZ =   20
   dimension x,y,z NGXF=    60 NGYF=   60 NGZF=   40
   support grid    NGXF=   120 NGYF=  120 NGZF=   80
   ions per type =               2   4
   NGX,Y,Z   is equivalent  to a cutoff of  10.25, 10.25, 10.08 a.u.
   NGXF,Y,Z  is equivalent  to a cutoff of  20.50, 20.50, 20.17 a.u.

 SYSTEM =  unknown system                          
 POSCAR =  Mn  F                                   

 Startparameter for this run:
   NWRITE =      2    write-flag & timer
   PREC   = normal    normal or accurate (medium, high low for compatibility)
   ISTART =      1    job   : 0-new  1-cont  2-samecut
   ICHARG =      0    charge: 1-file 2-atom 10-const
   ISPIN  =      2    spin polarized calculation?
   LNONCOLLINEAR =      F non collinear calculations
   LSORBIT =      F    spin-orbit coupling
   INIWAV =      1    electr: 0-lowe 1-rand  2-diag
   LASPH  =      T    aspherical Exc in radial PAW
   METAGGA=      F    non-selfconsistent MetaGGA calc.

 Electronic Relaxation 1
   ENCUT  =  600.0 eV  44.10 Ry    6.64 a.u.   9.72  9.72  6.59*2*pi/ulx,y,z
   ENINI  =  600.0     initial cutoff
   ENAUG  =  613.6 eV  augmentation charge cutoff
   NELM   =     60;   NELMIN=  2; NELMDL=  0     # of ELM steps 
   EDIFF  = 0.1E-07   stopping-criterion for ELM
   LREAL  =      F    real-space projection
   NLSPLINE    = F    spline interpolate recip. space projectors
   LCOMPAT=      F    compatible to vasp.4.4
   GGA_COMPAT  = T    GGA compatible to vasp.4.4-vasp.4.6
   LMAXPAW     = -100 max onsite density
   LMAXMIX     =    4 max onsite mixed and CHGCAR
   VOSKOWN=      0    Vosko Wilk Nusair interpolation
   ROPT   =    0.00000   0.00000
 Ionic relaxation
   EDIFFG = 0.1E-06   stopping-criterion for IOM
   NSW    =      0    number of steps for IOM
   NBLOCK =      1;   KBLOCK =      1    inner block; outer block 
   IBRION =     -1    ionic relax: 0-MD 1-quasi-New 2-CG
   NFREE  =      0    steps in history (QN), initial steepest desc. (CG)
   ISIF   =      2    stress and relaxation
   IWAVPR =     10    prediction:  0-non 1-charg 2-wave 3-comb
   ISYM   =      0    0-nonsym 1-usesym 2-fastsym
   LCORR  =      T    Harris-Foulkes like correction to forces

   POTIM  = 0.5000    time-step for ionic-motion
   TEIN   =    0.0    initial temperature
   TEBEG  =    0.0;   TEEND  =   0.0 temperature during run
   SMASS  =  -3.00    Nose mass-parameter (am)
   estimated Nose-frequenzy (Omega)   =  0.10E-29 period in steps =****** mass=  -0.541E-27a.u.
   SCALEE = 1.0000    scale energy and forces
   NPACO  =    256;   APACO  = 16.0  distance and # of slots for P.C.
   PSTRESS=    0.0 pullay stress

  Mass of Ions in am
   POMASS =  54.94 19.00
  Ionic Valenz
   ZVAL   =  13.00  7.00
  Atomic Wigner-Seitz radii
   RWIGS  =  -1.00 -1.00
  virtual crystal weights 
   VCA    =   1.00  1.00
   NELECT =      54.0000    total number of electrons
   NUPDOWN=      -1.0000    fix difference up-down

 DOS related values:
   EMIN   =  10.00;   EMAX   =-10.00  energy-range for DOS
   EFERMI =   0.00
   ISMEAR =    -5;   SIGMA  =   0.20  broadening in eV -4-tet -1-fermi 0-gaus

 Electronic relaxation 2 (details)
   IALGO  =     38    algorithm
   LDIAG  =      T    sub-space diagonalisation (order eigenvalues)
   LSUBROT=      F    optimize rotation matrix (better conditioning)
   TURBO    =      0    0=normal 1=particle mesh
   IRESTART =      0    0=no restart 2=restart with 2 vectors
   NREBOOT  =      0    no. of reboots
   NMIN     =      0    reboot dimension
   EREF     =   0.00    reference energy to select bands
   IMIX   =      4    mixing-type and parameters
     AMIX     =   0.40;   BMIX     =  1.00
     AMIX_MAG =   1.60;   BMIX_MAG =  1.00
     AMIN     =   0.10
     WC   =   100.;   INIMIX=   1;  MIXPRE=   1;  MAXMIX= -45

 Intra band minimization:
   WEIMIN = 0.0000     energy-eigenvalue tresh-hold
   EBREAK =  0.69E-10  absolut break condition
   DEPER  =   0.30     relativ break condition  

   TIME   =   0.40     timestep for ELM

  volume/ion in A,a.u.               =      13.02        87.85
  Fermi-wavevector in a.u.,A,eV,Ry     =   1.447579  2.735527 28.510793  2.095484
  Thomas-Fermi vector in A             =   2.565518
 
 Write flags
   LWAVE        =      T    write WAVECAR
   LDOWNSAMPLE  =      F    k-point downsampling of WAVECAR
   LCHARG       =      T    write CHGCAR
   LVTOT        =      F    write LOCPOT, total local potential
   LVHAR        =      F    write LOCPOT, Hartree potential only
   LELF         =      F    write electronic localiz. function (ELF)
   LORBIT       =     11    0 simple, 1 ext, 2 COOP (PROOUT), +10 PAW based schemes


 Dipole corrections
   LMONO  =      F    monopole corrections only (constant potential shift)
   LDIPOL =      F    correct potential (dipole corrections)
   IDIPOL =      0    1-x, 2-y, 3-z, 4-all directions 
   EPSILON=  1.0000000 bulk dielectric constant

 LDA+U is selected, type is set to LDAUTYPE =  2
   angular momentum for each species LDAUL =     2   -1
   U (eV)           for each species LDAUU =   2.0  0.0
   J (eV)           for each species LDAUJ =   0.0  0.0
 Exchange correlation treatment:
   GGA     =    --    GGA type
   LEXCH   =     8    internal setting for exchange type
   VOSKOWN=      0    Vosko Wilk Nusair interpolation
   LHFCALC =     F    Hartree Fock is set to
   LHFONE  =     F    Hartree Fock one center treatment
   AEXX    =    0.0000 exact exchange contribution

 Linear response parameters
   LEPSILON=     F    determine dielectric tensor
   LRPA    =     F    only Hartree local field effects (RPA)
   LNABLA  =     F    use nabla operator in PAW spheres
   LVEL    =     F    velocity operator in full k-point grid
   LINTERFAST=   F  fast interpolation
   KINTER  =     0    interpolate to denser k-point grid
   CSHIFT  =0.1000    complex shift for real part using Kramers Kronig
   OMEGAMAX=  -1.0    maximum frequency
   DEG_THRESHOLD= 0.2000000E-02 threshold for treating states as degnerate
   RTIME   =   -0.100 relaxation time in fs
  (WPLASMAI=    0.000 imaginary part of plasma frequency in eV, 0.658/RTIME)
   DFIELD  = 0.0000000 0.0000000 0.0000000 field for delta impulse in time
 
 Orbital magnetization related:
   ORBITALMAG=     F  switch on orbital magnetization
   LCHIMAG   =     F  perturbation theory with respect to B field
   DQ        =  0.001000  dq finite difference perturbation B field
   LLRAUG    =     F  two centre corrections for induced B field



--------------------------------------------------------------------------------------------------------


 Static calculation
 charge density and potential will be updated during run
 spin polarized calculation
 Variant of blocked Davidson
 Davidson routine will perform the subspace rotation
 perform sub-space diagonalisation
    after iterative eigenvector-optimisation
 modified Broyden-mixing scheme, WC =      100.0
 initial mixing is a Kerker type mixing with AMIX =  0.4000 and BMIX =      1.0000
 Hartree-type preconditioning will be used
 using additional bands            9
 reciprocal scheme for non local part
 use partial core corrections
 calculate Harris-corrections to forces 
   (improved forces if not selfconsistent)
 use gradient corrections 
 use of overlap-Matrix (Vanderbilt PP)
 Fermi weights with tetrahedron method with Bloechl corrections


--------------------------------------------------------------------------------------------------------


  energy-cutoff  :      600.00
  volume of cell :       78.11
      direct lattice vectors                 reciprocal lattice vectors
     4.866822185  0.000000000  0.000000000     0.205472886  0.000000000  0.000000000
     0.000000000  4.866822185  0.000000000     0.000000000  0.205472886  0.000000000
     0.000000000  0.000000000  3.297620766     0.000000000  0.000000000  0.303248939

  length of vectors
     4.866822185  4.866822185  3.297620766     0.205472886  0.205472886  0.303248939


 
 old parameters found on file WAVECAR:
  energy-cutoff  :      600.00
  volume of cell :       78.11
      direct lattice vectors                 reciprocal lattice vectors
     4.866822185  0.000000000  0.000000000     0.205472886  0.000000000  0.000000000
     0.000000000  4.866822185  0.000000000     0.000000000  0.205472886  0.000000000
     0.000000000  0.000000000  3.297620766     0.000000000  0.000000000  0.303248939

  length of vectors

 
 k-points in units of 2pi/SCALE and weight: KPOINTS created by Atomic Simulation Env
   0.02568411  0.02568411  0.02527074       0.021
   0.07705233  0.02568411  0.02527074       0.021
  -0.07705233  0.02568411  0.02527074       0.021
  -0.02568411  0.02568411  0.02527074       0.021
   0.02568411  0.07705233  0.02527074       0.021
   0.07705233  0.07705233  0.02527074       0.021
  -0.07705233  0.07705233  0.02527074       0.021
  -0.02568411  0.07705233  0.02527074       0.021
   0.02568411 -0.07705233  0.02527074       0.021
   0.07705233 -0.07705233  0.02527074       0.021
  -0.07705233 -0.07705233  0.02527074       0.021
  -0.02568411 -0.07705233  0.02527074       0.021
   0.02568411 -0.02568411  0.02527074       0.021
   0.07705233 -0.02568411  0.02527074       0.021
  -0.07705233 -0.02568411  0.02527074       0.021
  -0.02568411 -0.02568411  0.02527074       0.021
   0.02568411  0.02568411  0.07581223       0.021
   0.07705233  0.02568411  0.07581223       0.021
  -0.07705233  0.02568411  0.07581223       0.021
  -0.02568411  0.02568411  0.07581223       0.021
   0.02568411  0.07705233  0.07581223       0.021
   0.07705233  0.07705233  0.07581223       0.021
  -0.07705233  0.07705233  0.07581223       0.021
  -0.02568411  0.07705233  0.07581223       0.021
   0.02568411 -0.07705233  0.07581223       0.021
   0.07705233 -0.07705233  0.07581223       0.021
  -0.07705233 -0.07705233  0.07581223       0.021
  -0.02568411 -0.07705233  0.07581223       0.021
   0.02568411 -0.02568411  0.07581223       0.021
   0.07705233 -0.02568411  0.07581223       0.021
  -0.07705233 -0.02568411  0.07581223       0.021
  -0.02568411 -0.02568411  0.07581223       0.021
   0.02568411  0.02568411  0.12635372       0.021
   0.07705233  0.02568411  0.12635372       0.021
  -0.07705233  0.02568411  0.12635372       0.021
  -0.02568411  0.02568411  0.12635372       0.021
   0.02568411  0.07705233  0.12635372       0.021
   0.07705233  0.07705233  0.12635372       0.021
  -0.07705233  0.07705233  0.12635372       0.021
  -0.02568411  0.07705233  0.12635372       0.021
   0.02568411 -0.07705233  0.12635372       0.021
   0.07705233 -0.07705233  0.12635372       0.021
  -0.07705233 -0.07705233  0.12635372       0.021
  -0.02568411 -0.07705233  0.12635372       0.021
   0.02568411 -0.02568411  0.12635372       0.021
   0.07705233 -0.02568411  0.12635372       0.021
  -0.07705233 -0.02568411  0.12635372       0.021
  -0.02568411 -0.02568411  0.12635372       0.021
 
 k-points in reciprocal lattice and weights: KPOINTS created by Atomic Simulation Env
   0.12500000  0.12500000  0.08333333       0.021
   0.37500000  0.12500000  0.08333333       0.021
  -0.37500000  0.12500000  0.08333333       0.021
  -0.12500000  0.12500000  0.08333333       0.021
   0.12500000  0.37500000  0.08333333       0.021
   0.37500000  0.37500000  0.08333333       0.021
  -0.37500000  0.37500000  0.08333333       0.021
  -0.12500000  0.37500000  0.08333333       0.021
   0.12500000 -0.37500000  0.08333333       0.021
   0.37500000 -0.37500000  0.08333333       0.021
  -0.37500000 -0.37500000  0.08333333       0.021
  -0.12500000 -0.37500000  0.08333333       0.021
   0.12500000 -0.12500000  0.08333333       0.021
   0.37500000 -0.12500000  0.08333333       0.021
  -0.37500000 -0.12500000  0.08333333       0.021
  -0.12500000 -0.12500000  0.08333333       0.021
   0.12500000  0.12500000  0.25000000       0.021
   0.37500000  0.12500000  0.25000000       0.021
  -0.37500000  0.12500000  0.25000000       0.021
  -0.12500000  0.12500000  0.25000000       0.021
   0.12500000  0.37500000  0.25000000       0.021
   0.37500000  0.37500000  0.25000000       0.021
  -0.37500000  0.37500000  0.25000000       0.021
  -0.12500000  0.37500000  0.25000000       0.021
   0.12500000 -0.37500000  0.25000000       0.021
   0.37500000 -0.37500000  0.25000000       0.021
  -0.37500000 -0.37500000  0.25000000       0.021
  -0.12500000 -0.37500000  0.25000000       0.021
   0.12500000 -0.12500000  0.25000000       0.021
   0.37500000 -0.12500000  0.25000000       0.021
  -0.37500000 -0.12500000  0.25000000       0.021
  -0.12500000 -0.12500000  0.25000000       0.021
   0.12500000  0.12500000  0.41666667       0.021
   0.37500000  0.12500000  0.41666667       0.021
  -0.37500000  0.12500000  0.41666667       0.021
  -0.12500000  0.12500000  0.41666667       0.021
   0.12500000  0.37500000  0.41666667       0.021
   0.37500000  0.37500000  0.41666667       0.021
  -0.37500000  0.37500000  0.41666667       0.021
  -0.12500000  0.37500000  0.41666667       0.021
   0.12500000 -0.37500000  0.41666667       0.021
   0.37500000 -0.37500000  0.41666667       0.021
  -0.37500000 -0.37500000  0.41666667       0.021
  -0.12500000 -0.37500000  0.41666667       0.021
   0.12500000 -0.12500000  0.41666667       0.021
   0.37500000 -0.12500000  0.41666667       0.021
  -0.37500000 -0.12500000  0.41666667       0.021
  -0.12500000 -0.12500000  0.41666667       0.021
 
 position of ions in fractional coordinates (direct lattice) 
   0.50000000  0.50000000  0.50000000
   0.00000000  0.00000000  0.00000000
   0.19565982  0.80434018  0.50000000
   0.80434018  0.19565982  0.50000000
   0.30434018  0.30434018  0.00000000
   0.69565982  0.69565982  0.00000000
 
 position of ions in cartesian coordinates  (Angst):
   2.43341109  2.43341109  1.64881038
   0.00000000  0.00000000  0.00000000
   0.95224153  3.91458066  1.64881038
   3.91458066  0.95224153  1.64881038
   1.48116956  1.48116956  0.00000000
   3.38565262  3.38565262  0.00000000
 


--------------------------------------------------------------------------------------------------------


 k-point  1 :   0.1250 0.1250 0.0833  plane waves:    2611
 k-point  2 :   0.3750 0.1250 0.0833  plane waves:    2617
 k-point  3 :  -0.3750 0.1250 0.0833  plane waves:    2617
 k-point  4 :  -0.1250 0.1250 0.0833  plane waves:    2611
 k-point  5 :   0.1250 0.3750 0.0833  plane waves:    2617
 k-point  6 :   0.3750 0.3750 0.0833  plane waves:    2603
 k-point  7 :  -0.3750 0.3750 0.0833  plane waves:    2603
 k-point  8 :  -0.1250 0.3750 0.0833  plane waves:    2617
 k-point  9 :   0.1250-0.3750 0.0833  plane waves:    2617
 k-point 10 :   0.3750-0.3750 0.0833  plane waves:    2603
 k-point 11 :  -0.3750-0.3750 0.0833  plane waves:    2603
 k-point 12 :  -0.1250-0.3750 0.0833  plane waves:    2617
 k-point 13 :   0.1250-0.1250 0.0833  plane waves:    2611
 k-point 14 :   0.3750-0.1250 0.0833  plane waves:    2617
 k-point 15 :  -0.3750-0.1250 0.0833  plane waves:    2617
 k-point 16 :  -0.1250-0.1250 0.0833  plane waves:    2611
 k-point 17 :   0.1250 0.1250 0.2500  plane waves:    2606
 k-point 18 :   0.3750 0.1250 0.2500  plane waves:    2598
 k-point 19 :  -0.3750 0.1250 0.2500  plane waves:    2598
 k-point 20 :  -0.1250 0.1250 0.2500  plane waves:    2606
 k-point 21 :   0.1250 0.3750 0.2500  plane waves:    2598
 k-point 22 :   0.3750 0.3750 0.2500  plane waves:    2615
 k-point 23 :  -0.3750 0.3750 0.2500  plane waves:    2615
 k-point 24 :  -0.1250 0.3750 0.2500  plane waves:    2598
 k-point 25 :   0.1250-0.3750 0.2500  plane waves:    2598
 k-point 26 :   0.3750-0.3750 0.2500  plane waves:    2615
 k-point 27 :  -0.3750-0.3750 0.2500  plane waves:    2615
 k-point 28 :  -0.1250-0.3750 0.2500  plane waves:    2598
 k-point 29 :   0.1250-0.1250 0.2500  plane waves:    2606
 k-point 30 :   0.3750-0.1250 0.2500  plane waves:    2598
 k-point 31 :  -0.3750-0.1250 0.2500  plane waves:    2598
 k-point 32 :  -0.1250-0.1250 0.2500  plane waves:    2606
 k-point 33 :   0.1250 0.1250 0.4167  plane waves:    2604
 k-point 34 :   0.3750 0.1250 0.4167  plane waves:    2603
 k-point 35 :  -0.3750 0.1250 0.4167  plane waves:    2603
 k-point 36 :  -0.1250 0.1250 0.4167  plane waves:    2604
 k-point 37 :   0.1250 0.3750 0.4167  plane waves:    2603
 k-point 38 :   0.3750 0.3750 0.4167  plane waves:    2596
 k-point 39 :  -0.3750 0.3750 0.4167  plane waves:    2596
 k-point 40 :  -0.1250 0.3750 0.4167  plane waves:    2603
 k-point 41 :   0.1250-0.3750 0.4167  plane waves:    2603
 k-point 42 :   0.3750-0.3750 0.4167  plane waves:    2596
 k-point 43 :  -0.3750-0.3750 0.4167  plane waves:    2596
 k-point 44 :  -0.1250-0.3750 0.4167  plane waves:    2603
 k-point 45 :   0.1250-0.1250 0.4167  plane waves:    2604
 k-point 46 :   0.3750-0.1250 0.4167  plane waves:    2603
 k-point 47 :  -0.3750-0.1250 0.4167  plane waves:    2603
 k-point 48 :  -0.1250-0.1250 0.4167  plane waves:    2604

 maximum and minimum number of plane-waves per node :      2617     2596

 maximum number of plane-waves:      2617
 maximum index in each direction: 
   IXMAX=   10   IYMAX=   10   IZMAX=    6
   IXMIN=  -10   IYMIN=  -10   IZMIN=   -7


 serial   3D FFT for wavefunctions
 parallel 3D FFT for charge:
    minimum data exchange during FFTs selected (reduces bandwidth)


 total amount of memory used by VASP MPI-rank0    84903. kBytes
=======================================================================

   base      :      30000. kBytes
   nonl-proj :      36581. kBytes
   fftplans  :       1875. kBytes
   grid      :       3820. kBytes
   one-center:        186. kBytes
   wavefun   :      12441. kBytes
 
     INWAV:  cpu time    0.4577: real time    0.4577
 Broyden mixing: mesh for mixing (old mesh)
   NGX = 19   NGY = 19   NGZ = 13
  (NGX  = 60   NGY  = 60   NGZ  = 40)
  gives a total of   4693 points

 charge density for first step will be calculated from the start-wavefunctions


--------------------------------------------------------------------------------------------------------


 Maximum index for augmentation-charges         4287 (set IRDMAX)


--------------------------------------------------------------------------------------------------------


 initial charge from wavefunction
 First call to EWALD:  gamma=   0.415
 Maximum number of real-space cells 2x 2x 3
 Maximum number of reciprocal cells 3x 3x 2

    FEWALD:  cpu time    0.0011: real time    0.0011


--------------------------------------- Iteration      1(   1)  ---------------------------------------


    POTLOK:  cpu time    0.0346: real time    0.0346
    SETDIJ:  cpu time    2.5376: real time    2.5376
atom =   1  type =  1  l = 2
 
 onsite density matrix
 
spin component  1
 
  0.1260  0.0119 -0.0062  0.0121  0.0000
  0.0119  0.0878  0.0088  0.0378 -0.0140
 -0.0062  0.0088  0.0678  0.0088  0.0013
  0.0121  0.0378  0.0088  0.0862  0.0144
  0.0000 -0.0140  0.0013  0.0144  0.0928
 
spin component  2
 
  0.9227 -0.0045  0.0265 -0.0046 -0.0001
 -0.0045  0.9163 -0.0033  0.0100  0.0052
  0.0265 -0.0033  0.9244 -0.0032 -0.0005
 -0.0046  0.0100 -0.0032  0.9168 -0.0054
 -0.0001  0.0052 -0.0005 -0.0054  0.8895
 
 occupancies and eigenvectors
 
  o =  0.0413  v =  0.0024  0.6525 -0.0146 -0.6642  0.3646  0.0000  0.0000  0.0000  0.0000  0.0000      0.0000  0.0000  0.0000  0.0000  0.0000  0.0000  0.0000  0.0000  0.0000  0.0000
  o =  0.0636  v =  0.1603 -0.1531  0.9571 -0.1850 -0.0258  0.0000  0.0000  0.0000  0.0000  0.0000      0.0000  0.0000  0.0000  0.0000  0.0000  0.0000  0.0000  0.0000  0.0000  0.0000
  o =  0.1007  v =  0.0187 -0.2749  0.0244  0.2402  0.9305  0.0000  0.0000  0.0000  0.0000  0.0000      0.0000  0.0000  0.0000  0.0000  0.0000  0.0000  0.0000  0.0000  0.0000  0.0000
  o =  0.1123  v =  0.6941 -0.4696 -0.2822 -0.4663 -0.0250  0.0000  0.0000  0.0000  0.0000  0.0000      0.0000  0.0000  0.0000  0.0000  0.0000  0.0000  0.0000  0.0000  0.0000  0.0000
  o =  0.1426  v = -0.7016 -0.5047 -0.0599 -0.4995 -0.0045  0.0000  0.0000  0.0000  0.0000  0.0000      0.0000  0.0000  0.0000  0.0000  0.0000  0.0000  0.0000  0.0000  0.0000  0.0000
  o =  0.8867  v =  0.0000  0.0000  0.0000  0.0000  0.0000 -0.0088 -0.2491  0.0169  0.2503  0.9354      0.0000  0.0000  0.0000  0.0000  0.0000  0.0000  0.0000  0.0000  0.0000  0.0000
  o =  0.8970  v =  0.0000  0.0000  0.0000  0.0000  0.0000 -0.7227 -0.0233  0.6889 -0.0493 -0.0123      0.0000  0.0000  0.0000  0.0000  0.0000  0.0000  0.0000  0.0000  0.0000  0.0000
  o =  0.9094  v =  0.0000  0.0000  0.0000  0.0000  0.0000 -0.0140 -0.6775  0.0022  0.6450 -0.3532      0.0000  0.0000  0.0000  0.0000  0.0000  0.0000  0.0000  0.0000  0.0000  0.0000
  o =  0.9243  v =  0.0000  0.0000  0.0000  0.0000  0.0000 -0.1627 -0.6613 -0.2422 -0.6909  0.0116      0.0000  0.0000  0.0000  0.0000  0.0000  0.0000  0.0000  0.0000  0.0000  0.0000
  o =  0.9524  v =  0.0000  0.0000  0.0000  0.0000  0.0000 -0.6716  0.2027 -0.6829  0.2036  0.0055      0.0000  0.0000  0.0000  0.0000  0.0000  0.0000  0.0000  0.0000  0.0000  0.0000
atom =   2  type =  1  l = 2
 
 onsite density matrix
 
spin component  1
 
  0.9252 -0.0042 -0.0090 -0.0043  0.0001
 -0.0042  0.9158 -0.0027 -0.0270  0.0049
 -0.0090 -0.0027  0.9259 -0.0026 -0.0005
 -0.0043 -0.0270 -0.0026  0.9164 -0.0051
  0.0001  0.0049 -0.0005 -0.0051  0.8894
 
spin component  2
 
  0.1292  0.0134 -0.0496  0.0137  0.0001
  0.0134  0.0873  0.0095  0.0102 -0.0143
 -0.0496  0.0095  0.0676  0.0093  0.0013
  0.0137  0.0102  0.0093  0.0857  0.0146
  0.0001 -0.0143  0.0013  0.0146  0.0933
 
 occupancies and eigenvectors
 
  o =  0.0330  v =  0.0000  0.0000  0.0000  0.0000  0.0000 -0.4837  0.2254 -0.8160  0.2213  0.0181      0.0000  0.0000  0.0000  0.0000  0.0000  0.0000  0.0000  0.0000  0.0000  0.0000
  o =  0.0627  v =  0.0000  0.0000  0.0000  0.0000  0.0000  0.0091  0.5685 -0.0008 -0.6075  0.5547      0.0000  0.0000  0.0000  0.0000  0.0000  0.0000  0.0000  0.0000  0.0000  0.0000
  o =  0.1019  v =  0.0000  0.0000  0.0000  0.0000  0.0000 -0.0013 -0.6837 -0.3601 -0.6347  0.0052      0.0000  0.0000  0.0000  0.0000  0.0000  0.0000  0.0000  0.0000  0.0000  0.0000
  o =  0.1069  v =  0.0000  0.0000  0.0000  0.0000  0.0000  0.0128 -0.3786  0.0163  0.4054  0.8318      0.0000  0.0000  0.0000  0.0000  0.0000  0.0000  0.0000  0.0000  0.0000  0.0000
  o =  0.1586  v =  0.0000  0.0000  0.0000  0.0000  0.0000 -0.8751 -0.1232  0.4519 -0.1218  0.0079      0.0000  0.0000  0.0000  0.0000  0.0000  0.0000  0.0000  0.0000  0.0000  0.0000
  o =  0.8874  v = -0.1857 -0.6754 -0.1374 -0.6900 -0.1200  0.0000  0.0000  0.0000  0.0000  0.0000      0.0000  0.0000  0.0000  0.0000  0.0000  0.0000  0.0000  0.0000  0.0000  0.0000
  o =  0.8885  v = -0.0219 -0.1739 -0.0049  0.0060  0.9845  0.0000  0.0000  0.0000  0.0000  0.0000      0.0000  0.0000  0.0000  0.0000  0.0000  0.0000  0.0000  0.0000  0.0000  0.0000
  o =  0.9181  v = -0.6869  0.1629 -0.6896  0.1611  0.0090  0.0000  0.0000  0.0000  0.0000  0.0000      0.0000  0.0000  0.0000  0.0000  0.0000  0.0000  0.0000  0.0000  0.0000  0.0000
  o =  0.9346  v =  0.7021 -0.0390 -0.7109 -0.0101  0.0052  0.0000  0.0000  0.0000  0.0000  0.0000      0.0000  0.0000  0.0000  0.0000  0.0000  0.0000  0.0000  0.0000  0.0000  0.0000
  o =  0.9441  v =  0.0145  0.6968 -0.0129 -0.7056  0.1276  0.0000  0.0000  0.0000  0.0000  0.0000      0.0000  0.0000  0.0000  0.0000  0.0000  0.0000  0.0000  0.0000  0.0000  0.0000
     EDDAV:  cpu time    4.4696: real time    4.4891
 BZINTS: Fermi energy:  4.288209; 54.000000 electrons
         Band energy:-809.602087;  BLOECHL correction:  0.000000
       DOS:  cpu time    0.0087: real time    0.0087
    CHARGE:  cpu time    0.5568: real time    0.5568
    MIXING:  cpu time    0.0005: real time    0.0005
    --------------------------------------------
      LOOP:  cpu time    7.6078: real time    7.6273

 eigenvalue-minimisations  :  8724
 total energy-change (2. order) :-0.4760784E+02  (-0.1097080E+03)
 number of electron      54.0000009 magnetization       0.0000000
 augmentation part       20.6315586 magnetization      -0.0015910

 Broyden mixing:
  rms(total) = 0.19921E+01    rms(broyden)= 0.19921E+01
  rms(prec ) = 0.21429E+01
  weight for this iteration     100.00

 Free energy of the ion-electron system (eV)
  ---------------------------------------------------
  alpha Z        PSCENC =       197.64458944
  Ewald energy   TEWEN  =     -4190.19045671
  -Hartree energ DENC   =     -2134.16445365
  -exchange      EXHF   =         0.00000000
  -V(xc)+E(xc)   XCENC  =       166.38565103
  PAW double counting   =      7649.93490878    -7616.62674095
  entropy T*S    EENTRO =         0.00000000
  eigenvalues    EBANDS =      -809.60208744
  atomic energy  EATOM  =      6689.01075358
  Solvation  Ediel_sol  =         0.00000000
  ---------------------------------------------------
  free energy    TOTEN  =       -47.60783592 eV

  energy without entropy =      -47.60783592  energy(sigma->0) =      -47.60783592


--------------------------------------------------------------------------------------------------------




--------------------------------------- Iteration      1(   2)  ---------------------------------------


    POTLOK:  cpu time    0.0981: real time    0.0981
    SETDIJ:  cpu time    2.5648: real time    2.5648
atom =   1  type =  1  l = 2
 
 onsite density matrix
 
spin component  1
 
  0.0245 -0.0019  0.0306 -0.0019 -0.0001
 -0.0019  0.0153 -0.0012  0.0206  0.0017
  0.0306 -0.0012  0.0155 -0.0013 -0.0002
 -0.0019  0.0206 -0.0013  0.0154 -0.0023
 -0.0001  0.0017 -0.0002 -0.0023 -0.0222
 
spin component  2
 
  1.0107  0.0062 -0.0014  0.0065  0.0001
  0.0062  0.9890  0.0052  0.0234 -0.0063
 -0.0014  0.0052  0.9779  0.0052  0.0006
  0.0065  0.0234  0.0052  0.9884  0.0071
  0.0001 -0.0063  0.0006  0.0071  0.9987
 
 occupancies and eigenvectors
 
  o = -0.0227  v =  0.0029  0.1084 -0.0077 -0.1180 -0.9871  0.0000  0.0000  0.0000  0.0000  0.0000      0.0000  0.0000  0.0000  0.0000  0.0000  0.0000  0.0000  0.0000  0.0000  0.0000
  o = -0.0109  v =  0.6535  0.0051 -0.7568  0.0088  0.0073  0.0000  0.0000  0.0000  0.0000  0.0000      0.0000  0.0000  0.0000  0.0000  0.0000  0.0000  0.0000  0.0000  0.0000  0.0000
  o = -0.0048  v =  0.0003  0.6995 -0.0017 -0.6965  0.1601  0.0000  0.0000  0.0000  0.0000  0.0000      0.0000  0.0000  0.0000  0.0000  0.0000  0.0000  0.0000  0.0000  0.0000  0.0000
  o =  0.0354  v =  0.1440  0.6925  0.1370  0.6935 -0.0075  0.0000  0.0000  0.0000  0.0000  0.0000      0.0000  0.0000  0.0000  0.0000  0.0000  0.0000  0.0000  0.0000  0.0000  0.0000
  o =  0.0516  v = -0.7431  0.1393 -0.6391  0.1414  0.0012  0.0000  0.0000  0.0000  0.0000  0.0000      0.0000  0.0000  0.0000  0.0000  0.0000  0.0000  0.0000  0.0000  0.0000  0.0000
  o =  0.9629  v =  0.0000  0.0000  0.0000  0.0000  0.0000 -0.0055 -0.6771  0.0018  0.6903 -0.2549      0.0000  0.0000  0.0000  0.0000  0.0000  0.0000  0.0000  0.0000  0.0000  0.0000
  o =  0.9761  v =  0.0000  0.0000  0.0000  0.0000  0.0000 -0.0979  0.1545 -0.9698  0.1603  0.0189      0.0000  0.0000  0.0000  0.0000  0.0000  0.0000  0.0000  0.0000  0.0000  0.0000
  o =  1.0011  v =  0.0000  0.0000  0.0000  0.0000  0.0000  0.0796 -0.2523 -0.0119  0.1070  0.9583      0.0000  0.0000  0.0000  0.0000  0.0000  0.0000  0.0000  0.0000  0.0000  0.0000
  o =  1.0038  v =  0.0000  0.0000  0.0000  0.0000  0.0000  0.7498 -0.4167 -0.2186 -0.4482 -0.1247      0.0000  0.0000  0.0000  0.0000  0.0000  0.0000  0.0000  0.0000  0.0000  0.0000
  o =  1.0209  v =  0.0000  0.0000  0.0000  0.0000  0.0000 -0.6495 -0.5294 -0.1077 -0.5343 -0.0271      0.0000  0.0000  0.0000  0.0000  0.0000  0.0000  0.0000  0.0000  0.0000  0.0000
atom =   2  type =  1  l = 2
 
 onsite density matrix
 
spin component  1
 
  1.0084  0.0066 -0.0273  0.0067 -0.0001
  0.0066  0.9913  0.0073  0.0031 -0.0083
 -0.0273  0.0073  0.9792  0.0073  0.0008
  0.0067  0.0031  0.0073  0.9900  0.0088
 -0.0001 -0.0083  0.0008  0.0088  0.9945
 
spin component  2
 
  0.0296 -0.0022 -0.0244 -0.0021  0.0002
 -0.0022  0.0122 -0.0014 -0.0277  0.0027
 -0.0244 -0.0014  0.0153 -0.0015 -0.0003
 -0.0021 -0.0277 -0.0015  0.0130 -0.0032
  0.0002  0.0027 -0.0003 -0.0032 -0.0194
 
 occupancies and eigenvectors
 
  o = -0.0197  v =  0.0000  0.0000  0.0000  0.0000  0.0000  0.0150  0.0152  0.0258  0.1134  0.9930      0.0000  0.0000  0.0000  0.0000  0.0000  0.0000  0.0000  0.0000  0.0000  0.0000
  o = -0.0160  v =  0.0000  0.0000  0.0000  0.0000  0.0000  0.1663  0.6899  0.1920  0.6712 -0.0947      0.0000  0.0000  0.0000  0.0000  0.0000  0.0000  0.0000  0.0000  0.0000  0.0000
  o = -0.0020  v =  0.0000  0.0000  0.0000  0.0000  0.0000  0.5753 -0.1819  0.7772 -0.1786 -0.0057      0.0000  0.0000  0.0000  0.0000  0.0000  0.0000  0.0000  0.0000  0.0000  0.0000
  o =  0.0406  v =  0.0000  0.0000  0.0000  0.0000  0.0000  0.0086  0.7002 -0.0052 -0.7104  0.0704      0.0000  0.0000  0.0000  0.0000  0.0000  0.0000  0.0000  0.0000  0.0000  0.0000
  o =  0.0479  v =  0.0000  0.0000  0.0000  0.0000  0.0000 -0.8007  0.0204  0.5987  0.0055 -0.0044      0.0000  0.0000  0.0000  0.0000  0.0000  0.0000  0.0000  0.0000  0.0000  0.0000
  o =  0.9576  v =  0.4933 -0.2482  0.7938 -0.2547 -0.0110  0.0000  0.0000  0.0000  0.0000  0.0000      0.0000  0.0000  0.0000  0.0000  0.0000  0.0000  0.0000  0.0000  0.0000  0.0000
  o =  0.9784  v =  0.0019  0.5365 -0.0152 -0.5923  0.6009  0.0000  0.0000  0.0000  0.0000  0.0000      0.0000  0.0000  0.0000  0.0000  0.0000  0.0000  0.0000  0.0000  0.0000  0.0000
  o =  0.9986  v = -0.0970 -0.6901 -0.3555 -0.6228 -0.0063  0.0000  0.0000  0.0000  0.0000  0.0000      0.0000  0.0000  0.0000  0.0000  0.0000  0.0000  0.0000  0.0000  0.0000  0.0000
  o =  1.0037  v = -0.0204  0.4110 -0.0105 -0.4382 -0.7991  0.0000  0.0000  0.0000  0.0000  0.0000      0.0000  0.0000  0.0000  0.0000  0.0000  0.0000  0.0000  0.0000  0.0000  0.0000
  o =  1.0251  v =  0.8642  0.0727 -0.4932  0.0665 -0.0146  0.0000  0.0000  0.0000  0.0000  0.0000      0.0000  0.0000  0.0000  0.0000  0.0000  0.0000  0.0000  0.0000  0.0000  0.0000
     EDDAV:  cpu time    4.0240: real time    4.0240
 BZINTS: Fermi energy:  2.023897; 54.000000 electrons
         Band energy:-797.147943;  BLOECHL correction:  0.000000
       DOS:  cpu time    0.0055: real time    0.0055
    CHARGE:  cpu time    0.5599: real time    0.5599
    MIXING:  cpu time    0.0005: real time    0.0005
    --------------------------------------------
      LOOP:  cpu time    7.2527: real time    7.2528

 eigenvalue-minimisations  :  7524
 total energy-change (2. order) :-0.1932031E+02  (-0.1996398E+02)
 number of electron      54.0000009 magnetization       0.0000000
 augmentation part       20.0162925 magnetization       0.0009525

 Broyden mixing:
  rms(total) = 0.19461E+01    rms(broyden)= 0.19461E+01
  rms(prec ) = 0.19677E+01
  weight for this iteration     100.00

 eigenvalues of (default mixing * dielectric matrix)
  average eigenvalue GAMMA=   0.3600
  0.3600

 Free energy of the ion-electron system (eV)
  ---------------------------------------------------
  alpha Z        PSCENC =       197.64458944
  Ewald energy   TEWEN  =     -4190.19045671
  -Hartree energ DENC   =     -2164.52966845
  -exchange      EXHF   =         0.00000000
  -V(xc)+E(xc)   XCENC  =       161.84864434
  PAW double counting   =      7493.06749812    -7456.63155878
  entropy T*S    EENTRO =         0.00000000
  eigenvalues    EBANDS =      -797.14794313
  atomic energy  EATOM  =      6689.01075358
  Solvation  Ediel_sol  =         0.00000000
  ---------------------------------------------------
  free energy    TOTEN  =       -66.92814160 eV

  energy without entropy =      -66.92814160  energy(sigma->0) =      -66.92814160


--------------------------------------------------------------------------------------------------------




--------------------------------------- Iteration      1(   3)  ---------------------------------------


    POTLOK:  cpu time    0.0339: real time    0.0339
    SETDIJ:  cpu time    2.5475: real time    2.5475
atom =   1  type =  1  l = 2
 
 onsite density matrix
 
spin component  1
 
  0.0514  0.0016  0.0176  0.0016  0.0000
  0.0016  0.0363  0.0015  0.0224 -0.0019
  0.0176  0.0015  0.0318  0.0015  0.0002
  0.0016  0.0224  0.0015  0.0361  0.0020
  0.0000 -0.0019  0.0002  0.0020  0.0192
 
spin component  2
 
  0.9780  0.0017  0.0153  0.0018 -0.0000
  0.0017  0.9667  0.0014  0.0198 -0.0014
  0.0153  0.0014  0.9602  0.0013  0.0001
  0.0018  0.0198  0.0013  0.9665  0.0014
 -0.0000 -0.0014  0.0001  0.0014  0.9529
 
 occupancies and eigenvectors
 
  o =  0.0126  v = -0.0048 -0.6501  0.0079  0.6536 -0.3875  0.0000  0.0000  0.0000  0.0000  0.0000      0.0000  0.0000  0.0000  0.0000  0.0000  0.0000  0.0000  0.0000  0.0000  0.0000
  o =  0.0203  v =  0.0581 -0.2720 -0.1045  0.2735  0.9148  0.0000  0.0000  0.0000  0.0000  0.0000      0.0000  0.0000  0.0000  0.0000  0.0000  0.0000  0.0000  0.0000  0.0000  0.0000
  o =  0.0214  v =  0.5021  0.0403 -0.8562 -0.0133 -0.1137  0.0000  0.0000  0.0000  0.0000  0.0000      0.0000  0.0000  0.0000  0.0000  0.0000  0.0000  0.0000  0.0000  0.0000  0.0000
  o =  0.0568  v = -0.4534  0.6072 -0.2467  0.6040  0.0006  0.0000  0.0000  0.0000  0.0000  0.0000      0.0000  0.0000  0.0000  0.0000  0.0000  0.0000  0.0000  0.0000  0.0000  0.0000
  o =  0.0636  v = -0.7341 -0.3647 -0.4416 -0.3648 -0.0032  0.0000  0.0000  0.0000  0.0000  0.0000      0.0000  0.0000  0.0000  0.0000  0.0000  0.0000  0.0000  0.0000  0.0000  0.0000
  o =  0.9462  v =  0.0000  0.0000  0.0000  0.0000  0.0000  0.0068  0.6770 -0.0095 -0.6803  0.2805      0.0000  0.0000  0.0000  0.0000  0.0000  0.0000  0.0000  0.0000  0.0000  0.0000
  o =  0.9514  v =  0.0000  0.0000  0.0000  0.0000  0.0000 -0.4982  0.0073  0.8660 -0.0244 -0.0352      0.0000  0.0000  0.0000  0.0000  0.0000  0.0000  0.0000  0.0000  0.0000  0.0000
  o =  0.9535  v =  0.0000  0.0000  0.0000  0.0000  0.0000 -0.0218 -0.1982  0.0337  0.1976  0.9592      0.0000  0.0000  0.0000  0.0000  0.0000  0.0000  0.0000  0.0000  0.0000  0.0000
  o =  0.9835  v =  0.0000  0.0000  0.0000  0.0000  0.0000  0.5923 -0.5216  0.3306 -0.5175  0.0006      0.0000  0.0000  0.0000  0.0000  0.0000  0.0000  0.0000  0.0000  0.0000  0.0000
  o =  0.9897  v =  0.0000  0.0000  0.0000  0.0000  0.0000 -0.6328 -0.4798 -0.3736 -0.4793 -0.0017      0.0000  0.0000  0.0000  0.0000  0.0000  0.0000  0.0000  0.0000  0.0000  0.0000
atom =   2  type =  1  l = 2
 
 onsite density matrix
 
spin component  1
 
  0.9787  0.0013 -0.0229  0.0013  0.0000
  0.0013  0.9660  0.0020 -0.0132 -0.0020
 -0.0229  0.0020  0.9612  0.0020  0.0001
  0.0013 -0.0132  0.0020  0.9659  0.0020
  0.0000 -0.0020  0.0001  0.0020  0.9523
 
spin component  2
 
  0.0524  0.0019 -0.0266  0.0020  0.0000
  0.0019  0.0362  0.0023 -0.0148 -0.0022
 -0.0266  0.0023  0.0319  0.0022  0.0002
  0.0020 -0.0148  0.0022  0.0359  0.0022
  0.0000 -0.0022  0.0002  0.0022  0.0187
 
 occupancies and eigenvectors
 
  o =  0.0118  v =  0.0000  0.0000  0.0000  0.0000  0.0000 -0.5194  0.2872 -0.7519  0.2862  0.0229      0.0000  0.0000  0.0000  0.0000  0.0000  0.0000  0.0000  0.0000  0.0000  0.0000
  o =  0.0184  v =  0.0000  0.0000  0.0000  0.0000  0.0000  0.0087  0.0478  0.0097 -0.0862  0.9950      0.0000  0.0000  0.0000  0.0000  0.0000  0.0000  0.0000  0.0000  0.0000  0.0000
  o =  0.0232  v =  0.0000  0.0000  0.0000  0.0000  0.0000 -0.2219 -0.6445 -0.3401 -0.6476 -0.0199      0.0000  0.0000  0.0000  0.0000  0.0000  0.0000  0.0000  0.0000  0.0000  0.0000
  o =  0.0511  v =  0.0000  0.0000  0.0000  0.0000  0.0000  0.0030  0.7070 -0.0017 -0.7008 -0.0947      0.0000  0.0000  0.0000  0.0000  0.0000  0.0000  0.0000  0.0000  0.0000  0.0000
  o =  0.0706  v =  0.0000  0.0000  0.0000  0.0000  0.0000 -0.8252 -0.0044  0.5647 -0.0095  0.0011      0.0000  0.0000  0.0000  0.0000  0.0000  0.0000  0.0000  0.0000  0.0000  0.0000
  o =  0.9441  v = -0.5269  0.2581 -0.7673  0.2585  0.0138  0.0000  0.0000  0.0000  0.0000  0.0000      0.0000  0.0000  0.0000  0.0000  0.0000  0.0000  0.0000  0.0000  0.0000  0.0000
  o =  0.9520  v =  0.0037  0.0544  0.0033 -0.0899  0.9945  0.0000  0.0000  0.0000  0.0000  0.0000      0.0000  0.0000  0.0000  0.0000  0.0000  0.0000  0.0000  0.0000  0.0000  0.0000
  o =  0.9541  v =  0.2095  0.6577  0.2996  0.6583  0.0218  0.0000  0.0000  0.0000  0.0000  0.0000      0.0000  0.0000  0.0000  0.0000  0.0000  0.0000  0.0000  0.0000  0.0000  0.0000
  o =  0.9794  v =  0.0027  0.7055 -0.0026 -0.7013 -0.1020  0.0000  0.0000  0.0000  0.0000  0.0000      0.0000  0.0000  0.0000  0.0000  0.0000  0.0000  0.0000  0.0000  0.0000  0.0000
  o =  0.9945  v = -0.8237  0.0047  0.5670 -0.0007  0.0009  0.0000  0.0000  0.0000  0.0000  0.0000      0.0000  0.0000  0.0000  0.0000  0.0000  0.0000  0.0000  0.0000  0.0000  0.0000
     EDDAV:  cpu time    4.2862: real time    4.2863
 BZINTS: Fermi energy:  1.786271; 54.000000 electrons
         Band energy:-802.121108;  BLOECHL correction:  0.000000
       DOS:  cpu time    0.0046: real time    0.0046
    CHARGE:  cpu time    0.5631: real time    0.5631
    MIXING:  cpu time    0.0006: real time    0.0006
    --------------------------------------------
      LOOP:  cpu time    7.4359: real time    7.4360

 eigenvalue-minimisations  :  8292
 total energy-change (2. order) :-0.4697290E+00  (-0.3064003E+00)
 number of electron      54.0000009 magnetization      -0.0000000
 augmentation part       19.9593399 magnetization       0.0022024

 Broyden mixing:
  rms(total) = 0.14852E+01    rms(broyden)= 0.14852E+01
  rms(prec ) = 0.15025E+01
  weight for this iteration     100.00

 eigenvalues of (default mixing * dielectric matrix)
  average eigenvalue GAMMA=   1.2707
  1.9523  0.5891

 Free energy of the ion-electron system (eV)
  ---------------------------------------------------
  alpha Z        PSCENC =       197.64458944
  Ewald energy   TEWEN  =     -4190.19045671
  -Hartree energ DENC   =     -2165.74570871
  -exchange      EXHF   =         0.00000000
  -V(xc)+E(xc)   XCENC  =       166.71248908
  PAW double counting   =      7254.60356341    -7217.31199283
  entropy T*S    EENTRO =         0.00000000
  eigenvalues    EBANDS =      -802.12110781
  atomic energy  EATOM  =      6689.01075358
  Solvation  Ediel_sol  =         0.00000000
  ---------------------------------------------------
  free energy    TOTEN  =       -67.39787056 eV

  energy without entropy =      -67.39787056  energy(sigma->0) =      -67.39787056


--------------------------------------------------------------------------------------------------------




--------------------------------------- Iteration      1(   4)  ---------------------------------------


    POTLOK:  cpu time    0.0335: real time    0.0335
    SETDIJ:  cpu time    2.5486: real time    2.5486
atom =   1  type =  1  l = 2
 
 onsite density matrix
 
spin component  1
 
  0.0387 -0.0006  0.0308 -0.0006 -0.0000
 -0.0006  0.0314 -0.0007  0.0221  0.0013
  0.0308 -0.0007  0.0271 -0.0008 -0.0002
 -0.0006  0.0221 -0.0008  0.0315 -0.0016
 -0.0000  0.0013 -0.0002 -0.0016 -0.0003
 
spin component  2
 
  0.9798  0.0015  0.0095  0.0016  0.0000
  0.0015  0.9696  0.0016  0.0164 -0.0023
  0.0095  0.0016  0.9633  0.0016  0.0003
  0.0016  0.0164  0.0016  0.9694  0.0027
  0.0000 -0.0023  0.0003  0.0027  0.9646
 
 occupancies and eigenvectors
 
  o = -0.0008  v =  0.0270  0.1401 -0.0359 -0.1455 -0.9784  0.0000  0.0000  0.0000  0.0000  0.0000      0.0000  0.0000  0.0000  0.0000  0.0000  0.0000  0.0000  0.0000  0.0000  0.0000
  o =  0.0016  v =  0.6380 -0.0114 -0.7687  0.0039  0.0436  0.0000  0.0000  0.0000  0.0000  0.0000      0.0000  0.0000  0.0000  0.0000  0.0000  0.0000  0.0000  0.0000  0.0000  0.0000
  o =  0.0098  v =  0.0012  0.6936 -0.0013 -0.6914  0.2022  0.0000  0.0000  0.0000  0.0000  0.0000      0.0000  0.0000  0.0000  0.0000  0.0000  0.0000  0.0000  0.0000  0.0000  0.0000
  o =  0.0534  v =  0.0979  0.7012  0.0742  0.7023 -0.0041  0.0000  0.0000  0.0000  0.0000  0.0000      0.0000  0.0000  0.0000  0.0000  0.0000  0.0000  0.0000  0.0000  0.0000  0.0000
  o =  0.0644  v = -0.7633  0.0864 -0.6342  0.0871  0.0017  0.0000  0.0000  0.0000  0.0000  0.0000      0.0000  0.0000  0.0000  0.0000  0.0000  0.0000  0.0000  0.0000  0.0000  0.0000
  o =  0.9521  v =  0.0000  0.0000  0.0000  0.0000  0.0000 -0.0042 -0.6779  0.0071  0.6839 -0.2694      0.0000  0.0000  0.0000  0.0000  0.0000  0.0000  0.0000  0.0000  0.0000  0.0000
  o =  0.9589  v =  0.0000  0.0000  0.0000  0.0000  0.0000  0.4085  0.0193 -0.9112  0.0416  0.0266      0.0000  0.0000  0.0000  0.0000  0.0000  0.0000  0.0000  0.0000  0.0000  0.0000
  o =  0.9656  v =  0.0000  0.0000  0.0000  0.0000  0.0000 -0.0180 -0.1984  0.0242  0.1822  0.9626      0.0000  0.0000  0.0000  0.0000  0.0000  0.0000  0.0000  0.0000  0.0000  0.0000
  o =  0.9820  v =  0.0000  0.0000  0.0000  0.0000  0.0000 -0.7459  0.4204 -0.3065  0.4160  0.0016      0.0000  0.0000  0.0000  0.0000  0.0000  0.0000  0.0000  0.0000  0.0000  0.0000
  o =  0.9881  v =  0.0000  0.0000  0.0000  0.0000  0.0000 -0.5258 -0.5692 -0.2741 -0.5695 -0.0125      0.0000  0.0000  0.0000  0.0000  0.0000  0.0000  0.0000  0.0000  0.0000  0.0000
atom =   2  type =  1  l = 2
 
 onsite density matrix
 
spin component  1
 
  0.9788  0.0026 -0.0188  0.0026  0.0000
  0.0026  0.9713  0.0023 -0.0080 -0.0025
 -0.0188  0.0023  0.9627  0.0023  0.0003
  0.0026 -0.0080  0.0023  0.9708  0.0027
  0.0000 -0.0025  0.0003  0.0027  0.9636
 
spin component  2
 
  0.0401 -0.0016 -0.0265 -0.0016  0.0000
 -0.0016  0.0294 -0.0010 -0.0261  0.0013
 -0.0265 -0.0010  0.0278 -0.0010 -0.0002
 -0.0016 -0.0261 -0.0010  0.0298 -0.0015
  0.0000  0.0013 -0.0002 -0.0015  0.0005
 
 occupancies and eigenvectors
 
  o =  0.0004  v =  0.0000  0.0000  0.0000  0.0000  0.0000  0.0337  0.0361  0.0439  0.0846  0.9942      0.0000  0.0000  0.0000  0.0000  0.0000  0.0000  0.0000  0.0000  0.0000  0.0000
  o =  0.0021  v =  0.0000  0.0000  0.0000  0.0000  0.0000  0.3058  0.6230  0.3629  0.6135 -0.1012      0.0000  0.0000  0.0000  0.0000  0.0000  0.0000  0.0000  0.0000  0.0000  0.0000
  o =  0.0081  v =  0.0000  0.0000  0.0000  0.0000  0.0000 -0.5400  0.3385 -0.6931  0.3367  0.0080      0.0000  0.0000  0.0000  0.0000  0.0000  0.0000  0.0000  0.0000  0.0000  0.0000
  o =  0.0557  v =  0.0000  0.0000  0.0000  0.0000  0.0000  0.0000  0.7041 -0.0003 -0.7092  0.0348      0.0000  0.0000  0.0000  0.0000  0.0000  0.0000  0.0000  0.0000  0.0000  0.0000
  o =  0.0612  v =  0.0000  0.0000  0.0000  0.0000  0.0000  0.7834 -0.0115 -0.6213 -0.0110  0.0023      0.0000  0.0000  0.0000  0.0000  0.0000  0.0000  0.0000  0.0000  0.0000  0.0000
  o =  0.9487  v = -0.5302  0.2237 -0.7863  0.2246  0.0123  0.0000  0.0000  0.0000  0.0000  0.0000      0.0000  0.0000  0.0000  0.0000  0.0000  0.0000  0.0000  0.0000  0.0000  0.0000
  o =  0.9627  v =  0.0091 -0.0589  0.0352  0.2558 -0.9642  0.0000  0.0000  0.0000  0.0000  0.0000      0.0000  0.0000  0.0000  0.0000  0.0000  0.0000  0.0000  0.0000  0.0000  0.0000
  o =  0.9646  v = -0.1366 -0.6767 -0.2879 -0.6482 -0.1424  0.0000  0.0000  0.0000  0.0000  0.0000      0.0000  0.0000  0.0000  0.0000  0.0000  0.0000  0.0000  0.0000  0.0000  0.0000
  o =  0.9799  v = -0.0009  0.6982  0.0014 -0.6803 -0.2231  0.0000  0.0000  0.0000  0.0000  0.0000      0.0000  0.0000  0.0000  0.0000  0.0000  0.0000  0.0000  0.0000  0.0000  0.0000
  o =  0.9913  v = -0.8368 -0.0327  0.5455 -0.0330  0.0053  0.0000  0.0000  0.0000  0.0000  0.0000      0.0000  0.0000  0.0000  0.0000  0.0000  0.0000  0.0000  0.0000  0.0000  0.0000
     EDDAV:  cpu time    4.1592: real time    4.1592
 BZINTS: Fermi energy:  1.396274; 54.000000 electrons
         Band energy:-808.109643;  BLOECHL correction:  0.000000
       DOS:  cpu time    0.0055: real time    0.0055
    CHARGE:  cpu time    0.5564: real time    0.5564
    MIXING:  cpu time    0.0006: real time    0.0006
    --------------------------------------------
      LOOP:  cpu time    7.3038: real time    7.3039

 eigenvalue-minimisations  :  7992
 total energy-change (2. order) : 0.6293996E-01  (-0.8961379E-01)
 number of electron      54.0000009 magnetization       0.0000000
 augmentation part       20.0183174 magnetization       0.0005791

 Broyden mixing:
  rms(total) = 0.36278E+00    rms(broyden)= 0.36277E+00
  rms(prec ) = 0.40694E+00
  weight for this iteration     100.00

 eigenvalues of (default mixing * dielectric matrix)
  average eigenvalue GAMMA=   1.1769
  1.8076  0.8616  0.8616

 Free energy of the ion-electron system (eV)
  ---------------------------------------------------
  alpha Z        PSCENC =       197.64458944
  Ewald energy   TEWEN  =     -4190.19045671
  -Hartree energ DENC   =     -2165.44664265
  -exchange      EXHF   =         0.00000000
  -V(xc)+E(xc)   XCENC  =       167.14063763
  PAW double counting   =      6730.41239871    -6687.79656727
  entropy T*S    EENTRO =         0.00000000
  eigenvalues    EBANDS =      -808.10964331
  atomic energy  EATOM  =      6689.01075358
  Solvation  Ediel_sol  =         0.00000000
  ---------------------------------------------------
  free energy    TOTEN  =       -67.33493060 eV

  energy without entropy =      -67.33493060  energy(sigma->0) =      -67.33493060


--------------------------------------------------------------------------------------------------------




--------------------------------------- Iteration      1(   5)  ---------------------------------------


    POTLOK:  cpu time    0.0336: real time    0.0336
    SETDIJ:  cpu time    2.5276: real time    2.5276
atom =   1  type =  1  l = 2
 
 onsite density matrix
 
spin component  1
 
  0.0610  0.0017  0.0185  0.0018  0.0000
  0.0017  0.0467  0.0016  0.0235 -0.0023
  0.0185  0.0016  0.0395  0.0016  0.0003
  0.0018  0.0235  0.0016  0.0465  0.0027
  0.0000 -0.0023  0.0003  0.0027  0.0337
 
spin component  2
 
  0.9568 -0.0016  0.0250 -0.0016 -0.0000
 -0.0016  0.9563 -0.0015  0.0143  0.0022
  0.0250 -0.0015  0.9527 -0.0015 -0.0002
 -0.0016  0.0143 -0.0015  0.9565 -0.0025
 -0.0000  0.0022 -0.0002 -0.0025  0.9300
 
 occupancies and eigenvectors
 
  o =  0.0220  v = -0.0047 -0.6739  0.0073  0.6784 -0.2925  0.0000  0.0000  0.0000  0.0000  0.0000      0.0000  0.0000  0.0000  0.0000  0.0000  0.0000  0.0000  0.0000  0.0000  0.0000
  o =  0.0288  v =  0.4976  0.0004 -0.8667  0.0246  0.0265  0.0000  0.0000  0.0000  0.0000  0.0000      0.0000  0.0000  0.0000  0.0000  0.0000  0.0000  0.0000  0.0000  0.0000  0.0000
  o =  0.0348  v = -0.0187 -0.2116  0.0241  0.2016  0.9558  0.0000  0.0000  0.0000  0.0000  0.0000      0.0000  0.0000  0.0000  0.0000  0.0000  0.0000  0.0000  0.0000  0.0000  0.0000
  o =  0.0675  v = -0.5492  0.5532 -0.2993  0.5503  0.0032  0.0000  0.0000  0.0000  0.0000  0.0000      0.0000  0.0000  0.0000  0.0000  0.0000  0.0000  0.0000  0.0000  0.0000  0.0000
  o =  0.0743  v = -0.6711 -0.4417 -0.3983 -0.4424 -0.0076  0.0000  0.0000  0.0000  0.0000  0.0000      0.0000  0.0000  0.0000  0.0000  0.0000  0.0000  0.0000  0.0000  0.0000  0.0000
  o =  0.9291  v =  0.0000  0.0000  0.0000  0.0000  0.0000  0.1460  0.1664 -0.1648 -0.1751 -0.9451      0.0000  0.0000  0.0000  0.0000  0.0000  0.0000  0.0000  0.0000  0.0000  0.0000
  o =  0.9297  v =  0.0000  0.0000  0.0000  0.0000  0.0000  0.6615 -0.0406 -0.7169  0.0416  0.2124      0.0000  0.0000  0.0000  0.0000  0.0000  0.0000  0.0000  0.0000  0.0000  0.0000
  o =  0.9429  v =  0.0000  0.0000  0.0000  0.0000  0.0000  0.0027  0.6884 -0.0024 -0.6815  0.2483      0.0000  0.0000  0.0000  0.0000  0.0000  0.0000  0.0000  0.0000  0.0000  0.0000
  o =  0.9698  v =  0.0000  0.0000  0.0000  0.0000  0.0000  0.2150  0.6743  0.1972  0.6783 -0.0082      0.0000  0.0000  0.0000  0.0000  0.0000  0.0000  0.0000  0.0000  0.0000  0.0000
  o =  0.9808  v =  0.0000  0.0000  0.0000  0.0000  0.0000 -0.7034  0.2051 -0.6481  0.2075  0.0020      0.0000  0.0000  0.0000  0.0000  0.0000  0.0000  0.0000  0.0000  0.0000  0.0000
atom =   2  type =  1  l = 2
 
 onsite density matrix
 
spin component  1
 
  0.9587 -0.0025 -0.0167 -0.0025  0.0000
 -0.0025  0.9541 -0.0021 -0.0219  0.0025
 -0.0167 -0.0021  0.9531 -0.0021 -0.0003
 -0.0025 -0.0219 -0.0021  0.9546 -0.0027
  0.0000  0.0025 -0.0003 -0.0027  0.9314
 
spin component  2
 
  0.0590  0.0027 -0.0278  0.0027 -0.0000
  0.0027  0.0489  0.0024 -0.0150 -0.0028
 -0.0278  0.0024  0.0391  0.0023  0.0003
  0.0027 -0.0150  0.0023  0.0483  0.0030
 -0.0000 -0.0028  0.0003  0.0030  0.0323
 
 occupancies and eigenvectors
 
  o =  0.0180  v =  0.0000  0.0000  0.0000  0.0000  0.0000 -0.5539  0.2117 -0.7766  0.2125  0.0124      0.0000  0.0000  0.0000  0.0000  0.0000  0.0000  0.0000  0.0000  0.0000  0.0000
  o =  0.0317  v =  0.0000  0.0000  0.0000  0.0000  0.0000 -0.0023  0.0326 -0.0143 -0.1483  0.9883      0.0000  0.0000  0.0000  0.0000  0.0000  0.0000  0.0000  0.0000  0.0000  0.0000
  o =  0.0352  v =  0.0000  0.0000  0.0000  0.0000  0.0000 -0.1518 -0.6736 -0.2599 -0.6700 -0.0824      0.0000  0.0000  0.0000  0.0000  0.0000  0.0000  0.0000  0.0000  0.0000  0.0000
  o =  0.0641  v =  0.0000  0.0000  0.0000  0.0000  0.0000 -0.0010  0.7072  0.0012 -0.6954 -0.1277      0.0000  0.0000  0.0000  0.0000  0.0000  0.0000  0.0000  0.0000  0.0000  0.0000
  o =  0.0786  v =  0.0000  0.0000  0.0000  0.0000  0.0000 -0.8186 -0.0193  0.5737 -0.0182  0.0043      0.0000  0.0000  0.0000  0.0000  0.0000  0.0000  0.0000  0.0000  0.0000  0.0000
  o =  0.9301  v = -0.2993 -0.6069 -0.3294 -0.6235 -0.2116  0.0000  0.0000  0.0000  0.0000  0.0000      0.0000  0.0000  0.0000  0.0000  0.0000  0.0000  0.0000  0.0000  0.0000  0.0000
  o =  0.9312  v = -0.0623 -0.1941 -0.0599 -0.0801  0.9739  0.0000  0.0000  0.0000  0.0000  0.0000      0.0000  0.0000  0.0000  0.0000  0.0000  0.0000  0.0000  0.0000  0.0000  0.0000
  o =  0.9413  v =  0.5671 -0.3216  0.6880 -0.3187 -0.0117  0.0000  0.0000  0.0000  0.0000  0.0000      0.0000  0.0000  0.0000  0.0000  0.0000  0.0000  0.0000  0.0000  0.0000  0.0000
  o =  0.9728  v = -0.7648  0.0193  0.6439  0.0098 -0.0046  0.0000  0.0000  0.0000  0.0000  0.0000      0.0000  0.0000  0.0000  0.0000  0.0000  0.0000  0.0000  0.0000  0.0000  0.0000
  o =  0.9765  v =  0.0048  0.7002 -0.0039 -0.7093  0.0812  0.0000  0.0000  0.0000  0.0000  0.0000      0.0000  0.0000  0.0000  0.0000  0.0000  0.0000  0.0000  0.0000  0.0000  0.0000
     EDDAV:  cpu time    4.1713: real time    4.1714
 BZINTS: Fermi energy:  1.479672; 54.000000 electrons
         Band energy:-806.892962;  BLOECHL correction:  0.000000
       DOS:  cpu time    0.0046: real time    0.0046
    CHARGE:  cpu time    0.5582: real time    0.5582
    MIXING:  cpu time    0.0006: real time    0.0006
    --------------------------------------------
      LOOP:  cpu time    7.2960: real time    7.2961

 eigenvalue-minimisations  :  8028
 total energy-change (2. order) : 0.2503323E-01  (-0.9911399E-02)
 number of electron      54.0000009 magnetization      -0.0000000
 augmentation part       20.0115722 magnetization      -0.0004450

 Broyden mixing:
  rms(total) = 0.16299E+00    rms(broyden)= 0.16299E+00
  rms(prec ) = 0.18495E+00
  weight for this iteration     100.00

 eigenvalues of (default mixing * dielectric matrix)
  average eigenvalue GAMMA=   1.1443
  2.3417  0.8143  0.8143  0.6070

 Free energy of the ion-electron system (eV)
  ---------------------------------------------------
  alpha Z        PSCENC =       197.64458944
  Ewald energy   TEWEN  =     -4190.19045671
  -Hartree energ DENC   =     -2165.80109130
  -exchange      EXHF   =         0.00000000
  -V(xc)+E(xc)   XCENC  =       166.02539192
  PAW double counting   =      6617.22526872    -6574.33139121
  entropy T*S    EENTRO =         0.00000000
  eigenvalues    EBANDS =      -806.89296180
  atomic energy  EATOM  =      6689.01075358
  Solvation  Ediel_sol  =         0.00000000
  ---------------------------------------------------
  free energy    TOTEN  =       -67.30989736 eV

  energy without entropy =      -67.30989736  energy(sigma->0) =      -67.30989736


--------------------------------------------------------------------------------------------------------




--------------------------------------- Iteration      1(   6)  ---------------------------------------


    POTLOK:  cpu time    0.0335: real time    0.0335
    SETDIJ:  cpu time    2.5457: real time    2.5457
atom =   1  type =  1  l = 2
 
 onsite density matrix
 
spin component  1
 
  0.0463  0.0000  0.0263  0.0000 -0.0000
  0.0000  0.0375 -0.0000  0.0219  0.0001
  0.0263 -0.0000  0.0321 -0.0000 -0.0000
  0.0000  0.0219 -0.0000  0.0375 -0.0001
 -0.0000  0.0001 -0.0000 -0.0001  0.0127
 
spin component  2
 
  0.9714  0.0000  0.0180  0.0000  0.0000
  0.0000  0.9661  0.0001  0.0159 -0.0001
  0.0180  0.0001  0.9606  0.0001  0.0000
  0.0000  0.0159  0.0001  0.9661  0.0002
  0.0000 -0.0001  0.0000  0.0002  0.9509
 
 occupancies and eigenvectors
 
  o =  0.0120  v =  0.6074 -0.0002 -0.7943 -0.0017 -0.0124  0.0000  0.0000  0.0000  0.0000  0.0000      0.0000  0.0000  0.0000  0.0000  0.0000  0.0000  0.0000  0.0000  0.0000  0.0000
  o =  0.0127  v = -0.0077  0.0421  0.0098 -0.0424 -0.9981  0.0000  0.0000  0.0000  0.0000  0.0000      0.0000  0.0000  0.0000  0.0000  0.0000  0.0000  0.0000  0.0000  0.0000  0.0000
  o =  0.0156  v = -0.0001  0.7059  0.0003 -0.7058  0.0598  0.0000  0.0000  0.0000  0.0000  0.0000      0.0000  0.0000  0.0000  0.0000  0.0000  0.0000  0.0000  0.0000  0.0000  0.0000
  o =  0.0594  v =  0.0036  0.7071  0.0010  0.7071 -0.0002  0.0000  0.0000  0.0000  0.0000  0.0000      0.0000  0.0000  0.0000  0.0000  0.0000  0.0000  0.0000  0.0000  0.0000  0.0000
  o =  0.0664  v = -0.7944  0.0025 -0.6074  0.0024  0.0002  0.0000  0.0000  0.0000  0.0000  0.0000      0.0000  0.0000  0.0000  0.0000  0.0000  0.0000  0.0000  0.0000  0.0000  0.0000
  o =  0.9472  v =  0.0000  0.0000  0.0000  0.0000  0.0000 -0.5959 -0.0006  0.8031 -0.0011 -0.0033      0.0000  0.0000  0.0000  0.0000  0.0000  0.0000  0.0000  0.0000  0.0000  0.0000
  o =  0.9502  v =  0.0000  0.0000  0.0000  0.0000  0.0000 -0.0004  0.6814  0.0004 -0.6817  0.2666      0.0000  0.0000  0.0000  0.0000  0.0000  0.0000  0.0000  0.0000  0.0000  0.0000
  o =  0.9510  v =  0.0000  0.0000  0.0000  0.0000  0.0000  0.0021  0.1888 -0.0024 -0.1883 -0.9638      0.0000  0.0000  0.0000  0.0000  0.0000  0.0000  0.0000  0.0000  0.0000  0.0000
  o =  0.9820  v =  0.0000  0.0000  0.0000  0.0000  0.0000  0.0260 -0.7068  0.0178 -0.7067 -0.0004      0.0000  0.0000  0.0000  0.0000  0.0000  0.0000  0.0000  0.0000  0.0000  0.0000
  o =  0.9848  v =  0.0000  0.0000  0.0000  0.0000  0.0000 -0.8026 -0.0223 -0.5956 -0.0222 -0.0003      0.0000  0.0000  0.0000  0.0000  0.0000  0.0000  0.0000  0.0000  0.0000  0.0000
atom =   2  type =  1  l = 2
 
 onsite density matrix
 
spin component  1
 
  0.9713  0.0002 -0.0184  0.0002  0.0000
  0.0002  0.9663  0.0001 -0.0155 -0.0001
 -0.0184  0.0001  0.9604  0.0001  0.0000
  0.0002 -0.0155  0.0001  0.9663  0.0001
  0.0000 -0.0001  0.0000  0.0001  0.9509
 
spin component  2
 
  0.0463 -0.0001 -0.0260 -0.0001 -0.0000
 -0.0001  0.0373 -0.0001 -0.0221  0.0000
 -0.0260 -0.0001  0.0322 -0.0001 -0.0000
 -0.0001 -0.0221 -0.0001  0.0373 -0.0000
 -0.0000  0.0000 -0.0000 -0.0000  0.0128
 
 occupancies and eigenvectors
 
  o =  0.0123  v =  0.0000  0.0000  0.0000  0.0000  0.0000  0.6063  0.0461  0.7923  0.0460  0.0222      0.0000  0.0000  0.0000  0.0000  0.0000  0.0000  0.0000  0.0000  0.0000  0.0000
  o =  0.0128  v =  0.0000  0.0000  0.0000  0.0000  0.0000 -0.0136 -0.0002 -0.0177  0.0009  0.9998      0.0000  0.0000  0.0000  0.0000  0.0000  0.0000  0.0000  0.0000  0.0000  0.0000
  o =  0.0152  v =  0.0000  0.0000  0.0000  0.0000  0.0000  0.0378 -0.7058  0.0531 -0.7054  0.0020      0.0000  0.0000  0.0000  0.0000  0.0000  0.0000  0.0000  0.0000  0.0000  0.0000
  o =  0.0594  v =  0.0000  0.0000  0.0000  0.0000  0.0000  0.0001  0.7069 -0.0002 -0.7073  0.0008      0.0000  0.0000  0.0000  0.0000  0.0000  0.0000  0.0000  0.0000  0.0000  0.0000
  o =  0.0662  v =  0.0000  0.0000  0.0000  0.0000  0.0000 -0.7942  0.0017  0.6076  0.0014 -0.0001      0.0000  0.0000  0.0000  0.0000  0.0000  0.0000  0.0000  0.0000  0.0000  0.0000
  o =  0.9467  v = -0.5965  0.0518 -0.7992  0.0518  0.0031  0.0000  0.0000  0.0000  0.0000  0.0000      0.0000  0.0000  0.0000  0.0000  0.0000  0.0000  0.0000  0.0000  0.0000  0.0000
  o =  0.9508  v = -0.0402 -0.6823 -0.0576 -0.6849  0.2460  0.0000  0.0000  0.0000  0.0000  0.0000      0.0000  0.0000  0.0000  0.0000  0.0000  0.0000  0.0000  0.0000  0.0000  0.0000
  o =  0.9509  v =  0.0123  0.1773  0.0171  0.1694  0.9692  0.0000  0.0000  0.0000  0.0000  0.0000      0.0000  0.0000  0.0000  0.0000  0.0000  0.0000  0.0000  0.0000  0.0000  0.0000
  o =  0.9818  v = -0.0010 -0.7074  0.0006  0.7068  0.0059  0.0000  0.0000  0.0000  0.0000  0.0000      0.0000  0.0000  0.0000  0.0000  0.0000  0.0000  0.0000  0.0000  0.0000  0.0000
  o =  0.9850  v = -0.8015 -0.0008  0.5980 -0.0024  0.0002  0.0000  0.0000  0.0000  0.0000  0.0000      0.0000  0.0000  0.0000  0.0000  0.0000  0.0000  0.0000  0.0000  0.0000  0.0000
     EDDAV:  cpu time    4.0357: real time    4.0358
 BZINTS: Fermi energy:  1.487969; 54.000000 electrons
         Band energy:-807.822806;  BLOECHL correction:  0.000000
       DOS:  cpu time    0.0046: real time    0.0046
    CHARGE:  cpu time    0.5573: real time    0.5573
    MIXING:  cpu time    0.0007: real time    0.0007
    --------------------------------------------
      LOOP:  cpu time    7.1774: real time    7.1775

 eigenvalue-minimisations  :  7644
 total energy-change (2. order) : 0.5918710E-02  (-0.2983838E-02)
 number of electron      54.0000009 magnetization      -0.0000000
 augmentation part       20.0219317 magnetization      -0.0002769

 Broyden mixing:
  rms(total) = 0.55459E-01    rms(broyden)= 0.55452E-01
  rms(prec ) = 0.63680E-01
  weight for this iteration     100.00

 eigenvalues of (default mixing * dielectric matrix)
  average eigenvalue GAMMA=   1.1457
  2.4367  0.9324  0.9324  0.8042  0.6226

 Free energy of the ion-electron system (eV)
  ---------------------------------------------------
  alpha Z        PSCENC =       197.64458944
  Ewald energy   TEWEN  =     -4190.19045671
  -Hartree energ DENC   =     -2165.61122802
  -exchange      EXHF   =         0.00000000
  -V(xc)+E(xc)   XCENC  =       166.08680335
  PAW double counting   =      6592.01466861    -6548.43630252
  entropy T*S    EENTRO =         0.00000000
  eigenvalues    EBANDS =      -807.82280637
  atomic energy  EATOM  =      6689.01075358
  Solvation  Ediel_sol  =         0.00000000
  ---------------------------------------------------
  free energy    TOTEN  =       -67.30397865 eV

  energy without entropy =      -67.30397865  energy(sigma->0) =      -67.30397865


--------------------------------------------------------------------------------------------------------




--------------------------------------- Iteration      1(   7)  ---------------------------------------


    POTLOK:  cpu time    0.0335: real time    0.0335
    SETDIJ:  cpu time    2.5507: real time    2.5507
atom =   1  type =  1  l = 2
 
 onsite density matrix
 
spin component  1
 
  0.0465  0.0000  0.0257  0.0000 -0.0000
  0.0000  0.0375 -0.0000  0.0217  0.0000
  0.0257 -0.0000  0.0322 -0.0000 -0.0000
  0.0000  0.0217 -0.0000  0.0375 -0.0000
 -0.0000  0.0000 -0.0000 -0.0000  0.0136
 
spin component  2
 
  0.9715  0.0000  0.0188  0.0000  0.0000
  0.0000  0.9664  0.0000  0.0162 -0.0000
  0.0188  0.0000  0.9606  0.0000  0.0000
  0.0000  0.0162  0.0000  0.9664  0.0000
  0.0000 -0.0000  0.0000  0.0000  0.9502
 
 occupancies and eigenvectors
 
  o =  0.0127  v =  0.6055 -0.0001 -0.7958 -0.0002 -0.0008  0.0000  0.0000  0.0000  0.0000  0.0000      0.0000  0.0000  0.0000  0.0000  0.0000  0.0000  0.0000  0.0000  0.0000  0.0000
  o =  0.0136  v = -0.0005  0.0058  0.0006 -0.0059 -1.0000  0.0000  0.0000  0.0000  0.0000  0.0000      0.0000  0.0000  0.0000  0.0000  0.0000  0.0000  0.0000  0.0000  0.0000  0.0000
  o =  0.0159  v = -0.0000  0.7071  0.0001 -0.7071  0.0083  0.0000  0.0000  0.0000  0.0000  0.0000      0.0000  0.0000  0.0000  0.0000  0.0000  0.0000  0.0000  0.0000  0.0000  0.0000
  o =  0.0592  v =  0.0008  0.7071  0.0003  0.7071 -0.0001  0.0000  0.0000  0.0000  0.0000  0.0000      0.0000  0.0000  0.0000  0.0000  0.0000  0.0000  0.0000  0.0000  0.0000  0.0000
  o =  0.0660  v = -0.7958  0.0006 -0.6055  0.0006  0.0000  0.0000  0.0000  0.0000  0.0000  0.0000      0.0000  0.0000  0.0000  0.0000  0.0000  0.0000  0.0000  0.0000  0.0000  0.0000
  o =  0.9465  v =  0.0000  0.0000  0.0000  0.0000  0.0000 -0.6001  0.0005  0.7999 -0.0001 -0.0001      0.0000  0.0000  0.0000  0.0000  0.0000  0.0000  0.0000  0.0000  0.0000  0.0000
  o =  0.9502  v =  0.0000  0.0000  0.0000  0.0000  0.0000  0.0002  0.6241 -0.0002 -0.6242  0.4700      0.0000  0.0000  0.0000  0.0000  0.0000  0.0000  0.0000  0.0000  0.0000  0.0000
  o =  0.9502  v =  0.0000  0.0000  0.0000  0.0000  0.0000  0.0002  0.3323 -0.0002 -0.3323 -0.8827      0.0000  0.0000  0.0000  0.0000  0.0000  0.0000  0.0000  0.0000  0.0000  0.0000
  o =  0.9826  v =  0.0000  0.0000  0.0000  0.0000  0.0000  0.0086 -0.7071  0.0068 -0.7070 -0.0000      0.0000  0.0000  0.0000  0.0000  0.0000  0.0000  0.0000  0.0000  0.0000  0.0000
  o =  0.9856  v =  0.0000  0.0000  0.0000  0.0000  0.0000 -0.7999 -0.0077 -0.6000 -0.0077 -0.0000      0.0000  0.0000  0.0000  0.0000  0.0000  0.0000  0.0000  0.0000  0.0000  0.0000
atom =   2  type =  1  l = 2
 
 onsite density matrix
 
spin component  1
 
  0.9715  0.0000 -0.0188  0.0000 -0.0000
  0.0000  0.9664  0.0000 -0.0162 -0.0000
 -0.0188  0.0000  0.9606  0.0000  0.0000
  0.0000 -0.0162  0.0000  0.9664  0.0000
 -0.0000 -0.0000  0.0000  0.0000  0.9502
 
spin component  2
 
  0.0465 -0.0000 -0.0257 -0.0000  0.0000
 -0.0000  0.0375  0.0000 -0.0216 -0.0000
 -0.0257  0.0000  0.0323  0.0000 -0.0000
 -0.0000 -0.0216  0.0000  0.0375  0.0000
  0.0000 -0.0000 -0.0000  0.0000  0.0136
 
 occupancies and eigenvectors
 
  o =  0.0127  v =  0.0000  0.0000  0.0000  0.0000  0.0000 -0.6055  0.0008 -0.7959  0.0008 -0.0019      0.0000  0.0000  0.0000  0.0000  0.0000  0.0000  0.0000  0.0000  0.0000  0.0000
  o =  0.0136  v =  0.0000  0.0000  0.0000  0.0000  0.0000 -0.0012  0.0001 -0.0015 -0.0000  1.0000      0.0000  0.0000  0.0000  0.0000  0.0000  0.0000  0.0000  0.0000  0.0000  0.0000
  o =  0.0158  v =  0.0000  0.0000  0.0000  0.0000  0.0000 -0.0010 -0.7071 -0.0006 -0.7071  0.0000      0.0000  0.0000  0.0000  0.0000  0.0000  0.0000  0.0000  0.0000  0.0000  0.0000
  o =  0.0591  v =  0.0000  0.0000  0.0000  0.0000  0.0000  0.0001  0.7071 -0.0001 -0.7071 -0.0001      0.0000  0.0000  0.0000  0.0000  0.0000  0.0000  0.0000  0.0000  0.0000  0.0000
  o =  0.0660  v =  0.0000  0.0000  0.0000  0.0000  0.0000 -0.7959  0.0004  0.6055  0.0002 -0.0000      0.0000  0.0000  0.0000  0.0000  0.0000  0.0000  0.0000  0.0000  0.0000  0.0000
  o =  0.9464  v = -0.6011  0.0060 -0.7991  0.0059  0.0004  0.0000  0.0000  0.0000  0.0000  0.0000      0.0000  0.0000  0.0000  0.0000  0.0000  0.0000  0.0000  0.0000  0.0000  0.0000
  o =  0.9502  v =  0.0002 -0.0082  0.0002 -0.0109  0.9999  0.0000  0.0000  0.0000  0.0000  0.0000      0.0000  0.0000  0.0000  0.0000  0.0000  0.0000  0.0000  0.0000  0.0000  0.0000
[...]
     18      -3.0970      1.00000
     19      -2.6094      1.00000
     20      -2.3965      1.00000
     21      -2.2034      1.00000
     22      -2.1006      1.00000
     23      -0.1488      1.00000
     24      -0.0891      1.00000
     25       0.1771      1.00000
     26       0.7787      1.00000
     27       1.3338      1.00000
     28       7.1719      0.00000
     29       7.1785      0.00000
     30       7.3884      0.00000
     31       8.0399      0.00000
     32       8.5674      0.00000
     33       9.5290      0.00000
     34      11.0478      0.00000
     35      11.5565      0.00000
     36      12.8631      0.00000

 k-point    48 :      -0.1250   -0.1250    0.4167
  band No.  band energies     occupation 
      1     -49.3422      1.00000
      2     -49.3030      1.00000
      3     -49.2845      1.00000
      4     -42.7719      1.00000
      5     -42.7262      1.00000
      6     -42.6995      1.00000
      7     -22.6655      1.00000
      8     -22.5402      1.00000
      9     -22.4976      1.00000
     10     -22.4120      1.00000
     11      -4.5365      1.00000
     12      -4.3020      1.00000
     13      -4.0103      1.00000
     14      -3.8875      1.00000
     15      -3.7578      1.00000
     16      -3.5471      1.00000
     17      -3.1235      1.00000
     18      -2.9057      1.00000
     19      -2.8623      1.00000
     20      -2.4322      1.00000
     21      -2.3090      1.00000
     22      -2.2569      1.00000
     23      -0.1545      1.00000
     24      -0.0385      1.00000
     25       0.2533      1.00000
     26       0.8211      1.00000
     27       1.1680      1.00000
     28       7.1783      0.00000
     29       7.1801      0.00000
     30       7.2873      0.00000
     31       8.1230      0.00000
     32       8.3323      0.00000
     33       8.9632      0.00000
     34      11.2338      0.00000
     35      12.6353      0.00000
     36      12.9865      0.00000


--------------------------------------------------------------------------------------------------------


 soft charge-density along one line, spin component           1
         0         1         2         3         4         5         6         7         8         9
 total charge-density along one line
 
 soft charge-density along one line, spin component           2
         0         1         2         3         4         5         6         7         8         9
 total charge-density along one line
 
 pseudopotential strength for first ion, spin component:           1
-45.240  -0.000  -0.036   7.813   0.000   0.014  -0.000  -0.000
 -0.000 -45.206  -0.000   0.000   7.799   0.000  -0.000   0.000
 -0.036  -0.000 -45.240   0.014   0.000   7.813   0.000  -0.000
  7.813   0.000   0.014   5.599  -0.000   0.006   0.000  -0.000
  0.000   7.799   0.000  -0.000   5.593  -0.000  -0.000   0.000
  0.014   0.000   7.813   0.006  -0.000   5.599   0.000  -0.000
 -0.000  -0.000   0.000   0.000  -0.000   0.000  -2.203   0.000
 -0.000   0.000  -0.000  -0.000   0.000  -0.000   0.000  -2.170
  0.000  -0.000   0.000   0.000   0.000   0.000  -0.023  -0.000
 -0.000  -0.000  -0.000  -0.000   0.000  -0.000   0.000  -0.052
  0.000  -0.000  -0.000  -0.000  -0.000  -0.000  -0.000   0.000
 -0.000  -0.000   0.000   0.000  -0.000   0.000  -2.693   0.000
 -0.000   0.000  -0.000  -0.000   0.000  -0.000   0.000  -2.660
  0.000  -0.000   0.000   0.000   0.000  -0.000  -0.026  -0.000
 -0.000  -0.000  -0.000  -0.000   0.000  -0.000   0.000  -0.053
  0.000  -0.000  -0.000  -0.000  -0.000  -0.000  -0.000   0.000
  0.000  -0.000  -0.000   0.000  -0.000   0.000   0.011   0.000
  0.000  -0.000  -0.000   0.000  -0.000   0.000   0.021   0.000
 pseudopotential strength for first ion, spin component:           2
-51.048   0.000  -0.005   9.827   0.000   0.014   0.000   0.000
  0.000 -51.048   0.000   0.000   9.813   0.000   0.000   0.000
 -0.005   0.000 -51.048   0.014   0.000   9.827  -0.000   0.000
  9.827   0.000   0.014   4.699   0.000   0.001  -0.000   0.000
  0.000   9.813   0.000   0.000   4.699   0.000  -0.000  -0.000
  0.014   0.000   9.827   0.001   0.000   4.699  -0.000  -0.000
  0.000   0.000  -0.000  -0.000  -0.000  -0.000  -8.223  -0.000
  0.000   0.000   0.000   0.000  -0.000  -0.000  -0.000  -8.203
  0.000  -0.000  -0.000  -0.000  -0.000   0.000  -0.042  -0.000
  0.000  -0.000  -0.000  -0.000   0.000  -0.000  -0.000  -0.056
 -0.000  -0.000   0.000  -0.000  -0.000  -0.000   0.000  -0.000
  0.000   0.000  -0.000  -0.000  -0.000  -0.000  -8.718  -0.000
  0.000   0.000   0.000   0.000  -0.000  -0.000  -0.000  -8.698
  0.000  -0.000  -0.000  -0.000  -0.000   0.000  -0.043  -0.000
  0.000  -0.000  -0.000  -0.000   0.000  -0.000  -0.000  -0.057
 -0.000  -0.000   0.000  -0.000  -0.000  -0.000   0.000  -0.000
  0.000   0.000  -0.000  -0.000  -0.000   0.000   0.009   0.000
  0.000   0.000  -0.000  -0.000  -0.000   0.000   0.020   0.000
 total augmentation occupancy for first ion, spin component:           1
  2.001   0.000   0.000  -0.013  -0.000   0.001  -0.000  -0.000   0.000  -0.000  -0.000   0.000   0.000  -0.000   0.000   0.000
  0.000   2.001   0.000  -0.000  -0.013  -0.000  -0.000   0.000   0.000   0.000  -0.000   0.000  -0.000  -0.000  -0.000   0.000
  0.000   0.000   2.001   0.001  -0.000  -0.013  -0.000  -0.000   0.000  -0.000  -0.000   0.000   0.000  -0.000   0.000   0.000
 -0.013  -0.000   0.001   0.079  -0.000  -0.008   0.000  -0.000   0.000  -0.000   0.000  -0.000  -0.000  -0.000   0.000  -0.000
 -0.000  -0.013  -0.000  -0.000   0.089  -0.000   0.000   0.000   0.000  -0.000  -0.000  -0.000  -0.000  -0.000   0.000   0.000
  0.001  -0.000  -0.013  -0.008  -0.000   0.079   0.000  -0.000  -0.000  -0.000   0.000   0.000   0.000   0.000   0.000  -0.000
 -0.000  -0.000  -0.000   0.000   0.000   0.000   7.770   0.000   2.988   0.000   0.000  -5.767  -0.000  -2.804  -0.000  -0.000
 -0.000   0.000  -0.000  -0.000   0.000  -0.000   0.000   6.618   0.000   2.555   0.000  -0.000  -4.665  -0.000  -2.399  -0.000
  0.000   0.000   0.000   0.000   0.000  -0.000   2.988   0.000   6.013   0.000   0.000  -2.806  -0.000  -4.123  -0.000  -0.000
 -0.000   0.000  -0.000  -0.000  -0.000  -0.000   0.000   2.555   0.000   6.618  -0.000  -0.000  -2.399  -0.000  -4.665   0.000
 -0.000  -0.000  -0.000   0.000  -0.000   0.000   0.000   0.000   0.000  -0.000   3.918  -0.000  -0.000  -0.000   0.000  -2.117
  0.000   0.000   0.000  -0.000  -0.000   0.000  -5.767  -0.000  -2.806  -0.000  -0.000   4.937  -0.000   2.662  -0.000   0.000
  0.000  -0.000   0.000  -0.000  -0.000   0.000  -0.000  -4.665  -0.000  -2.399  -0.000  -0.000   3.874   0.000   2.276   0.000
 -0.000  -0.000  -0.000  -0.000  -0.000   0.000  -2.804  -0.000  -4.123  -0.000  -0.000   2.662   0.000   3.384   0.000   0.000
  0.000  -0.000   0.000   0.000   0.000   0.000  -0.000  -2.399  -0.000  -4.665   0.000  -0.000   2.276   0.000   3.874  -0.000
  0.000   0.000   0.000  -0.000   0.000  -0.000  -0.000  -0.000  -0.000   0.000  -2.117   0.000   0.000   0.000  -0.000   1.444
  0.000   0.000  -0.000   0.000  -0.000  -0.000   0.403   0.000  -0.314   0.000   0.000  -0.384  -0.000   0.294  -0.000  -0.000
 -0.000  -0.000   0.000  -0.000   0.000   0.000  -0.085  -0.000   0.072  -0.000  -0.000   0.089   0.000  -0.072   0.000   0.000
 total augmentation occupancy for first ion, spin component:           2
  0.004   0.000  -0.000   0.017  -0.000  -0.001   0.000  -0.000   0.000  -0.000   0.000  -0.000   0.000  -0.000   0.000  -0.000
  0.000   0.004   0.000  -0.000   0.018  -0.000  -0.000   0.000   0.000   0.000  -0.000   0.000  -0.000  -0.000  -0.000   0.000
 -0.000   0.000   0.004  -0.001  -0.000   0.017   0.000  -0.000  -0.000  -0.000   0.000  -0.000   0.000   0.000   0.000  -0.000
  0.017  -0.000  -0.001  -0.011   0.000  -0.000   0.000   0.000   0.000  -0.000  -0.000  -0.000  -0.000  -0.000   0.000   0.000
 -0.000   0.018  -0.000   0.000  -0.011   0.000  -0.000   0.000   0.000  -0.000  -0.000   0.000  -0.000  -0.000   0.000   0.000
 -0.001  -0.000   0.017  -0.000   0.000  -0.011  -0.000  -0.000  -0.000  -0.000  -0.000   0.000   0.000   0.000   0.000   0.000
  0.000  -0.000   0.000   0.000  -0.000  -0.000  -5.265  -0.000  -1.564  -0.000   0.000   2.905   0.000   1.184   0.000  -0.000
 -0.000   0.000  -0.000   0.000   0.000  -0.000  -0.000  -4.691   0.000  -1.340  -0.000   0.000   2.452  -0.000   1.016   0.000
  0.000   0.000  -0.000   0.000   0.000  -0.000  -1.564   0.000  -4.293   0.000   0.000   1.184  -0.000   2.158  -0.000  -0.000
 -0.000   0.000  -0.000  -0.000  -0.000  -0.000  -0.000  -1.340   0.000  -4.691   0.000   0.000   1.016  -0.000   2.452  -0.000
  0.000  -0.000   0.000  -0.000  -0.000  -0.000   0.000  -0.000   0.000   0.000  -3.319  -0.000   0.000  -0.000  -0.000   1.415
 -0.000   0.000  -0.000  -0.000   0.000   0.000   2.905   0.000   1.184   0.000  -0.000  -1.661  -0.000  -0.813  -0.000   0.000
  0.000  -0.000   0.000  -0.000  -0.000   0.000   0.000   2.452  -0.000   1.016   0.000  -0.000  -1.328   0.000  -0.700  -0.000
 -0.000  -0.000   0.000  -0.000  -0.000   0.000   1.184  -0.000   2.158  -0.000  -0.000  -0.813   0.000  -1.133   0.000   0.000
  0.000  -0.000   0.000   0.000   0.000   0.000   0.000   1.016  -0.000   2.452  -0.000  -0.000  -0.700   0.000  -1.328   0.000
 -0.000   0.000  -0.000   0.000   0.000   0.000  -0.000   0.000  -0.000  -0.000   1.415   0.000  -0.000   0.000   0.000  -0.622
 -0.000  -0.000  -0.000   0.000  -0.000  -0.000  -0.090  -0.000   0.066  -0.000   0.000   0.027   0.000  -0.013   0.000  -0.000
  0.000   0.000   0.000  -0.000   0.000   0.000   0.001   0.000  -0.008   0.000  -0.000   0.006  -0.000  -0.001  -0.000   0.000


------------------------ aborting loop because EDIFF is reached ----------------------------------------


 


 total charge     
 
# of ion       s       p       d       tot
------------------------------------------
    1        0.169   6.145   4.963  11.276
    2        0.169   6.145   4.963  11.276
    3        1.730   4.404   0.000   6.134
    4        1.730   4.404   0.000   6.134
    5        1.730   4.404   0.000   6.134
    6        1.730   4.404   0.000   6.134
--------------------------------------------------
tot          7.257  29.904   9.926  47.087
 


 magnetization (x)
 
# of ion       s       p       d       tot
------------------------------------------
    1       -0.023  -0.018  -4.638  -4.679
    2        0.023   0.018   4.638   4.679
    3        0.003   0.018   0.000   0.021
    4        0.003   0.018   0.000   0.021
    5       -0.003  -0.018   0.000  -0.021
    6       -0.003  -0.018   0.000  -0.021
--------------------------------------------------
tot          0.000   0.000   0.000   0.000
 
    CHARGE:  cpu time    0.0958: real time    0.0958
    FORLOC:  cpu time    0.0008: real time    0.0008
    FORNL :  cpu time    0.5427: real time    0.5427
    STRESS:  cpu time   10.2597: real time   10.2598
    FORCOR:  cpu time    0.0294: real time    0.0294
    FORHAR:  cpu time    0.0021: real time    0.0021
    MIXING:  cpu time    0.0017: real time    0.0017
    OFIELD:  cpu time    0.0000: real time    0.0000

  FORCE on cell =-STRESS in cart. coord.  units (eV):
  Direction    XX          YY          ZZ          XY          YZ          ZX
  --------------------------------------------------------------------------------------
  Alpha Z   197.64459   197.64459   197.64459
  Ewald   -1584.18261 -1584.18261 -1021.82840     0.00000    -0.00000    -0.00000
  Hartree   595.70677   595.70677   975.65155    -0.00004     0.00009     0.00009
  E(xc)    -150.52216  -150.52216  -150.65269     0.00000    -0.00003    -0.00003
  Local     162.17958   162.17958  -773.13318     0.00005    -0.00001    -0.00001
  n-local  -310.54214  -310.54214  -309.47911     0.00000     0.00003     0.00003
  augment   158.45981   158.45981   157.93337    -0.00000    -0.00004    -0.00004
  Kinetic   931.26520   931.26520   923.87076    -0.00000    -0.00008    -0.00008
  Fock        0.00000     0.00000     0.00000     0.00000     0.00000     0.00000
  -------------------------------------------------------------------------------------
  Total       0.00904     0.00904     0.00690     0.00001    -0.00004    -0.00004
  in kB       0.18538     0.18537     0.14154     0.00015    -0.00086    -0.00086
  external pressure =        0.17 kB  Pullay stress =        0.00 kB


 VOLUME and BASIS-vectors are now :
 -----------------------------------------------------------------------------
  energy-cutoff  :      600.00
  volume of cell :       78.11
      direct lattice vectors                 reciprocal lattice vectors
     4.866822185  0.000000000  0.000000000     0.205472886  0.000000000  0.000000000
     0.000000000  4.866822185  0.000000000     0.000000000  0.205472886  0.000000000
     0.000000000  0.000000000  3.297620766     0.000000000  0.000000000  0.303248939

  length of vectors
     4.866822185  4.866822185  3.297620766     0.205472886  0.205472886  0.303248939


 FORCES acting on ions
    electron-ion (+dipol)            ewald-force                    non-local-force                 convergence-correction
 -----------------------------------------------------------------------------------------------
   0.101E-04 -.301E-05 0.234E-09   -.284E-13 -.284E-13 0.108E-13   -.114E-04 0.345E-05 0.125E-09   -.203E-10 -.311E-08 -.843E-09
   0.101E-04 0.302E-05 -.637E-10   0.284E-12 0.284E-12 0.889E-14   -.114E-04 -.345E-05 -.130E-08   -.122E-09 0.134E-08 -.193E-09
   -.334E+02 0.334E+02 -.427E-08   0.346E+02 -.346E+02 -.987E-14   -.128E+01 0.128E+01 0.634E-08   -.516E-06 0.569E-06 -.328E-09
   0.334E+02 -.334E+02 0.246E-08   -.346E+02 0.346E+02 -.104E-13   0.128E+01 -.128E+01 -.288E-08   0.515E-06 -.568E-06 0.252E-09
   0.334E+02 0.334E+02 -.135E-03   -.346E+02 -.346E+02 -.568E-14   0.128E+01 0.128E+01 0.243E-03   -.354E-06 -.372E-06 -.300E-07
   -.334E+02 -.334E+02 0.135E-03   0.346E+02 0.346E+02 -.512E-14   -.128E+01 -.128E+01 -.243E-03   0.354E-06 0.372E-06 0.304E-07
 -----------------------------------------------------------------------------------------------
   0.156E-04 0.130E-08 -.259E-08   0.000E+00 0.711E-14 -.113E-13   -.157E-04 0.127E-08 0.306E-08   -.204E-09 -.191E-08 -.695E-09
 
 
 POSITION                                       TOTAL-FORCE (eV/Angst)
 -----------------------------------------------------------------------------------
      2.43341      2.43341      1.64881        -0.000001      0.000001     -0.000000
      0.00000      0.00000      0.00000        -0.000001     -0.000001     -0.000000
      0.95224      3.91458      1.64881        -0.001070      0.001070      0.000000
      3.91458      0.95224      1.64881         0.001071     -0.001072     -0.000000
      1.48117      1.48117      0.00000         0.001072      0.001072      0.000107
      3.38565      3.38565      0.00000        -0.001070     -0.001070     -0.000107
 -----------------------------------------------------------------------------------
    total drift:                               -0.000000      0.000000     -0.000000


--------------------------------------------------------------------------------------------------------



  FREE ENERGIE OF THE ION-ELECTRON SYSTEM (eV)
  ---------------------------------------------------
  free  energy   TOTEN  =       -67.30493175 eV

  energy  without entropy=      -67.30493175  energy(sigma->0) =      -67.30493175
 


--------------------------------------------------------------------------------------------------------


    POTLOK:  cpu time    2.6146: real time    2.6146

 Total magnetic moment S=     1.0000000

 Fermi contact (isotropic) hyperfine coupling parameter (MHz) 
 -------------------------------------------------------------
  ion      A_pw      A_1PS     A_1AE     A_1c      A_tot
 -------------------------------------------------------------
   1   -1298.877 -1299.012  -388.570  1224.556  -388.435
   2    1298.877  1299.012   388.570 -1224.556   388.435
   3      41.189    41.263   275.554   -28.636   275.480
   4      41.190    41.263   275.553   -28.636   275.480
   5     -41.190   -41.263  -275.558    28.636  -275.485
   6     -41.190   -41.263  -275.558    28.636  -275.485
 -------------------------------------------------------------


 Dipolar hyperfine coupling parameters (MHz)
 ---------------------------------------------------------------------
  ion      A_xx      A_yy      A_zz      A_xy      A_xz      A_yz
 ---------------------------------------------------------------------
   1       7.964     7.964   -15.928     5.427     0.002     0.002
   2      -7.964    -7.964    15.928     5.427     0.001     0.001
   3     -62.365   -62.362   124.728    11.609    -0.002    -0.002
   4     -62.362   -62.365   124.728    11.612    -0.002    -0.002
   5      62.362    62.366  -124.728    11.612    -0.005    -0.005
   6      62.365    62.362  -124.728    11.609    -0.005    -0.005
 ---------------------------------------------------------------------


 Total hyperfine coupling parameters after diagonalization (MHz)
 (convention: |A_zz| > |A_xx| > |A_yy|)
 ----------------------------------------------------------------------
  ion      A_xx      A_yy      A_zz     asymmetry (A_yy - A_xx)/ A_zz 
 ----------------------------------------------------------------------
   1    -385.898  -375.044  -404.363      -0.027
   2     385.898   375.044   404.363      -0.027
   3     224.725   201.507   400.208      -0.058
   4     224.728   201.504   400.208      -0.058
   5    -224.732  -201.509  -400.213      -0.058
   6    -224.730  -201.512  -400.213      -0.058
 ---------------------------------------------------------------------



--------------------------------------------------------------------------------------------------------


 writing wavefunctions
     LOOP+:  cpu time  203.6943: real time  203.7585
    4ORBIT:  cpu time    0.0000: real time    0.0000
 


 total charge     
 
# of ion       s       p       d       tot
------------------------------------------
    1        0.169   6.145   4.963  11.276
    2        0.169   6.145   4.963  11.276
    3        1.730   4.404   0.000   6.134
    4        1.730   4.404   0.000   6.134
    5        1.730   4.404   0.000   6.134
    6        1.730   4.404   0.000   6.134
--------------------------------------------------
tot          7.257  29.904   9.926  47.087
 


 magnetization (x)
 
# of ion       s       p       d       tot
------------------------------------------
    1       -0.023  -0.018  -4.638  -4.679
    2        0.023   0.018   4.638   4.679
    3        0.003   0.018   0.000   0.021
    4        0.003   0.018   0.000   0.021
    5       -0.003  -0.018   0.000  -0.021
    6       -0.003  -0.018   0.000  -0.021
--------------------------------------------------
tot          0.000   0.000   0.000   0.000
 
 BZINTS: Fermi energy:  1.509425; 54.000000 electrons
         Band energy:-806.631091;  BLOECHL correction:  0.000000

 total amount of memory used by VASP MPI-rank0    84903. kBytes
=======================================================================

   base      :      30000. kBytes
   nonl-proj :      36581. kBytes
   fftplans  :       1875. kBytes
   grid      :       3820. kBytes
   one-center:        186. kBytes
   wavefun   :      12441. kBytes
 
  
  
 General timing and accounting informations for this job:
 ========================================================
  
                  Total CPU time used (sec):      206.372
                            User time (sec):      153.696
                          System time (sec):       52.676
                         Elapsed time (sec):      206.479
  
                   Maximum memory used (kb):       96644.
                   Average memory used (kb):           0.
  
                          Minor page faults:        27294
                          Major page faults:            7
                 Voluntary context switches:          343
