       N       E                     dE             d eps       ncg     rms          rms(c)
DAV:   1     0.108069073551E+04    0.10807E+04   -0.46448E+04  1296   0.267E+03
DAV:   2     0.424388934274E+03   -0.65630E+03   -0.62932E+03  1512   0.625E+02
DAV:   3     0.381798014931E+03   -0.42591E+02   -0.42130E+02  1488   0.160E+02
DAV:   4     0.381180704832E+03   -0.61731E+00   -0.61668E+00  1524   0.211E+01
DAV:   5     0.381170441047E+03   -0.10264E-01   -0.10263E-01  1476   0.262E+00    0.593E+01
DAV:   6    -0.683863169357E+02   -0.44956E+03   -0.31495E+02  1596   0.216E+02    0.635E+01
DAV:   7    -0.711849196569E+02   -0.27986E+01   -0.50261E+01  1380   0.451E+01    0.169E+01
DAV:   8    -0.686336620378E+02    0.25513E+01   -0.73412E+00  1512   0.227E+01    0.609E+00
DAV:   9    -0.681642428434E+02    0.46942E+00   -0.36286E+00  1392   0.167E+01    0.775E+00
DAV:  10    -0.681282554661E+02    0.35987E-01   -0.32129E-01  1452   0.450E+00    0.539E+00
DAV:  11    -0.680820520217E+02    0.46203E-01   -0.45751E-01  1428   0.611E+00    0.126E+00
DAV:  12    -0.680690541355E+02    0.12998E-01   -0.34045E-02  1356   0.175E+00    0.824E-01
DAV:  13    -0.680646866942E+02    0.43674E-02   -0.25513E-02  1560   0.984E-01    0.786E-01
DAV:  14    -0.680603876836E+02    0.42990E-02   -0.31831E-02  1296   0.201E+00    0.236E-01
DAV:  15    -0.680613381807E+02   -0.95050E-03   -0.31440E-03  1440   0.423E-01    0.290E-01
DAV:  16    -0.680614167339E+02   -0.78553E-04   -0.37365E-03  1440   0.406E-01    0.132E-01
DAV:  17    -0.680612425740E+02    0.17416E-03   -0.53503E-04  1344   0.273E-01    0.797E-02
DAV:  18    -0.680610071466E+02    0.23543E-03   -0.40847E-04  1380   0.121E-01    0.227E-02
DAV:  19    -0.680609834130E+02    0.23734E-04   -0.59247E-05  1356   0.746E-02    0.103E-02
DAV:  20    -0.680610091628E+02   -0.25750E-04   -0.45602E-06  1608   0.131E-02    0.460E-03
DAV:  21    -0.680610137669E+02   -0.46041E-05   -0.22102E-07  1140   0.458E-03    0.429E-03
DAV:  22    -0.680610104472E+02    0.33198E-05   -0.34235E-07  1092   0.393E-03    0.299E-03
DAV:  23    -0.680610110199E+02   -0.57269E-06   -0.13271E-07   996   0.231E-03    0.149E-03
DAV:  24    -0.680610120545E+02   -0.10347E-05   -0.68893E-08   648   0.163E-03    0.315E-04
DAV:  25    -0.680610122955E+02   -0.24095E-06   -0.20425E-08   648   0.851E-04    0.149E-04
DAV:  26    -0.680610125902E+02   -0.29469E-06   -0.38010E-09   648   0.405E-04    0.163E-04
DAV:  27    -0.680610124603E+02    0.12987E-06   -0.47730E-10   648   0.183E-04    0.120E-04
DAV:  28    -0.680610125057E+02   -0.45376E-07   -0.14869E-09   648   0.238E-04
   1 F= -.68061013E+02 E0= -.68061013E+02  d E =-.680610E+02  mag=     0.0000
