       N       E                     dE             d eps       ncg     rms          rms(c)
DAV:   1     0.929500111612E+03    0.92950E+03   -0.35690E+04  1332   0.189E+03
DAV:   2     0.398436275376E+03   -0.53106E+03   -0.50897E+03  1500   0.487E+02
DAV:   3     0.366861297318E+03   -0.31575E+02   -0.31135E+02  1512   0.128E+02
DAV:   4     0.366491686297E+03   -0.36961E+00   -0.36935E+00  1512   0.151E+01
DAV:   5     0.366485391173E+03   -0.62951E-02   -0.62950E-02  1500   0.182E+00    0.586E+01
DAV:   6    -0.690280985419E+02   -0.43551E+03   -0.27291E+02  1584   0.210E+02    0.623E+01
DAV:   7    -0.715822147458E+02   -0.25541E+01   -0.49735E+01  1332   0.443E+01    0.172E+01
DAV:   8    -0.686651351966E+02    0.29171E+01   -0.69374E+00  1560   0.216E+01    0.668E+00
DAV:   9    -0.681641502627E+02    0.50098E+00   -0.51526E+00  1524   0.193E+01    0.812E+00
DAV:  10    -0.681159231066E+02    0.48227E-01   -0.45254E-01  1380   0.559E+00    0.601E+00
DAV:  11    -0.680765881710E+02    0.39335E-01   -0.11823E+00  1560   0.798E+00    0.201E+00
DAV:  12    -0.680383723988E+02    0.38216E-01   -0.10832E-01  1584   0.334E+00    0.127E+00
DAV:  13    -0.680302637075E+02    0.81087E-02   -0.73393E-02  1512   0.159E+00    0.106E+00
DAV:  14    -0.680256315103E+02    0.46322E-02   -0.51826E-02  1296   0.245E+00    0.420E-01
DAV:  15    -0.680263349797E+02   -0.70347E-03   -0.38671E-03  1488   0.462E-01    0.403E-01
DAV:  16    -0.680254924203E+02    0.84256E-03   -0.35242E-03  1416   0.387E-01    0.142E-01
DAV:  17    -0.680254708537E+02    0.21567E-04   -0.30835E-03  1404   0.397E-01    0.102E-01
DAV:  18    -0.680252505730E+02    0.22028E-03   -0.17784E-04  1344   0.980E-02    0.311E-02
DAV:  19    -0.680252366404E+02    0.13933E-04   -0.11028E-04  1464   0.700E-02    0.767E-03
DAV:  20    -0.680252595053E+02   -0.22865E-04   -0.67615E-06  1500   0.149E-02    0.917E-03
DAV:  21    -0.680252599314E+02   -0.42609E-06   -0.24920E-06  1356   0.109E-02    0.421E-03
DAV:  22    -0.680252582321E+02    0.16993E-05   -0.13266E-06  1464   0.692E-03    0.182E-03
DAV:  23    -0.680252612278E+02   -0.29957E-05   -0.98544E-08   732   0.245E-03    0.105E-03
DAV:  24    -0.680252617743E+02   -0.54653E-06   -0.15357E-08   648   0.115E-03    0.322E-04
DAV:  25    -0.680252622902E+02   -0.51589E-06   -0.11566E-08   648   0.766E-04    0.190E-04
DAV:  26    -0.680252625024E+02   -0.21219E-06   -0.10687E-09   648   0.223E-04    0.852E-05
DAV:  27    -0.680252624242E+02    0.78153E-07   -0.28323E-10   648   0.139E-04
   1 F= -.68025262E+02 E0= -.68025262E+02  d E =-.680253E+02  mag=     0.0000
       N       E                     dE             d eps       ncg     rms          rms(c)
DAV:   1    -0.680253879300E+02   -0.12543E-03   -0.44978E-03  1296   0.529E-01    0.902E-02
DAV:   2    -0.680253373524E+02    0.50578E-04   -0.18344E-04  1392   0.120E-01    0.555E-02
DAV:   3    -0.680252791833E+02    0.58169E-04   -0.70103E-05  1476   0.588E-02    0.258E-02
DAV:   4    -0.680252503864E+02    0.28797E-04   -0.89982E-06  1452   0.241E-02    0.159E-02
DAV:   5    -0.680252489499E+02    0.14365E-05   -0.11283E-05  1560   0.227E-02    0.843E-03
DAV:   6    -0.680252516807E+02   -0.27308E-05   -0.12844E-06  1440   0.884E-03    0.371E-03
DAV:   7    -0.680252511487E+02    0.53195E-06   -0.22691E-06  1572   0.910E-03    0.330E-03
DAV:   8    -0.680252527173E+02   -0.15686E-05   -0.11781E-07   648   0.332E-03    0.175E-03
DAV:   9    -0.680252530352E+02   -0.31788E-06   -0.52476E-07  1296   0.416E-03    0.978E-04
DAV:  10    -0.680252527114E+02    0.32381E-06   -0.12392E-08   648   0.969E-04    0.674E-04
DAV:  11    -0.680252526764E+02    0.35016E-07   -0.79969E-09   648   0.625E-04
   2 F= -.68025253E+02 E0= -.68025253E+02  d E =0.974789E-05  mag=    -0.0000
