 vasp.5.4.4.18Apr17-6-g9f103f2a35 (build Apr 27 2017 11:13:10) complex          
  
 executed on           IFC91_ompi date 2020.05.13  11:44:38
 running on   12 total cores
 distrk:  each k-point on   12 cores,    1 groups
 distr:  one band on NCORES_PER_BAND=   1 cores,   12 groups


--------------------------------------------------------------------------------------------------------


 INCAR:
 POTCAR:    PAW_PBE Mn_pv 02Aug2007               
 POTCAR:    PAW_PBE F 08Apr2002                   

 ----------------------------------------------------------------------------- 
|                                                                             |
|           W    W    AA    RRRRR   N    N  II  N    N   GGGG   !!!           |
|           W    W   A  A   R    R  NN   N  II  NN   N  G    G  !!!           |
|           W    W  A    A  R    R  N N  N  II  N N  N  G       !!!           |
|           W WW W  AAAAAA  RRRRR   N  N N  II  N  N N  G  GGG   !            |
|           WW  WW  A    A  R   R   N   NN  II  N   NN  G    G                |
|           W    W  A    A  R    R  N    N  II  N    N   GGGG   !!!           |
|                                                                             |
|      For optimal performance we recommend to set                            |
|        NCORE= 4 - approx SQRT( number of cores)                             |
|      NCORE specifies how many cores store one orbital (NPAR=cpu/NCORE).     |
|      This setting can  greatly improve the performance of VASP for DFT.     |
|      The default,   NCORE=1            might be grossly inefficient         |
|      on modern multi-core architectures or massively parallel machines.     |
|      Do your own testing !!!!                                               |
|      Unfortunately you need to use the default for GW and RPA calculations. |
|      (for HF NCORE is supported but not extensively tested yet)             |
|                                                                             |
 ----------------------------------------------------------------------------- 

 POTCAR:    PAW_PBE Mn_pv 02Aug2007               
   VRHFIN =Mn: 3p4s3d                                                           
   LEXCH  = PE                                                                  
   EATOM  =  2025.2664 eV,  148.8529 Ry                                         
                                                                                
   TITEL  = PAW_PBE Mn_pv 02Aug2007                                             
   LULTRA =        F    use ultrasoft PP ?                                      
   IUNSCR =        1    unscreen: 0-lin 1-nonlin 2-no                           
   RPACOR =    2.080    partial core radius                                     
   POMASS =   54.938; ZVAL   =   13.000    mass and valenz                      
   RCORE  =    2.300    outmost cutoff radius                                   
   RWIGS  =    2.500; RWIGS  =    1.323    wigner-seitz radius (au A)           
   ENMAX  =  269.864; ENMIN  =  202.398 eV                                      
   ICORE  =        3    local potential                                         
   LCOR   =        T    correct aug charges                                     
   LPAW   =        T    paw PP                                                  
   EAUG   =  569.085                                                            
   DEXC   =    0.000                                                            
   RMAX   =    2.343    core radius for proj-oper                               
   RAUG   =    1.300    factor for augmentation sphere                          
   RDEP   =    2.338    radius for radial grids                                 
   RDEPT  =    1.798    core radius for aug-charge                              
                                                                                
   Atomic configuration                                                         
    8 entries                                                                   
     n  l   j            E        occ.                                          
     1  0  0.50     -6424.8287   2.0000                                         
     2  0  0.50      -739.1154   2.0000                                         
     2  1  1.50      -625.3949   6.0000                                         
     3  0  0.50       -81.6100   2.0000                                         
     3  1  1.50       -50.4667   6.0000                                         
     3  2  2.50        -3.3745   6.0000                                         
     4  0  0.50        -4.1331   1.0000                                         
     4  3  2.50        -1.3606   0.0000                                         
   Description                                                                  
     l       E           TYP  RCUT    TYP  RCUT                                 
     1    -50.4666628     23  2.000                                             
     1     -1.3605826     23  2.000                                             
     2     -3.3744729     23  2.300                                             
     2     -4.7350555     23  2.300                                             
     0     -4.1331431     23  2.300                                             
     0      7.6656591     23  2.300                                             
     3      9.5240782     23  2.300                                             
  local pseudopotential read in
  partial core-charges read in
  partial kinetic energy density read in
  atomic valenz-charges read in
  non local Contribution for L=           1  read in
    real space projection operators read in
  non local Contribution for L=           1  read in
    real space projection operators read in
  non local Contribution for L=           2  read in
    real space projection operators read in
  non local Contribution for L=           2  read in
    real space projection operators read in
  non local Contribution for L=           0  read in
    real space projection operators read in
  non local Contribution for L=           0  read in
    real space projection operators read in
    PAW grid and wavefunctions read in
 
   number of l-projection  operators is LMAX  =           6
   number of lm-projection operators is LMMAX =          18
 
 POTCAR:    PAW_PBE F 08Apr2002                   
   VRHFIN =F: s2p5                                                              
   LEXCH  = PE                                                                  
   EATOM  =   659.6475 eV,   48.4827 Ry                                         
                                                                                
   TITEL  = PAW_PBE F 08Apr2002                                                 
   LULTRA =        F    use ultrasoft PP ?                                      
   IUNSCR =        1    unscreen: 0-lin 1-nonlin 2-no                           
   RPACOR =    1.200    partial core radius                                     
   POMASS =   18.998; ZVAL   =    7.000    mass and valenz                      
   RCORE  =    1.520    outmost cutoff radius                                   
   RWIGS  =    1.500; RWIGS  =    0.794    wigner-seitz radius (au A)           
   ENMAX  =  400.000; ENMIN  =  300.000 eV                                      
   ICORE  =        2    local potential                                         
   LCOR   =        T    correct aug charges                                     
   LPAW   =        T    paw PP                                                  
   EAUG   =  613.614                                                            
   RMAX   =    1.555    core radius for proj-oper                               
   RAUG   =    1.300    factor for augmentation sphere                          
   RDEP   =    1.539    radius for radial grids                                 
   RDEPT  =    1.299    core radius for aug-charge                              
                                                                                
   Atomic configuration                                                         
    4 entries                                                                   
     n  l   j            E        occ.                                          
     1  0  0.50      -663.3661   2.0000                                         
     2  0  0.50       -29.8995   2.0000                                         
     2  1  0.50       -11.1114   5.0000                                         
     3  2  1.50       -10.8847   0.0000                                         
   Description                                                                  
     l       E           TYP  RCUT    TYP  RCUT                                 
     0    -29.8995018     23  1.200                                             
     0     -9.5240782     23  1.200                                             
     1    -11.1113914     23  1.520                                             
     1      1.3605826     23  1.520                                             
     2    -10.8846608      7  1.500                                             
  local pseudopotential read in
  partial core-charges read in
  partial kinetic energy density read in
  atomic valenz-charges read in
  non local Contribution for L=           0  read in
    real space projection operators read in
  non local Contribution for L=           0  read in
    real space projection operators read in
  non local Contribution for L=           1  read in
    real space projection operators read in
  non local Contribution for L=           1  read in
    real space projection operators read in
    PAW grid and wavefunctions read in
 
   number of l-projection  operators is LMAX  =           4
   number of lm-projection operators is LMMAX =           8
 
  PAW_PBE Mn_pv 02Aug2007               :
 energy of atom  1       EATOM=-2025.2664
 kinetic energy error for atom=    0.0055 (will be added to EATOM!!)
  PAW_PBE F 08Apr2002                   :
 energy of atom  2       EATOM= -659.6475
 kinetic energy error for atom=    0.0296 (will be added to EATOM!!)
 
 
 POSCAR: Mn  F                                   
  positions in cartesian coordinates
  No initial velocities read in

 METAGGA = SCAN     LMAXTAU =  6    LMIXTAU =  F

 exchange correlation table for  LEXCH =        8
   RHO(1)=    0.500       N(1)  =     2000
   RHO(2)=  100.500       N(2)  =     4000
 


--------------------------------------------------------------------------------------------------------


 ion  position               nearest neighbor table
   1  0.500  0.500  0.500-   3 2.09   4 2.09   5 2.13   6 2.13   5 2.13   6 2.13
   2  0.000  0.000  0.000-   5 2.09   6 2.09   3 2.13   4 2.13   3 2.13   4 2.13
   3  0.196  0.804  0.500-   1 2.09   2 2.13   2 2.13
   4  0.804  0.196  0.500-   1 2.09   2 2.13   2 2.13
   5  0.304  0.304  0.000-   2 2.09   1 2.13   1 2.13
   6  0.696  0.696  0.000-   2 2.09   1 2.13   1 2.13
 
  LATTYP: Found a simple tetragonal cell.
 ALAT       =     4.8574506024
 C/A-ratio  =     0.6774094989
  
  Lattice vectors:
  
 A1 = (   4.8574506024,   0.0000000000,   0.0000000000)
 A2 = (   0.0000000000,   4.8574506024,   0.0000000000)
 A3 = (   0.0000000000,   0.0000000000,   3.2904831783)


Analysis of symmetry for initial positions (statically):
=====================================================================
 Subroutine PRICEL returns:
 Original cell was already a primitive cell.
 

 Routine SETGRP: Setting up the symmetry group for a 
 simple tetragonal supercell.


 Subroutine GETGRP returns: Found 16 space group operations
 (whereof  8 operations were pure point group operations)
 out of a pool of 16 trial point group operations.


The static configuration has the point symmetry D_2h.
 The point group associated with its full space group is D_4h.


Analysis of symmetry for dynamics (positions and initial velocities):
=====================================================================
 Subroutine PRICEL returns:
 Original cell was already a primitive cell.
 

 Routine SETGRP: Setting up the symmetry group for a 
 simple tetragonal supercell.


 Subroutine GETGRP returns: Found 16 space group operations
 (whereof  8 operations were pure point group operations)
 out of a pool of 16 trial point group operations.


The dynamic configuration has the point symmetry D_2h.
 The point group associated with its full space group is D_4h.


Analysis of structural, dynamic, and magnetic symmetry:
=====================================================================
 Subroutine PRICEL returns:
 Original cell was already a primitive cell.
 

 Routine SETGRP: Setting up the symmetry group for a 
 simple tetragonal supercell.


 Subroutine GETGRP returns: Found 16 space group operations
 (whereof  8 operations were pure point group operations)
 out of a pool of 16 trial point group operations.


The magnetic configuration has the point symmetry D_2h.
 The point group associated with its full space group is D_4h.


 Subroutine INISYM returns: Found 16 space group operations
 (whereof  8 operations are pure point group operations),
 and found     1 'primitive' translations

 
 
 KPOINTS: KPOINTS created by Atomic Simulation Env

Automatic generation of k-mesh.
Space group operators:
 irot       det(A)        alpha          n_x          n_y          n_z        tau_x        tau_y        tau_z
    1     1.000000     0.000000     1.000000     0.000000     0.000000     0.000000     0.000000     0.000000
    2    -1.000000     0.000000     1.000000     0.000000     0.000000     0.000000     0.000000     0.000000
    3     1.000000   180.000000     0.000000     0.000000     1.000000     0.000000     0.000000     0.000000
    4    -1.000000   180.000000     0.000000     0.000000     1.000000     0.000000     0.000000     0.000000
    5     1.000000   180.000000     0.707107     0.707107     0.000000     0.000000     0.000000     0.000000
    6    -1.000000   180.000000     0.707107     0.707107     0.000000     0.000000     0.000000     0.000000
    7     1.000000   180.000000     0.707107    -0.707107     0.000000     0.000000     0.000000     0.000000
    8    -1.000000   180.000000     0.707107    -0.707107     0.000000     0.000000     0.000000     0.000000
    9     1.000000    90.000000     0.000000     0.000000    -1.000000     0.500000     0.500000     0.500000
   10    -1.000000    90.000000     0.000000     0.000000    -1.000000     0.500000     0.500000     0.500000
   11     1.000000    90.000000     0.000000     0.000000     1.000000     0.500000     0.500000     0.500000
   12    -1.000000    90.000000     0.000000     0.000000     1.000000     0.500000     0.500000     0.500000
   13     1.000000   180.000000     0.000000     1.000000     0.000000     0.500000     0.500000     0.500000
   14    -1.000000   180.000000     0.000000     1.000000     0.000000     0.500000     0.500000     0.500000
   15     1.000000   180.000000     1.000000     0.000000     0.000000     0.500000     0.500000     0.500000
   16    -1.000000   180.000000     1.000000     0.000000     0.000000     0.500000     0.500000     0.500000
 
 Subroutine IBZKPT returns following result:
 ===========================================
 
 Found      9 irreducible k-points:
 
 Following reciprocal coordinates:
            Coordinates               Weight
  0.125000  0.125000  0.083333      8.000000
  0.375000  0.125000  0.083333     16.000000
  0.375000  0.375000  0.083333      8.000000
  0.125000  0.125000  0.250000      8.000000
  0.375000  0.125000  0.250000     16.000000
  0.375000  0.375000  0.250000      8.000000
  0.125000  0.125000  0.416667      8.000000
  0.375000  0.125000  0.416667     16.000000
  0.375000  0.375000  0.416667      8.000000
 
 Following cartesian coordinates:
            Coordinates               Weight
  0.025734  0.025734  0.025326      8.000000
  0.077201  0.025734  0.025326     16.000000
  0.077201  0.077201  0.025326      8.000000
  0.025734  0.025734  0.075977      8.000000
  0.077201  0.025734  0.075977     16.000000
  0.077201  0.077201  0.075977      8.000000
  0.025734  0.025734  0.126628      8.000000
  0.077201  0.025734  0.126628     16.000000
  0.077201  0.077201  0.126628      8.000000
 
 TETIRR: Found    106 inequivalent tetrahedra from      576


--------------------------------------------------------------------------------------------------------




 Dimension of arrays:
   k-points           NKPTS =      9   k-points in BZ     NKDIM =      9   number of bands    NBANDS=     36
   number of dos      NEDOS =    301   number of ions     NIONS =      6
   non local maximal  LDIM  =      6   non local SUM 2l+1 LMDIM =     18
   total plane-waves  NPLWV =  15680
   max r-space proj   IRMAX =      1   max aug-charges    IRDMAX=  49218
   dimension x,y,z NGX =    28 NGY =   28 NGZ =   20
   dimension x,y,z NGXF=    56 NGYF=   56 NGZF=   40
   support grid    NGXF=   112 NGYF=  112 NGZF=   80
   ions per type =               2   4
   NGX,Y,Z   is equivalent  to a cutoff of   9.58,  9.58, 10.10 a.u.
   NGXF,Y,Z  is equivalent  to a cutoff of  19.17, 19.17, 20.21 a.u.

 SYSTEM =  unknown system                          
 POSCAR =  Mn  F                                   

 Startparameter for this run:
   NWRITE =      2    write-flag & timer
   PREC   = normal    normal or accurate (medium, high low for compatibility)
   ISTART =      0    job   : 0-new  1-cont  2-samecut
   ICHARG =      2    charge: 1-file 2-atom 10-const
   ISPIN  =      2    spin polarized calculation?
   LNONCOLLINEAR =      F non collinear calculations
   LSORBIT =      F    spin-orbit coupling
   INIWAV =      1    electr: 0-lowe 1-rand  2-diag
   LASPH  =      T    aspherical Exc in radial PAW
   METAGGA=      F    non-selfconsistent MetaGGA calc.

 Electronic Relaxation 1
   ENCUT  =  550.0 eV  40.42 Ry    6.36 a.u.   9.29  9.29  6.29*2*pi/ulx,y,z
   ENINI  =  550.0     initial cutoff
   ENAUG  =  613.6 eV  augmentation charge cutoff
   NELM   =     60;   NELMIN=  2; NELMDL= -5     # of ELM steps 
   EDIFF  = 0.1E-06   stopping-criterion for ELM
   LREAL  =      F    real-space projection
   NLSPLINE    = F    spline interpolate recip. space projectors
   LCOMPAT=      F    compatible to vasp.4.4
   GGA_COMPAT  = T    GGA compatible to vasp.4.4-vasp.4.6
   LMAXPAW     = -100 max onsite density
   LMAXMIX     =    4 max onsite mixed and CHGCAR
   VOSKOWN=      0    Vosko Wilk Nusair interpolation
   ROPT   =    0.00000   0.00000
 Ionic relaxation
   EDIFFG = -.5E-02   stopping-criterion for IOM
   NSW    =     50    number of steps for IOM
   NBLOCK =      1;   KBLOCK =     50    inner block; outer block 
   IBRION =      2    ionic relax: 0-MD 1-quasi-New 2-CG
   NFREE  =      1    steps in history (QN), initial steepest desc. (CG)
   ISIF   =      3    stress and relaxation
   IWAVPR =     11    prediction:  0-non 1-charg 2-wave 3-comb
   ISYM   =      2    0-nonsym 1-usesym 2-fastsym
   LCORR  =      T    Harris-Foulkes like correction to forces

   POTIM  = 0.5000    time-step for ionic-motion
   TEIN   =    0.0    initial temperature
   TEBEG  =    0.0;   TEEND  =   0.0 temperature during run
   SMASS  =  -3.00    Nose mass-parameter (am)
   estimated Nose-frequenzy (Omega)   =  0.10E-29 period in steps =****** mass=  -0.539E-27a.u.
   SCALEE = 1.0000    scale energy and forces
   NPACO  =    256;   APACO  = 16.0  distance and # of slots for P.C.
   PSTRESS=    0.0 pullay stress

  Mass of Ions in am
   POMASS =  54.94 19.00
  Ionic Valenz
   ZVAL   =  13.00  7.00
  Atomic Wigner-Seitz radii
   RWIGS  =  -1.00 -1.00
  virtual crystal weights 
   VCA    =   1.00  1.00
   NELECT =      54.0000    total number of electrons
   NUPDOWN=      -1.0000    fix difference up-down

 DOS related values:
   EMIN   =  10.00;   EMAX   =-10.00  energy-range for DOS
   EFERMI =   0.00
   ISMEAR =    -5;   SIGMA  =   0.20  broadening in eV -4-tet -1-fermi 0-gaus

 Electronic relaxation 2 (details)
   IALGO  =     38    algorithm
   LDIAG  =      T    sub-space diagonalisation (order eigenvalues)
   LSUBROT=      F    optimize rotation matrix (better conditioning)
   TURBO    =      0    0=normal 1=particle mesh
   IRESTART =      0    0=no restart 2=restart with 2 vectors
   NREBOOT  =      0    no. of reboots
   NMIN     =      0    reboot dimension
   EREF     =   0.00    reference energy to select bands
   IMIX   =      4    mixing-type and parameters
     AMIX     =   0.40;   BMIX     =  1.00
     AMIX_MAG =   1.60;   BMIX_MAG =  1.00
     AMIN     =   0.10
     WC   =   100.;   INIMIX=   1;  MIXPRE=   1;  MAXMIX= -45

 Intra band minimization:
   WEIMIN = 0.0010     energy-eigenvalue tresh-hold
   EBREAK =  0.69E-09  absolut break condition
   DEPER  =   0.30     relativ break condition  

   TIME   =   0.40     timestep for ELM

  volume/ion in A,a.u.               =      12.94        87.32
  Fermi-wavevector in a.u.,A,eV,Ry     =   1.450487  2.741024 28.625480  2.103913
  Thomas-Fermi vector in A             =   2.568094
 
 Write flags
   LWAVE        =      F    write WAVECAR
   LDOWNSAMPLE  =      F    k-point downsampling of WAVECAR
   LCHARG       =      F    write CHGCAR
   LVTOT        =      F    write LOCPOT, total local potential
   LVHAR        =      F    write LOCPOT, Hartree potential only
   LELF         =      F    write electronic localiz. function (ELF)
   LORBIT       =     11    0 simple, 1 ext, 2 COOP (PROOUT), +10 PAW based schemes


 Dipole corrections
   LMONO  =      F    monopole corrections only (constant potential shift)
   LDIPOL =      F    correct potential (dipole corrections)
   IDIPOL =      0    1-x, 2-y, 3-z, 4-all directions 
   EPSILON=  1.0000000 bulk dielectric constant

 LDA+U is selected, type is set to LDAUTYPE =  2
   angular momentum for each species LDAUL =     2   -1
   U (eV)           for each species LDAUU =   0.0  0.0
   J (eV)           for each species LDAUJ =   0.0  0.0
 Exchange correlation treatment:
   GGA     =    --    GGA type
   LEXCH   =     8    internal setting for exchange type
   VOSKOWN=      0    Vosko Wilk Nusair interpolation
   LHFCALC =     F    Hartree Fock is set to
   LHFONE  =     F    Hartree Fock one center treatment
   AEXX    =    0.0000 exact exchange contribution

 Linear response parameters
   LEPSILON=     F    determine dielectric tensor
   LRPA    =     F    only Hartree local field effects (RPA)
   LNABLA  =     F    use nabla operator in PAW spheres
   LVEL    =     F    velocity operator in full k-point grid
   LINTERFAST=   F  fast interpolation
   KINTER  =     0    interpolate to denser k-point grid
   CSHIFT  =0.1000    complex shift for real part using Kramers Kronig
   OMEGAMAX=  -1.0    maximum frequency
   DEG_THRESHOLD= 0.2000000E-02 threshold for treating states as degnerate
   RTIME   =   -0.100 relaxation time in fs
  (WPLASMAI=    0.000 imaginary part of plasma frequency in eV, 0.658/RTIME)
   DFIELD  = 0.0000000 0.0000000 0.0000000 field for delta impulse in time
 
 Orbital magnetization related:
   ORBITALMAG=     F  switch on orbital magnetization
   LCHIMAG   =     F  perturbation theory with respect to B field
   DQ        =  0.001000  dq finite difference perturbation B field
   LLRAUG    =     F  two centre corrections for induced B field



--------------------------------------------------------------------------------------------------------


 conjugate gradient relaxation of ions
 charge density and potential will be updated during run
 spin polarized calculation
 Variant of blocked Davidson
 Davidson routine will perform the subspace rotation
 perform sub-space diagonalisation
    after iterative eigenvector-optimisation
 modified Broyden-mixing scheme, WC =      100.0
 initial mixing is a Kerker type mixing with AMIX =  0.4000 and BMIX =      1.0000
 Hartree-type preconditioning will be used
 using additional bands            9
 reciprocal scheme for non local part
 use partial core corrections
 calculate Harris-corrections to forces 
   (improved forces if not selfconsistent)
 use gradient corrections 
 use of overlap-Matrix (Vanderbilt PP)
 Fermi weights with tetrahedron method with Bloechl corrections


--------------------------------------------------------------------------------------------------------


  energy-cutoff  :      550.00
  volume of cell :       77.64
      direct lattice vectors                 reciprocal lattice vectors
     4.857450602  0.000000000  0.000000000     0.205869309  0.000000000  0.000000000
     0.000000000  4.857450602  0.000000000     0.000000000  0.205869309  0.000000000
     0.000000000  0.000000000  3.290483178     0.000000000  0.000000000  0.303906735

  length of vectors
     4.857450602  4.857450602  3.290483178     0.205869309  0.205869309  0.303906735


 
 k-points in units of 2pi/SCALE and weight: KPOINTS created by Atomic Simulation Env
   0.02573366  0.02573366  0.02532556       0.083
   0.07720099  0.02573366  0.02532556       0.167
   0.07720099  0.07720099  0.02532556       0.083
   0.02573366  0.02573366  0.07597668       0.083
   0.07720099  0.02573366  0.07597668       0.167
   0.07720099  0.07720099  0.07597668       0.083
   0.02573366  0.02573366  0.12662781       0.083
   0.07720099  0.02573366  0.12662781       0.167
   0.07720099  0.07720099  0.12662781       0.083
 
 k-points in reciprocal lattice and weights: KPOINTS created by Atomic Simulation Env
   0.12500000  0.12500000  0.08333333       0.083
   0.37500000  0.12500000  0.08333333       0.167
   0.37500000  0.37500000  0.08333333       0.083
   0.12500000  0.12500000  0.25000000       0.083
   0.37500000  0.12500000  0.25000000       0.167
   0.37500000  0.37500000  0.25000000       0.083
   0.12500000  0.12500000  0.41666667       0.083
   0.37500000  0.12500000  0.41666667       0.167
   0.37500000  0.37500000  0.41666667       0.083
 
 position of ions in fractional coordinates (direct lattice) 
   0.50000000  0.50000000  0.50000000
   0.00000000  0.00000000  0.00000000
   0.19610489  0.80389511  0.50000000
   0.80389511  0.19610489  0.50000000
   0.30389511  0.30389511  0.00000000
   0.69610489  0.69610489  0.00000000
 
 position of ions in cartesian coordinates  (Angst):
   2.42872530  2.42872530  1.64524159
   0.00000000  0.00000000  0.00000000
   0.95256980  3.90488080  1.64524159
   3.90488080  0.95256980  1.64524159
   1.47615550  1.47615550  0.00000000
   3.38129510  3.38129510  0.00000000
 


--------------------------------------------------------------------------------------------------------


 k-point  1 :   0.1250 0.1250 0.0833  plane waves:    2279
 k-point  2 :   0.3750 0.1250 0.0833  plane waves:    2275
 k-point  3 :   0.3750 0.3750 0.0833  plane waves:    2277
 k-point  4 :   0.1250 0.1250 0.2500  plane waves:    2266
 k-point  5 :   0.3750 0.1250 0.2500  plane waves:    2272
 k-point  6 :   0.3750 0.3750 0.2500  plane waves:    2273
 k-point  7 :   0.1250 0.1250 0.4167  plane waves:    2275
 k-point  8 :   0.3750 0.1250 0.4167  plane waves:    2278
 k-point  9 :   0.3750 0.3750 0.4167  plane waves:    2266

 maximum and minimum number of plane-waves per node :      2279     2266

 maximum number of plane-waves:      2279
 maximum index in each direction: 
   IXMAX=    9   IYMAX=    9   IZMAX=    6
   IXMIN=   -9   IYMIN=   -9   IZMIN=   -6


 serial   3D FFT for wavefunctions
 parallel 3D FFT for charge:
    minimum data exchange during FFTs selected (reduces bandwidth)


 total amount of memory used by VASP MPI-rank0    43466. kBytes
=======================================================================

   base      :      30000. kBytes
   nonl-proj :       6128. kBytes
   fftplans  :       1718. kBytes
   grid      :       3402. kBytes
   one-center:        186. kBytes
   wavefun   :       2032. kBytes
 
     INWAV:  cpu time    0.0000: real time    0.0000
 Broyden mixing: mesh for mixing (old mesh)
   NGX = 19   NGY = 19   NGZ = 13
  (NGX  = 56   NGY  = 56   NGZ  = 40)
  gives a total of   4693 points

 initial charge density was supplied:
 charge density of overlapping atoms calculated
 number of electron      54.0000000 magnetization       0.0000000
 keeping initial charge density in first step


--------------------------------------------------------------------------------------------------------


 Maximum index for augmentation-charges         5088 (set IRDMAX)


--------------------------------------------------------------------------------------------------------


 First call to EWALD:  gamma=   0.415
 Maximum number of real-space cells 2x 2x 3
 Maximum number of reciprocal cells 3x 3x 2

    FEWALD:  cpu time    0.0010: real time    0.0010


--------------------------------------- Iteration      1(   1)  ---------------------------------------


    POTLOK:  cpu time    0.0342: real time    0.0342
    SETDIJ:  cpu time    0.7795: real time    0.7795
atom =   1  type =  1  l = 2
 
 onsite density matrix
 
spin component  1
 
  0.2835  0.0000  0.0000  0.0000  0.0000
  0.0000  0.2835  0.0000  0.0000  0.0000
  0.0000  0.0000  0.2835  0.0000  0.0000
  0.0000  0.0000  0.0000  0.2835  0.0000
  0.0000  0.0000  0.0000  0.0000  0.2835
 
spin component  2
 
  0.7694  0.0000  0.0000  0.0000  0.0000
  0.0000  0.7694  0.0000  0.0000  0.0000
  0.0000  0.0000  0.7694  0.0000  0.0000
  0.0000  0.0000  0.0000  0.7694  0.0000
  0.0000  0.0000  0.0000  0.0000  0.7694
 
 occupancies and eigenvectors
 
  o =  0.2835  v =  1.0000  0.0000  0.0000  0.0000  0.0000  0.0000  0.0000  0.0000  0.0000  0.0000      0.0000  0.0000  0.0000  0.0000  0.0000  0.0000  0.0000  0.0000  0.0000  0.0000
  o =  0.2835  v =  0.0000  1.0000  0.0000  0.0000  0.0000  0.0000  0.0000  0.0000  0.0000  0.0000      0.0000  0.0000  0.0000  0.0000  0.0000  0.0000  0.0000  0.0000  0.0000  0.0000
  o =  0.2835  v =  0.0000  0.0000  1.0000  0.0000  0.0000  0.0000  0.0000  0.0000  0.0000  0.0000      0.0000  0.0000  0.0000  0.0000  0.0000  0.0000  0.0000  0.0000  0.0000  0.0000
  o =  0.2835  v =  0.0000  0.0000  0.0000  1.0000  0.0000  0.0000  0.0000  0.0000  0.0000  0.0000      0.0000  0.0000  0.0000  0.0000  0.0000  0.0000  0.0000  0.0000  0.0000  0.0000
  o =  0.2835  v =  0.0000  0.0000  0.0000  0.0000  1.0000  0.0000  0.0000  0.0000  0.0000  0.0000      0.0000  0.0000  0.0000  0.0000  0.0000  0.0000  0.0000  0.0000  0.0000  0.0000
  o =  0.7694  v =  0.0000  0.0000  0.0000  0.0000  0.0000  1.0000  0.0000  0.0000  0.0000  0.0000      0.0000  0.0000  0.0000  0.0000  0.0000  0.0000  0.0000  0.0000  0.0000  0.0000
  o =  0.7694  v =  0.0000  0.0000  0.0000  0.0000  0.0000  0.0000  1.0000  0.0000  0.0000  0.0000      0.0000  0.0000  0.0000  0.0000  0.0000  0.0000  0.0000  0.0000  0.0000  0.0000
  o =  0.7694  v =  0.0000  0.0000  0.0000  0.0000  0.0000  0.0000  0.0000  1.0000  0.0000  0.0000      0.0000  0.0000  0.0000  0.0000  0.0000  0.0000  0.0000  0.0000  0.0000  0.0000
  o =  0.7694  v =  0.0000  0.0000  0.0000  0.0000  0.0000  0.0000  0.0000  0.0000  1.0000  0.0000      0.0000  0.0000  0.0000  0.0000  0.0000  0.0000  0.0000  0.0000  0.0000  0.0000
  o =  0.7694  v =  0.0000  0.0000  0.0000  0.0000  0.0000  0.0000  0.0000  0.0000  0.0000  1.0000      0.0000  0.0000  0.0000  0.0000  0.0000  0.0000  0.0000  0.0000  0.0000  0.0000
atom =   2  type =  1  l = 2
 
 onsite density matrix
 
spin component  1
 
  0.7694  0.0000  0.0000  0.0000  0.0000
  0.0000  0.7694  0.0000  0.0000  0.0000
  0.0000  0.0000  0.7694  0.0000  0.0000
  0.0000  0.0000  0.0000  0.7694  0.0000
  0.0000  0.0000  0.0000  0.0000  0.7694
 
spin component  2
 
  0.2835  0.0000  0.0000  0.0000  0.0000
  0.0000  0.2835  0.0000  0.0000  0.0000
  0.0000  0.0000  0.2835  0.0000  0.0000
  0.0000  0.0000  0.0000  0.2835  0.0000
  0.0000  0.0000  0.0000  0.0000  0.2835
 
 occupancies and eigenvectors
 
  o =  0.2835  v =  0.0000  0.0000  0.0000  0.0000  0.0000  1.0000  0.0000  0.0000  0.0000  0.0000      0.0000  0.0000  0.0000  0.0000  0.0000  0.0000  0.0000  0.0000  0.0000  0.0000
  o =  0.2835  v =  0.0000  0.0000  0.0000  0.0000  0.0000  0.0000  1.0000  0.0000  0.0000  0.0000      0.0000  0.0000  0.0000  0.0000  0.0000  0.0000  0.0000  0.0000  0.0000  0.0000
  o =  0.2835  v =  0.0000  0.0000  0.0000  0.0000  0.0000  0.0000  0.0000  1.0000  0.0000  0.0000      0.0000  0.0000  0.0000  0.0000  0.0000  0.0000  0.0000  0.0000  0.0000  0.0000
  o =  0.2835  v =  0.0000  0.0000  0.0000  0.0000  0.0000  0.0000  0.0000  0.0000  1.0000  0.0000      0.0000  0.0000  0.0000  0.0000  0.0000  0.0000  0.0000  0.0000  0.0000  0.0000
  o =  0.2835  v =  0.0000  0.0000  0.0000  0.0000  0.0000  0.0000  0.0000  0.0000  0.0000  1.0000      0.0000  0.0000  0.0000  0.0000  0.0000  0.0000  0.0000  0.0000  0.0000  0.0000
  o =  0.7694  v =  1.0000  0.0000  0.0000  0.0000  0.0000  0.0000  0.0000  0.0000  0.0000  0.0000      0.0000  0.0000  0.0000  0.0000  0.0000  0.0000  0.0000  0.0000  0.0000  0.0000
  o =  0.7694  v =  0.0000  1.0000  0.0000  0.0000  0.0000  0.0000  0.0000  0.0000  0.0000  0.0000      0.0000  0.0000  0.0000  0.0000  0.0000  0.0000  0.0000  0.0000  0.0000  0.0000
  o =  0.7694  v =  0.0000  0.0000  1.0000  0.0000  0.0000  0.0000  0.0000  0.0000  0.0000  0.0000      0.0000  0.0000  0.0000  0.0000  0.0000  0.0000  0.0000  0.0000  0.0000  0.0000
  o =  0.7694  v =  0.0000  0.0000  0.0000  1.0000  0.0000  0.0000  0.0000  0.0000  0.0000  0.0000      0.0000  0.0000  0.0000  0.0000  0.0000  0.0000  0.0000  0.0000  0.0000  0.0000
  o =  0.7694  v =  0.0000  0.0000  0.0000  0.0000  1.0000  0.0000  0.0000  0.0000  0.0000  0.0000      0.0000  0.0000  0.0000  0.0000  0.0000  0.0000  0.0000  0.0000  0.0000  0.0000
     EDDAV:  cpu time    0.6321: real time    0.6520
 BZINTS: Fermi energy: 24.567163; 54.000000 electrons
         Band energy: 339.510086;  BLOECHL correction: -0.170869
       DOS:  cpu time    0.0103: real time    0.0102
    --------------------------------------------
      LOOP:  cpu time    1.4561: real time    1.4760

 eigenvalue-minimisations  :  1332
 total energy-change (2. order) : 0.9295001E+03  (-0.3568966E+04)
 number of electron      54.0000000 magnetization       0.0000000
 augmentation part       54.0000000 magnetization       0.0000000

 Free energy of the ion-electron system (eV)
  ---------------------------------------------------
  alpha Z        PSCENC =       198.83834377
  Ewald energy   TEWEN  =     -4199.11267237
  -Hartree energ DENC   =     -2133.07314563
  -exchange      EXHF   =         0.00000000
  -V(xc)+E(xc)   XCENC  =        -3.96110505
  PAW double counting   =      5566.43601843    -5528.13058630
  entropy T*S    EENTRO =         0.00000000
  eigenvalues    EBANDS =       339.51008647
  atomic energy  EATOM  =      6688.99317229
  Solvation  Ediel_sol  =         0.00000000
  ---------------------------------------------------
  free energy    TOTEN  =       929.50011161 eV

  energy without entropy =      929.50011161  energy(sigma->0) =      929.50011161


--------------------------------------------------------------------------------------------------------




--------------------------------------- Iteration      1(   2)  ---------------------------------------


     EDDAV:  cpu time    0.6803: real time    0.6803
 BZINTS: Fermi energy: 11.856070; 54.019511 electrons
         Band energy:-191.553750;  BLOECHL correction: -0.007953
       DOS:  cpu time    0.0136: real time    0.0136
    --------------------------------------------
      LOOP:  cpu time    0.6940: real time    0.6940

 eigenvalue-minimisations  :  1500
 total energy-change (2. order) :-0.5310638E+03  (-0.5089674E+03)
 number of electron      54.0000000 magnetization       0.0000000
 augmentation part       54.0000000 magnetization       0.0000000

 Free energy of the ion-electron system (eV)
  ---------------------------------------------------
  alpha Z        PSCENC =       198.83834377
  Ewald energy   TEWEN  =     -4199.11267237
  -Hartree energ DENC   =     -2133.07314563
  -exchange      EXHF   =         0.00000000
  -V(xc)+E(xc)   XCENC  =        -3.96110505
  PAW double counting   =      5566.43601843    -5528.13058630
  entropy T*S    EENTRO =         0.00000000
  eigenvalues    EBANDS =      -191.55374977
  atomic energy  EATOM  =      6688.99317229
  Solvation  Ediel_sol  =         0.00000000
  ---------------------------------------------------
  free energy    TOTEN  =       398.43627538 eV

  energy without entropy =      398.43627538  energy(sigma->0) =      398.43627538


--------------------------------------------------------------------------------------------------------




--------------------------------------- Iteration      1(   3)  ---------------------------------------


     EDDAV:  cpu time    0.6896: real time    0.6896
 BZINTS: Fermi energy:  9.829236; 54.000000 electrons
         Band energy:-223.128728;  BLOECHL correction:  0.000000
       DOS:  cpu time    0.0017: real time    0.0017
    --------------------------------------------
      LOOP:  cpu time    0.6913: real time    0.6913

 eigenvalue-minimisations  :  1512
 total energy-change (2. order) :-0.3157498E+02  (-0.3113534E+02)
 number of electron      54.0000000 magnetization       0.0000000
 augmentation part       54.0000000 magnetization       0.0000000

 Free energy of the ion-electron system (eV)
  ---------------------------------------------------
  alpha Z        PSCENC =       198.83834377
  Ewald energy   TEWEN  =     -4199.11267237
  -Hartree energ DENC   =     -2133.07314563
  -exchange      EXHF   =         0.00000000
  -V(xc)+E(xc)   XCENC  =        -3.96110505
  PAW double counting   =      5566.43601843    -5528.13058630
  entropy T*S    EENTRO =         0.00000000
  eigenvalues    EBANDS =      -223.12872783
  atomic energy  EATOM  =      6688.99317229
  Solvation  Ediel_sol  =         0.00000000
  ---------------------------------------------------
  free energy    TOTEN  =       366.86129732 eV

  energy without entropy =      366.86129732  energy(sigma->0) =      366.86129732


--------------------------------------------------------------------------------------------------------




--------------------------------------- Iteration      1(   4)  ---------------------------------------


     EDDAV:  cpu time    0.6901: real time    0.6901
 BZINTS: Fermi energy:  9.779063; 54.000000 electrons
         Band energy:-223.498339;  BLOECHL correction:  0.000000
       DOS:  cpu time    0.0017: real time    0.0017
    --------------------------------------------
      LOOP:  cpu time    0.6918: real time    0.6918

 eigenvalue-minimisations  :  1512
 total energy-change (2. order) :-0.3696110E+00  (-0.3693466E+00)
 number of electron      54.0000000 magnetization       0.0000000
 augmentation part       54.0000000 magnetization       0.0000000

 Free energy of the ion-electron system (eV)
  ---------------------------------------------------
  alpha Z        PSCENC =       198.83834377
  Ewald energy   TEWEN  =     -4199.11267237
  -Hartree energ DENC   =     -2133.07314563
  -exchange      EXHF   =         0.00000000
  -V(xc)+E(xc)   XCENC  =        -3.96110505
  PAW double counting   =      5566.43601843    -5528.13058630
  entropy T*S    EENTRO =         0.00000000
  eigenvalues    EBANDS =      -223.49833885
  atomic energy  EATOM  =      6688.99317229
  Solvation  Ediel_sol  =         0.00000000
  ---------------------------------------------------
  free energy    TOTEN  =       366.49168630 eV

  energy without entropy =      366.49168630  energy(sigma->0) =      366.49168630


--------------------------------------------------------------------------------------------------------




--------------------------------------- Iteration      1(   5)  ---------------------------------------


     EDDAV:  cpu time    0.6886: real time    0.6886
 BZINTS: Fermi energy:  9.920431; 54.000000 electrons
         Band energy:-223.504634;  BLOECHL correction:  0.000000
       DOS:  cpu time    0.0020: real time    0.0020
    CHARGE:  cpu time    0.1304: real time    0.1304
    MIXING:  cpu time    0.0005: real time    0.0005
    --------------------------------------------
      LOOP:  cpu time    0.8214: real time    0.8214

 eigenvalue-minimisations  :  1500
 total energy-change (2. order) :-0.6295124E-02  (-0.6294972E-02)
 number of electron      54.0000009 magnetization       0.0000000
 augmentation part       22.6087079 magnetization       0.0000000

 Broyden mixing:
  rms(total) = 0.58572E+01    rms(broyden)= 0.58568E+01
  rms(prec ) = 0.60820E+01
  weight for this iteration     100.00

 Free energy of the ion-electron system (eV)
  ---------------------------------------------------
  alpha Z        PSCENC =       198.83834377
  Ewald energy   TEWEN  =     -4199.11267237
  -Hartree energ DENC   =     -2133.07314563
  -exchange      EXHF   =         0.00000000
  -V(xc)+E(xc)   XCENC  =        -3.96110505
  PAW double counting   =      5566.43601843    -5528.13058630
  entropy T*S    EENTRO =         0.00000000
  eigenvalues    EBANDS =      -223.50463397
  atomic energy  EATOM  =      6688.99317229
  Solvation  Ediel_sol  =         0.00000000
  ---------------------------------------------------
  free energy    TOTEN  =       366.48539117 eV

  energy without entropy =      366.48539117  energy(sigma->0) =      366.48539117


--------------------------------------------------------------------------------------------------------




--------------------------------------- Iteration      1(   6)  ---------------------------------------


    POTLOK:  cpu time    0.0317: real time    0.0317
    SETDIJ:  cpu time    0.7944: real time    0.7944
atom =   1  type =  1  l = 2
 
 onsite density matrix
 
spin component  1
 
  0.0303  0.0000  0.0647  0.0000 -0.0000
  0.0000  0.0058  0.0000  0.0596  0.0000
  0.0647  0.0000 -0.0098  0.0000  0.0000
  0.0000  0.0596  0.0000  0.0058  0.0000
 -0.0000  0.0000  0.0000  0.0000 -0.0709
 
spin component  2
 
  1.0596  0.0000 -0.0307  0.0000  0.0000
  0.0000  1.0719  0.0000 -0.0286  0.0000
 -0.0307  0.0000  1.0785  0.0000 -0.0000
  0.0000 -0.0286  0.0000  1.0719  0.0000
  0.0000  0.0000 -0.0000  0.0000  1.1088
 
 occupancies and eigenvectors
 
  o = -0.0709  v =  0.0000  0.0000 -0.0000  0.0000  1.0000  0.0000  0.0000  0.0000  0.0000  0.0000      0.0000  0.0000  0.0000  0.0000  0.0000  0.0000  0.0000  0.0000  0.0000  0.0000
  o = -0.0575  v = -0.5934  0.0000  0.8049  0.0000  0.0000  0.0000  0.0000  0.0000  0.0000  0.0000      0.0000  0.0000  0.0000  0.0000  0.0000  0.0000  0.0000  0.0000  0.0000  0.0000
  o = -0.0539  v =  0.0000  0.7071  0.0000 -0.7071 -0.0000  0.0000  0.0000  0.0000  0.0000  0.0000      0.0000  0.0000  0.0000  0.0000  0.0000  0.0000  0.0000  0.0000  0.0000  0.0000
  o =  0.0654  v =  0.0000 -0.7071  0.0000 -0.7071  0.0000  0.0000  0.0000  0.0000  0.0000  0.0000      0.0000  0.0000  0.0000  0.0000  0.0000  0.0000  0.0000  0.0000  0.0000  0.0000
  o =  0.0780  v =  0.8049  0.0000  0.5934  0.0000  0.0000  0.0000  0.0000  0.0000  0.0000  0.0000      0.0000  0.0000  0.0000  0.0000  0.0000  0.0000  0.0000  0.0000  0.0000  0.0000
  o =  1.0369  v =  0.0000  0.0000  0.0000  0.0000  0.0000  0.8045 -0.0000  0.5939 -0.0000  0.0000      0.0000  0.0000  0.0000  0.0000  0.0000  0.0000  0.0000  0.0000  0.0000  0.0000
  o =  1.0433  v =  0.0000  0.0000  0.0000  0.0000  0.0000  0.0000  0.7071  0.0000  0.7071 -0.0000      0.0000  0.0000  0.0000  0.0000  0.0000  0.0000  0.0000  0.0000  0.0000  0.0000
  o =  1.1005  v =  0.0000  0.0000  0.0000  0.0000  0.0000  0.0000  0.7071  0.0000 -0.7071 -0.0000      0.0000  0.0000  0.0000  0.0000  0.0000  0.0000  0.0000  0.0000  0.0000  0.0000
  o =  1.1012  v =  0.0000  0.0000  0.0000  0.0000  0.0000 -0.5939 -0.0000  0.8045 -0.0000  0.0000      0.0000  0.0000  0.0000  0.0000  0.0000  0.0000  0.0000  0.0000  0.0000  0.0000
  o =  1.1088  v =  0.0000  0.0000  0.0000  0.0000  0.0000  0.0000  0.0000 -0.0000 -0.0000  1.0000      0.0000  0.0000  0.0000  0.0000  0.0000  0.0000  0.0000  0.0000  0.0000  0.0000
atom =   2  type =  1  l = 2
 
 onsite density matrix
 
spin component  1
 
  1.0596  0.0000  0.0307  0.0000 -0.0000
  0.0000  1.0719  0.0000  0.0286  0.0000
  0.0307  0.0000  1.0785  0.0000  0.0000
  0.0000  0.0286  0.0000  1.0719  0.0000
 -0.0000  0.0000  0.0000  0.0000  1.1088
 
spin component  2
 
  0.0303  0.0000 -0.0647  0.0000  0.0000
  0.0000  0.0058  0.0000 -0.0596  0.0000
 -0.0647  0.0000 -0.0098  0.0000 -0.0000
  0.0000 -0.0596  0.0000  0.0058  0.0000
  0.0000  0.0000 -0.0000  0.0000 -0.0709
 
 occupancies and eigenvectors
 
  o = -0.0709  v =  0.0000  0.0000  0.0000  0.0000  0.0000  0.0000 -0.0000  0.0000  0.0000  1.0000      0.0000  0.0000  0.0000  0.0000  0.0000  0.0000  0.0000  0.0000  0.0000  0.0000
  o = -0.0575  v =  0.0000  0.0000  0.0000  0.0000  0.0000 -0.5934 -0.0000 -0.8049  0.0000  0.0000      0.0000  0.0000  0.0000  0.0000  0.0000  0.0000  0.0000  0.0000  0.0000  0.0000
  o = -0.0539  v =  0.0000  0.0000  0.0000  0.0000  0.0000  0.0000 -0.7071  0.0000 -0.7071 -0.0000      0.0000  0.0000  0.0000  0.0000  0.0000  0.0000  0.0000  0.0000  0.0000  0.0000
  o =  0.0654  v =  0.0000  0.0000  0.0000  0.0000  0.0000  0.0000  0.7071  0.0000 -0.7071  0.0000      0.0000  0.0000  0.0000  0.0000  0.0000  0.0000  0.0000  0.0000  0.0000  0.0000
  o =  0.0780  v =  0.0000  0.0000  0.0000  0.0000  0.0000  0.8049 -0.0000 -0.5934  0.0000  0.0000      0.0000  0.0000  0.0000  0.0000  0.0000  0.0000  0.0000  0.0000  0.0000  0.0000
  o =  1.0369  v = -0.8045  0.0000  0.5939  0.0000 -0.0000  0.0000  0.0000  0.0000  0.0000  0.0000      0.0000  0.0000  0.0000  0.0000  0.0000  0.0000  0.0000  0.0000  0.0000  0.0000
  o =  1.0433  v =  0.0000  0.7071  0.0000 -0.7071 -0.0000  0.0000  0.0000  0.0000  0.0000  0.0000      0.0000  0.0000  0.0000  0.0000  0.0000  0.0000  0.0000  0.0000  0.0000  0.0000
  o =  1.1005  v =  0.0000 -0.7071  0.0000 -0.7071  0.0000  0.0000  0.0000  0.0000  0.0000  0.0000      0.0000  0.0000  0.0000  0.0000  0.0000  0.0000  0.0000  0.0000  0.0000  0.0000
  o =  1.1012  v = -0.5939  0.0000 -0.8045  0.0000  0.0000  0.0000  0.0000  0.0000  0.0000  0.0000      0.0000  0.0000  0.0000  0.0000  0.0000  0.0000  0.0000  0.0000  0.0000  0.0000
  o =  1.1088  v =  0.0000  0.0000  0.0000  0.0000  1.0000  0.0000  0.0000  0.0000  0.0000  0.0000      0.0000  0.0000  0.0000  0.0000  0.0000  0.0000  0.0000  0.0000  0.0000  0.0000
     EDDAV:  cpu time    0.7118: real time    0.7118
 BZINTS: Fermi energy:  6.891163; 54.000000 electrons
         Band energy:-736.547522;  BLOECHL correction: -0.007114
       DOS:  cpu time    0.0090: real time    0.0090
    CHARGE:  cpu time    0.1273: real time    0.1273
    MIXING:  cpu time    0.0005: real time    0.0005
    --------------------------------------------
      LOOP:  cpu time    1.6747: real time    1.6747

 eigenvalue-minimisations  :  1584
 total energy-change (2. order) :-0.4355135E+03  (-0.2729072E+02)
 number of electron      54.0000008 magnetization       0.0000000
 augmentation part       19.6948560 magnetization       0.0000000

 Broyden mixing:
  rms(total) = 0.62310E+01    rms(broyden)= 0.62309E+01
  rms(prec ) = 0.67176E+01
  weight for this iteration     100.00

 eigenvalues of (default mixing * dielectric matrix)
  average eigenvalue GAMMA=   0.4174
  0.4174

 Free energy of the ion-electron system (eV)
  ---------------------------------------------------
  alpha Z        PSCENC =       198.83834377
  Ewald energy   TEWEN  =     -4199.11267237
  -Hartree energ DENC   =     -2199.03259598
  -exchange      EXHF   =         0.00000000
  -V(xc)+E(xc)   XCENC  =       144.33194745
  PAW double counting   =      6425.27211009    -6391.77088137
  entropy T*S    EENTRO =         0.00000000
  eigenvalues    EBANDS =      -736.54752243
  atomic energy  EATOM  =      6688.99317229
  Solvation  Ediel_sol  =         0.00000000
  ---------------------------------------------------
  free energy    TOTEN  =       -69.02809854 eV

  energy without entropy =      -69.02809854  energy(sigma->0) =      -69.02809854


--------------------------------------------------------------------------------------------------------




--------------------------------------- Iteration      1(   7)  ---------------------------------------


    POTLOK:  cpu time    0.0314: real time    0.0314
    SETDIJ:  cpu time    0.7812: real time    0.7812
atom =   1  type =  1  l = 2
 
 onsite density matrix
 
spin component  1
 
  0.0819  0.0000  0.0356  0.0000 -0.0000
  0.0000  0.0539  0.0000  0.0240  0.0000
  0.0356  0.0000  0.0565  0.0000  0.0000
  0.0000  0.0240  0.0000  0.0539  0.0000
 -0.0000  0.0000  0.0000  0.0000  0.0194
 
spin component  2
 
  0.9760  0.0000 -0.0057  0.0000  0.0000
  0.0000  1.0028  0.0000  0.0084  0.0000
 -0.0057  0.0000  0.9869  0.0000 -0.0000
  0.0000  0.0084  0.0000  1.0028  0.0000
  0.0000  0.0000 -0.0000  0.0000  0.9980
 
 occupancies and eigenvectors
 
  o =  0.0194  v =  0.0000  0.0000 -0.0000  0.0000  1.0000  0.0000  0.0000  0.0000  0.0000  0.0000      0.0000  0.0000  0.0000  0.0000  0.0000  0.0000  0.0000  0.0000  0.0000  0.0000
  o =  0.0299  v =  0.0000  0.7071  0.0000 -0.7071 -0.0000  0.0000  0.0000  0.0000  0.0000  0.0000      0.0000  0.0000  0.0000  0.0000  0.0000  0.0000  0.0000  0.0000  0.0000  0.0000
  o =  0.0313  v = -0.5762  0.0000  0.8173  0.0000  0.0000  0.0000  0.0000  0.0000  0.0000  0.0000      0.0000  0.0000  0.0000  0.0000  0.0000  0.0000  0.0000  0.0000  0.0000  0.0000
  o =  0.0780  v =  0.0000 -0.7071  0.0000 -0.7071  0.0000  0.0000  0.0000  0.0000  0.0000  0.0000      0.0000  0.0000  0.0000  0.0000  0.0000  0.0000  0.0000  0.0000  0.0000  0.0000
  o =  0.1070  v = -0.8173 -0.0000 -0.5762  0.0000 -0.0000  0.0000  0.0000  0.0000  0.0000  0.0000      0.0000  0.0000  0.0000  0.0000  0.0000  0.0000  0.0000  0.0000  0.0000  0.0000
  o =  0.9736  v =  0.0000  0.0000  0.0000  0.0000  0.0000 -0.9191  0.0000 -0.3941  0.0000  0.0000      0.0000  0.0000  0.0000  0.0000  0.0000  0.0000  0.0000  0.0000  0.0000  0.0000
  o =  0.9894  v =  0.0000  0.0000  0.0000  0.0000  0.0000 -0.3941  0.0000  0.9191  0.0000 -0.0000      0.0000  0.0000  0.0000  0.0000  0.0000  0.0000  0.0000  0.0000  0.0000  0.0000
  o =  0.9944  v =  0.0000  0.0000  0.0000  0.0000  0.0000  0.0000  0.7071 -0.0000 -0.7071 -0.0000      0.0000  0.0000  0.0000  0.0000  0.0000  0.0000  0.0000  0.0000  0.0000  0.0000
  o =  0.9980  v =  0.0000  0.0000  0.0000  0.0000  0.0000  0.0000  0.0000  0.0000 -0.0000  1.0000      0.0000  0.0000  0.0000  0.0000  0.0000  0.0000  0.0000  0.0000  0.0000  0.0000
  o =  1.0112  v =  0.0000  0.0000  0.0000  0.0000  0.0000  0.0000 -0.7071 -0.0000 -0.7071 -0.0000      0.0000  0.0000  0.0000  0.0000  0.0000  0.0000  0.0000  0.0000  0.0000  0.0000
atom =   2  type =  1  l = 2
 
 onsite density matrix
 
spin component  1
 
  0.9760  0.0000  0.0057  0.0000  0.0000
  0.0000  1.0028  0.0000 -0.0084  0.0000
  0.0057  0.0000  0.9869  0.0000  0.0000
  0.0000 -0.0084  0.0000  1.0028  0.0000
  0.0000  0.0000  0.0000  0.0000  0.9980
 
spin component  2
 
  0.0819  0.0000 -0.0356  0.0000 -0.0000
  0.0000  0.0539  0.0000 -0.0240  0.0000
 -0.0356  0.0000  0.0565  0.0000  0.0000
  0.0000 -0.0240  0.0000  0.0539  0.0000
 -0.0000  0.0000  0.0000  0.0000  0.0194
 
 occupancies and eigenvectors
 
  o =  0.0194  v =  0.0000  0.0000  0.0000  0.0000  0.0000  0.0000  0.0000  0.0000  0.0000 -1.0000      0.0000  0.0000  0.0000  0.0000  0.0000  0.0000  0.0000  0.0000  0.0000  0.0000
  o =  0.0299  v =  0.0000  0.0000  0.0000  0.0000  0.0000 -0.0000  0.7071 -0.0000  0.7071  0.0000      0.0000  0.0000  0.0000  0.0000  0.0000  0.0000  0.0000  0.0000  0.0000  0.0000
  o =  0.0313  v =  0.0000  0.0000  0.0000  0.0000  0.0000 -0.5762 -0.0000 -0.8173 -0.0000 -0.0000      0.0000  0.0000  0.0000  0.0000  0.0000  0.0000  0.0000  0.0000  0.0000  0.0000
  o =  0.0780  v =  0.0000  0.0000  0.0000  0.0000  0.0000  0.0000  0.7071  0.0000 -0.7071  0.0000      0.0000  0.0000  0.0000  0.0000  0.0000  0.0000  0.0000  0.0000  0.0000  0.0000
  o =  0.1070  v =  0.0000  0.0000  0.0000  0.0000  0.0000 -0.8173  0.0000  0.5762 -0.0000  0.0000      0.0000  0.0000  0.0000  0.0000  0.0000  0.0000  0.0000  0.0000  0.0000  0.0000
  o =  0.9736  v = -0.9191  0.0000  0.3941  0.0000  0.0000  0.0000  0.0000  0.0000  0.0000  0.0000      0.0000  0.0000  0.0000  0.0000  0.0000  0.0000  0.0000  0.0000  0.0000  0.0000
  o =  0.9894  v = -0.3941  0.0000 -0.9191  0.0000 -0.0000  0.0000  0.0000  0.0000  0.0000  0.0000      0.0000  0.0000  0.0000  0.0000  0.0000  0.0000  0.0000  0.0000  0.0000  0.0000
  o =  0.9944  v =  0.0000 -0.7071  0.0000 -0.7071 -0.0000  0.0000  0.0000  0.0000  0.0000  0.0000      0.0000  0.0000  0.0000  0.0000  0.0000  0.0000  0.0000  0.0000  0.0000  0.0000
  o =  0.9980  v =  0.0000 -0.0000 -0.0000  0.0000  1.0000  0.0000  0.0000  0.0000  0.0000  0.0000      0.0000  0.0000  0.0000  0.0000  0.0000  0.0000  0.0000  0.0000  0.0000  0.0000
  o =  1.0112  v =  0.0000  0.7071  0.0000 -0.7071  0.0000  0.0000  0.0000  0.0000  0.0000  0.0000      0.0000  0.0000  0.0000  0.0000  0.0000  0.0000  0.0000  0.0000  0.0000  0.0000
     EDDAV:  cpu time    0.6308: real time    0.6308
 BZINTS: Fermi energy:  4.860479; 54.000000 electrons
         Band energy:-780.521794;  BLOECHL correction:  0.000000
       DOS:  cpu time    0.0017: real time    0.0017
    CHARGE:  cpu time    0.1276: real time    0.1276
    MIXING:  cpu time    0.0005: real time    0.0005
    --------------------------------------------
      LOOP:  cpu time    1.5733: real time    1.5733

 eigenvalue-minimisations  :  1332
 total energy-change (2. order) :-0.2554116E+01  (-0.4973465E+01)
 number of electron      54.0000008 magnetization       0.0000000
 augmentation part       19.7116041 magnetization       0.0000000

 Broyden mixing:
  rms(total) = 0.17187E+01    rms(broyden)= 0.17185E+01
  rms(prec ) = 0.25266E+01
  weight for this iteration     100.00

 eigenvalues of (default mixing * dielectric matrix)
  average eigenvalue GAMMA=   0.6936
  0.6936  0.6936

 Free energy of the ion-electron system (eV)
  ---------------------------------------------------
  alpha Z        PSCENC =       198.83834377
  Ewald energy   TEWEN  =     -4199.11267237
  -Hartree energ DENC   =     -2180.58015798
  -exchange      EXHF   =         0.00000000
  -V(xc)+E(xc)   XCENC  =       167.65305509
  PAW double counting   =      6482.41095991    -6449.26312128
  entropy T*S    EENTRO =         0.00000000
  eigenvalues    EBANDS =      -780.52179418
  atomic energy  EATOM  =      6688.99317229
  Solvation  Ediel_sol  =         0.00000000
  ---------------------------------------------------
  free energy    TOTEN  =       -71.58221475 eV

  energy without entropy =      -71.58221475  energy(sigma->0) =      -71.58221475


--------------------------------------------------------------------------------------------------------




--------------------------------------- Iteration      1(   8)  ---------------------------------------


    POTLOK:  cpu time    0.0315: real time    0.0315
    SETDIJ:  cpu time    0.7817: real time    0.7817
atom =   1  type =  1  l = 2
 
 onsite density matrix
 
spin component  1
 
  0.0461  0.0000  0.0142  0.0000  0.0000
  0.0000  0.0497  0.0000  0.0213  0.0000
  0.0142  0.0000  0.0400  0.0000  0.0000
  0.0000  0.0213  0.0000  0.0497  0.0000
  0.0000  0.0000  0.0000  0.0000  0.0236
 
spin component  2
 
  0.9915  0.0000  0.0224  0.0000 -0.0000
  0.0000  0.9818  0.0000  0.0120  0.0000
  0.0224  0.0000  0.9802  0.0000 -0.0000
  0.0000  0.0120  0.0000  0.9818  0.0000
 -0.0000  0.0000 -0.0000  0.0000  0.9690
 
 occupancies and eigenvectors
 
  o =  0.0236  v =  0.0000 -0.0000 -0.0000  0.0000  1.0000  0.0000  0.0000  0.0000  0.0000  0.0000      0.0000  0.0000  0.0000  0.0000  0.0000  0.0000  0.0000  0.0000  0.0000  0.0000
  o =  0.0284  v =  0.0000  0.7071  0.0000 -0.7071  0.0000  0.0000  0.0000  0.0000  0.0000  0.0000      0.0000  0.0000  0.0000  0.0000  0.0000  0.0000  0.0000  0.0000  0.0000  0.0000
  o =  0.0285  v = -0.6289 -0.0000  0.7774  0.0000  0.0000  0.0000  0.0000  0.0000  0.0000  0.0000      0.0000  0.0000  0.0000  0.0000  0.0000  0.0000  0.0000  0.0000  0.0000  0.0000
  o =  0.0575  v = -0.7774  0.0000 -0.6289  0.0000 -0.0000  0.0000  0.0000  0.0000  0.0000  0.0000      0.0000  0.0000  0.0000  0.0000  0.0000  0.0000  0.0000  0.0000  0.0000  0.0000
  o =  0.0710  v =  0.0000 -0.7071  0.0000 -0.7071 -0.0000  0.0000  0.0000  0.0000  0.0000  0.0000      0.0000  0.0000  0.0000  0.0000  0.0000  0.0000  0.0000  0.0000  0.0000  0.0000
  o =  0.9627  v =  0.0000  0.0000  0.0000  0.0000  0.0000 -0.6145  0.0000  0.7889  0.0000 -0.0000      0.0000  0.0000  0.0000  0.0000  0.0000  0.0000  0.0000  0.0000  0.0000  0.0000
  o =  0.9690  v =  0.0000  0.0000  0.0000  0.0000  0.0000  0.0000 -0.0000 -0.0000  0.0000 -1.0000      0.0000  0.0000  0.0000  0.0000  0.0000  0.0000  0.0000  0.0000  0.0000  0.0000
  o =  0.9698  v =  0.0000  0.0000  0.0000  0.0000  0.0000  0.0000 -0.7071  0.0000  0.7071  0.0000      0.0000  0.0000  0.0000  0.0000  0.0000  0.0000  0.0000  0.0000  0.0000  0.0000
  o =  0.9938  v =  0.0000  0.0000  0.0000  0.0000  0.0000  0.0000 -0.7071  0.0000 -0.7071  0.0000      0.0000  0.0000  0.0000  0.0000  0.0000  0.0000  0.0000  0.0000  0.0000  0.0000
  o =  1.0089  v =  0.0000  0.0000  0.0000  0.0000  0.0000 -0.7889  0.0000 -0.6145  0.0000  0.0000      0.0000  0.0000  0.0000  0.0000  0.0000  0.0000  0.0000  0.0000  0.0000  0.0000
atom =   2  type =  1  l = 2
 
 onsite density matrix
 
spin component  1
 
  0.9915  0.0000 -0.0224  0.0000 -0.0000
  0.0000  0.9818  0.0000 -0.0120  0.0000
 -0.0224  0.0000  0.9802  0.0000  0.0000
  0.0000 -0.0120  0.0000  0.9818  0.0000
 -0.0000  0.0000  0.0000  0.0000  0.9690
 
spin component  2
 
  0.0461  0.0000 -0.0142  0.0000  0.0000
  0.0000  0.0497  0.0000 -0.0213  0.0000
 -0.0142  0.0000  0.0400  0.0000  0.0000
  0.0000 -0.0213  0.0000  0.0497  0.0000
  0.0000  0.0000  0.0000  0.0000  0.0236
 
 occupancies and eigenvectors
 
  o =  0.0236  v =  0.0000  0.0000  0.0000  0.0000  0.0000 -0.0000  0.0000 -0.0000  0.0000  1.0000      0.0000  0.0000  0.0000  0.0000  0.0000  0.0000  0.0000  0.0000  0.0000  0.0000
  o =  0.0284  v =  0.0000  0.0000  0.0000  0.0000  0.0000  0.0000 -0.7071  0.0000 -0.7071  0.0000      0.0000  0.0000  0.0000  0.0000  0.0000  0.0000  0.0000  0.0000  0.0000  0.0000
  o =  0.0285  v =  0.0000  0.0000  0.0000  0.0000  0.0000 -0.6289 -0.0000 -0.7774 -0.0000 -0.0000      0.0000  0.0000  0.0000  0.0000  0.0000  0.0000  0.0000  0.0000  0.0000  0.0000
  o =  0.0575  v =  0.0000  0.0000  0.0000  0.0000  0.0000 -0.7774 -0.0000  0.6289  0.0000  0.0000      0.0000  0.0000  0.0000  0.0000  0.0000  0.0000  0.0000  0.0000  0.0000  0.0000
  o =  0.0710  v =  0.0000  0.0000  0.0000  0.0000  0.0000 -0.0000  0.7071  0.0000 -0.7071 -0.0000      0.0000  0.0000  0.0000  0.0000  0.0000  0.0000  0.0000  0.0000  0.0000  0.0000
  o =  0.9627  v = -0.6145  0.0000 -0.7889  0.0000 -0.0000  0.0000  0.0000  0.0000  0.0000  0.0000      0.0000  0.0000  0.0000  0.0000  0.0000  0.0000  0.0000  0.0000  0.0000  0.0000
  o =  0.9690  v =  0.0000 -0.0000  0.0000  0.0000 -1.0000  0.0000  0.0000  0.0000  0.0000  0.0000      0.0000  0.0000  0.0000  0.0000  0.0000  0.0000  0.0000  0.0000  0.0000  0.0000
  o =  0.9698  v =  0.0000  0.7071  0.0000  0.7071 -0.0000  0.0000  0.0000  0.0000  0.0000  0.0000      0.0000  0.0000  0.0000  0.0000  0.0000  0.0000  0.0000  0.0000  0.0000  0.0000
  o =  0.9938  v =  0.0000  0.7071  0.0000 -0.7071 -0.0000  0.0000  0.0000  0.0000  0.0000  0.0000      0.0000  0.0000  0.0000  0.0000  0.0000  0.0000  0.0000  0.0000  0.0000  0.0000
  o =  1.0089  v = -0.7889  0.0000  0.6145  0.0000  0.0000  0.0000  0.0000  0.0000  0.0000  0.0000      0.0000  0.0000  0.0000  0.0000  0.0000  0.0000  0.0000  0.0000  0.0000  0.0000
     EDDAV:  cpu time    0.7024: real time    0.7025
 BZINTS: Fermi energy:  3.254287; 54.000000 electrons
         Band energy:-789.310482;  BLOECHL correction:  0.000000
       DOS:  cpu time    0.0017: real time    0.0017
    CHARGE:  cpu time    0.1276: real time    0.1276
    MIXING:  cpu time    0.0006: real time    0.0006
    --------------------------------------------
      LOOP:  cpu time    1.6455: real time    1.6455

 eigenvalue-minimisations  :  1560
 total energy-change (2. order) : 0.2917080E+01  (-0.6937352E+00)
 number of electron      54.0000008 magnetization       0.0000000
 augmentation part       19.8659685 magnetization       0.0000000

 Broyden mixing:
  rms(total) = 0.66811E+00    rms(broyden)= 0.66793E+00
  rms(prec ) = 0.10084E+01
  weight for this iteration     100.00

 eigenvalues of (default mixing * dielectric matrix)
  average eigenvalue GAMMA=   0.7769
  1.0046  0.6631  0.6631

 Free energy of the ion-electron system (eV)
  ---------------------------------------------------
  alpha Z        PSCENC =       198.83834377
  Ewald energy   TEWEN  =     -4199.11267237
  -Hartree energ DENC   =     -2173.61006693
  -exchange      EXHF   =         0.00000000
  -V(xc)+E(xc)   XCENC  =       170.50977587
  PAW double counting   =      6411.71582433    -6376.68902969
  entropy T*S    EENTRO =         0.00000000
  eigenvalues    EBANDS =      -789.31048247
  atomic energy  EATOM  =      6688.99317229
  Solvation  Ediel_sol  =         0.00000000
  ---------------------------------------------------
  free energy    TOTEN  =       -68.66513520 eV

  energy without entropy =      -68.66513520  energy(sigma->0) =      -68.66513520


--------------------------------------------------------------------------------------------------------




--------------------------------------- Iteration      1(   9)  ---------------------------------------


    POTLOK:  cpu time    0.0313: real time    0.0313
    SETDIJ:  cpu time    0.7813: real time    0.7813
atom =   1  type =  1  l = 2
 
 onsite density matrix
 
spin component  1
 
  0.0681  0.0000  0.0370  0.0000  0.0000
  0.0000  0.0472  0.0000  0.0197  0.0000
  0.0370  0.0000  0.0494  0.0000 -0.0000
  0.0000  0.0197  0.0000  0.0472  0.0000
  0.0000  0.0000 -0.0000  0.0000  0.0229
 
spin component  2
 
  0.9489  0.0000  0.0062  0.0000 -0.0000
  0.0000  0.9580  0.0000  0.0159  0.0000
  0.0062  0.0000  0.9452  0.0000 -0.0000
  0.0000  0.0159  0.0000  0.9580  0.0000
 -0.0000  0.0000 -0.0000  0.0000  0.9427
 
 occupancies and eigenvectors
 
  o =  0.0206  v = -0.6145 -0.0000  0.7889  0.0000  0.0000  0.0000  0.0000  0.0000  0.0000  0.0000      0.0000  0.0000  0.0000  0.0000  0.0000  0.0000  0.0000  0.0000  0.0000  0.0000
  o =  0.0229  v = -0.0000  0.0000  0.0000  0.0000 -1.0000  0.0000  0.0000  0.0000  0.0000  0.0000      0.0000  0.0000  0.0000  0.0000  0.0000  0.0000  0.0000  0.0000  0.0000  0.0000
  o =  0.0274  v =  0.0000  0.7071  0.0000 -0.7071  0.0000  0.0000  0.0000  0.0000  0.0000  0.0000      0.0000  0.0000  0.0000  0.0000  0.0000  0.0000  0.0000  0.0000  0.0000  0.0000
  o =  0.0669  v =  0.0000  0.7071  0.0000  0.7071  0.0000  0.0000  0.0000  0.0000  0.0000  0.0000      0.0000  0.0000  0.0000  0.0000  0.0000  0.0000  0.0000  0.0000  0.0000  0.0000
  o =  0.0970  v = -0.7889 -0.0000 -0.6145  0.0000  0.0000  0.0000  0.0000  0.0000  0.0000  0.0000      0.0000  0.0000  0.0000  0.0000  0.0000  0.0000  0.0000  0.0000  0.0000  0.0000
  o =  0.9406  v =  0.0000  0.0000  0.0000  0.0000  0.0000 -0.5986  0.0000  0.8010  0.0000 -0.0000      0.0000  0.0000  0.0000  0.0000  0.0000  0.0000  0.0000  0.0000  0.0000  0.0000
  o =  0.9421  v =  0.0000  0.0000  0.0000  0.0000  0.0000  0.0000  0.7071 -0.0000 -0.7071 -0.0000      0.0000  0.0000  0.0000  0.0000  0.0000  0.0000  0.0000  0.0000  0.0000  0.0000
  o =  0.9427  v =  0.0000  0.0000  0.0000  0.0000  0.0000  0.0000 -0.0000 -0.0000  0.0000 -1.0000      0.0000  0.0000  0.0000  0.0000  0.0000  0.0000  0.0000  0.0000  0.0000  0.0000
  o =  0.9536  v =  0.0000  0.0000  0.0000  0.0000  0.0000 -0.8010  0.0000 -0.5986  0.0000  0.0000      0.0000  0.0000  0.0000  0.0000  0.0000  0.0000  0.0000  0.0000  0.0000  0.0000
  o =  0.9740  v =  0.0000  0.0000  0.0000  0.0000  0.0000  0.0000 -0.7071 -0.0000 -0.7071 -0.0000      0.0000  0.0000  0.0000  0.0000  0.0000  0.0000  0.0000  0.0000  0.0000  0.0000
atom =   2  type =  1  l = 2
 
 onsite density matrix
 
spin component  1
 
  0.9489  0.0000 -0.0062  0.0000 -0.0000
  0.0000  0.9580  0.0000 -0.0159  0.0000
 -0.0062  0.0000  0.9452  0.0000  0.0000
  0.0000 -0.0159  0.0000  0.9580  0.0000
 -0.0000  0.0000  0.0000  0.0000  0.9427
 
spin component  2
 
  0.0681  0.0000 -0.0370  0.0000  0.0000
  0.0000  0.0472  0.0000 -0.0197  0.0000
 -0.0370  0.0000  0.0494  0.0000  0.0000
  0.0000 -0.0197  0.0000  0.0472  0.0000
  0.0000  0.0000  0.0000  0.0000  0.0229
 
 occupancies and eigenvectors
 
  o =  0.0206  v =  0.0000  0.0000  0.0000  0.0000  0.0000 -0.6145 -0.0000 -0.7889  0.0000  0.0000      0.0000  0.0000  0.0000  0.0000  0.0000  0.0000  0.0000  0.0000  0.0000  0.0000
  o =  0.0229  v =  0.0000  0.0000  0.0000  0.0000  0.0000 -0.0000  0.0000 -0.0000  0.0000 -1.0000      0.0000  0.0000  0.0000  0.0000  0.0000  0.0000  0.0000  0.0000  0.0000  0.0000
  o =  0.0274  v =  0.0000  0.0000  0.0000  0.0000  0.0000  0.0000 -0.7071  0.0000 -0.7071 -0.0000      0.0000  0.0000  0.0000  0.0000  0.0000  0.0000  0.0000  0.0000  0.0000  0.0000
  o =  0.0669  v =  0.0000  0.0000  0.0000  0.0000  0.0000  0.0000 -0.7071  0.0000  0.7071 -0.0000      0.0000  0.0000  0.0000  0.0000  0.0000  0.0000  0.0000  0.0000  0.0000  0.0000
  o =  0.0970  v =  0.0000  0.0000  0.0000  0.0000  0.0000 -0.7889 -0.0000  0.6145  0.0000  0.0000      0.0000  0.0000  0.0000  0.0000  0.0000  0.0000  0.0000  0.0000  0.0000  0.0000
  o =  0.9406  v = -0.5986  0.0000 -0.8010  0.0000  0.0000  0.0000  0.0000  0.0000  0.0000  0.0000      0.0000  0.0000  0.0000  0.0000  0.0000  0.0000  0.0000  0.0000  0.0000  0.0000
  o =  0.9421  v =  0.0000  0.7071  0.0000  0.7071 -0.0000  0.0000  0.0000  0.0000  0.0000  0.0000      0.0000  0.0000  0.0000  0.0000  0.0000  0.0000  0.0000  0.0000  0.0000  0.0000
  o =  0.9427  v = -0.0000 -0.0000 -0.0000  0.0000 -1.0000  0.0000  0.0000  0.0000  0.0000  0.0000      0.0000  0.0000  0.0000  0.0000  0.0000  0.0000  0.0000  0.0000  0.0000  0.0000
  o =  0.9536  v = -0.8010  0.0000  0.5986  0.0000  0.0000  0.0000  0.0000  0.0000  0.0000  0.0000      0.0000  0.0000  0.0000  0.0000  0.0000  0.0000  0.0000  0.0000  0.0000  0.0000
  o =  0.9740  v =  0.0000 -0.7071  0.0000  0.7071  0.0000  0.0000  0.0000  0.0000  0.0000  0.0000      0.0000  0.0000  0.0000  0.0000  0.0000  0.0000  0.0000  0.0000  0.0000  0.0000
     EDDAV:  cpu time    0.6914: real time    0.6914
 BZINTS: Fermi energy:  2.208479; 54.000000 electrons
         Band energy:-795.714383;  BLOECHL correction:  0.000000
       DOS:  cpu time    0.0020: real time    0.0020
    CHARGE:  cpu time    0.1273: real time    0.1273
    MIXING:  cpu time    0.0006: real time    0.0006
    --------------------------------------------
      LOOP:  cpu time    1.6340: real time    1.6340

 eigenvalue-minimisations  :  1524
 total energy-change (2. order) : 0.5009849E+00  (-0.5152612E+00)
 number of electron      54.0000008 magnetization       0.0000000
 augmentation part       19.9948836 magnetization       0.0000000

 Broyden mixing:
  rms(total) = 0.81225E+00    rms(broyden)= 0.81221E+00
  rms(prec ) = 0.89579E+00
  weight for this iteration     100.00

 eigenvalues of (default mixing * dielectric matrix)
  average eigenvalue GAMMA=   0.9428
  1.7046  0.5743  0.7461  0.7461

 Free energy of the ion-electron system (eV)
  ---------------------------------------------------
  alpha Z        PSCENC =       198.83834377
  Ewald energy   TEWEN  =     -4199.11267237
  -Hartree energ DENC   =     -2165.99459693
  -exchange      EXHF   =         0.00000000
  -V(xc)+E(xc)   XCENC  =       168.57902821
  PAW double counting   =      6432.39418927    -6396.14723155
  entropy T*S    EENTRO =         0.00000000
  eigenvalues    EBANDS =      -795.71438295
  atomic energy  EATOM  =      6688.99317229
  Solvation  Ediel_sol  =         0.00000000
  ---------------------------------------------------
  free energy    TOTEN  =       -68.16415026 eV

  energy without entropy =      -68.16415026  energy(sigma->0) =      -68.16415026


--------------------------------------------------------------------------------------------------------




--------------------------------------- Iteration      1(  10)  ---------------------------------------


    POTLOK:  cpu time    0.0314: real time    0.0314
    SETDIJ:  cpu time    0.7796: real time    0.7796
atom =   1  type =  1  l = 2
 
 onsite density matrix
 
spin component  1
 
  0.0472  0.0000  0.0155  0.0000 -0.0000
  0.0000  0.0508  0.0000  0.0207  0.0000
  0.0155  0.0000  0.0401  0.0000 -0.0000
  0.0000  0.0207  0.0000  0.0508  0.0000
 -0.0000  0.0000 -0.0000  0.0000  0.0284
 
spin component  2
 
  0.9669  0.0000  0.0296  0.0000  0.0000
  0.0000  0.9517  0.0000  0.0167  0.0000
  0.0296  0.0000  0.9510  0.0000  0.0000
  0.0000  0.0167  0.0000  0.9517  0.0000
  0.0000  0.0000  0.0000  0.0000  0.9331
 
 occupancies and eigenvectors
 
  o =  0.0277  v = -0.6227  0.0000  0.7825  0.0000  0.0000  0.0000  0.0000  0.0000  0.0000  0.0000      0.0000  0.0000  0.0000  0.0000  0.0000  0.0000  0.0000  0.0000  0.0000  0.0000
  o =  0.0284  v = -0.0000 -0.0000  0.0000  0.0000 -1.0000  0.0000  0.0000  0.0000  0.0000  0.0000      0.0000  0.0000  0.0000  0.0000  0.0000  0.0000  0.0000  0.0000  0.0000  0.0000
  o =  0.0301  v =  0.0000 -0.7071  0.0000  0.7071 -0.0000  0.0000  0.0000  0.0000  0.0000  0.0000      0.0000  0.0000  0.0000  0.0000  0.0000  0.0000  0.0000  0.0000  0.0000  0.0000
  o =  0.0595  v = -0.7825  0.0000 -0.6227  0.0000  0.0000  0.0000  0.0000  0.0000  0.0000  0.0000      0.0000  0.0000  0.0000  0.0000  0.0000  0.0000  0.0000  0.0000  0.0000  0.0000
  o =  0.0715  v =  0.0000  0.7071  0.0000  0.7071  0.0000  0.0000  0.0000  0.0000  0.0000  0.0000      0.0000  0.0000  0.0000  0.0000  0.0000  0.0000  0.0000  0.0000  0.0000  0.0000
  o =  0.9283  v =  0.0000  0.0000  0.0000  0.0000  0.0000 -0.6087  0.0000  0.7934  0.0000  0.0000      0.0000  0.0000  0.0000  0.0000  0.0000  0.0000  0.0000  0.0000  0.0000  0.0000
  o =  0.9331  v =  0.0000  0.0000  0.0000  0.0000  0.0000  0.0000 -0.0000 -0.0000  0.0000  1.0000      0.0000  0.0000  0.0000  0.0000  0.0000  0.0000  0.0000  0.0000  0.0000  0.0000
  o =  0.9349  v =  0.0000  0.0000  0.0000  0.0000  0.0000  0.0000  0.7071 -0.0000 -0.7071  0.0000      0.0000  0.0000  0.0000  0.0000  0.0000  0.0000  0.0000  0.0000  0.0000  0.0000
  o =  0.9684  v =  0.0000  0.0000  0.0000  0.0000  0.0000  0.0000  0.7071 -0.0000  0.7071  0.0000      0.0000  0.0000  0.0000  0.0000  0.0000  0.0000  0.0000  0.0000  0.0000  0.0000
  o =  0.9896  v =  0.0000  0.0000  0.0000  0.0000  0.0000 -0.7934  0.0000 -0.6087  0.0000 -0.0000      0.0000  0.0000  0.0000  0.0000  0.0000  0.0000  0.0000  0.0000  0.0000  0.0000
atom =   2  type =  1  l = 2
 
 onsite density matrix
 
spin component  1
 
  0.9669  0.0000 -0.0296  0.0000  0.0000
  0.0000  0.9517  0.0000 -0.0167  0.0000
 -0.0296  0.0000  0.9510  0.0000 -0.0000
  0.0000 -0.0167  0.0000  0.9517  0.0000
  0.0000  0.0000 -0.0000  0.0000  0.9331
 
spin component  2
 
  0.0472  0.0000 -0.0155  0.0000 -0.0000
  0.0000  0.0508  0.0000 -0.0207  0.0000
 -0.0155  0.0000  0.0401  0.0000 -0.0000
  0.0000 -0.0207  0.0000  0.0508  0.0000
 -0.0000  0.0000 -0.0000  0.0000  0.0284
 
 occupancies and eigenvectors
 
  o =  0.0277  v =  0.0000  0.0000  0.0000  0.0000  0.0000 -0.6227  0.0000 -0.7825  0.0000 -0.0000      0.0000  0.0000  0.0000  0.0000  0.0000  0.0000  0.0000  0.0000  0.0000  0.0000
  o =  0.0284  v =  0.0000  0.0000  0.0000  0.0000  0.0000 -0.0000  0.0000 -0.0000  0.0000  1.0000      0.0000  0.0000  0.0000  0.0000  0.0000  0.0000  0.0000  0.0000  0.0000  0.0000
  o =  0.0301  v =  0.0000  0.0000  0.0000  0.0000  0.0000  0.0000  0.7071  0.0000  0.7071 -0.0000      0.0000  0.0000  0.0000  0.0000  0.0000  0.0000  0.0000  0.0000  0.0000  0.0000
  o =  0.0595  v =  0.0000  0.0000  0.0000  0.0000  0.0000 -0.7825 -0.0000  0.6227  0.0000 -0.0000      0.0000  0.0000  0.0000  0.0000  0.0000  0.0000  0.0000  0.0000  0.0000  0.0000
  o =  0.0715  v =  0.0000  0.0000  0.0000  0.0000  0.0000  0.0000 -0.7071 -0.0000  0.7071  0.0000      0.0000  0.0000  0.0000  0.0000  0.0000  0.0000  0.0000  0.0000  0.0000  0.0000
  o =  0.9283  v = -0.6087  0.0000 -0.7934  0.0000  0.0000  0.0000  0.0000  0.0000  0.0000  0.0000      0.0000  0.0000  0.0000  0.0000  0.0000  0.0000  0.0000  0.0000  0.0000  0.0000
  o =  0.9331  v =  0.0000 -0.0000  0.0000  0.0000  1.0000  0.0000  0.0000  0.0000  0.0000  0.0000      0.0000  0.0000  0.0000  0.0000  0.0000  0.0000  0.0000  0.0000  0.0000  0.0000
  o =  0.9349  v =  0.0000 -0.7071  0.0000 -0.7071 -0.0000  0.0000  0.0000  0.0000  0.0000  0.0000      0.0000  0.0000  0.0000  0.0000  0.0000  0.0000  0.0000  0.0000  0.0000  0.0000
  o =  0.9684  v =  0.0000  0.7071  0.0000 -0.7071  0.0000  0.0000  0.0000  0.0000  0.0000  0.0000      0.0000  0.0000  0.0000  0.0000  0.0000  0.0000  0.0000  0.0000  0.0000  0.0000
  o =  0.9896  v = -0.7934  0.0000  0.6087  0.0000 -0.0000  0.0000  0.0000  0.0000  0.0000  0.0000      0.0000  0.0000  0.0000  0.0000  0.0000  0.0000  0.0000  0.0000  0.0000  0.0000
     EDDAV:  cpu time    0.6463: real time    0.6463
 BZINTS: Fermi energy:  2.166217; 54.000000 electrons
         Band energy:-798.099147;  BLOECHL correction:  0.000000
       DOS:  cpu time    0.0020: real time    0.0020
    CHARGE:  cpu time    0.1275: real time    0.1275
    MIXING:  cpu time    0.0007: real time    0.0007
    --------------------------------------------
      LOOP:  cpu time    1.5875: real time    1.5876

 eigenvalue-minimisations  :  1380
 total energy-change (2. order) : 0.4822716E-01  (-0.4525398E-01)
 number of electron      54.0000008 magnetization      -0.0000000
 augmentation part       19.9884006 magnetization      -0.0000000

 Broyden mixing:
  rms(total) = 0.60145E+00    rms(broyden)= 0.60145E+00
  rms(prec ) = 0.67368E+00
  weight for this iteration     100.00

 eigenvalues of (default mixing * dielectric matrix)
  average eigenvalue GAMMA=   1.2106
  2.8545  0.9972  0.9972  0.6020  0.6020

 Free energy of the ion-electron system (eV)
  ---------------------------------------------------
  alpha Z        PSCENC =       198.83834377
  Ewald energy   TEWEN  =     -4199.11267237
  -Hartree energ DENC   =     -2159.53950454
  -exchange      EXHF   =         0.00000000
  -V(xc)+E(xc)   XCENC  =       165.74641834
  PAW double counting   =      6496.63399321    -6461.57652645
  entropy T*S    EENTRO =         0.00000000
  eigenvalues    EBANDS =      -798.09914735
  atomic energy  EATOM  =      6688.99317229
  Solvation  Ediel_sol  =         0.00000000
  ---------------------------------------------------
  free energy    TOTEN  =       -68.11592311 eV

  energy without entropy =      -68.11592311  energy(sigma->0) =      -68.11592311


--------------------------------------------------------------------------------------------------------




--------------------------------------- Iteration      1(  11)  ---------------------------------------


    POTLOK:  cpu time    0.0314: real time    0.0314
    SETDIJ:  cpu time    0.7811: real time    0.7811
atom =   1  type =  1  l = 2
 
 onsite density matrix
 
spin component  1
 
  0.0509  0.0000  0.0301  0.0000  0.0000
  0.0000  0.0436  0.0000  0.0252  0.0000
  0.0301  0.0000  0.0369  0.0000 -0.0000
  0.0000  0.0252  0.0000  0.0436  0.0000
  0.0000  0.0000 -0.0000  0.0000  0.0147
 
spin component  2
 
  0.9636  0.0000  0.0190  0.0000 -0.0000
  0.0000  0.9591  0.0000  0.0168  0.0000
  0.0190  0.0000  0.9519  0.0000 -0.0000
  0.0000  0.0168  0.0000  0.9591  0.0000
 -0.0000  0.0000 -0.0000  0.0000  0.9431
 
 occupancies and eigenvectors
 
  o =  0.0129  v = -0.6219 -0.0000  0.7831  0.0000  0.0000  0.0000  0.0000  0.0000  0.0000  0.0000      0.0000  0.0000  0.0000  0.0000  0.0000  0.0000  0.0000  0.0000  0.0000  0.0000
  o =  0.0147  v = -0.0000  0.0000  0.0000  0.0000 -1.0000  0.0000  0.0000  0.0000  0.0000  0.0000      0.0000  0.0000  0.0000  0.0000  0.0000  0.0000  0.0000  0.0000  0.0000  0.0000
  o =  0.0184  v =  0.0000  0.7071  0.0000 -0.7071  0.0000  0.0000  0.0000  0.0000  0.0000  0.0000      0.0000  0.0000  0.0000  0.0000  0.0000  0.0000  0.0000  0.0000  0.0000  0.0000
  o =  0.0688  v =  0.0000  0.7071  0.0000  0.7071  0.0000  0.0000  0.0000  0.0000  0.0000  0.0000      0.0000  0.0000  0.0000  0.0000  0.0000  0.0000  0.0000  0.0000  0.0000  0.0000
  o =  0.0748  v = -0.7831 -0.0000 -0.6219  0.0000  0.0000  0.0000  0.0000  0.0000  0.0000  0.0000      0.0000  0.0000  0.0000  0.0000  0.0000  0.0000  0.0000  0.0000  0.0000  0.0000
  o =  0.9379  v =  0.0000  0.0000  0.0000  0.0000  0.0000  0.5945  0.0000 -0.8041  0.0000 -0.0000      0.0000  0.0000  0.0000  0.0000  0.0000  0.0000  0.0000  0.0000  0.0000  0.0000
  o =  0.9423  v =  0.0000  0.0000  0.0000  0.0000  0.0000  0.0000  0.7071  0.0000 -0.7071  0.0000      0.0000  0.0000  0.0000  0.0000  0.0000  0.0000  0.0000  0.0000  0.0000  0.0000
  o =  0.9431  v =  0.0000  0.0000  0.0000  0.0000  0.0000 -0.0000  0.0000  0.0000  0.0000 -1.0000      0.0000  0.0000  0.0000  0.0000  0.0000  0.0000  0.0000  0.0000  0.0000  0.0000
  o =  0.9759  v =  0.0000  0.0000  0.0000  0.0000  0.0000  0.0000  0.7071  0.0000  0.7071  0.0000      0.0000  0.0000  0.0000  0.0000  0.0000  0.0000  0.0000  0.0000  0.0000  0.0000
  o =  0.9776  v =  0.0000  0.0000  0.0000  0.0000  0.0000  0.8041 -0.0000  0.5945  0.0000 -0.0000      0.0000  0.0000  0.0000  0.0000  0.0000  0.0000  0.0000  0.0000  0.0000  0.0000
atom =   2  type =  1  l = 2
 
 onsite density matrix
 
spin component  1
 
  0.9636  0.0000 -0.0190  0.0000  0.0000
  0.0000  0.9591  0.0000 -0.0168  0.0000
 -0.0190  0.0000  0.9519  0.0000 -0.0000
  0.0000 -0.0168  0.0000  0.9591  0.0000
  0.0000  0.0000 -0.0000  0.0000  0.9431
 
spin component  2
 
  0.0509  0.0000 -0.0301  0.0000  0.0000
  0.0000  0.0436  0.0000 -0.0252  0.0000
 -0.0301  0.0000  0.0369  0.0000  0.0000
  0.0000 -0.0252  0.0000  0.0436  0.0000
  0.0000  0.0000  0.0000  0.0000  0.0147
 
 occupancies and eigenvectors
 
  o =  0.0129  v =  0.0000  0.0000  0.0000  0.0000  0.0000 -0.6219 -0.0000 -0.7831  0.0000  0.0000      0.0000  0.0000  0.0000  0.0000  0.0000  0.0000  0.0000  0.0000  0.0000  0.0000
  o =  0.0147  v =  0.0000  0.0000  0.0000  0.0000  0.0000 -0.0000  0.0000 -0.0000  0.0000 -1.0000      0.0000  0.0000  0.0000  0.0000  0.0000  0.0000  0.0000  0.0000  0.0000  0.0000
  o =  0.0184  v =  0.0000  0.0000  0.0000  0.0000  0.0000  0.0000  0.7071  0.0000  0.7071  0.0000      0.0000  0.0000  0.0000  0.0000  0.0000  0.0000  0.0000  0.0000  0.0000  0.0000
  o =  0.0688  v =  0.0000  0.0000  0.0000  0.0000  0.0000  0.0000  0.7071  0.0000 -0.7071  0.0000      0.0000  0.0000  0.0000  0.0000  0.0000  0.0000  0.0000  0.0000  0.0000  0.0000
  o =  0.0748  v =  0.0000  0.0000  0.0000  0.0000  0.0000 -0.7831 -0.0000  0.6219  0.0000  0.0000      0.0000  0.0000  0.0000  0.0000  0.0000  0.0000  0.0000  0.0000  0.0000  0.0000
  o =  0.9379  v = -0.5945  0.0000 -0.8041  0.0000 -0.0000  0.0000  0.0000  0.0000  0.0000  0.0000      0.0000  0.0000  0.0000  0.0000  0.0000  0.0000  0.0000  0.0000  0.0000  0.0000
  o =  0.9423  v = -0.0000  0.7071 -0.0000  0.7071  0.0000  0.0000  0.0000  0.0000  0.0000  0.0000      0.0000  0.0000  0.0000  0.0000  0.0000  0.0000  0.0000  0.0000  0.0000  0.0000
  o =  0.9431  v =  0.0000  0.0000  0.0000  0.0000 -1.0000  0.0000  0.0000  0.0000  0.0000  0.0000      0.0000  0.0000  0.0000  0.0000  0.0000  0.0000  0.0000  0.0000  0.0000  0.0000
[...]
     16      -3.5023      1.00000
     17      -3.1216      1.00000
     18      -2.9445      1.00000
     19      -2.8077      1.00000
     20      -2.4049      1.00000
     21      -2.3153      1.00000
     22      -2.2559      1.00000
     23       0.7607      1.00000
     24       0.8025      1.00000
     25       1.0459      1.00000
     26       1.6724      1.00000
     27       2.0161      1.00000
     28       6.3678      0.00000
     29       6.3961      0.00000
     30       6.5030      0.00000
     31       7.3500      0.00000
     32       7.6356      0.00000
     33       8.9509      0.00000
     34      11.2440      0.00000
     35      12.7031      0.00000
     36      13.0728      0.00000

 k-point     8 :       0.3750    0.1250    0.4167
  band No.  band energies     occupation 
      1     -49.2727      1.00000
      2     -49.2327      1.00000
      3     -49.2128      1.00000
      4     -42.7625      1.00000
      5     -42.7188      1.00000
      6     -42.6895      1.00000
      7     -22.6252      1.00000
      8     -22.5688      1.00000
      9     -22.5190      1.00000
     10     -22.4503      1.00000
     11      -4.5110      1.00000
     12      -4.2549      1.00000
     13      -4.1723      1.00000
     14      -3.9944      1.00000
     15      -3.6270      1.00000
     16      -3.3913      1.00000
     17      -3.2183      1.00000
     18      -3.1138      1.00000
     19      -2.5447      1.00000
     20      -2.3864      1.00000
     21      -2.2072      1.00000
     22      -2.1050      1.00000
     23       0.7470      1.00000
     24       0.7762      1.00000
     25       0.9853      1.00000
     26       1.6294      1.00000
     27       2.1444      1.00000
     28       6.3560      0.00000
     29       6.3891      0.00000
     30       6.5585      0.00000
     31       7.3048      0.00000
     32       7.8162      0.00000
     33       9.5744      0.00000
     34      11.1031      0.00000
     35      11.6190      0.00000
     36      12.9306      0.00000

 k-point     9 :       0.3750    0.3750    0.4167
  band No.  band energies     occupation 
      1     -49.2728      1.00000
      2     -49.2327      1.00000
      3     -49.2128      1.00000
      4     -42.7625      1.00000
      5     -42.7188      1.00000
      6     -42.6895      1.00000
      7     -22.6184      1.00000
      8     -22.5771      1.00000
      9     -22.5199      1.00000
     10     -22.4448      1.00000
     11      -4.7453      1.00000
     12      -4.5354      1.00000
     13      -4.1667      1.00000
     14      -4.1050      1.00000
     15      -3.6018      1.00000
     16      -3.3255      1.00000
     17      -3.1539      1.00000
     18      -2.9250      1.00000
     19      -2.3350      1.00000
     20      -2.2415      1.00000
     21      -2.1304      1.00000
     22      -2.0537      1.00000
     23       0.7444      1.00000
     24       0.7692      1.00000
     25       0.9709      1.00000
     26       1.6636      1.00000
     27       2.1201      1.00000
     28       6.3627      0.00000
     29       6.3866      0.00000
     30       6.5762      0.00000
     31       7.2812      0.00000
     32       7.7206      0.00000
     33      10.0645      0.00000
     34      11.6621      0.00000
     35      11.6826      0.00000
     36      11.9175      0.00000


--------------------------------------------------------------------------------------------------------


 soft charge-density along one line, spin component           1
         0         1         2         3         4         5         6         7         8         9
 total charge-density along one line
 
 soft charge-density along one line, spin component           2
         0         1         2         3         4         5         6         7         8         9
 total charge-density along one line
 
 pseudopotential strength for first ion, spin component:           1
-45.245  -0.000  -0.037   7.807   0.000   0.016  -0.000   0.000
 -0.000 -45.211  -0.000   0.000   7.792   0.000  -0.000   0.000
 -0.037  -0.000 -45.245   0.016   0.000   7.807   0.000  -0.000
  7.807   0.000   0.016   5.589  -0.000   0.004  -0.000  -0.000
  0.000   7.792   0.000  -0.000   5.583  -0.000   0.000   0.000
  0.016   0.000   7.807   0.004  -0.000   5.589   0.000   0.000
 -0.000  -0.000   0.000  -0.000   0.000   0.000  -2.999  -0.000
  0.000   0.000  -0.000  -0.000   0.000   0.000  -0.000  -2.981
 -0.000   0.000   0.000   0.000  -0.000   0.000   0.019  -0.000
 -0.000   0.000   0.000   0.000   0.000  -0.000  -0.000  -0.018
  0.000  -0.000  -0.000  -0.000   0.000  -0.000  -0.000   0.000
 -0.000  -0.000   0.000  -0.000   0.000  -0.000  -3.514  -0.000
  0.000   0.000  -0.000  -0.000   0.000   0.000  -0.000  -3.497
 -0.000   0.000   0.000   0.000  -0.000   0.000   0.018  -0.000
 -0.000   0.000   0.000   0.000   0.000  -0.000  -0.000  -0.018
  0.000  -0.000  -0.000  -0.000   0.000  -0.000  -0.000   0.000
  0.000  -0.000   0.000   0.000  -0.000  -0.000   0.011   0.000
  0.000  -0.000   0.000   0.000  -0.000  -0.000   0.022   0.000
 pseudopotential strength for first ion, spin component:           2
-50.999  -0.000  -0.005   9.806   0.000   0.015   0.000   0.000
 -0.000 -50.999  -0.000   0.000   9.791   0.000  -0.000   0.000
 -0.005  -0.000 -50.999   0.015   0.000   9.806  -0.000  -0.000
  9.806   0.000   0.015   4.704  -0.000   0.001  -0.000  -0.000
  0.000   9.791   0.000  -0.000   4.704  -0.000   0.000  -0.000
  0.015   0.000   9.806   0.001  -0.000   4.704  -0.000   0.000
  0.000  -0.000  -0.000  -0.000   0.000  -0.000  -7.352  -0.000
  0.000   0.000  -0.000  -0.000  -0.000   0.000  -0.000  -7.343
  0.000   0.000  -0.000  -0.000  -0.000   0.000  -0.009  -0.000
 -0.000  -0.000   0.000   0.000   0.000  -0.000  -0.000  -0.027
 -0.000  -0.000   0.000  -0.000   0.000  -0.000   0.000   0.000
  0.000  -0.000  -0.000  -0.000   0.000  -0.000  -7.823  -0.000
  0.000   0.000  -0.000  -0.000  -0.000   0.000  -0.000  -7.814
  0.000   0.000  -0.000  -0.000  -0.000   0.000  -0.008  -0.000
 -0.000  -0.000   0.000   0.000   0.000  -0.000  -0.000  -0.027
 -0.000  -0.000   0.000  -0.000   0.000  -0.000   0.000   0.000
  0.000  -0.000  -0.000  -0.000  -0.000   0.000   0.011   0.000
  0.000  -0.000  -0.000  -0.000  -0.000   0.000   0.023   0.000
 total augmentation occupancy for first ion, spin component:           1
  2.001   0.000   0.000  -0.013   0.000   0.001   0.000   0.000   0.000   0.000   0.000   0.000   0.000   0.000   0.000   0.000
  0.000   2.001   0.000   0.000  -0.013   0.000   0.000   0.000   0.000   0.000   0.000   0.000   0.000   0.000   0.000   0.000
  0.000   0.000   2.001   0.001   0.000  -0.013   0.000   0.000   0.000   0.000   0.000   0.000   0.000   0.000   0.000   0.000
 -0.013   0.000   0.001   0.080   0.000  -0.009   0.000   0.000   0.000   0.000   0.000   0.000   0.000   0.000   0.000   0.000
  0.000  -0.013   0.000   0.000   0.090   0.000   0.000   0.000   0.000   0.000   0.000   0.000   0.000   0.000   0.000   0.000
  0.001   0.000  -0.013  -0.009   0.000   0.080   0.000   0.000   0.000   0.000   0.000   0.000   0.000   0.000   0.000   0.000
  0.000   0.000   0.000   0.000   0.000   0.000   7.726   0.000   2.972   0.000   0.000  -5.752   0.000  -2.794   0.000   0.000
  0.000   0.000   0.000   0.000   0.000   0.000   0.000   6.551   0.000   2.524   0.000   0.000  -4.622   0.000  -2.371   0.000
  0.000   0.000   0.000   0.000   0.000   0.000   2.972   0.000   5.937   0.000  -0.000  -2.795   0.000  -4.076   0.000   0.000
  0.000   0.000   0.000   0.000   0.000   0.000   0.000   2.524   0.000   6.551   0.000   0.000  -2.371   0.000  -4.622   0.000
  0.000   0.000   0.000   0.000   0.000   0.000  -0.000   0.000  -0.000   0.000   3.891   0.000   0.000   0.000   0.000  -2.108
  0.000   0.000   0.000   0.000   0.000   0.000  -5.752   0.000  -2.795   0.000   0.000   4.951   0.000   2.661   0.000   0.000
  0.000   0.000   0.000   0.000   0.000   0.000   0.000  -4.622   0.000  -2.371   0.000   0.000   3.856   0.000   2.255   0.000
  0.000   0.000   0.000   0.000   0.000   0.000  -2.794   0.000  -4.076   0.000  -0.000   2.661   0.000   3.365   0.000   0.000
  0.000   0.000   0.000   0.000   0.000   0.000   0.000  -2.371   0.000  -4.622   0.000   0.000   2.255   0.000   3.856   0.000
  0.000   0.000   0.000   0.000   0.000   0.000  -0.000   0.000   0.000   0.000  -2.108   0.000   0.000  -0.000   0.000   1.450
  0.000   0.000   0.000   0.000   0.000   0.000   0.431   0.000  -0.300   0.000  -0.000  -0.409   0.000   0.279   0.000   0.000
  0.000   0.000   0.000   0.000   0.000   0.000  -0.090   0.000   0.069   0.000   0.000   0.095   0.000  -0.068   0.000   0.000
 total augmentation occupancy for first ion, spin component:           2
  0.004   0.000  -0.000   0.017   0.000  -0.001   0.000   0.000   0.000   0.000   0.000   0.000   0.000   0.000   0.000   0.000
  0.000   0.004   0.000   0.000   0.018   0.000   0.000   0.000   0.000   0.000   0.000   0.000   0.000   0.000   0.000   0.000
 -0.000   0.000   0.004  -0.001   0.000   0.017   0.000   0.000   0.000   0.000   0.000   0.000   0.000   0.000   0.000   0.000
  0.017   0.000  -0.001  -0.011   0.000  -0.000   0.000   0.000   0.000   0.000   0.000   0.000   0.000   0.000   0.000   0.000
  0.000   0.018   0.000   0.000  -0.010   0.000   0.000   0.000   0.000   0.000   0.000   0.000   0.000   0.000   0.000   0.000
 -0.001   0.000   0.017  -0.000   0.000  -0.011   0.000   0.000   0.000   0.000   0.000   0.000   0.000   0.000   0.000   0.000
  0.000   0.000   0.000   0.000   0.000   0.000  -5.094   0.000  -1.483   0.000   0.000   2.721   0.000   1.089   0.000   0.000
  0.000   0.000   0.000   0.000   0.000   0.000   0.000  -4.547   0.000  -1.269   0.000   0.000   2.298   0.000   0.933   0.000
  0.000   0.000   0.000   0.000   0.000   0.000  -1.483   0.000  -4.145   0.000   0.000   1.089   0.000   2.009   0.000  -0.000
  0.000   0.000   0.000   0.000   0.000   0.000   0.000  -1.269   0.000  -4.547   0.000   0.000   0.933   0.000   2.298   0.000
  0.000   0.000   0.000   0.000   0.000   0.000   0.000   0.000  -0.000   0.000  -3.259   0.000   0.000   0.000   0.000   1.357
  0.000   0.000   0.000   0.000   0.000   0.000   2.721   0.000   1.089   0.000  -0.000  -1.451   0.000  -0.700   0.000   0.000
  0.000   0.000   0.000   0.000   0.000   0.000   0.000   2.298   0.000   0.933   0.000   0.000  -1.154   0.000  -0.603   0.000
  0.000   0.000   0.000   0.000   0.000   0.000   1.089   0.000   2.009   0.000  -0.000  -0.700   0.000  -0.972   0.000   0.000
  0.000   0.000   0.000   0.000   0.000   0.000   0.000   0.933   0.000   2.298   0.000   0.000  -0.603   0.000  -1.154   0.000
  0.000   0.000   0.000   0.000   0.000   0.000  -0.000   0.000   0.000   0.000   1.357  -0.000   0.000   0.000   0.000  -0.558
  0.000   0.000   0.000   0.000   0.000   0.000  -0.096   0.000   0.057   0.000  -0.000   0.022   0.000   0.000   0.000   0.000
  0.000   0.000   0.000   0.000   0.000   0.000  -0.000   0.000  -0.006   0.000   0.000   0.009   0.000  -0.003   0.000  -0.000


------------------------ aborting loop because EDIFF is reached ----------------------------------------


 


 total charge     
 
# of ion       s       p       d       tot
------------------------------------------
    1        0.167   6.148   4.963  11.279
    2        0.172   6.144   4.970  11.286
    3        1.731   4.399   0.000   6.131
    4        1.731   4.399   0.000   6.131
    5        1.731   4.396   0.000   6.127
    6        1.731   4.396   0.000   6.127
--------------------------------------------------
tot          7.265  29.881   9.933  47.079
 


 magnetization (x)
 
# of ion       s       p       d       tot
------------------------------------------
    1       -0.022  -0.018  -4.582  -4.622
    2        0.023   0.016   4.579   4.618
    3        0.003   0.025   0.000   0.027
    4        0.003   0.025   0.000   0.027
    5       -0.003  -0.021   0.000  -0.024
    6       -0.003  -0.021   0.000  -0.024
--------------------------------------------------
tot         -0.001   0.006  -0.003   0.003
 
    CHARGE:  cpu time    0.0270: real time    0.0270
    FORLOC:  cpu time    0.0009: real time    0.0009
    FORNL :  cpu time    0.1513: real time    0.1513
    STRESS:  cpu time    1.9201: real time    1.9201
    FORCOR:  cpu time    0.0279: real time    0.0279
    FORHAR:  cpu time    0.0019: real time    0.0019
    MIXING:  cpu time    0.0007: real time    0.0007
    OFIELD:  cpu time    0.0000: real time    0.0000

  FORCE on cell =-STRESS in cart. coord.  units (eV):
  Direction    XX          YY          ZZ          XY          YZ          ZX
  --------------------------------------------------------------------------------------
  Alpha Z   198.90350   198.90350   198.90350
  Ewald   -1585.10928 -1585.10928 -1029.17665    -0.00000     0.00000     0.00000
  Hartree   594.63505   594.63505   970.53962    -0.00000    -0.00000    -0.00000
  E(xc)    -150.51557  -150.49249  -150.62556    -0.01620    -0.02581    -0.02751
  Local     162.79212   162.79212  -762.16508     0.00000     0.00000    -0.00000
  n-local  -309.99028  -310.26956  -309.22625     0.01982     0.11178     0.11251
  augment   158.52022   158.52022   158.02618     0.00000    -0.00000     0.00000
  Kinetic   930.62064   931.19266   923.70743    -0.43650    -0.80863    -0.84463
  Fock        0.00000     0.00000     0.00000     0.00000     0.00000     0.00000
  -------------------------------------------------------------------------------------
  Total       0.01431     0.01431    -0.01680    -0.00000     0.00000     0.00000
  in kB       0.29543     0.29543    -0.34676    -0.00000     0.00000     0.00000
  external pressure =        0.08 kB  Pullay stress =        0.00 kB


 VOLUME and BASIS-vectors are now :
 -----------------------------------------------------------------------------
  energy-cutoff  :      550.00
  volume of cell :       77.61
      direct lattice vectors                 reciprocal lattice vectors
     4.857617990  0.000000000  0.000000000     0.205862215 -0.000000000  0.000000000
     0.000000000  4.857617990  0.000000000    -0.000000000  0.205862215  0.000000000
     0.000000000  0.000000000  3.289178528     0.000000000  0.000000000  0.304027280

  length of vectors
     4.857617990  4.857617990  3.289178528     0.205862215  0.205862215  0.304027280


 FORCES acting on ions
    electron-ion (+dipol)            ewald-force                    non-local-force                 convergence-correction
 -----------------------------------------------------------------------------------------------
   0.215E-11 0.516E-11 0.364E-11   -.568E-13 -.114E-12 0.261E-13   -.434E-25 0.000E+00 0.000E+00   0.889E-13 -.119E-13 0.168E-12
   -.634E-13 -.321E-13 0.567E-13   0.000E+00 -.568E-13 0.240E-13   0.422E-25 0.000E+00 0.000E+00   -.599E-13 0.275E-13 -.162E-12
   -.327E+02 0.327E+02 0.668E-12   0.339E+02 -.339E+02 -.113E-13   -.122E+01 0.122E+01 0.000E+00   0.108E-03 -.108E-03 0.536E-13
   0.327E+02 -.327E+02 0.161E-11   -.339E+02 0.339E+02 -.115E-13   0.122E+01 -.122E+01 0.000E+00   -.108E-03 0.108E-03 0.537E-13
   0.327E+02 0.327E+02 -.196E-07   -.339E+02 -.339E+02 -.514E-14   0.122E+01 0.122E+01 -.271E-19   -.108E-03 -.108E-03 0.671E-12
   -.327E+02 -.327E+02 0.196E-07   0.339E+02 0.339E+02 -.544E-14   -.122E+01 -.122E+01 0.271E-19   0.108E-03 0.108E-03 -.806E-12
 -----------------------------------------------------------------------------------------------
   0.111E-11 0.120E-10 0.726E-11   -.711E-14 0.711E-14 0.168E-13   0.000E+00 0.000E+00 0.000E+00   0.532E-14 0.136E-13 -.211E-13
 
 
 POSITION                                       TOTAL-FORCE (eV/Angst)
 -----------------------------------------------------------------------------------
      2.42881      2.42881      1.64459        -0.000000     -0.000000      0.000000
     -0.00000     -0.00000      0.00000        -0.000000     -0.000000      0.000000
      0.95253      3.90509      1.64459         0.000121     -0.000121      0.000000
      3.90509      0.95253      1.64459        -0.000121      0.000121      0.000000
      1.47628      1.47628      0.00000        -0.000121     -0.000121      0.000000
      3.38134      3.38134      0.00000         0.000121      0.000121      0.000000
 -----------------------------------------------------------------------------------
    total drift:                                0.000000      0.000000      0.000000


--------------------------------------------------------------------------------------------------------



  FREE ENERGIE OF THE ION-ELECTRON SYSTEM (eV)
  ---------------------------------------------------
  free  energy   TOTEN  =       -68.02525268 eV

  energy  without entropy=      -68.02525268  energy(sigma->0) =      -68.02525268
 
 d Force = 0.4012482E-06[-0.705E-07, 0.873E-06]  d Energy =-0.9747887E-05 0.101E-04
 d Force =-0.1962415E-01[-0.197E-01,-0.196E-01]  d Ewald  = 0.2793970E+00-0.299E+00


--------------------------------------------------------------------------------------------------------


    POTLOK:  cpu time    0.8120: real time    0.8120


--------------------------------------------------------------------------------------------------------


 Steepest descent step on ions:
 trial-energy change:    0.000010  1 .order   -0.000014   -0.000021   -0.000008
  (g-gl).g = 0.207E-04      g.g   = 0.207E-04  gl.gl    = 0.000E+00
 g(Force)  = 0.873E-06   g(Stress)= 0.198E-04 ortho     = 0.000E+00
 gamma     =   0.00000
 trial     =   1.00000
 opt step  =   1.57639  (harmonic =   1.57639) maximal distance =0.00011437
 next E    =   -68.025279   (d E  =  -0.00002)


--------------------------------------------------------------------------------------------------------


  
 reached required accuracy - stopping structural energy minimisation
     LOOP+:  cpu time   20.4277: real time   20.4282
    4ORBIT:  cpu time    0.0000: real time    0.0000
 


 total charge     
 
# of ion       s       p       d       tot
------------------------------------------
    1        0.167   6.148   4.963  11.279
    2        0.172   6.144   4.970  11.286
    3        1.731   4.399   0.000   6.131
    4        1.731   4.399   0.000   6.131
    5        1.731   4.396   0.000   6.127
    6        1.731   4.396   0.000   6.127
--------------------------------------------------
tot          7.265  29.881   9.933  47.079
 


 magnetization (x)
 
# of ion       s       p       d       tot
------------------------------------------
    1       -0.022  -0.018  -4.582  -4.622
    2        0.023   0.016   4.579   4.618
    3        0.003   0.025   0.000   0.027
    4        0.003   0.025   0.000   0.027
    5       -0.003  -0.021   0.000  -0.024
    6       -0.003  -0.021   0.000  -0.024
--------------------------------------------------
tot         -0.001   0.006  -0.003   0.003
 
 BZINTS: Fermi energy:  2.258550; 54.000000 electrons
         Band energy:-797.191605;  BLOECHL correction:  0.000000

 total amount of memory used by VASP MPI-rank0    43466. kBytes
=======================================================================

   base      :      30000. kBytes
   nonl-proj :       6128. kBytes
   fftplans  :       1718. kBytes
   grid      :       3402. kBytes
   one-center:        186. kBytes
   wavefun   :       2032. kBytes
 
  
  
 General timing and accounting informations for this job:
 ========================================================
  
                  Total CPU time used (sec):       63.856
                            User time (sec):       47.243
                          System time (sec):       16.613
                         Elapsed time (sec):       63.922
  
                   Maximum memory used (kb):       61200.
                   Average memory used (kb):           0.
  
                          Minor page faults:        11538
                          Major page faults:           10
                 Voluntary context switches:          304
