       N       E                     dE             d eps       ncg     rms          rms(c)
DAV:   1     0.737510381794E+03    0.73751E+03   -0.38589E+04  1296   0.223E+03
DAV:   2     0.119873754636E+02   -0.72552E+03   -0.70162E+03  1488   0.559E+02
DAV:   3    -0.406883413086E+02   -0.52676E+02   -0.52446E+02  1584   0.162E+02
DAV:   4    -0.414163947660E+02   -0.72805E+00   -0.72792E+00  1440   0.206E+01
DAV:   5    -0.414282044749E+02   -0.11810E-01   -0.11810E-01  1548   0.251E+00    0.247E+01
DAV:   6    -0.393588127376E+02    0.20694E+01   -0.15618E+01  1632   0.319E+01    0.159E+01
DAV:   7    -0.399946619282E+02   -0.63585E+00   -0.15666E+00  1512   0.107E+01    0.118E+01
DAV:   8    -0.399068565646E+02    0.87805E-01   -0.52321E-01  1512   0.601E+00    0.472E+00
DAV:   9    -0.401844041550E+02   -0.27755E+00   -0.74730E-02  1428   0.261E+00    0.137E+00
DAV:  10    -0.401848449725E+02   -0.44082E-03   -0.15963E-02  1560   0.102E+00    0.250E-01
DAV:  11    -0.401848012897E+02    0.43683E-04   -0.15565E-03  1368   0.272E-01    0.141E-01
DAV:  12    -0.401848444668E+02   -0.43177E-04   -0.40239E-05  1800   0.844E-02    0.637E-02
DAV:  13    -0.401848503936E+02   -0.59267E-05   -0.39818E-05  1392   0.345E-02    0.210E-02
DAV:  14    -0.401848518148E+02   -0.14212E-05   -0.19521E-06  1476   0.143E-02    0.392E-03
DAV:  15    -0.401848519983E+02   -0.18351E-06   -0.14289E-07  1044   0.315E-03    0.138E-03
DAV:  16    -0.401848520149E+02   -0.16602E-07   -0.18763E-08   720   0.138E-03
   1 F= -.40184852E+02 E0= -.40184852E+02  d E =-.401849E+02  mag=     0.0000
       N       E                     dE             d eps       ncg     rms          rms(c)
DAV:   1    -0.401859741990E+02   -0.11222E-02   -0.23440E-02  1296   0.138E+00    0.287E-01
DAV:   2    -0.401849292548E+02    0.10449E-02   -0.32883E-03  1296   0.412E-01    0.168E-01
DAV:   3    -0.401849031110E+02    0.26144E-04   -0.23419E-04  1320   0.164E-01    0.659E-02
DAV:   4    -0.401848878448E+02    0.15266E-04   -0.20534E-05  1608   0.378E-02    0.429E-02
DAV:   5    -0.401848816534E+02    0.61914E-05   -0.46896E-06  1536   0.176E-02    0.144E-02
DAV:   6    -0.401848818634E+02   -0.21003E-06   -0.39452E-07  1512   0.677E-03    0.147E-03
DAV:   7    -0.401848818786E+02   -0.15202E-07   -0.55290E-08   672   0.184E-03
   2 F= -.40184882E+02 E0= -.40184882E+02  d E =-.298637E-04  mag=     0.0000
