       N       E                     dE             d eps       ncg     rms          rms(c)
DAV:   1     0.739165170859E+03    0.73917E+03   -0.38452E+04  1296   0.222E+03
DAV:   2     0.140096029198E+02   -0.72516E+03   -0.70250E+03  1452   0.558E+02
DAV:   3    -0.405884873121E+02   -0.54598E+02   -0.54325E+02  1572   0.164E+02
DAV:   4    -0.414199374255E+02   -0.83145E+00   -0.83128E+00  1428   0.213E+01
DAV:   5    -0.414324694125E+02   -0.12532E-01   -0.12532E-01  1596   0.261E+00    0.247E+01
DAV:   6    -0.393591670517E+02    0.20733E+01   -0.15632E+01  1608   0.319E+01    0.159E+01
DAV:   7    -0.399964152167E+02   -0.63725E+00   -0.15706E+00  1524   0.107E+01    0.118E+01
DAV:   8    -0.399101041424E+02    0.86311E-01   -0.52064E-01  1524   0.599E+00    0.473E+00
DAV:   9    -0.401847450571E+02   -0.27464E+00   -0.73947E-02  1464   0.259E+00    0.136E+00
DAV:  10    -0.401852178059E+02   -0.47275E-03   -0.15788E-02  1548   0.101E+00    0.251E-01
DAV:  11    -0.401851740739E+02    0.43732E-04   -0.15770E-03  1368   0.274E-01    0.142E-01
DAV:  12    -0.401852170769E+02   -0.43003E-04   -0.41007E-05  1776   0.851E-02    0.637E-02
DAV:  13    -0.401852229868E+02   -0.59099E-05   -0.40337E-05  1392   0.347E-02    0.211E-02
DAV:  14    -0.401852244871E+02   -0.15004E-05   -0.19086E-06  1188   0.141E-02    0.398E-03
DAV:  15    -0.401852246710E+02   -0.18385E-06   -0.16017E-07   648   0.342E-03
   1 F= -.40185225E+02 E0= -.40185225E+02  d E =0.000000E+00  mag=    -0.0000
