       N       E                     dE             d eps       ncg     rms          rms(c)
DAV:   1     0.105265172483E+04    0.10527E+04   -0.44046E+04  1296   0.247E+03
DAV:   2     0.422037662195E+03   -0.63061E+03   -0.60382E+03  1512   0.591E+02
DAV:   3     0.381465098592E+03   -0.40573E+02   -0.40138E+02  1464   0.154E+02
DAV:   4     0.380852198939E+03   -0.61290E+00   -0.61185E+00  1572   0.203E+01
DAV:   5     0.380842236621E+03   -0.99623E-02   -0.99620E-02  1464   0.251E+00    0.593E+01
DAV:   6    -0.683559448249E+02   -0.44920E+03   -0.31415E+02  1584   0.216E+02    0.635E+01
DAV:   7    -0.711836336841E+02   -0.28277E+01   -0.50505E+01  1380   0.449E+01    0.169E+01
DAV:   8    -0.686177080682E+02    0.25659E+01   -0.73195E+00  1524   0.225E+01    0.611E+00
DAV:   9    -0.681509540437E+02    0.46675E+00   -0.36603E+00  1380   0.168E+01    0.777E+00
DAV:  10    -0.681132853681E+02    0.37669E-01   -0.32051E-01  1464   0.449E+00    0.540E+00
DAV:  11    -0.680676833687E+02    0.45602E-01   -0.46327E-01  1476   0.608E+00    0.128E+00
DAV:  12    -0.680550104758E+02    0.12673E-01   -0.33076E-02  1368   0.173E+00    0.836E-01
DAV:  13    -0.680505031918E+02    0.45073E-02   -0.26566E-02  1560   0.995E-01    0.796E-01
DAV:  14    -0.680462102730E+02    0.42929E-02   -0.32334E-02  1296   0.202E+00    0.243E-01
DAV:  15    -0.680471812523E+02   -0.97098E-03   -0.30748E-03  1464   0.412E-01    0.292E-01
DAV:  16    -0.680472071005E+02   -0.25848E-04   -0.36934E-03  1464   0.401E-01    0.127E-01
DAV:  17    -0.680470664918E+02    0.14061E-03   -0.55092E-04  1332   0.272E-01    0.813E-02
DAV:  18    -0.680468271297E+02    0.23936E-03   -0.38041E-04  1380   0.117E-01    0.232E-02
DAV:  19    -0.680468029302E+02    0.24199E-04   -0.59989E-05  1356   0.730E-02    0.966E-03
DAV:  20    -0.680468284404E+02   -0.25510E-04   -0.51323E-06  1608   0.139E-02    0.505E-03
DAV:  21    -0.680468332362E+02   -0.47959E-05   -0.22118E-07   684   0.456E-03    0.453E-03
DAV:  22    -0.680468298103E+02    0.34259E-05   -0.41612E-07   660   0.453E-03    0.306E-03
DAV:  23    -0.680468307713E+02   -0.96098E-06   -0.22135E-07   648   0.276E-03
   1 F= -.68046831E+02 E0= -.68046831E+02  d E =0.000000E+00  mag=     0.0000
