 vasp.5.4.4.18Apr17-6-g9f103f2a35 (build Apr 27 2017 11:13:10) complex          
  
 executed on           IFC91_ompi date 2020.05.13  12:02:58
 running on   12 total cores
 distrk:  each k-point on   12 cores,    1 groups
 distr:  one band on NCORES_PER_BAND=   1 cores,   12 groups


--------------------------------------------------------------------------------------------------------


 INCAR:
 POTCAR:    PAW_PBE Mn_pv 02Aug2007               
 POTCAR:    PAW_PBE F 08Apr2002                   

 ----------------------------------------------------------------------------- 
|                                                                             |
|           W    W    AA    RRRRR   N    N  II  N    N   GGGG   !!!           |
|           W    W   A  A   R    R  NN   N  II  NN   N  G    G  !!!           |
|           W    W  A    A  R    R  N N  N  II  N N  N  G       !!!           |
|           W WW W  AAAAAA  RRRRR   N  N N  II  N  N N  G  GGG   !            |
|           WW  WW  A    A  R   R   N   NN  II  N   NN  G    G                |
|           W    W  A    A  R    R  N    N  II  N    N   GGGG   !!!           |
|                                                                             |
|      For optimal performance we recommend to set                            |
|        NCORE= 4 - approx SQRT( number of cores)                             |
|      NCORE specifies how many cores store one orbital (NPAR=cpu/NCORE).     |
|      This setting can  greatly improve the performance of VASP for DFT.     |
|      The default,   NCORE=1            might be grossly inefficient         |
|      on modern multi-core architectures or massively parallel machines.     |
|      Do your own testing !!!!                                               |
|      Unfortunately you need to use the default for GW and RPA calculations. |
|      (for HF NCORE is supported but not extensively tested yet)             |
|                                                                             |
 ----------------------------------------------------------------------------- 

 POTCAR:    PAW_PBE Mn_pv 02Aug2007               
   VRHFIN =Mn: 3p4s3d                                                           
   LEXCH  = PE                                                                  
   EATOM  =  2025.2664 eV,  148.8529 Ry                                         
                                                                                
   TITEL  = PAW_PBE Mn_pv 02Aug2007                                             
   LULTRA =        F    use ultrasoft PP ?                                      
   IUNSCR =        1    unscreen: 0-lin 1-nonlin 2-no                           
   RPACOR =    2.080    partial core radius                                     
   POMASS =   54.938; ZVAL   =   13.000    mass and valenz                      
   RCORE  =    2.300    outmost cutoff radius                                   
   RWIGS  =    2.500; RWIGS  =    1.323    wigner-seitz radius (au A)           
   ENMAX  =  269.864; ENMIN  =  202.398 eV                                      
   ICORE  =        3    local potential                                         
   LCOR   =        T    correct aug charges                                     
   LPAW   =        T    paw PP                                                  
   EAUG   =  569.085                                                            
   DEXC   =    0.000                                                            
   RMAX   =    2.343    core radius for proj-oper                               
   RAUG   =    1.300    factor for augmentation sphere                          
   RDEP   =    2.338    radius for radial grids                                 
   RDEPT  =    1.798    core radius for aug-charge                              
                                                                                
   Atomic configuration                                                         
    8 entries                                                                   
     n  l   j            E        occ.                                          
     1  0  0.50     -6424.8287   2.0000                                         
     2  0  0.50      -739.1154   2.0000                                         
     2  1  1.50      -625.3949   6.0000                                         
     3  0  0.50       -81.6100   2.0000                                         
     3  1  1.50       -50.4667   6.0000                                         
     3  2  2.50        -3.3745   6.0000                                         
     4  0  0.50        -4.1331   1.0000                                         
     4  3  2.50        -1.3606   0.0000                                         
   Description                                                                  
     l       E           TYP  RCUT    TYP  RCUT                                 
     1    -50.4666628     23  2.000                                             
     1     -1.3605826     23  2.000                                             
     2     -3.3744729     23  2.300                                             
     2     -4.7350555     23  2.300                                             
     0     -4.1331431     23  2.300                                             
     0      7.6656591     23  2.300                                             
     3      9.5240782     23  2.300                                             
  local pseudopotential read in
  partial core-charges read in
  partial kinetic energy density read in
  atomic valenz-charges read in
  non local Contribution for L=           1  read in
    real space projection operators read in
  non local Contribution for L=           1  read in
    real space projection operators read in
  non local Contribution for L=           2  read in
    real space projection operators read in
  non local Contribution for L=           2  read in
    real space projection operators read in
  non local Contribution for L=           0  read in
    real space projection operators read in
  non local Contribution for L=           0  read in
    real space projection operators read in
    PAW grid and wavefunctions read in
 
   number of l-projection  operators is LMAX  =           6
   number of lm-projection operators is LMMAX =          18
 
 POTCAR:    PAW_PBE F 08Apr2002                   
   VRHFIN =F: s2p5                                                              
   LEXCH  = PE                                                                  
   EATOM  =   659.6475 eV,   48.4827 Ry                                         
                                                                                
   TITEL  = PAW_PBE F 08Apr2002                                                 
   LULTRA =        F    use ultrasoft PP ?                                      
   IUNSCR =        1    unscreen: 0-lin 1-nonlin 2-no                           
   RPACOR =    1.200    partial core radius                                     
   POMASS =   18.998; ZVAL   =    7.000    mass and valenz                      
   RCORE  =    1.520    outmost cutoff radius                                   
   RWIGS  =    1.500; RWIGS  =    0.794    wigner-seitz radius (au A)           
   ENMAX  =  400.000; ENMIN  =  300.000 eV                                      
   ICORE  =        2    local potential                                         
   LCOR   =        T    correct aug charges                                     
   LPAW   =        T    paw PP                                                  
   EAUG   =  613.614                                                            
   RMAX   =    1.555    core radius for proj-oper                               
   RAUG   =    1.300    factor for augmentation sphere                          
   RDEP   =    1.539    radius for radial grids                                 
   RDEPT  =    1.299    core radius for aug-charge                              
                                                                                
   Atomic configuration                                                         
    4 entries                                                                   
     n  l   j            E        occ.                                          
     1  0  0.50      -663.3661   2.0000                                         
     2  0  0.50       -29.8995   2.0000                                         
     2  1  0.50       -11.1114   5.0000                                         
     3  2  1.50       -10.8847   0.0000                                         
   Description                                                                  
     l       E           TYP  RCUT    TYP  RCUT                                 
     0    -29.8995018     23  1.200                                             
     0     -9.5240782     23  1.200                                             
     1    -11.1113914     23  1.520                                             
     1      1.3605826     23  1.520                                             
     2    -10.8846608      7  1.500                                             
  local pseudopotential read in
  partial core-charges read in
  partial kinetic energy density read in
  atomic valenz-charges read in
  non local Contribution for L=           0  read in
    real space projection operators read in
  non local Contribution for L=           0  read in
    real space projection operators read in
  non local Contribution for L=           1  read in
    real space projection operators read in
  non local Contribution for L=           1  read in
    real space projection operators read in
    PAW grid and wavefunctions read in
 
   number of l-projection  operators is LMAX  =           4
   number of lm-projection operators is LMMAX =           8
 
  PAW_PBE Mn_pv 02Aug2007               :
 energy of atom  1       EATOM=-2025.2664
 kinetic energy error for atom=    0.0011 (will be added to EATOM!!)
  PAW_PBE F 08Apr2002                   :
 energy of atom  2       EATOM= -659.6475
 kinetic energy error for atom=    0.0063 (will be added to EATOM!!)
 
 
 POSCAR: Mn  F                                   
  positions in cartesian coordinates
  No initial velocities read in

 METAGGA = SCAN     LMAXTAU =  6    LMIXTAU =  F

 exchange correlation table for  LEXCH =        8
   RHO(1)=    0.500       N(1)  =     2000
   RHO(2)=  100.500       N(2)  =     4000
 


--------------------------------------------------------------------------------------------------------


 ion  position               nearest neighbor table
   1  0.500  0.500  0.500-   3 2.09   4 2.09   5 2.12   6 2.12   5 2.12   6 2.12
   2  0.000  0.000  0.000-   5 2.09   6 2.09   3 2.12   4 2.12   3 2.12   4 2.12
   3  0.196  0.804  0.500-   1 2.09   2 2.12   2 2.12
   4  0.804  0.196  0.500-   1 2.09   2 2.12   2 2.12
   5  0.304  0.304  0.000-   2 2.09   1 2.12   1 2.12
   6  0.696  0.696  0.000-   2 2.09   1 2.12   1 2.12
 
  LATTYP: Found a simple tetragonal cell.
 ALAT       =     4.8525685001
 C/A-ratio  =     0.6775817662
  
  Lattice vectors:
  
 A1 = (   4.8525685001,   0.0000000000,   0.0000000000)
 A2 = (   0.0000000000,   4.8525685001,   0.0000000000)
 A3 = (   0.0000000000,   0.0000000000,   3.2880119349)


Analysis of symmetry for initial positions (statically):
=====================================================================
 Subroutine PRICEL returns:
 Original cell was already a primitive cell.
 

 Routine SETGRP: Setting up the symmetry group for a 
 simple tetragonal supercell.


 Subroutine GETGRP returns: Found 16 space group operations
 (whereof  8 operations were pure point group operations)
 out of a pool of 16 trial point group operations.


The static configuration has the point symmetry D_2h.
 The point group associated with its full space group is D_4h.


Analysis of symmetry for dynamics (positions and initial velocities):
=====================================================================
 Subroutine PRICEL returns:
 Original cell was already a primitive cell.
 

 Routine SETGRP: Setting up the symmetry group for a 
 simple tetragonal supercell.


 Subroutine GETGRP returns: Found 16 space group operations
 (whereof  8 operations were pure point group operations)
 out of a pool of 16 trial point group operations.


The dynamic configuration has the point symmetry D_2h.
 The point group associated with its full space group is D_4h.


Analysis of structural, dynamic, and magnetic symmetry:
=====================================================================
 Subroutine PRICEL returns:
 Original cell was already a primitive cell.
 

 Routine SETGRP: Setting up the symmetry group for a 
 simple tetragonal supercell.


 Subroutine GETGRP returns: Found 16 space group operations
 (whereof  8 operations were pure point group operations)
 out of a pool of 16 trial point group operations.


The magnetic configuration has the point symmetry D_2h.
 The point group associated with its full space group is D_4h.


 Subroutine INISYM returns: Found 16 space group operations
 (whereof  8 operations are pure point group operations),
 and found     1 'primitive' translations

 
 
 KPOINTS: KPOINTS created by Atomic Simulation Env

Automatic generation of k-mesh.
Space group operators:
 irot       det(A)        alpha          n_x          n_y          n_z        tau_x        tau_y        tau_z
    1     1.000000     0.000000     1.000000     0.000000     0.000000     0.000000     0.000000     0.000000
    2    -1.000000     0.000000     1.000000     0.000000     0.000000     0.000000     0.000000     0.000000
    3     1.000000   180.000000     0.000000     0.000000     1.000000     0.000000     0.000000     0.000000
    4    -1.000000   180.000000     0.000000     0.000000     1.000000     0.000000     0.000000     0.000000
    5     1.000000   180.000000     0.707107     0.707107     0.000000     0.000000     0.000000     0.000000
    6    -1.000000   180.000000     0.707107     0.707107     0.000000     0.000000     0.000000     0.000000
    7     1.000000   180.000000     0.707107    -0.707107     0.000000     0.000000     0.000000     0.000000
    8    -1.000000   180.000000     0.707107    -0.707107     0.000000     0.000000     0.000000     0.000000
    9     1.000000    90.000000     0.000000     0.000000    -1.000000     0.500000     0.500000     0.500000
   10    -1.000000    90.000000     0.000000     0.000000    -1.000000     0.500000     0.500000     0.500000
   11     1.000000    90.000000     0.000000     0.000000     1.000000     0.500000     0.500000     0.500000
   12    -1.000000    90.000000     0.000000     0.000000     1.000000     0.500000     0.500000     0.500000
   13     1.000000   180.000000     0.000000     1.000000     0.000000     0.500000     0.500000     0.500000
   14    -1.000000   180.000000     0.000000     1.000000     0.000000     0.500000     0.500000     0.500000
   15     1.000000   180.000000     1.000000     0.000000     0.000000     0.500000     0.500000     0.500000
   16    -1.000000   180.000000     1.000000     0.000000     0.000000     0.500000     0.500000     0.500000
 
 Subroutine IBZKPT returns following result:
 ===========================================
 
 Found      9 irreducible k-points:
 
 Following reciprocal coordinates:
            Coordinates               Weight
  0.125000  0.125000  0.083333      8.000000
  0.375000  0.125000  0.083333     16.000000
  0.375000  0.375000  0.083333      8.000000
  0.125000  0.125000  0.250000      8.000000
  0.375000  0.125000  0.250000     16.000000
  0.375000  0.375000  0.250000      8.000000
  0.125000  0.125000  0.416667      8.000000
  0.375000  0.125000  0.416667     16.000000
  0.375000  0.375000  0.416667      8.000000
 
 Following cartesian coordinates:
            Coordinates               Weight
  0.025760  0.025760  0.025345      8.000000
  0.077279  0.025760  0.025345     16.000000
  0.077279  0.077279  0.025345      8.000000
  0.025760  0.025760  0.076034      8.000000
  0.077279  0.025760  0.076034     16.000000
  0.077279  0.077279  0.076034      8.000000
  0.025760  0.025760  0.126723      8.000000
  0.077279  0.025760  0.126723     16.000000
  0.077279  0.077279  0.126723      8.000000
 
 TETIRR: Found    106 inequivalent tetrahedra from      576


--------------------------------------------------------------------------------------------------------




 Dimension of arrays:
   k-points           NKPTS =      9   k-points in BZ     NKDIM =      9   number of bands    NBANDS=     36
   number of dos      NEDOS =    301   number of ions     NIONS =      6
   non local maximal  LDIM  =      6   non local SUM 2l+1 LMDIM =     18
   total plane-waves  NPLWV =  31104
   max r-space proj   IRMAX =      1   max aug-charges    IRDMAX=  97706
   dimension x,y,z NGX =    36 NGY =   36 NGZ =   24
   dimension x,y,z NGXF=    72 NGYF=   72 NGZF=   48
   support grid    NGXF=   144 NGYF=  144 NGZF=   96
   ions per type =               2   4
   NGX,Y,Z   is equivalent  to a cutoff of  12.33, 12.33, 12.13 a.u.
   NGXF,Y,Z  is equivalent  to a cutoff of  24.67, 24.67, 24.27 a.u.

 SYSTEM =  unknown system                          
 POSCAR =  Mn  F                                   

 Startparameter for this run:
   NWRITE =      2    write-flag & timer
   PREC   = normal    normal or accurate (medium, high low for compatibility)
   ISTART =      0    job   : 0-new  1-cont  2-samecut
   ICHARG =      2    charge: 1-file 2-atom 10-const
   ISPIN  =      2    spin polarized calculation?
   LNONCOLLINEAR =      F non collinear calculations
   LSORBIT =      F    spin-orbit coupling
   INIWAV =      1    electr: 0-lowe 1-rand  2-diag
   LASPH  =      T    aspherical Exc in radial PAW
   METAGGA=      F    non-selfconsistent MetaGGA calc.

 Electronic Relaxation 1
   ENCUT  =  800.0 eV  58.80 Ry    7.67 a.u.  11.19 11.19  7.58*2*pi/ulx,y,z
   ENINI  =  800.0     initial cutoff
   ENAUG  =  613.6 eV  augmentation charge cutoff
   NELM   =     60;   NELMIN=  2; NELMDL= -5     # of ELM steps 
   EDIFF  = 0.1E-05   stopping-criterion for ELM
   LREAL  =      F    real-space projection
   NLSPLINE    = F    spline interpolate recip. space projectors
   LCOMPAT=      F    compatible to vasp.4.4
   GGA_COMPAT  = T    GGA compatible to vasp.4.4-vasp.4.6
   LMAXPAW     = -100 max onsite density
   LMAXMIX     =    4 max onsite mixed and CHGCAR
   VOSKOWN=      0    Vosko Wilk Nusair interpolation
   ROPT   =    0.00000   0.00000
 Ionic relaxation
   EDIFFG = 0.1E-04   stopping-criterion for IOM
   NSW    =      0    number of steps for IOM
   NBLOCK =      1;   KBLOCK =      1    inner block; outer block 
   IBRION =     -1    ionic relax: 0-MD 1-quasi-New 2-CG
   NFREE  =      0    steps in history (QN), initial steepest desc. (CG)
   ISIF   =      2    stress and relaxation
   IWAVPR =     10    prediction:  0-non 1-charg 2-wave 3-comb
   ISYM   =      2    0-nonsym 1-usesym 2-fastsym
   LCORR  =      T    Harris-Foulkes like correction to forces

   POTIM  = 0.5000    time-step for ionic-motion
   TEIN   =    0.0    initial temperature
   TEBEG  =    0.0;   TEEND  =   0.0 temperature during run
   SMASS  =  -3.00    Nose mass-parameter (am)
   estimated Nose-frequenzy (Omega)   =  0.10E-29 period in steps =****** mass=  -0.538E-27a.u.
   SCALEE = 1.0000    scale energy and forces
   NPACO  =    256;   APACO  = 16.0  distance and # of slots for P.C.
   PSTRESS=    0.0 pullay stress

  Mass of Ions in am
   POMASS =  54.94 19.00
  Ionic Valenz
   ZVAL   =  13.00  7.00
  Atomic Wigner-Seitz radii
   RWIGS  =  -1.00 -1.00
  virtual crystal weights 
   VCA    =   1.00  1.00
   NELECT =      54.0000    total number of electrons
   NUPDOWN=      -1.0000    fix difference up-down

 DOS related values:
   EMIN   =  10.00;   EMAX   =-10.00  energy-range for DOS
   EFERMI =   0.00
   ISMEAR =    -5;   SIGMA  =   0.20  broadening in eV -4-tet -1-fermi 0-gaus

 Electronic relaxation 2 (details)
   IALGO  =     38    algorithm
   LDIAG  =      T    sub-space diagonalisation (order eigenvalues)
   LSUBROT=      F    optimize rotation matrix (better conditioning)
   TURBO    =      0    0=normal 1=particle mesh
   IRESTART =      0    0=no restart 2=restart with 2 vectors
   NREBOOT  =      0    no. of reboots
   NMIN     =      0    reboot dimension
   EREF     =   0.00    reference energy to select bands
   IMIX   =      4    mixing-type and parameters
     AMIX     =   0.40;   BMIX     =  1.00
     AMIX_MAG =   1.60;   BMIX_MAG =  1.00
     AMIN     =   0.10
     WC   =   100.;   INIMIX=   1;  MIXPRE=   1;  MAXMIX= -45

 Intra band minimization:
   WEIMIN = 0.0000     energy-eigenvalue tresh-hold
   EBREAK =  0.69E-08  absolut break condition
   DEPER  =   0.30     relativ break condition  

   TIME   =   0.40     timestep for ELM

  volume/ion in A,a.u.               =      12.90        87.08
  Fermi-wavevector in a.u.,A,eV,Ry     =   1.451824  2.743549 28.678246  2.107792
  Thomas-Fermi vector in A             =   2.569276
 
 Write flags
   LWAVE        =      T    write WAVECAR
   LDOWNSAMPLE  =      F    k-point downsampling of WAVECAR
   LCHARG       =      T    write CHGCAR
   LVTOT        =      F    write LOCPOT, total local potential
   LVHAR        =      F    write LOCPOT, Hartree potential only
   LELF         =      F    write electronic localiz. function (ELF)
   LORBIT       =     11    0 simple, 1 ext, 2 COOP (PROOUT), +10 PAW based schemes


 Dipole corrections
   LMONO  =      F    monopole corrections only (constant potential shift)
   LDIPOL =      F    correct potential (dipole corrections)
   IDIPOL =      0    1-x, 2-y, 3-z, 4-all directions 
   EPSILON=  1.0000000 bulk dielectric constant

 LDA+U is selected, type is set to LDAUTYPE =  2
   angular momentum for each species LDAUL =     2   -1
   U (eV)           for each species LDAUU =   0.0  0.0
   J (eV)           for each species LDAUJ =   0.0  0.0
 Exchange correlation treatment:
   GGA     =    --    GGA type
   LEXCH   =     8    internal setting for exchange type
   VOSKOWN=      0    Vosko Wilk Nusair interpolation
   LHFCALC =     F    Hartree Fock is set to
   LHFONE  =     F    Hartree Fock one center treatment
   AEXX    =    0.0000 exact exchange contribution

 Linear response parameters
   LEPSILON=     F    determine dielectric tensor
   LRPA    =     F    only Hartree local field effects (RPA)
   LNABLA  =     F    use nabla operator in PAW spheres
   LVEL    =     F    velocity operator in full k-point grid
   LINTERFAST=   F  fast interpolation
   KINTER  =     0    interpolate to denser k-point grid
   CSHIFT  =0.1000    complex shift for real part using Kramers Kronig
   OMEGAMAX=  -1.0    maximum frequency
   DEG_THRESHOLD= 0.2000000E-02 threshold for treating states as degnerate
   RTIME   =   -0.100 relaxation time in fs
  (WPLASMAI=    0.000 imaginary part of plasma frequency in eV, 0.658/RTIME)
   DFIELD  = 0.0000000 0.0000000 0.0000000 field for delta impulse in time
 
 Orbital magnetization related:
   ORBITALMAG=     F  switch on orbital magnetization
   LCHIMAG   =     F  perturbation theory with respect to B field
   DQ        =  0.001000  dq finite difference perturbation B field
   LLRAUG    =     F  two centre corrections for induced B field



--------------------------------------------------------------------------------------------------------


 Static calculation
 charge density and potential will be updated during run
 spin polarized calculation
 Variant of blocked Davidson
 Davidson routine will perform the subspace rotation
 perform sub-space diagonalisation
    after iterative eigenvector-optimisation
 modified Broyden-mixing scheme, WC =      100.0
 initial mixing is a Kerker type mixing with AMIX =  0.4000 and BMIX =      1.0000
 Hartree-type preconditioning will be used
 using additional bands            9
 reciprocal scheme for non local part
 use partial core corrections
 calculate Harris-corrections to forces 
   (improved forces if not selfconsistent)
 use gradient corrections 
 use of overlap-Matrix (Vanderbilt PP)
 Fermi weights with tetrahedron method with Bloechl corrections


--------------------------------------------------------------------------------------------------------


  energy-cutoff  :      800.00
  volume of cell :       77.42
      direct lattice vectors                 reciprocal lattice vectors
     4.852568500  0.000000000  0.000000000     0.206076431  0.000000000  0.000000000
     0.000000000  4.852568500  0.000000000     0.000000000  0.206076431  0.000000000
     0.000000000  0.000000000  3.288011935     0.000000000  0.000000000  0.304135149

  length of vectors
     4.852568500  4.852568500  3.288011935     0.206076431  0.206076431  0.304135149


 
 k-points in units of 2pi/SCALE and weight: KPOINTS created by Atomic Simulation Env
   0.02575955  0.02575955  0.02534460       0.083
   0.07727866  0.02575955  0.02534460       0.167
   0.07727866  0.07727866  0.02534460       0.083
   0.02575955  0.02575955  0.07603379       0.083
   0.07727866  0.02575955  0.07603379       0.167
   0.07727866  0.07727866  0.07603379       0.083
   0.02575955  0.02575955  0.12672298       0.083
   0.07727866  0.02575955  0.12672298       0.167
   0.07727866  0.07727866  0.12672298       0.083
 
 k-points in reciprocal lattice and weights: KPOINTS created by Atomic Simulation Env
   0.12500000  0.12500000  0.08333333       0.083
   0.37500000  0.12500000  0.08333333       0.167
   0.37500000  0.37500000  0.08333333       0.083
   0.12500000  0.12500000  0.25000000       0.083
   0.37500000  0.12500000  0.25000000       0.167
   0.37500000  0.37500000  0.25000000       0.083
   0.12500000  0.12500000  0.41666667       0.083
   0.37500000  0.12500000  0.41666667       0.167
   0.37500000  0.37500000  0.41666667       0.083
 
 position of ions in fractional coordinates (direct lattice) 
   0.50000000  0.50000000  0.50000000
   0.00000000  0.00000000  0.00000000
   0.19609954  0.80390046  0.50000000
   0.80390046  0.19609954  0.50000000
   0.30390046  0.30390046  0.00000000
   0.69609954  0.69609954  0.00000000
 
 position of ions in cartesian coordinates  (Angst):
   2.42628425  2.42628425  1.64400597
   0.00000000  0.00000000  0.00000000
   0.95158645  3.90098205  1.64400597
   3.90098205  0.95158645  1.64400597
   1.47469780  1.47469780  0.00000000
   3.37787070  3.37787070  0.00000000
 


--------------------------------------------------------------------------------------------------------


 k-point  1 :   0.1250 0.1250 0.0833  plane waves:    3986
 k-point  2 :   0.3750 0.1250 0.0833  plane waves:    3985
 k-point  3 :   0.3750 0.3750 0.0833  plane waves:    3983
 k-point  4 :   0.1250 0.1250 0.2500  plane waves:    3985
 k-point  5 :   0.3750 0.1250 0.2500  plane waves:    3978
 k-point  6 :   0.3750 0.3750 0.2500  plane waves:    3976
 k-point  7 :   0.1250 0.1250 0.4167  plane waves:    3952
 k-point  8 :   0.3750 0.1250 0.4167  plane waves:    3973
 k-point  9 :   0.3750 0.3750 0.4167  plane waves:    3976

 maximum and minimum number of plane-waves per node :      3986     3952

 maximum number of plane-waves:      3986
 maximum index in each direction: 
   IXMAX=   11   IYMAX=   11   IZMAX=    7
   IXMIN=  -11   IYMIN=  -11   IZMIN=   -7


 serial   3D FFT for wavefunctions
 parallel 3D FFT for charge:
    minimum data exchange during FFTs selected (reduces bandwidth)


 total amount of memory used by VASP MPI-rank0    54240. kBytes
=======================================================================

   base      :      30000. kBytes
   nonl-proj :      10741. kBytes
   fftplans  :       3220. kBytes
   grid      :       6579. kBytes
   one-center:        186. kBytes
   wavefun   :       3514. kBytes
 
     INWAV:  cpu time    0.0000: real time    0.0000
 Broyden mixing: mesh for mixing (old mesh)
   NGX = 23   NGY = 23   NGZ = 15
  (NGX  = 72   NGY  = 72   NGZ  = 48)
  gives a total of   7935 points

 initial charge density was supplied:
 charge density of overlapping atoms calculated
 number of electron      54.0000000 magnetization       0.0000000
 keeping initial charge density in first step


--------------------------------------------------------------------------------------------------------


 Maximum index for augmentation-charges         8031 (set IRDMAX)


--------------------------------------------------------------------------------------------------------


 First call to EWALD:  gamma=   0.416
 Maximum number of real-space cells 2x 2x 3
 Maximum number of reciprocal cells 3x 3x 2

    FEWALD:  cpu time    0.0010: real time    0.0010


--------------------------------------- Iteration      1(   1)  ---------------------------------------


    POTLOK:  cpu time    0.0598: real time    0.0598
    SETDIJ:  cpu time    1.4888: real time    1.4888
atom =   1  type =  1  l = 2
 
 onsite density matrix
 
spin component  1
 
  0.2835  0.0000  0.0000  0.0000  0.0000
  0.0000  0.2835  0.0000  0.0000  0.0000
  0.0000  0.0000  0.2835  0.0000  0.0000
  0.0000  0.0000  0.0000  0.2835  0.0000
  0.0000  0.0000  0.0000  0.0000  0.2835
 
spin component  2
 
  0.7694  0.0000  0.0000  0.0000  0.0000
  0.0000  0.7694  0.0000  0.0000  0.0000
  0.0000  0.0000  0.7694  0.0000  0.0000
  0.0000  0.0000  0.0000  0.7694  0.0000
  0.0000  0.0000  0.0000  0.0000  0.7694
 
 occupancies and eigenvectors
 
  o =  0.2835  v =  1.0000  0.0000  0.0000  0.0000  0.0000  0.0000  0.0000  0.0000  0.0000  0.0000      0.0000  0.0000  0.0000  0.0000  0.0000  0.0000  0.0000  0.0000  0.0000  0.0000
  o =  0.2835  v =  0.0000  1.0000  0.0000  0.0000  0.0000  0.0000  0.0000  0.0000  0.0000  0.0000      0.0000  0.0000  0.0000  0.0000  0.0000  0.0000  0.0000  0.0000  0.0000  0.0000
  o =  0.2835  v =  0.0000  0.0000  1.0000  0.0000  0.0000  0.0000  0.0000  0.0000  0.0000  0.0000      0.0000  0.0000  0.0000  0.0000  0.0000  0.0000  0.0000  0.0000  0.0000  0.0000
  o =  0.2835  v =  0.0000  0.0000  0.0000  1.0000  0.0000  0.0000  0.0000  0.0000  0.0000  0.0000      0.0000  0.0000  0.0000  0.0000  0.0000  0.0000  0.0000  0.0000  0.0000  0.0000
  o =  0.2835  v =  0.0000  0.0000  0.0000  0.0000  1.0000  0.0000  0.0000  0.0000  0.0000  0.0000      0.0000  0.0000  0.0000  0.0000  0.0000  0.0000  0.0000  0.0000  0.0000  0.0000
  o =  0.7694  v =  0.0000  0.0000  0.0000  0.0000  0.0000  1.0000  0.0000  0.0000  0.0000  0.0000      0.0000  0.0000  0.0000  0.0000  0.0000  0.0000  0.0000  0.0000  0.0000  0.0000
  o =  0.7694  v =  0.0000  0.0000  0.0000  0.0000  0.0000  0.0000  1.0000  0.0000  0.0000  0.0000      0.0000  0.0000  0.0000  0.0000  0.0000  0.0000  0.0000  0.0000  0.0000  0.0000
  o =  0.7694  v =  0.0000  0.0000  0.0000  0.0000  0.0000  0.0000  0.0000  1.0000  0.0000  0.0000      0.0000  0.0000  0.0000  0.0000  0.0000  0.0000  0.0000  0.0000  0.0000  0.0000
  o =  0.7694  v =  0.0000  0.0000  0.0000  0.0000  0.0000  0.0000  0.0000  0.0000  1.0000  0.0000      0.0000  0.0000  0.0000  0.0000  0.0000  0.0000  0.0000  0.0000  0.0000  0.0000
  o =  0.7694  v =  0.0000  0.0000  0.0000  0.0000  0.0000  0.0000  0.0000  0.0000  0.0000  1.0000      0.0000  0.0000  0.0000  0.0000  0.0000  0.0000  0.0000  0.0000  0.0000  0.0000
atom =   2  type =  1  l = 2
 
 onsite density matrix
 
spin component  1
 
  0.7694  0.0000  0.0000  0.0000  0.0000
  0.0000  0.7694  0.0000  0.0000  0.0000
  0.0000  0.0000  0.7694  0.0000  0.0000
  0.0000  0.0000  0.0000  0.7694  0.0000
  0.0000  0.0000  0.0000  0.0000  0.7694
 
spin component  2
 
  0.2835  0.0000  0.0000  0.0000  0.0000
  0.0000  0.2835  0.0000  0.0000  0.0000
  0.0000  0.0000  0.2835  0.0000  0.0000
  0.0000  0.0000  0.0000  0.2835  0.0000
  0.0000  0.0000  0.0000  0.0000  0.2835
 
 occupancies and eigenvectors
 
  o =  0.2835  v =  0.0000  0.0000  0.0000  0.0000  0.0000  1.0000  0.0000  0.0000  0.0000  0.0000      0.0000  0.0000  0.0000  0.0000  0.0000  0.0000  0.0000  0.0000  0.0000  0.0000
  o =  0.2835  v =  0.0000  0.0000  0.0000  0.0000  0.0000  0.0000  1.0000  0.0000  0.0000  0.0000      0.0000  0.0000  0.0000  0.0000  0.0000  0.0000  0.0000  0.0000  0.0000  0.0000
  o =  0.2835  v =  0.0000  0.0000  0.0000  0.0000  0.0000  0.0000  0.0000  1.0000  0.0000  0.0000      0.0000  0.0000  0.0000  0.0000  0.0000  0.0000  0.0000  0.0000  0.0000  0.0000
  o =  0.2835  v =  0.0000  0.0000  0.0000  0.0000  0.0000  0.0000  0.0000  0.0000  1.0000  0.0000      0.0000  0.0000  0.0000  0.0000  0.0000  0.0000  0.0000  0.0000  0.0000  0.0000
  o =  0.2835  v =  0.0000  0.0000  0.0000  0.0000  0.0000  0.0000  0.0000  0.0000  0.0000  1.0000      0.0000  0.0000  0.0000  0.0000  0.0000  0.0000  0.0000  0.0000  0.0000  0.0000
  o =  0.7694  v =  1.0000  0.0000  0.0000  0.0000  0.0000  0.0000  0.0000  0.0000  0.0000  0.0000      0.0000  0.0000  0.0000  0.0000  0.0000  0.0000  0.0000  0.0000  0.0000  0.0000
  o =  0.7694  v =  0.0000  1.0000  0.0000  0.0000  0.0000  0.0000  0.0000  0.0000  0.0000  0.0000      0.0000  0.0000  0.0000  0.0000  0.0000  0.0000  0.0000  0.0000  0.0000  0.0000
  o =  0.7694  v =  0.0000  0.0000  1.0000  0.0000  0.0000  0.0000  0.0000  0.0000  0.0000  0.0000      0.0000  0.0000  0.0000  0.0000  0.0000  0.0000  0.0000  0.0000  0.0000  0.0000
  o =  0.7694  v =  0.0000  0.0000  0.0000  1.0000  0.0000  0.0000  0.0000  0.0000  0.0000  0.0000      0.0000  0.0000  0.0000  0.0000  0.0000  0.0000  0.0000  0.0000  0.0000  0.0000
  o =  0.7694  v =  0.0000  0.0000  0.0000  0.0000  1.0000  0.0000  0.0000  0.0000  0.0000  0.0000      0.0000  0.0000  0.0000  0.0000  0.0000  0.0000  0.0000  0.0000  0.0000  0.0000
     EDDAV:  cpu time    1.2361: real time    1.2554
 BZINTS: Fermi energy: 27.821702; 54.000000 electrons
         Band energy: 463.512649;  BLOECHL correction: -0.350131
       DOS:  cpu time    0.0105: real time    0.0460
    --------------------------------------------
      LOOP:  cpu time    2.7952: real time    2.8500

 eigenvalue-minimisations  :  1296
 total energy-change (2. order) : 0.1052652E+04  (-0.4404602E+04)
 number of electron      54.0000000 magnetization      -0.0000000
 augmentation part       54.0000000 magnetization      -0.0000000

 Free energy of the ion-electron system (eV)
  ---------------------------------------------------
  alpha Z        PSCENC =       199.38838823
  Ewald energy   TEWEN  =     -4203.06823030
  -Hartree energ DENC   =     -2130.62061719
  -exchange      EXHF   =         0.00000000
  -V(xc)+E(xc)   XCENC  =        -3.96116514
  PAW double counting   =      5566.43601843    -5528.13058630
  entropy T*S    EENTRO =         0.00000000
  eigenvalues    EBANDS =       463.51264945
  atomic energy  EATOM  =      6689.09526764
  Solvation  Ediel_sol  =         0.00000000
  ---------------------------------------------------
  free energy    TOTEN  =      1052.65172483 eV

  energy without entropy =     1052.65172483  energy(sigma->0) =     1052.65172483


--------------------------------------------------------------------------------------------------------




--------------------------------------- Iteration      1(   2)  ---------------------------------------


     EDDAV:  cpu time    1.3465: real time    1.3465
 BZINTS: Fermi energy: 12.062236; 54.000000 electrons
         Band energy:-167.101413;  BLOECHL correction: -0.008594
       DOS:  cpu time    0.0098: real time    0.0098
    --------------------------------------------
      LOOP:  cpu time    1.3563: real time    1.3563

 eigenvalue-minimisations  :  1512
 total energy-change (2. order) :-0.6306141E+03  (-0.6038156E+03)
 number of electron      54.0000000 magnetization      -0.0000000
 augmentation part       54.0000000 magnetization      -0.0000000

 Free energy of the ion-electron system (eV)
  ---------------------------------------------------
  alpha Z        PSCENC =       199.38838823
  Ewald energy   TEWEN  =     -4203.06823030
  -Hartree energ DENC   =     -2130.62061719
  -exchange      EXHF   =         0.00000000
  -V(xc)+E(xc)   XCENC  =        -3.96116514
  PAW double counting   =      5566.43601843    -5528.13058630
  entropy T*S    EENTRO =         0.00000000
  eigenvalues    EBANDS =      -167.10141318
  atomic energy  EATOM  =      6689.09526764
  Solvation  Ediel_sol  =         0.00000000
  ---------------------------------------------------
  free energy    TOTEN  =       422.03766220 eV

  energy without entropy =      422.03766220  energy(sigma->0) =      422.03766220


--------------------------------------------------------------------------------------------------------




--------------------------------------- Iteration      1(   3)  ---------------------------------------


     EDDAV:  cpu time    1.3211: real time    1.3211
 BZINTS: Fermi energy: 10.308934; 54.000000 electrons
         Band energy:-207.673977;  BLOECHL correction:  0.000000
       DOS:  cpu time    0.0020: real time    0.0020
    --------------------------------------------
      LOOP:  cpu time    1.3230: real time    1.3231

 eigenvalue-minimisations  :  1464
 total energy-change (2. order) :-0.4057256E+02  (-0.4013755E+02)
 number of electron      54.0000000 magnetization      -0.0000000
 augmentation part       54.0000000 magnetization      -0.0000000

 Free energy of the ion-electron system (eV)
  ---------------------------------------------------
  alpha Z        PSCENC =       199.38838823
  Ewald energy   TEWEN  =     -4203.06823030
  -Hartree energ DENC   =     -2130.62061719
  -exchange      EXHF   =         0.00000000
  -V(xc)+E(xc)   XCENC  =        -3.96116514
  PAW double counting   =      5566.43601843    -5528.13058630
  entropy T*S    EENTRO =         0.00000000
  eigenvalues    EBANDS =      -207.67397679
  atomic energy  EATOM  =      6689.09526764
  Solvation  Ediel_sol  =         0.00000000
  ---------------------------------------------------
  free energy    TOTEN  =       381.46509859 eV

  energy without entropy =      381.46509859  energy(sigma->0) =      381.46509859


--------------------------------------------------------------------------------------------------------




--------------------------------------- Iteration      1(   4)  ---------------------------------------


     EDDAV:  cpu time    1.3878: real time    1.3878
 BZINTS: Fermi energy: 10.250420; 54.000000 electrons
         Band energy:-208.286876;  BLOECHL correction:  0.000000
       DOS:  cpu time    0.0017: real time    0.0017
    --------------------------------------------
      LOOP:  cpu time    1.3894: real time    1.3895

 eigenvalue-minimisations  :  1572
 total energy-change (2. order) :-0.6128997E+00  (-0.6118472E+00)
 number of electron      54.0000000 magnetization      -0.0000000
 augmentation part       54.0000000 magnetization      -0.0000000

 Free energy of the ion-electron system (eV)
  ---------------------------------------------------
  alpha Z        PSCENC =       199.38838823
  Ewald energy   TEWEN  =     -4203.06823030
  -Hartree energ DENC   =     -2130.62061719
  -exchange      EXHF   =         0.00000000
  -V(xc)+E(xc)   XCENC  =        -3.96116514
  PAW double counting   =      5566.43601843    -5528.13058630
  entropy T*S    EENTRO =         0.00000000
  eigenvalues    EBANDS =      -208.28687644
  atomic energy  EATOM  =      6689.09526764
  Solvation  Ediel_sol  =         0.00000000
  ---------------------------------------------------
  free energy    TOTEN  =       380.85219894 eV

  energy without entropy =      380.85219894  energy(sigma->0) =      380.85219894


--------------------------------------------------------------------------------------------------------




--------------------------------------- Iteration      1(   5)  ---------------------------------------


     EDDAV:  cpu time    1.3242: real time    1.3242
 BZINTS: Fermi energy: 10.223157; 54.000000 electrons
         Band energy:-208.296839;  BLOECHL correction:  0.000000
       DOS:  cpu time    0.0017: real time    0.0017
    CHARGE:  cpu time    0.2699: real time    0.2699
    MIXING:  cpu time    0.0009: real time    0.0009
    --------------------------------------------
      LOOP:  cpu time    1.5966: real time    1.5966

 eigenvalue-minimisations  :  1464
 total energy-change (2. order) :-0.9962318E-02  (-0.9962000E-02)
 number of electron      54.0000001 magnetization      -0.0000000
 augmentation part       22.8764560 magnetization      -0.0000000

 Broyden mixing:
  rms(total) = 0.59336E+01    rms(broyden)= 0.59336E+01
  rms(prec ) = 0.62221E+01
  weight for this iteration     100.00

 Free energy of the ion-electron system (eV)
  ---------------------------------------------------
  alpha Z        PSCENC =       199.38838823
  Ewald energy   TEWEN  =     -4203.06823030
  -Hartree energ DENC   =     -2130.62061719
  -exchange      EXHF   =         0.00000000
  -V(xc)+E(xc)   XCENC  =        -3.96116514
  PAW double counting   =      5566.43601843    -5528.13058630
  entropy T*S    EENTRO =         0.00000000
  eigenvalues    EBANDS =      -208.29683876
  atomic energy  EATOM  =      6689.09526764
  Solvation  Ediel_sol  =         0.00000000
  ---------------------------------------------------
  free energy    TOTEN  =       380.84223662 eV

  energy without entropy =      380.84223662  energy(sigma->0) =      380.84223662


--------------------------------------------------------------------------------------------------------




--------------------------------------- Iteration      1(   6)  ---------------------------------------


    POTLOK:  cpu time    0.0583: real time    0.0583
    SETDIJ:  cpu time    1.5106: real time    1.5106
atom =   1  type =  1  l = 2
 
 onsite density matrix
 
spin component  1
 
  0.0455  0.0000  0.0723  0.0000 -0.0000
  0.0000  0.0151  0.0000  0.0669  0.0000
  0.0723  0.0000  0.0029  0.0000 -0.0000
  0.0000  0.0669  0.0000  0.0151  0.0000
 -0.0000  0.0000 -0.0000  0.0000 -0.0745
 
spin component  2
 
  1.0509  0.0000 -0.0361  0.0000  0.0000
  0.0000  1.0670  0.0000 -0.0335  0.0000
 -0.0361  0.0000  1.0721  0.0000  0.0000
  0.0000 -0.0335  0.0000  1.0670  0.0000
  0.0000  0.0000  0.0000  0.0000  1.1133
 
 occupancies and eigenvectors
 
  o = -0.0745  v =  0.0000 -0.0000 -0.0000  0.0000 -1.0000  0.0000  0.0000  0.0000  0.0000  0.0000      0.0000  0.0000  0.0000  0.0000  0.0000  0.0000  0.0000  0.0000  0.0000  0.0000
  o = -0.0518  v =  0.0000 -0.7071  0.0000  0.7071  0.0000  0.0000  0.0000  0.0000  0.0000  0.0000      0.0000  0.0000  0.0000  0.0000  0.0000  0.0000  0.0000  0.0000  0.0000  0.0000
  o = -0.0512  v = -0.5988 -0.0000  0.8009  0.0000 -0.0000  0.0000  0.0000  0.0000  0.0000  0.0000      0.0000  0.0000  0.0000  0.0000  0.0000  0.0000  0.0000  0.0000  0.0000  0.0000
  o =  0.0820  v =  0.0000 -0.7071  0.0000 -0.7071  0.0000  0.0000  0.0000  0.0000  0.0000  0.0000      0.0000  0.0000  0.0000  0.0000  0.0000  0.0000  0.0000  0.0000  0.0000  0.0000
  o =  0.0995  v =  0.8009 -0.0000  0.5988  0.0000 -0.0000  0.0000  0.0000  0.0000  0.0000  0.0000      0.0000  0.0000  0.0000  0.0000  0.0000  0.0000  0.0000  0.0000  0.0000  0.0000
  o =  1.0239  v =  0.0000  0.0000  0.0000  0.0000  0.0000 -0.8005  0.0000 -0.5993  0.0000  0.0000      0.0000  0.0000  0.0000  0.0000  0.0000  0.0000  0.0000  0.0000  0.0000  0.0000
  o =  1.0335  v =  0.0000  0.0000  0.0000  0.0000  0.0000  0.0000 -0.7071  0.0000 -0.7071 -0.0000      0.0000  0.0000  0.0000  0.0000  0.0000  0.0000  0.0000  0.0000  0.0000  0.0000
  o =  1.0992  v =  0.0000  0.0000  0.0000  0.0000  0.0000 -0.5993  0.0000  0.8005  0.0000 -0.0000      0.0000  0.0000  0.0000  0.0000  0.0000  0.0000  0.0000  0.0000  0.0000  0.0000
  o =  1.1006  v =  0.0000  0.0000  0.0000  0.0000  0.0000  0.0000 -0.7071  0.0000  0.7071 -0.0000      0.0000  0.0000  0.0000  0.0000  0.0000  0.0000  0.0000  0.0000  0.0000  0.0000
  o =  1.1133  v =  0.0000  0.0000  0.0000  0.0000  0.0000  0.0000  0.0000 -0.0000  0.0000 -1.0000      0.0000  0.0000  0.0000  0.0000  0.0000  0.0000  0.0000  0.0000  0.0000  0.0000
atom =   2  type =  1  l = 2
 
 onsite density matrix
 
spin component  1
 
  1.0509  0.0000  0.0361  0.0000  0.0000
  0.0000  1.0670  0.0000  0.0335  0.0000
  0.0361  0.0000  1.0721  0.0000 -0.0000
  0.0000  0.0335  0.0000  1.0670  0.0000
  0.0000  0.0000 -0.0000  0.0000  1.1133
 
spin component  2
 
  0.0455  0.0000 -0.0723  0.0000 -0.0000
  0.0000  0.0151  0.0000 -0.0669  0.0000
 -0.0723  0.0000  0.0029  0.0000  0.0000
  0.0000 -0.0669  0.0000  0.0151  0.0000
 -0.0000  0.0000  0.0000  0.0000 -0.0745
 
 occupancies and eigenvectors
 
  o = -0.0745  v =  0.0000  0.0000  0.0000  0.0000  0.0000  0.0000 -0.0000  0.0000  0.0000 -1.0000      0.0000  0.0000  0.0000  0.0000  0.0000  0.0000  0.0000  0.0000  0.0000  0.0000
  o = -0.0518  v =  0.0000  0.0000  0.0000  0.0000  0.0000  0.0000  0.7071  0.0000  0.7071 -0.0000      0.0000  0.0000  0.0000  0.0000  0.0000  0.0000  0.0000  0.0000  0.0000  0.0000
  o = -0.0512  v =  0.0000  0.0000  0.0000  0.0000  0.0000 -0.5988 -0.0000 -0.8009  0.0000 -0.0000      0.0000  0.0000  0.0000  0.0000  0.0000  0.0000  0.0000  0.0000  0.0000  0.0000
  o =  0.0820  v =  0.0000  0.0000  0.0000  0.0000  0.0000  0.0000  0.7071  0.0000 -0.7071 -0.0000      0.0000  0.0000  0.0000  0.0000  0.0000  0.0000  0.0000  0.0000  0.0000  0.0000
  o =  0.0995  v =  0.0000  0.0000  0.0000  0.0000  0.0000  0.8009 -0.0000 -0.5988  0.0000 -0.0000      0.0000  0.0000  0.0000  0.0000  0.0000  0.0000  0.0000  0.0000  0.0000  0.0000
  o =  1.0239  v =  0.8005  0.0000 -0.5993 -0.0000 -0.0000  0.0000  0.0000  0.0000  0.0000  0.0000      0.0000  0.0000  0.0000  0.0000  0.0000  0.0000  0.0000  0.0000  0.0000  0.0000
  o =  1.0335  v =  0.0000 -0.7071 -0.0000  0.7071  0.0000  0.0000  0.0000  0.0000  0.0000  0.0000      0.0000  0.0000  0.0000  0.0000  0.0000  0.0000  0.0000  0.0000  0.0000  0.0000
  o =  1.0992  v = -0.5993  0.0000 -0.8005  0.0000 -0.0000  0.0000  0.0000  0.0000  0.0000  0.0000      0.0000  0.0000  0.0000  0.0000  0.0000  0.0000  0.0000  0.0000  0.0000  0.0000
  o =  1.1006  v =  0.0000  0.7071  0.0000  0.7071 -0.0000  0.0000  0.0000  0.0000  0.0000  0.0000      0.0000  0.0000  0.0000  0.0000  0.0000  0.0000  0.0000  0.0000  0.0000  0.0000
  o =  1.1133  v =  0.0000 -0.0000  0.0000 -0.0000 -1.0000  0.0000  0.0000  0.0000  0.0000  0.0000      0.0000  0.0000  0.0000  0.0000  0.0000  0.0000  0.0000  0.0000  0.0000  0.0000
     EDDAV:  cpu time    1.3963: real time    1.3963
 BZINTS: Fermi energy:  7.247151; 54.000000 electrons
         Band energy:-715.819264;  BLOECHL correction: -0.013293
       DOS:  cpu time    0.0098: real time    0.0098
    CHARGE:  cpu time    0.2659: real time    0.2659
    MIXING:  cpu time    0.0009: real time    0.0009
    --------------------------------------------
      LOOP:  cpu time    3.2419: real time    3.2419

 eigenvalue-minimisations  :  1584
 total energy-change (2. order) :-0.4491982E+03  (-0.3141486E+02)
 number of electron      54.0000001 magnetization      -0.0000000
 augmentation part       19.6062534 magnetization      -0.0000000

 Broyden mixing:
  rms(total) = 0.63523E+01    rms(broyden)= 0.63523E+01
  rms(prec ) = 0.68118E+01
  weight for this iteration     100.00

 eigenvalues of (default mixing * dielectric matrix)
  average eigenvalue GAMMA=   0.4165
  0.4165

 Free energy of the ion-electron system (eV)
  ---------------------------------------------------
  alpha Z        PSCENC =       199.38838823
  Ewald energy   TEWEN  =     -4203.06823030
  -Hartree energ DENC   =     -2216.99962472
  -exchange      EXHF   =         0.00000000
  -V(xc)+E(xc)   XCENC  =       145.31297764
  PAW double counting   =      6453.40183658    -6419.66729593
  entropy T*S    EENTRO =         0.00000000
  eigenvalues    EBANDS =      -715.81926398
  atomic energy  EATOM  =      6689.09526764
  Solvation  Ediel_sol  =         0.00000000
  ---------------------------------------------------
  free energy    TOTEN  =       -68.35594482 eV

  energy without entropy =      -68.35594482  energy(sigma->0) =      -68.35594482


--------------------------------------------------------------------------------------------------------




--------------------------------------- Iteration      1(   7)  ---------------------------------------


    POTLOK:  cpu time    0.0574: real time    0.0574
    SETDIJ:  cpu time    1.4915: real time    1.4915
atom =   1  type =  1  l = 2
 
 onsite density matrix
 
spin component  1
 
  0.0890  0.0000  0.0382  0.0000  0.0000
  0.0000  0.0589  0.0000  0.0256  0.0000
  0.0382  0.0000  0.0633  0.0000 -0.0000
  0.0000  0.0256  0.0000  0.0589  0.0000
  0.0000  0.0000 -0.0000  0.0000  0.0201
 
spin component  2
 
  0.9738  0.0000 -0.0066  0.0000 -0.0000
  0.0000  1.0012  0.0000  0.0092  0.0000
 -0.0066  0.0000  0.9847  0.0000 -0.0000
  0.0000  0.0092  0.0000  1.0012  0.0000
 -0.0000  0.0000 -0.0000  0.0000  0.9977
 
 occupancies and eigenvectors
 
  o =  0.0201  v =  0.0000  0.0000 -0.0000 -0.0000 -1.0000  0.0000  0.0000  0.0000  0.0000  0.0000      0.0000  0.0000  0.0000  0.0000  0.0000  0.0000  0.0000  0.0000  0.0000  0.0000
  o =  0.0333  v = -0.0000  0.7071  0.0000 -0.7071  0.0000  0.0000  0.0000  0.0000  0.0000  0.0000      0.0000  0.0000  0.0000  0.0000  0.0000  0.0000  0.0000  0.0000  0.0000  0.0000
  o =  0.0359  v = -0.5838 -0.0000  0.8119  0.0000 -0.0000  0.0000  0.0000  0.0000  0.0000  0.0000      0.0000  0.0000  0.0000  0.0000  0.0000  0.0000  0.0000  0.0000  0.0000  0.0000
  o =  0.0846  v =  0.0000  0.7071 -0.0000  0.7071  0.0000  0.0000  0.0000  0.0000  0.0000  0.0000      0.0000  0.0000  0.0000  0.0000  0.0000  0.0000  0.0000  0.0000  0.0000  0.0000
  o =  0.1165  v = -0.8119  0.0000 -0.5838  0.0000  0.0000  0.0000  0.0000  0.0000  0.0000  0.0000      0.0000  0.0000  0.0000  0.0000  0.0000  0.0000  0.0000  0.0000  0.0000  0.0000
  o =  0.9707  v =  0.0000  0.0000  0.0000  0.0000  0.0000 -0.9038  0.0000 -0.4280  0.0000 -0.0000      0.0000  0.0000  0.0000  0.0000  0.0000  0.0000  0.0000  0.0000  0.0000  0.0000
  o =  0.9878  v =  0.0000  0.0000  0.0000  0.0000  0.0000 -0.4280  0.0000  0.9038  0.0000  0.0000      0.0000  0.0000  0.0000  0.0000  0.0000  0.0000  0.0000  0.0000  0.0000  0.0000
  o =  0.9920  v =  0.0000  0.0000  0.0000  0.0000  0.0000  0.0000  0.7071  0.0000 -0.7071 -0.0000      0.0000  0.0000  0.0000  0.0000  0.0000  0.0000  0.0000  0.0000  0.0000  0.0000
  o =  0.9977  v =  0.0000  0.0000  0.0000  0.0000  0.0000  0.0000  0.0000 -0.0000 -0.0000  1.0000      0.0000  0.0000  0.0000  0.0000  0.0000  0.0000  0.0000  0.0000  0.0000  0.0000
  o =  1.0104  v =  0.0000  0.0000  0.0000  0.0000  0.0000  0.0000 -0.7071  0.0000 -0.7071 -0.0000      0.0000  0.0000  0.0000  0.0000  0.0000  0.0000  0.0000  0.0000  0.0000  0.0000
atom =   2  type =  1  l = 2
 
 onsite density matrix
 
spin component  1
 
  0.9738  0.0000  0.0066  0.0000 -0.0000
  0.0000  1.0012  0.0000 -0.0092  0.0000
  0.0066  0.0000  0.9847  0.0000 -0.0000
  0.0000 -0.0092  0.0000  1.0012  0.0000
 -0.0000  0.0000 -0.0000  0.0000  0.9977
 
spin component  2
 
  0.0890  0.0000 -0.0382  0.0000  0.0000
  0.0000  0.0589  0.0000 -0.0256  0.0000
 -0.0382  0.0000  0.0633  0.0000 -0.0000
  0.0000 -0.0256  0.0000  0.0589  0.0000
  0.0000  0.0000 -0.0000  0.0000  0.0201
 
 occupancies and eigenvectors
 
  o =  0.0201  v =  0.0000  0.0000  0.0000  0.0000  0.0000 -0.0000 -0.0000 -0.0000 -0.0000 -1.0000      0.0000  0.0000  0.0000  0.0000  0.0000  0.0000  0.0000  0.0000  0.0000  0.0000
  o =  0.0333  v =  0.0000  0.0000  0.0000  0.0000  0.0000 -0.0000  0.7071 -0.0000  0.7071 -0.0000      0.0000  0.0000  0.0000  0.0000  0.0000  0.0000  0.0000  0.0000  0.0000  0.0000
  o =  0.0359  v =  0.0000  0.0000  0.0000  0.0000  0.0000 -0.5838 -0.0000 -0.8119 -0.0000  0.0000      0.0000  0.0000  0.0000  0.0000  0.0000  0.0000  0.0000  0.0000  0.0000  0.0000
  o =  0.0846  v =  0.0000  0.0000  0.0000  0.0000  0.0000  0.0000  0.7071  0.0000 -0.7071 -0.0000      0.0000  0.0000  0.0000  0.0000  0.0000  0.0000  0.0000  0.0000  0.0000  0.0000
  o =  0.1165  v =  0.0000  0.0000  0.0000  0.0000  0.0000 -0.8119  0.0000  0.5838 -0.0000 -0.0000      0.0000  0.0000  0.0000  0.0000  0.0000  0.0000  0.0000  0.0000  0.0000  0.0000
  o =  0.9707  v =  0.9038 -0.0000 -0.4280 -0.0000 -0.0000  0.0000  0.0000  0.0000  0.0000  0.0000      0.0000  0.0000  0.0000  0.0000  0.0000  0.0000  0.0000  0.0000  0.0000  0.0000
  o =  0.9878  v = -0.4280 -0.0000 -0.9038 -0.0000 -0.0000  0.0000  0.0000  0.0000  0.0000  0.0000      0.0000  0.0000  0.0000  0.0000  0.0000  0.0000  0.0000  0.0000  0.0000  0.0000
  o =  0.9920  v = -0.0000  0.7071 -0.0000  0.7071  0.0000  0.0000  0.0000  0.0000  0.0000  0.0000      0.0000  0.0000  0.0000  0.0000  0.0000  0.0000  0.0000  0.0000  0.0000  0.0000
  o =  0.9977  v =  0.0000  0.0000  0.0000  0.0000 -1.0000  0.0000  0.0000  0.0000  0.0000  0.0000      0.0000  0.0000  0.0000  0.0000  0.0000  0.0000  0.0000  0.0000  0.0000  0.0000
  o =  1.0104  v =  0.0000 -0.7071  0.0000  0.7071 -0.0000  0.0000  0.0000  0.0000  0.0000  0.0000      0.0000  0.0000  0.0000  0.0000  0.0000  0.0000  0.0000  0.0000  0.0000  0.0000
     EDDAV:  cpu time    1.2766: real time    1.2767
 BZINTS: Fermi energy:  5.146682; 54.000000 electrons
         Band energy:-765.131167;  BLOECHL correction:  0.000000
       DOS:  cpu time    0.0020: real time    0.0020
    CHARGE:  cpu time    0.2659: real time    0.2659
    MIXING:  cpu time    0.0010: real time    0.0010
    --------------------------------------------
      LOOP:  cpu time    3.0944: real time    3.0946

 eigenvalue-minimisations  :  1380
 total energy-change (2. order) :-0.2827689E+01  (-0.5050518E+01)
 number of electron      54.0000001 magnetization      -0.0000000
 augmentation part       19.5836308 magnetization      -0.0000000

 Broyden mixing:
  rms(total) = 0.16938E+01    rms(broyden)= 0.16938E+01
  rms(prec ) = 0.24180E+01
  weight for this iteration     100.00

 eigenvalues of (default mixing * dielectric matrix)
  average eigenvalue GAMMA=   0.7009
  0.7009  0.7009

 Free energy of the ion-electron system (eV)
  ---------------------------------------------------
  alpha Z        PSCENC =       199.38838823
  Ewald energy   TEWEN  =     -4203.06823030
  -Hartree energ DENC   =     -2192.50331930
  -exchange      EXHF   =         0.00000000
  -V(xc)+E(xc)   XCENC  =       167.63050773
  PAW double counting   =      6503.28785466    -6469.88293505
  entropy T*S    EENTRO =         0.00000000
  eigenvalues    EBANDS =      -765.13116731
  atomic energy  EATOM  =      6689.09526764
  Solvation  Ediel_sol  =         0.00000000
  ---------------------------------------------------
  free energy    TOTEN  =       -71.18363368 eV

  energy without entropy =      -71.18363368  energy(sigma->0) =      -71.18363368


--------------------------------------------------------------------------------------------------------




--------------------------------------- Iteration      1(   8)  ---------------------------------------


    POTLOK:  cpu time    0.0574: real time    0.0574
    SETDIJ:  cpu time    1.4904: real time    1.4904
atom =   1  type =  1  l = 2
 
 onsite density matrix
 
spin component  1
 
  0.0493  0.0000  0.0143  0.0000 -0.0000
  0.0000  0.0535  0.0000  0.0234  0.0000
  0.0143  0.0000  0.0433  0.0000 -0.0000
  0.0000  0.0234  0.0000  0.0535  0.0000
 -0.0000  0.0000 -0.0000  0.0000  0.0253
 
spin component  2
 
  0.9899  0.0000  0.0244  0.0000  0.0000
  0.0000  0.9787  0.0000  0.0119  0.0000
  0.0244  0.0000  0.9785  0.0000 -0.0000
  0.0000  0.0119  0.0000  0.9787  0.0000
  0.0000  0.0000 -0.0000  0.0000  0.9655
 
 occupancies and eigenvectors
 
  o =  0.0253  v =  0.0000 -0.0000 -0.0000  0.0000 -1.0000  0.0000  0.0000  0.0000  0.0000  0.0000      0.0000  0.0000  0.0000  0.0000  0.0000  0.0000  0.0000  0.0000  0.0000  0.0000
  o =  0.0301  v =  0.0000 -0.7071  0.0000  0.7071 -0.0000  0.0000  0.0000  0.0000  0.0000  0.0000      0.0000  0.0000  0.0000  0.0000  0.0000  0.0000  0.0000  0.0000  0.0000  0.0000
  o =  0.0317  v = -0.6294 -0.0000  0.7771  0.0000 -0.0000  0.0000  0.0000  0.0000  0.0000  0.0000      0.0000  0.0000  0.0000  0.0000  0.0000  0.0000  0.0000  0.0000  0.0000  0.0000
  o =  0.0609  v = -0.7771  0.0000 -0.6294  0.0000  0.0000  0.0000  0.0000  0.0000  0.0000  0.0000      0.0000  0.0000  0.0000  0.0000  0.0000  0.0000  0.0000  0.0000  0.0000  0.0000
  o =  0.0769  v =  0.0000  0.7071  0.0000  0.7071  0.0000  0.0000  0.0000  0.0000  0.0000  0.0000      0.0000  0.0000  0.0000  0.0000  0.0000  0.0000  0.0000  0.0000  0.0000  0.0000
  o =  0.9591  v =  0.0000  0.0000  0.0000  0.0000  0.0000 -0.6213 -0.0000  0.7835  0.0000  0.0000      0.0000  0.0000  0.0000  0.0000  0.0000  0.0000  0.0000  0.0000  0.0000  0.0000
  o =  0.9655  v =  0.0000  0.0000  0.0000  0.0000  0.0000 -0.0000  0.0000  0.0000  0.0000 -1.0000      0.0000  0.0000  0.0000  0.0000  0.0000  0.0000  0.0000  0.0000  0.0000  0.0000
  o =  0.9668  v =  0.0000  0.0000  0.0000  0.0000  0.0000  0.0000  0.7071  0.0000 -0.7071  0.0000      0.0000  0.0000  0.0000  0.0000  0.0000  0.0000  0.0000  0.0000  0.0000  0.0000
  o =  0.9906  v =  0.0000  0.0000  0.0000  0.0000  0.0000  0.0000 -0.7071  0.0000 -0.7071 -0.0000      0.0000  0.0000  0.0000  0.0000  0.0000  0.0000  0.0000  0.0000  0.0000  0.0000
  o =  1.0093  v =  0.0000  0.0000  0.0000  0.0000  0.0000 -0.7835 -0.0000 -0.6213  0.0000  0.0000      0.0000  0.0000  0.0000  0.0000  0.0000  0.0000  0.0000  0.0000  0.0000  0.0000
atom =   2  type =  1  l = 2
 
 onsite density matrix
 
spin component  1
 
  0.9899  0.0000 -0.0244  0.0000  0.0000
  0.0000  0.9787  0.0000 -0.0119  0.0000
 -0.0244  0.0000  0.9785  0.0000 -0.0000
  0.0000 -0.0119  0.0000  0.9787  0.0000
  0.0000  0.0000 -0.0000  0.0000  0.9655
 
spin component  2
 
  0.0493  0.0000 -0.0143  0.0000 -0.0000
  0.0000  0.0535  0.0000 -0.0234  0.0000
 -0.0143  0.0000  0.0433  0.0000  0.0000
  0.0000 -0.0234  0.0000  0.0535  0.0000
 -0.0000  0.0000  0.0000  0.0000  0.0253
 
 occupancies and eigenvectors
 
  o =  0.0253  v =  0.0000  0.0000  0.0000  0.0000  0.0000  0.0000 -0.0000  0.0000  0.0000 -1.0000      0.0000  0.0000  0.0000  0.0000  0.0000  0.0000  0.0000  0.0000  0.0000  0.0000
  o =  0.0301  v =  0.0000  0.0000  0.0000  0.0000  0.0000  0.0000 -0.7071  0.0000 -0.7071  0.0000      0.0000  0.0000  0.0000  0.0000  0.0000  0.0000  0.0000  0.0000  0.0000  0.0000
  o =  0.0317  v =  0.0000  0.0000  0.0000  0.0000  0.0000 -0.6294 -0.0000 -0.7771  0.0000 -0.0000      0.0000  0.0000  0.0000  0.0000  0.0000  0.0000  0.0000  0.0000  0.0000  0.0000
  o =  0.0609  v =  0.0000  0.0000  0.0000  0.0000  0.0000 -0.7771  0.0000  0.6294  0.0000  0.0000      0.0000  0.0000  0.0000  0.0000  0.0000  0.0000  0.0000  0.0000  0.0000  0.0000
  o =  0.0769  v =  0.0000  0.0000  0.0000  0.0000  0.0000  0.0000  0.7071  0.0000 -0.7071 -0.0000      0.0000  0.0000  0.0000  0.0000  0.0000  0.0000  0.0000  0.0000  0.0000  0.0000
  o =  0.9591  v = -0.6213  0.0000 -0.7835  0.0000  0.0000  0.0000  0.0000  0.0000  0.0000  0.0000      0.0000  0.0000  0.0000  0.0000  0.0000  0.0000  0.0000  0.0000  0.0000  0.0000
  o =  0.9655  v =  0.0000 -0.0000  0.0000  0.0000  1.0000  0.0000  0.0000  0.0000  0.0000  0.0000      0.0000  0.0000  0.0000  0.0000  0.0000  0.0000  0.0000  0.0000  0.0000  0.0000
  o =  0.9668  v =  0.0000 -0.7071  0.0000 -0.7071 -0.0000  0.0000  0.0000  0.0000  0.0000  0.0000      0.0000  0.0000  0.0000  0.0000  0.0000  0.0000  0.0000  0.0000  0.0000  0.0000
  o =  0.9906  v =  0.0000  0.7071  0.0000 -0.7071  0.0000  0.0000  0.0000  0.0000  0.0000  0.0000      0.0000  0.0000  0.0000  0.0000  0.0000  0.0000  0.0000  0.0000  0.0000  0.0000
  o =  1.0093  v = -0.7835  0.0000  0.6213  0.0000 -0.0000  0.0000  0.0000  0.0000  0.0000  0.0000      0.0000  0.0000  0.0000  0.0000  0.0000  0.0000  0.0000  0.0000  0.0000  0.0000
     EDDAV:  cpu time    1.3567: real time    1.3568
 BZINTS: Fermi energy:  3.262115; 54.000000 electrons
         Band energy:-785.439974;  BLOECHL correction:  0.000000
       DOS:  cpu time    0.0020: real time    0.0020
    CHARGE:  cpu time    0.2663: real time    0.2663
    MIXING:  cpu time    0.0010: real time    0.0010
    --------------------------------------------
      LOOP:  cpu time    3.1738: real time    3.1738

 eigenvalue-minimisations  :  1524
 total energy-change (2. order) : 0.2565926E+01  (-0.7319523E+00)
 number of electron      54.0000001 magnetization      -0.0000000
 augmentation part       19.8225498 magnetization      -0.0000000

 Broyden mixing:
  rms(total) = 0.61120E+00    rms(broyden)= 0.61120E+00
  rms(prec ) = 0.89841E+00
  weight for this iteration     100.00

 eigenvalues of (default mixing * dielectric matrix)
  average eigenvalue GAMMA=   0.7384
  0.9168  0.6493  0.6493

 Free energy of the ion-electron system (eV)
  ---------------------------------------------------
  alpha Z        PSCENC =       199.38838823
  Ewald energy   TEWEN  =     -4203.06823030
  -Hartree energ DENC   =     -2174.02323086
  -exchange      EXHF   =         0.00000000
  -V(xc)+E(xc)   XCENC  =       170.22648781
  PAW double counting   =      6425.91594748    -6390.71236422
  entropy T*S    EENTRO =         0.00000000
  eigenvalues    EBANDS =      -785.43997385
  atomic energy  EATOM  =      6689.09526764
  Solvation  Ediel_sol  =         0.00000000
  ---------------------------------------------------
  free energy    TOTEN  =       -68.61770807 eV

  energy without entropy =      -68.61770807  energy(sigma->0) =      -68.61770807


--------------------------------------------------------------------------------------------------------




--------------------------------------- Iteration      1(   9)  ---------------------------------------


    POTLOK:  cpu time    0.0574: real time    0.0574
    SETDIJ:  cpu time    1.4906: real time    1.4907
atom =   1  type =  1  l = 2
 
 onsite density matrix
 
spin component  1
 
  0.0684  0.0000  0.0371  0.0000  0.0000
  0.0000  0.0474  0.0000  0.0188  0.0000
  0.0371  0.0000  0.0504  0.0000 -0.0000
  0.0000  0.0188  0.0000  0.0474  0.0000
  0.0000  0.0000 -0.0000  0.0000  0.0236
 
spin component  2
 
  0.9505  0.0000  0.0073  0.0000 -0.0000
  0.0000  0.9600  0.0000  0.0182  0.0000
  0.0073  0.0000  0.9463  0.0000 -0.0000
  0.0000  0.0182  0.0000  0.9600  0.0000
 -0.0000  0.0000 -0.0000  0.0000  0.9425
 
 occupancies and eigenvectors
 
  o =  0.0212  v = -0.6182  0.0000  0.7860 -0.0000  0.0000  0.0000  0.0000  0.0000  0.0000  0.0000      0.0000  0.0000  0.0000  0.0000  0.0000  0.0000  0.0000  0.0000  0.0000  0.0000
  o =  0.0236  v = -0.0000  0.0000  0.0000 -0.0000 -1.0000  0.0000  0.0000  0.0000  0.0000  0.0000      0.0000  0.0000  0.0000  0.0000  0.0000  0.0000  0.0000  0.0000  0.0000  0.0000
  o =  0.0286  v = -0.0000 -0.7071  0.0000  0.7071 -0.0000  0.0000  0.0000  0.0000  0.0000  0.0000      0.0000  0.0000  0.0000  0.0000  0.0000  0.0000  0.0000  0.0000  0.0000  0.0000
  o =  0.0662  v = -0.0000 -0.7071  0.0000 -0.7071 -0.0000  0.0000  0.0000  0.0000  0.0000  0.0000      0.0000  0.0000  0.0000  0.0000  0.0000  0.0000  0.0000  0.0000  0.0000  0.0000
  o =  0.0976  v = -0.7860  0.0000 -0.6182  0.0000  0.0000  0.0000  0.0000  0.0000  0.0000  0.0000      0.0000  0.0000  0.0000  0.0000  0.0000  0.0000  0.0000  0.0000  0.0000  0.0000
  o =  0.9408  v =  0.0000  0.0000  0.0000  0.0000  0.0000 -0.6022  0.0000  0.7984 -0.0000  0.0000      0.0000  0.0000  0.0000  0.0000  0.0000  0.0000  0.0000  0.0000  0.0000  0.0000
  o =  0.9418  v =  0.0000  0.0000  0.0000  0.0000  0.0000 -0.0000 -0.7071  0.0000  0.7071 -0.0000      0.0000  0.0000  0.0000  0.0000  0.0000  0.0000  0.0000  0.0000  0.0000  0.0000
  o =  0.9425  v =  0.0000  0.0000  0.0000  0.0000  0.0000  0.0000 -0.0000 -0.0000  0.0000  1.0000      0.0000  0.0000  0.0000  0.0000  0.0000  0.0000  0.0000  0.0000  0.0000  0.0000
  o =  0.9560  v =  0.0000  0.0000  0.0000  0.0000  0.0000 -0.7984  0.0000 -0.6022 -0.0000  0.0000      0.0000  0.0000  0.0000  0.0000  0.0000  0.0000  0.0000  0.0000  0.0000  0.0000
  o =  0.9781  v =  0.0000  0.0000  0.0000  0.0000  0.0000  0.0000 -0.7071  0.0000 -0.7071 -0.0000      0.0000  0.0000  0.0000  0.0000  0.0000  0.0000  0.0000  0.0000  0.0000  0.0000
atom =   2  type =  1  l = 2
 
 onsite density matrix
 
spin component  1
 
  0.9505  0.0000 -0.0073  0.0000 -0.0000
  0.0000  0.9600  0.0000 -0.0182  0.0000
 -0.0073  0.0000  0.9463  0.0000 -0.0000
  0.0000 -0.0182  0.0000  0.9600  0.0000
 -0.0000  0.0000 -0.0000  0.0000  0.9425
 
spin component  2
 
  0.0684  0.0000 -0.0371  0.0000  0.0000
  0.0000  0.0474  0.0000 -0.0188  0.0000
 -0.0371  0.0000  0.0504  0.0000 -0.0000
  0.0000 -0.0188  0.0000  0.0474  0.0000
  0.0000  0.0000 -0.0000  0.0000  0.0236
 
 occupancies and eigenvectors
 
  o =  0.0212  v =  0.0000  0.0000  0.0000  0.0000  0.0000 -0.6182  0.0000 -0.7860  0.0000 -0.0000      0.0000  0.0000  0.0000  0.0000  0.0000  0.0000  0.0000  0.0000  0.0000  0.0000
  o =  0.0236  v =  0.0000  0.0000  0.0000  0.0000  0.0000 -0.0000 -0.0000 -0.0000  0.0000  1.0000      0.0000  0.0000  0.0000  0.0000  0.0000  0.0000  0.0000  0.0000  0.0000  0.0000
  o =  0.0286  v =  0.0000  0.0000  0.0000  0.0000  0.0000  0.0000 -0.7071  0.0000 -0.7071 -0.0000      0.0000  0.0000  0.0000  0.0000  0.0000  0.0000  0.0000  0.0000  0.0000  0.0000
  o =  0.0662  v =  0.0000  0.0000  0.0000  0.0000  0.0000  0.0000  0.7071  0.0000 -0.7071  0.0000      0.0000  0.0000  0.0000  0.0000  0.0000  0.0000  0.0000  0.0000  0.0000  0.0000
  o =  0.0976  v =  0.0000  0.0000  0.0000  0.0000  0.0000 -0.7860  0.0000  0.6182  0.0000 -0.0000      0.0000  0.0000  0.0000  0.0000  0.0000  0.0000  0.0000  0.0000  0.0000  0.0000
  o =  0.9408  v = -0.6022  0.0000 -0.7984  0.0000 -0.0000  0.0000  0.0000  0.0000  0.0000  0.0000      0.0000  0.0000  0.0000  0.0000  0.0000  0.0000  0.0000  0.0000  0.0000  0.0000
  o =  0.9418  v =  0.0000  0.7071 -0.0000  0.7071  0.0000  0.0000  0.0000  0.0000  0.0000  0.0000      0.0000  0.0000  0.0000  0.0000  0.0000  0.0000  0.0000  0.0000  0.0000  0.0000
  o =  0.9425  v =  0.0000 -0.0000 -0.0000 -0.0000  1.0000  0.0000  0.0000  0.0000  0.0000  0.0000      0.0000  0.0000  0.0000  0.0000  0.0000  0.0000  0.0000  0.0000  0.0000  0.0000
  o =  0.9560  v = -0.7984  0.0000  0.6022  0.0000  0.0000  0.0000  0.0000  0.0000  0.0000  0.0000      0.0000  0.0000  0.0000  0.0000  0.0000  0.0000  0.0000  0.0000  0.0000  0.0000
  o =  0.9781  v =  0.0000  0.7071  0.0000 -0.7071 -0.0000  0.0000  0.0000  0.0000  0.0000  0.0000      0.0000  0.0000  0.0000  0.0000  0.0000  0.0000  0.0000  0.0000  0.0000  0.0000
     EDDAV:  cpu time    1.2739: real time    1.2739
 BZINTS: Fermi energy:  2.211458; 54.000000 electrons
         Band energy:-799.088863;  BLOECHL correction:  0.000000
       DOS:  cpu time    0.0020: real time    0.0020
    CHARGE:  cpu time    0.2659: real time    0.2659
    MIXING:  cpu time    0.0011: real time    0.0011
    --------------------------------------------
      LOOP:  cpu time    3.0908: real time    3.0908

 eigenvalue-minimisations  :  1380
 total energy-change (2. order) : 0.4667540E+00  (-0.3660327E+00)
 number of electron      54.0000001 magnetization       0.0000000
 augmentation part       20.0108485 magnetization       0.0000000

 Broyden mixing:
  rms(total) = 0.77722E+00    rms(broyden)= 0.77722E+00
  rms(prec ) = 0.82253E+00
  weight for this iteration     100.00

 eigenvalues of (default mixing * dielectric matrix)
  average eigenvalue GAMMA=   0.9779
  1.8250  0.7547  0.7547  0.5773

 Free energy of the ion-electron system (eV)
  ---------------------------------------------------
  alpha Z        PSCENC =       199.38838823
  Ewald energy   TEWEN  =     -4203.06823030
  -Hartree energ DENC   =     -2158.94358562
  -exchange      EXHF   =         0.00000000
  -V(xc)+E(xc)   XCENC  =       168.30457635
  PAW double counting   =      6445.45241520    -6409.29092244
  entropy T*S    EENTRO =         0.00000000
  eigenvalues    EBANDS =      -799.08886311
  atomic energy  EATOM  =      6689.09526764
  Solvation  Ediel_sol  =         0.00000000
  ---------------------------------------------------
  free energy    TOTEN  =       -68.15095404 eV

  energy without entropy =      -68.15095404  energy(sigma->0) =      -68.15095404


--------------------------------------------------------------------------------------------------------




--------------------------------------- Iteration      1(  10)  ---------------------------------------


    POTLOK:  cpu time    0.0574: real time    0.0574
    SETDIJ:  cpu time    1.4915: real time    1.4915
atom =   1  type =  1  l = 2
 
 onsite density matrix
 
spin component  1
 
  0.0438  0.0000  0.0133  0.0000 -0.0000
  0.0000  0.0503  0.0000  0.0220  0.0000
  0.0133  0.0000  0.0372  0.0000 -0.0000
  0.0000  0.0220  0.0000  0.0503  0.0000
 -0.0000  0.0000 -0.0000  0.0000  0.0279
 
spin component  2
 
  0.9698  0.0000  0.0329  0.0000  0.0000
  0.0000  0.9516  0.0000  0.0166  0.0000
  0.0329  0.0000  0.9530  0.0000 -0.0000
  0.0000  0.0166  0.0000  0.9516  0.0000
  0.0000  0.0000 -0.0000  0.0000  0.9319
 
 occupancies and eigenvectors
 
  o =  0.0268  v = -0.6171  0.0000  0.7869 -0.0000  0.0000  0.0000  0.0000  0.0000  0.0000  0.0000      0.0000  0.0000  0.0000  0.0000  0.0000  0.0000  0.0000  0.0000  0.0000  0.0000
  o =  0.0279  v = -0.0000  0.0000  0.0000 -0.0000 -1.0000  0.0000  0.0000  0.0000  0.0000  0.0000      0.0000  0.0000  0.0000  0.0000  0.0000  0.0000  0.0000  0.0000  0.0000  0.0000
  o =  0.0283  v = -0.0000 -0.7071  0.0000  0.7071 -0.0000  0.0000  0.0000  0.0000  0.0000  0.0000      0.0000  0.0000  0.0000  0.0000  0.0000  0.0000  0.0000  0.0000  0.0000  0.0000
  o =  0.0542  v = -0.7869 -0.0000 -0.6171 -0.0000  0.0000  0.0000  0.0000  0.0000  0.0000  0.0000      0.0000  0.0000  0.0000  0.0000  0.0000  0.0000  0.0000  0.0000  0.0000  0.0000
  o =  0.0723  v =  0.0000 -0.7071  0.0000 -0.7071  0.0000  0.0000  0.0000  0.0000  0.0000  0.0000      0.0000  0.0000  0.0000  0.0000  0.0000  0.0000  0.0000  0.0000  0.0000  0.0000
  o =  0.9274  v =  0.0000  0.0000  0.0000  0.0000  0.0000 -0.6134  0.0000  0.7897  0.0000  0.0000      0.0000  0.0000  0.0000  0.0000  0.0000  0.0000  0.0000  0.0000  0.0000  0.0000
  o =  0.9319  v =  0.0000  0.0000  0.0000  0.0000  0.0000  0.0000 -0.0000  0.0000  0.0000 -1.0000      0.0000  0.0000  0.0000  0.0000  0.0000  0.0000  0.0000  0.0000  0.0000  0.0000
  o =  0.9350  v =  0.0000  0.0000  0.0000  0.0000  0.0000  0.0000  0.7071  0.0000 -0.7071 -0.0000      0.0000  0.0000  0.0000  0.0000  0.0000  0.0000  0.0000  0.0000  0.0000  0.0000
  o =  0.9682  v =  0.0000  0.0000  0.0000  0.0000  0.0000  0.0000 -0.7071 -0.0000 -0.7071  0.0000      0.0000  0.0000  0.0000  0.0000  0.0000  0.0000  0.0000  0.0000  0.0000  0.0000
  o =  0.9954  v =  0.0000  0.0000  0.0000  0.0000  0.0000 -0.7897  0.0000 -0.6134  0.0000 -0.0000      0.0000  0.0000  0.0000  0.0000  0.0000  0.0000  0.0000  0.0000  0.0000  0.0000
atom =   2  type =  1  l = 2
 
 onsite density matrix
 
spin component  1
 
  0.9698  0.0000 -0.0329  0.0000  0.0000
  0.0000  0.9516  0.0000 -0.0166  0.0000
 -0.0329  0.0000  0.9530  0.0000 -0.0000
  0.0000 -0.0166  0.0000  0.9516  0.0000
  0.0000  0.0000 -0.0000  0.0000  0.9319
 
spin component  2
 
  0.0438  0.0000 -0.0133  0.0000 -0.0000
  0.0000  0.0503  0.0000 -0.0220  0.0000
 -0.0133  0.0000  0.0372  0.0000 -0.0000
  0.0000 -0.0220  0.0000  0.0503  0.0000
 -0.0000  0.0000 -0.0000  0.0000  0.0279
 
 occupancies and eigenvectors
 
  o =  0.0268  v =  0.0000  0.0000  0.0000  0.0000  0.0000 -0.6171 -0.0000 -0.7869  0.0000 -0.0000      0.0000  0.0000  0.0000  0.0000  0.0000  0.0000  0.0000  0.0000  0.0000  0.0000
  o =  0.0279  v =  0.0000  0.0000  0.0000  0.0000  0.0000 -0.0000  0.0000 -0.0000  0.0000  1.0000      0.0000  0.0000  0.0000  0.0000  0.0000  0.0000  0.0000  0.0000  0.0000  0.0000
  o =  0.0283  v =  0.0000  0.0000  0.0000  0.0000  0.0000  0.0000  0.7071  0.0000  0.7071 -0.0000      0.0000  0.0000  0.0000  0.0000  0.0000  0.0000  0.0000  0.0000  0.0000  0.0000
  o =  0.0542  v =  0.0000  0.0000  0.0000  0.0000  0.0000 -0.7869 -0.0000  0.6171  0.0000 -0.0000      0.0000  0.0000  0.0000  0.0000  0.0000  0.0000  0.0000  0.0000  0.0000  0.0000
  o =  0.0723  v =  0.0000  0.0000  0.0000  0.0000  0.0000  0.0000  0.7071  0.0000 -0.7071 -0.0000      0.0000  0.0000  0.0000  0.0000  0.0000  0.0000  0.0000  0.0000  0.0000  0.0000
  o =  0.9274  v = -0.6134  0.0000 -0.7897  0.0000  0.0000  0.0000  0.0000  0.0000  0.0000  0.0000      0.0000  0.0000  0.0000  0.0000  0.0000  0.0000  0.0000  0.0000  0.0000  0.0000
  o =  0.9319  v =  0.0000  0.0000  0.0000  0.0000  1.0000  0.0000  0.0000  0.0000  0.0000  0.0000      0.0000  0.0000  0.0000  0.0000  0.0000  0.0000  0.0000  0.0000  0.0000  0.0000
  o =  0.9350  v =  0.0000 -0.7071  0.0000 -0.7071  0.0000  0.0000  0.0000  0.0000  0.0000  0.0000      0.0000  0.0000  0.0000  0.0000  0.0000  0.0000  0.0000  0.0000  0.0000  0.0000
  o =  0.9682  v =  0.0000 -0.7071  0.0000  0.7071  0.0000  0.0000  0.0000  0.0000  0.0000  0.0000      0.0000  0.0000  0.0000  0.0000  0.0000  0.0000  0.0000  0.0000  0.0000  0.0000
  o =  0.9954  v = -0.7897  0.0000  0.6134  0.0000 -0.0000  0.0000  0.0000  0.0000  0.0000  0.0000      0.0000  0.0000  0.0000  0.0000  0.0000  0.0000  0.0000  0.0000  0.0000  0.0000
     EDDAV:  cpu time    1.3245: real time    1.3245
 BZINTS: Fermi energy:  2.004777; 54.000000 electrons
         Band energy:-801.034678;  BLOECHL correction:  0.000000
       DOS:  cpu time    0.0017: real time    0.0017
    CHARGE:  cpu time    0.2660: real time    0.2660
    MIXING:  cpu time    0.0011: real time    0.0011
    --------------------------------------------
      LOOP:  cpu time    3.1423: real time    3.1423

 eigenvalue-minimisations  :  1464
 total energy-change (2. order) : 0.3766868E-01  (-0.3205068E-01)
 number of electron      54.0000001 magnetization       0.0000000
 augmentation part       20.0242942 magnetization       0.0000000

 Broyden mixing:
  rms(total) = 0.53977E+00    rms(broyden)= 0.53977E+00
  rms(prec ) = 0.59081E+00
  weight for this iteration     100.00

 eigenvalues of (default mixing * dielectric matrix)
  average eigenvalue GAMMA=   1.2232
  2.9447  0.9751  0.9751  0.6107  0.6107

 Free energy of the ion-electron system (eV)
  ---------------------------------------------------
  alpha Z        PSCENC =       199.38838823
  Ewald energy   TEWEN  =     -4203.06823030
  -Hartree energ DENC   =     -2153.50728539
  -exchange      EXHF   =         0.00000000
  -V(xc)+E(xc)   XCENC  =       166.10062192
  PAW double counting   =      6519.32765445    -6484.41502403
  entropy T*S    EENTRO =         0.00000000
  eigenvalues    EBANDS =      -801.03467789
  atomic energy  EATOM  =      6689.09526764
  Solvation  Ediel_sol  =         0.00000000
  ---------------------------------------------------
  free energy    TOTEN  =       -68.11328537 eV

  energy without entropy =      -68.11328537  energy(sigma->0) =      -68.11328537


--------------------------------------------------------------------------------------------------------




--------------------------------------- Iteration      1(  11)  ---------------------------------------


    POTLOK:  cpu time    0.0574: real time    0.0574
    SETDIJ:  cpu time    1.4923: real time    1.4923
atom =   1  type =  1  l = 2
 
 onsite density matrix
 
spin component  1
 
  0.0519  0.0000  0.0307  0.0000 -0.0000
  0.0000  0.0435  0.0000  0.0253  0.0000
  0.0307  0.0000  0.0370  0.0000  0.0000
  0.0000  0.0253  0.0000  0.0435  0.0000
 -0.0000  0.0000  0.0000  0.0000  0.0145
 
spin component  2
 
  0.9619  0.0000  0.0180  0.0000  0.0000
  0.0000  0.9583  0.0000  0.0164  0.0000
  0.0180  0.0000  0.9512  0.0000 -0.0000
  0.0000  0.0164  0.0000  0.9583  0.0000
  0.0000  0.0000 -0.0000  0.0000  0.9429
 
 occupancies and eigenvectors
 
  o =  0.0129  v = -0.6182 -0.0000  0.7861  0.0000 -0.0000  0.0000  0.0000  0.0000  0.0000  0.0000      0.0000  0.0000  0.0000  0.0000  0.0000  0.0000  0.0000  0.0000  0.0000  0.0000
  o =  0.0145  v = -0.0000  0.0000  0.0000  0.0000  1.0000  0.0000  0.0000  0.0000  0.0000  0.0000      0.0000  0.0000  0.0000  0.0000  0.0000  0.0000  0.0000  0.0000  0.0000  0.0000
  o =  0.0182  v =  0.0000  0.7071  0.0000 -0.7071 -0.0000  0.0000  0.0000  0.0000  0.0000  0.0000      0.0000  0.0000  0.0000  0.0000  0.0000  0.0000  0.0000  0.0000  0.0000  0.0000
  o =  0.0688  v =  0.0000 -0.7071  0.0000 -0.7071  0.0000  0.0000  0.0000  0.0000  0.0000  0.0000      0.0000  0.0000  0.0000  0.0000  0.0000  0.0000  0.0000  0.0000  0.0000  0.0000
  o =  0.0761  v = -0.7861 -0.0000 -0.6182  0.0000 -0.0000  0.0000  0.0000  0.0000  0.0000  0.0000      0.0000  0.0000  0.0000  0.0000  0.0000  0.0000  0.0000  0.0000  0.0000  0.0000
  o =  0.9378  v =  0.0000  0.0000  0.0000  0.0000  0.0000 -0.5974  0.0000  0.8019  0.0000  0.0000      0.0000  0.0000  0.0000  0.0000  0.0000  0.0000  0.0000  0.0000  0.0000  0.0000
  o =  0.9420  v =  0.0000  0.0000  0.0000  0.0000  0.0000  0.0000 -0.7071 -0.0000  0.7071  0.0000      0.0000  0.0000  0.0000  0.0000  0.0000  0.0000  0.0000  0.0000  0.0000  0.0000
  o =  0.9429  v =  0.0000  0.0000  0.0000  0.0000  0.0000  0.0000 -0.0000  0.0000  0.0000 -1.0000      0.0000  0.0000  0.0000  0.0000  0.0000  0.0000  0.0000  0.0000  0.0000  0.0000
  o =  0.9747  v =  0.0000  0.0000  0.0000  0.0000  0.0000  0.0000  0.7071 -0.0000  0.7071  0.0000      0.0000  0.0000  0.0000  0.0000  0.0000  0.0000  0.0000  0.0000  0.0000  0.0000
  o =  0.9753  v =  0.0000  0.0000  0.0000  0.0000  0.0000 -0.8019  0.0000 -0.5974  0.0000 -0.0000      0.0000  0.0000  0.0000  0.0000  0.0000  0.0000  0.0000  0.0000  0.0000  0.0000
atom =   2  type =  1  l = 2
 
 onsite density matrix
 
spin component  1
 
  0.9619  0.0000 -0.0180  0.0000  0.0000
  0.0000  0.9583  0.0000 -0.0164  0.0000
 -0.0180  0.0000  0.9512  0.0000  0.0000
  0.0000 -0.0164  0.0000  0.9583  0.0000
  0.0000  0.0000  0.0000  0.0000  0.9429
 
spin component  2
 
  0.0519  0.0000 -0.0307  0.0000 -0.0000
  0.0000  0.0435  0.0000 -0.0253  0.0000
 -0.0307  0.0000  0.0370  0.0000  0.0000
  0.0000 -0.0253  0.0000  0.0435  0.0000
 -0.0000  0.0000  0.0000  0.0000  0.0145
 
 occupancies and eigenvectors
 
  o =  0.0129  v =  0.0000  0.0000  0.0000  0.0000  0.0000 -0.6182  0.0000 -0.7861  0.0000  0.0000      0.0000  0.0000  0.0000  0.0000  0.0000  0.0000  0.0000  0.0000  0.0000  0.0000
  o =  0.0145  v =  0.0000  0.0000  0.0000  0.0000  0.0000 -0.0000 -0.0000 -0.0000  0.0000 -1.0000      0.0000  0.0000  0.0000  0.0000  0.0000  0.0000  0.0000  0.0000  0.0000  0.0000
  o =  0.0182  v =  0.0000  0.0000  0.0000  0.0000  0.0000  0.0000  0.7071  0.0000  0.7071 -0.0000      0.0000  0.0000  0.0000  0.0000  0.0000  0.0000  0.0000  0.0000  0.0000  0.0000
  o =  0.0688  v =  0.0000  0.0000  0.0000  0.0000  0.0000  0.0000  0.7071  0.0000 -0.7071 -0.0000      0.0000  0.0000  0.0000  0.0000  0.0000  0.0000  0.0000  0.0000  0.0000  0.0000
  o =  0.0761  v =  0.0000  0.0000  0.0000  0.0000  0.0000 -0.7861  0.0000  0.6182  0.0000  0.0000      0.0000  0.0000  0.0000  0.0000  0.0000  0.0000  0.0000  0.0000  0.0000  0.0000
  o =  0.9378  v = -0.5974  0.0000 -0.8019  0.0000  0.0000  0.0000  0.0000  0.0000  0.0000  0.0000      0.0000  0.0000  0.0000  0.0000  0.0000  0.0000  0.0000  0.0000  0.0000  0.0000
  o =  0.9420  v =  0.0000 -0.7071  0.0000 -0.7071 -0.0000  0.0000  0.0000  0.0000  0.0000  0.0000      0.0000  0.0000  0.0000  0.0000  0.0000  0.0000  0.0000  0.0000  0.0000  0.0000
  o =  0.9429  v =  0.0000  0.0000 -0.0000  0.0000 -1.0000  0.0000  0.0000  0.0000  0.0000  0.0000      0.0000  0.0000  0.0000  0.0000  0.0000  0.0000  0.0000  0.0000  0.0000  0.0000
[...]
     33       8.9731      0.00000
     34      10.4093      0.00000
     35      10.6623      0.00000
     36      11.9778      0.00000

 k-point     7 :       0.1250    0.1250    0.4167
  band No.  band energies     occupation 
      1     -49.2485      1.00000
      2     -49.2081      1.00000
      3     -49.1880      1.00000
      4     -42.7390      1.00000
      5     -42.6952      1.00000
      6     -42.6652      1.00000
      7     -22.6814      1.00000
      8     -22.5474      1.00000
      9     -22.5076      1.00000
     10     -22.4258      1.00000
     11      -4.4685      1.00000
     12      -4.2194      1.00000
     13      -4.0317      1.00000
     14      -3.8499      1.00000
     15      -3.6901      1.00000
     16      -3.4964      1.00000
     17      -3.1151      1.00000
     18      -2.9369      1.00000
     19      -2.8037      1.00000
     20      -2.3978      1.00000
     21      -2.3094      1.00000
     22      -2.2505      1.00000
     23       0.7836      1.00000
     24       0.8271      1.00000
     25       1.0708      1.00000
     26       1.6963      1.00000
     27       2.0448      1.00000
     28       6.3912      0.00000
     29       6.4203      0.00000
     30       6.5235      0.00000
     31       7.3744      0.00000
     32       7.6661      0.00000
     33       8.9774      0.00000
     34      11.2709      0.00000
     35      12.7359      0.00000
     36      13.0981      0.00000

 k-point     8 :       0.3750    0.1250    0.4167
  band No.  band energies     occupation 
      1     -49.2486      1.00000
      2     -49.2081      1.00000
      3     -49.1880      1.00000
      4     -42.7390      1.00000
      5     -42.6952      1.00000
      6     -42.6652      1.00000
      7     -22.6250      1.00000
      8     -22.5684      1.00000
      9     -22.5187      1.00000
     10     -22.4499      1.00000
     11      -4.5081      1.00000
     12      -4.2519      1.00000
     13      -4.1695      1.00000
     14      -3.9913      1.00000
     15      -3.6223      1.00000
     16      -3.3859      1.00000
     17      -3.2124      1.00000
     18      -3.1074      1.00000
     19      -2.5392      1.00000
     20      -2.3795      1.00000
     21      -2.2008      1.00000
     22      -2.0984      1.00000
     23       0.7709      1.00000
     24       0.7998      1.00000
     25       1.0100      1.00000
     26       1.6532      1.00000
     27       2.1734      1.00000
     28       6.3793      0.00000
     29       6.4134      0.00000
     30       6.5795      0.00000
     31       7.3291      0.00000
     32       7.8472      0.00000
     33       9.6025      0.00000
     34      11.1302      0.00000
     35      11.6488      0.00000
     36      12.9595      0.00000

 k-point     9 :       0.3750    0.3750    0.4167
  band No.  band energies     occupation 
      1     -49.2486      1.00000
      2     -49.2081      1.00000
      3     -49.1880      1.00000
      4     -42.7390      1.00000
      5     -42.6952      1.00000
      6     -42.6653      1.00000
      7     -22.6180      1.00000
      8     -22.5772      1.00000
      9     -22.5193      1.00000
     10     -22.4443      1.00000
     11      -4.7432      1.00000
     12      -4.5335      1.00000
     13      -4.1644      1.00000
     14      -4.1032      1.00000
     15      -3.5961      1.00000
     16      -3.3193      1.00000
     17      -3.1486      1.00000
     18      -2.9171      1.00000
     19      -2.3291      1.00000
     20      -2.2347      1.00000
     21      -2.1231      1.00000
     22      -2.0464      1.00000
     23       0.7686      1.00000
     24       0.7923      1.00000
     25       0.9957      1.00000
     26       1.6875      1.00000
     27       2.1489      1.00000
     28       6.3859      0.00000
     29       6.4108      0.00000
     30       6.5973      0.00000
     31       7.3052      0.00000
     32       7.7511      0.00000
     33      10.0963      0.00000
     34      11.6854      0.00000
     35      11.7141      0.00000
     36      11.9497      0.00000


--------------------------------------------------------------------------------------------------------


 soft charge-density along one line, spin component           1
         0         1         2         3         4         5         6         7         8         9
 total charge-density along one line
 
 soft charge-density along one line, spin component           2
         0         1         2         3         4         5         6         7         8         9
 total charge-density along one line
 
 pseudopotential strength for first ion, spin component:           1
-45.228   0.000  -0.038   7.799  -0.000   0.016  -0.000   0.000
  0.000 -45.195   0.000  -0.000   7.784  -0.000   0.000   0.000
 -0.038   0.000 -45.228   0.016  -0.000   7.799   0.000   0.000
  7.799  -0.000   0.016   5.590  -0.000   0.004  -0.000  -0.000
 -0.000   7.784  -0.000  -0.000   5.585   0.000  -0.000   0.000
  0.016  -0.000   7.799   0.004   0.000   5.590  -0.000  -0.000
 -0.000   0.000   0.000  -0.000  -0.000  -0.000  -2.985   0.000
  0.000   0.000   0.000  -0.000   0.000  -0.000   0.000  -2.967
 -0.000   0.000   0.000   0.000  -0.000   0.000   0.020   0.000
  0.000   0.000   0.000  -0.000   0.000  -0.000   0.000  -0.018
  0.000  -0.000  -0.000  -0.000   0.000  -0.000  -0.000   0.000
 -0.000   0.000   0.000  -0.000  -0.000  -0.000  -3.501   0.000
  0.000   0.000   0.000  -0.000   0.000  -0.000   0.000  -3.483
 -0.000   0.000   0.000   0.000  -0.000   0.000   0.018   0.000
  0.000   0.000   0.000  -0.000   0.000  -0.000   0.000  -0.018
  0.000  -0.000  -0.000  -0.000   0.000  -0.000  -0.000   0.000
  0.000  -0.000   0.000   0.000  -0.000  -0.000   0.011  -0.000
  0.000  -0.000   0.000   0.000  -0.000  -0.000   0.022  -0.000
 pseudopotential strength for first ion, spin component:           2
-50.982   0.000  -0.005   9.798  -0.000   0.016   0.000   0.000
  0.000 -50.982   0.000  -0.000   9.783  -0.000   0.000   0.000
 -0.005   0.000 -50.982   0.016  -0.000   9.798  -0.000   0.000
  9.798  -0.000   0.016   4.706  -0.000   0.001  -0.000  -0.000
 -0.000   9.783  -0.000  -0.000   4.706   0.000  -0.000  -0.000
  0.016  -0.000   9.798   0.001   0.000   4.706  -0.000  -0.000
  0.000   0.000  -0.000  -0.000  -0.000  -0.000  -7.338   0.000
  0.000   0.000   0.000  -0.000  -0.000  -0.000   0.000  -7.329
  0.000   0.000  -0.000  -0.000  -0.000   0.000  -0.009   0.000
  0.000  -0.000   0.000  -0.000   0.000  -0.000   0.000  -0.027
 -0.000  -0.000   0.000  -0.000   0.000  -0.000   0.000   0.000
  0.000   0.000  -0.000  -0.000  -0.000  -0.000  -7.809   0.000
  0.000   0.000   0.000  -0.000  -0.000  -0.000   0.000  -7.800
  0.000   0.000  -0.000  -0.000  -0.000   0.000  -0.008   0.000
  0.000  -0.000   0.000  -0.000   0.000  -0.000   0.000  -0.027
 -0.000  -0.000   0.000  -0.000   0.000  -0.000   0.000   0.000
  0.000  -0.000  -0.000  -0.000  -0.000   0.000   0.011  -0.000
  0.000  -0.000  -0.000  -0.000  -0.000   0.000   0.023  -0.000
 total augmentation occupancy for first ion, spin component:           1
  2.001   0.000   0.000  -0.013   0.000   0.001   0.000   0.000   0.000   0.000   0.000   0.000   0.000   0.000   0.000   0.000
  0.000   2.001   0.000   0.000  -0.013   0.000   0.000   0.000   0.000   0.000   0.000   0.000   0.000   0.000   0.000   0.000
  0.000   0.000   2.001   0.001   0.000  -0.013   0.000   0.000   0.000   0.000   0.000   0.000   0.000   0.000   0.000   0.000
 -0.013   0.000   0.001   0.081   0.000  -0.009   0.000   0.000   0.000   0.000   0.000   0.000   0.000   0.000   0.000   0.000
  0.000  -0.013   0.000   0.000   0.090   0.000   0.000   0.000   0.000   0.000   0.000   0.000   0.000   0.000   0.000   0.000
  0.001   0.000  -0.013  -0.009   0.000   0.081   0.000   0.000   0.000   0.000   0.000   0.000   0.000   0.000   0.000   0.000
  0.000   0.000   0.000   0.000   0.000   0.000   7.753   0.000   2.994   0.000   0.000  -5.780   0.000  -2.816   0.000  -0.000
  0.000   0.000   0.000   0.000   0.000   0.000   0.000   6.563   0.000   2.533   0.000   0.000  -4.635   0.000  -2.380   0.000
  0.000   0.000   0.000   0.000   0.000   0.000   2.994   0.000   5.953   0.000   0.000  -2.817   0.000  -4.094   0.000   0.000
  0.000   0.000   0.000   0.000   0.000   0.000   0.000   2.533   0.000   6.563   0.000   0.000  -2.380   0.000  -4.635   0.000
  0.000   0.000   0.000   0.000   0.000   0.000   0.000   0.000   0.000   0.000   3.893  -0.000   0.000   0.000   0.000  -2.112
  0.000   0.000   0.000   0.000   0.000   0.000  -5.780   0.000  -2.817   0.000   0.000   4.981   0.000   2.682   0.000  -0.000
  0.000   0.000   0.000   0.000   0.000   0.000   0.000  -4.635   0.000  -2.380   0.000   0.000   3.871   0.000   2.263   0.000
  0.000   0.000   0.000   0.000   0.000   0.000  -2.816   0.000  -4.094   0.000  -0.000   2.682   0.000   3.384   0.000  -0.000
  0.000   0.000   0.000   0.000   0.000   0.000   0.000  -2.380   0.000  -4.635   0.000   0.000   2.263   0.000   3.871   0.000
  0.000   0.000   0.000   0.000   0.000   0.000  -0.000   0.000   0.000   0.000  -2.112  -0.000   0.000   0.000   0.000   1.455
  0.000   0.000   0.000   0.000   0.000   0.000   0.439   0.000  -0.298   0.000   0.000  -0.416   0.000   0.277   0.000   0.000
  0.000   0.000   0.000   0.000   0.000   0.000  -0.091   0.000   0.068   0.000   0.000   0.096   0.000  -0.068   0.000   0.000
 total augmentation occupancy for first ion, spin component:           2
  0.004   0.000  -0.000   0.017   0.000  -0.001   0.000   0.000   0.000   0.000   0.000   0.000   0.000   0.000   0.000   0.000
  0.000   0.004   0.000   0.000   0.018   0.000   0.000   0.000   0.000   0.000   0.000   0.000   0.000   0.000   0.000   0.000
 -0.000   0.000   0.004  -0.001   0.000   0.017   0.000   0.000   0.000   0.000   0.000   0.000   0.000   0.000   0.000   0.000
  0.017   0.000  -0.001  -0.011   0.000  -0.000   0.000   0.000   0.000   0.000   0.000   0.000   0.000   0.000   0.000   0.000
  0.000   0.018   0.000   0.000  -0.010   0.000   0.000   0.000   0.000   0.000   0.000   0.000   0.000   0.000   0.000   0.000
 -0.001   0.000   0.017  -0.000   0.000  -0.011   0.000   0.000   0.000   0.000   0.000   0.000   0.000   0.000   0.000   0.000
  0.000   0.000   0.000   0.000   0.000   0.000  -5.097   0.000  -1.491   0.000   0.000   2.723   0.000   1.094   0.000   0.000
  0.000   0.000   0.000   0.000   0.000   0.000   0.000  -4.546   0.000  -1.271   0.000   0.000   2.297   0.000   0.935   0.000
  0.000   0.000   0.000   0.000   0.000   0.000  -1.491   0.000  -4.145   0.000  -0.000   1.094   0.000   2.010   0.000  -0.000
  0.000   0.000   0.000   0.000   0.000   0.000   0.000  -1.271   0.000  -4.546   0.000   0.000   0.935   0.000   2.297   0.000
  0.000   0.000   0.000   0.000   0.000   0.000   0.000   0.000  -0.000   0.000  -3.255   0.000   0.000  -0.000   0.000   1.355
  0.000   0.000   0.000   0.000   0.000   0.000   2.723   0.000   1.094   0.000  -0.000  -1.452   0.000  -0.704   0.000   0.000
  0.000   0.000   0.000   0.000   0.000   0.000   0.000   2.297   0.000   0.935   0.000   0.000  -1.153   0.000  -0.604   0.000
  0.000   0.000   0.000   0.000   0.000   0.000   1.094   0.000   2.010   0.000  -0.000  -0.704   0.000  -0.972   0.000   0.000
  0.000   0.000   0.000   0.000   0.000   0.000   0.000   0.935   0.000   2.297   0.000   0.000  -0.604   0.000  -1.153   0.000
  0.000   0.000   0.000   0.000   0.000   0.000   0.000   0.000  -0.000   0.000   1.355   0.000   0.000   0.000   0.000  -0.556
  0.000   0.000   0.000   0.000   0.000   0.000  -0.098   0.000   0.056   0.000  -0.000   0.022   0.000   0.001   0.000  -0.000
  0.000   0.000   0.000   0.000   0.000   0.000  -0.000   0.000  -0.006   0.000   0.000   0.009   0.000  -0.004   0.000  -0.000


------------------------ aborting loop because EDIFF is reached ----------------------------------------


 


 total charge     
 
# of ion       s       p       d       tot
------------------------------------------
    1        0.168   6.149   4.965  11.281
    2        0.172   6.144   4.971  11.288
    3        1.734   4.403   0.000   6.137
    4        1.734   4.403   0.000   6.137
    5        1.733   4.400   0.000   6.133
    6        1.733   4.400   0.000   6.133
--------------------------------------------------
tot          7.275  29.899   9.936  47.110
 


 magnetization (x)
 
# of ion       s       p       d       tot
------------------------------------------
    1       -0.022  -0.018  -4.581  -4.621
    2        0.023   0.016   4.579   4.618
    3        0.003   0.025   0.000   0.027
    4        0.003   0.025   0.000   0.027
    5       -0.003  -0.021   0.000  -0.024
    6       -0.003  -0.021   0.000  -0.024
--------------------------------------------------
tot         -0.001   0.006  -0.003   0.003
 
    CHARGE:  cpu time    0.0702: real time    0.0702
    FORLOC:  cpu time    0.0013: real time    0.0013
    FORNL :  cpu time    0.3276: real time    0.3276
    STRESS:  cpu time    3.9408: real time    3.9408
    FORCOR:  cpu time    0.0510: real time    0.0510
    FORHAR:  cpu time    0.0036: real time    0.0036
    MIXING:  cpu time    0.0018: real time    0.0018
    OFIELD:  cpu time    0.0000: real time    0.0000

  FORCE on cell =-STRESS in cart. coord.  units (eV):
  Direction    XX          YY          ZZ          XY          YZ          ZX
  --------------------------------------------------------------------------------------
  Alpha Z   199.38839   199.38839   199.38839
  Ewald   -1586.09778 -1586.09778 -1030.87583    -0.00000     0.00000     0.00000
  Hartree   594.09100   594.09100   969.40856    -0.00000    -0.00000    -0.00000
  E(xc)    -150.58558  -150.56202  -150.69742    -0.01641    -0.02613    -0.02790
  Local     163.51513   163.51513  -760.14591     0.00000     0.00000     0.00000
  n-local  -310.16692  -310.44523  -309.39667     0.01871     0.11150     0.11163
  augment   158.55748   158.55748   158.06751    -0.00000    -0.00000    -0.00000
  Kinetic   931.14416   931.71581   924.24744    -0.43838    -0.81111    -0.84705
  Fock        0.00000     0.00000     0.00000     0.00000     0.00000     0.00000
  -------------------------------------------------------------------------------------
  Total       0.00433     0.00433    -0.00393    -0.00000     0.00000     0.00000
  in kB       0.08964     0.08964    -0.08126    -0.00000     0.00000     0.00000
  external pressure =        0.03 kB  Pullay stress =        0.00 kB


 VOLUME and BASIS-vectors are now :
 -----------------------------------------------------------------------------
  energy-cutoff  :      800.00
  volume of cell :       77.42
      direct lattice vectors                 reciprocal lattice vectors
     4.852568500  0.000000000  0.000000000     0.206076431  0.000000000  0.000000000
     0.000000000  4.852568500  0.000000000     0.000000000  0.206076431  0.000000000
     0.000000000  0.000000000  3.288011935     0.000000000  0.000000000  0.304135149

  length of vectors
     4.852568500  4.852568500  3.288011935     0.206076431  0.206076431  0.304135149


 FORCES acting on ions
    electron-ion (+dipol)            ewald-force                    non-local-force                 convergence-correction
 -----------------------------------------------------------------------------------------------
   0.209E-11 0.516E-11 0.442E-11   -.568E-13 -.568E-13 -.305E-14   0.000E+00 0.000E+00 0.000E+00   -.910E-13 -.931E-13 -.105E-12
   -.468E-13 -.480E-13 -.299E-14   0.171E-12 0.171E-12 -.494E-14   0.000E+00 0.000E+00 0.000E+00   -.813E-14 0.131E-13 0.306E-13
   -.325E+02 0.325E+02 0.259E-12   0.337E+02 -.337E+02 0.930E-15   -.120E+01 0.120E+01 0.434E-18   -.136E-04 0.136E-04 -.741E-13
   0.325E+02 -.325E+02 -.923E-11   -.337E+02 0.337E+02 0.116E-14   0.120E+01 -.120E+01 -.434E-18   0.136E-04 -.136E-04 0.788E-14
   0.325E+02 0.325E+02 -.247E-07   -.337E+02 -.337E+02 -.175E-14   0.120E+01 0.120E+01 0.434E-18   0.136E-04 0.136E-04 0.254E-12
   -.325E+02 -.325E+02 0.247E-07   0.337E+02 0.337E+02 -.154E-14   -.120E+01 -.120E+01 -.434E-18   -.136E-04 -.136E-04 -.260E-12
 -----------------------------------------------------------------------------------------------
   -.548E-12 0.248E-11 -.603E-11   0.000E+00 0.000E+00 -.918E-14   0.222E-15 0.000E+00 0.000E+00   -.287E-12 -.252E-12 -.148E-12
 
 
 POSITION                                       TOTAL-FORCE (eV/Angst)
 -----------------------------------------------------------------------------------
      2.42628      2.42628      1.64401        -0.000000     -0.000000     -0.000000
      0.00000      0.00000      0.00000        -0.000000     -0.000000     -0.000000
      0.95159      3.90098      1.64401         0.000508     -0.000508     -0.000000
      3.90098      0.95159      1.64401        -0.000508      0.000508      0.000000
      1.47470      1.47470      0.00000        -0.000508     -0.000508     -0.000000
      3.37787      3.37787      0.00000         0.000508      0.000508      0.000000
 -----------------------------------------------------------------------------------
    total drift:                               -0.000000      0.000000     -0.000000


--------------------------------------------------------------------------------------------------------



  FREE ENERGIE OF THE ION-ELECTRON SYSTEM (eV)
  ---------------------------------------------------
  free  energy   TOTEN  =       -68.04683077 eV

  energy  without entropy=      -68.04683077  energy(sigma->0) =      -68.04683077
 


--------------------------------------------------------------------------------------------------------


    POTLOK:  cpu time    0.8648: real time    0.8648


--------------------------------------------------------------------------------------------------------


 writing wavefunctions
     LOOP+:  cpu time   67.2066: real time   67.2625
    4ORBIT:  cpu time    0.0000: real time    0.0000
 


 total charge     
 
# of ion       s       p       d       tot
------------------------------------------
    1        0.168   6.149   4.965  11.281
    2        0.172   6.144   4.971  11.288
    3        1.734   4.403   0.000   6.137
    4        1.734   4.403   0.000   6.137
    5        1.733   4.400   0.000   6.133
    6        1.733   4.400   0.000   6.133
--------------------------------------------------
tot          7.275  29.899   9.936  47.110
 


 magnetization (x)
 
# of ion       s       p       d       tot
------------------------------------------
    1       -0.022  -0.018  -4.581  -4.621
    2        0.023   0.016   4.579   4.618
    3        0.003   0.025   0.000   0.027
    4        0.003   0.025   0.000   0.027
    5       -0.003  -0.021   0.000  -0.024
    6       -0.003  -0.021   0.000  -0.024
--------------------------------------------------
tot         -0.001   0.006  -0.003   0.003
 
 BZINTS: Fermi energy:  2.287472; 54.000000 electrons
         Band energy:-796.529517;  BLOECHL correction:  0.000000

 total amount of memory used by VASP MPI-rank0    54240. kBytes
=======================================================================

   base      :      30000. kBytes
   nonl-proj :      10741. kBytes
   fftplans  :       3220. kBytes
   grid      :       6579. kBytes
   one-center:        186. kBytes
   wavefun   :       3514. kBytes
 
  
  
 General timing and accounting informations for this job:
 ========================================================
  
                  Total CPU time used (sec):       68.954
                            User time (sec):       53.403
                          System time (sec):       15.551
                         Elapsed time (sec):       69.049
  
                   Maximum memory used (kb):       84692.
                   Average memory used (kb):           0.
  
                          Minor page faults:        17660
                          Major page faults:            7
                 Voluntary context switches:          258
