 vasp.5.4.4.18Apr17-6-g9f103f2a35 (build Apr 27 2017 11:13:10) complex          
  
 executed on           IFC91_ompi date 2020.05.30  01:54:35
 running on    4 total cores
 distrk:  each k-point on    4 cores,    1 groups
 distr:  one band on NCORES_PER_BAND=   1 cores,    4 groups


--------------------------------------------------------------------------------------------------------


 INCAR:
 POTCAR:    PAW Mn_pv 02Aug2007                   
 POTCAR:    PAW F 31May2000                       
 POTCAR:    PAW Mn_pv 02Aug2007                   
   VRHFIN =Mn: 3p4s3d                                                           
   LEXCH  = CA                                                                  
   EATOM  =  2028.0466 eV,  149.0572 Ry                                         
                                                                                
   TITEL  = PAW Mn_pv 02Aug2007                                                 
   LULTRA =        F    use ultrasoft PP ?                                      
   IUNSCR =        1    unscreen: 0-lin 1-nonlin 2-no                           
   RPACOR =    2.080    partial core radius                                     
   POMASS =   54.938; ZVAL   =   13.000    mass and valenz                      
   RCORE  =    2.300    outmost cutoff radius                                   
   RWIGS  =    2.500; RWIGS  =    1.323    wigner-seitz radius (au A)           
   ENMAX  =  269.944; ENMIN  =  202.458 eV                                      
   ICORE  =        3    local potential                                         
   LCOR   =        T    correct aug charges                                     
   LPAW   =        T    paw PP                                                  
   EAUG   =  569.085                                                            
   DEXC   =    0.000                                                            
   RMAX   =    2.343    core radius for proj-oper                               
   RAUG   =    1.300    factor for augmentation sphere                          
   RDEP   =    2.338    radius for radial grids                                 
   RDEPT  =    1.798    core radius for aug-charge                              
                                                                                
   Atomic configuration                                                         
    8 entries                                                                   
     n  l   j            E        occ.                                          
     1  0  0.50     -6393.6057   2.0000                                         
     2  0  0.50      -735.9993   2.0000                                         
     2  1  1.50      -624.3417   6.0000                                         
     3  0  0.50       -80.9782   2.0000                                         
     3  1  1.50       -50.3144   6.0000                                         
     3  2  2.50        -3.6171   6.0000                                         
     4  0  0.50        -4.3304   1.0000                                         
     4  3  2.50        -1.3606   0.0000                                         
   Description                                                                  
     l       E           TYP  RCUT    TYP  RCUT                                 
     1    -50.3143634     23  2.000                                             
     1     -1.3605826     23  2.000                                             
     2     -3.6171470     23  2.300                                             
     2     -4.9777296     23  2.300                                             
     0     -4.3303688     23  2.300                                             
     0      7.3408788     23  2.300                                             
     3      9.5240782     23  2.300                                             
  local pseudopotential read in
  partial core-charges read in
  partial kinetic energy density read in
  atomic valenz-charges read in
  non local Contribution for L=           1  read in
    real space projection operators read in
  non local Contribution for L=           1  read in
    real space projection operators read in
  non local Contribution for L=           2  read in
    real space projection operators read in
  non local Contribution for L=           2  read in
    real space projection operators read in
  non local Contribution for L=           0  read in
    real space projection operators read in
  non local Contribution for L=           0  read in
    real space projection operators read in
    PAW grid and wavefunctions read in
 
   number of l-projection  operators is LMAX  =           6
   number of lm-projection operators is LMMAX =          18
 
 POTCAR:    PAW F 31May2000                       
   VRHFIN =F: s2p5                                                              
   LEXCH  = CA                                                                  
   EATOM  =   658.3685 eV,   48.3887 Ry                                         
                                                                                
   TITEL  = PAW F 31May2000                                                     
   LULTRA =        F    use ultrasoft PP ?                                      
   IUNSCR =        1    unscreen: 0-lin 1-nonlin 2-no                           
   RPACOR =    1.200    partial core radius                                     
   POMASS =   18.998; ZVAL   =    7.000    mass and valenz                      
   RCORE  =    1.520    outmost cutoff radius                                   
   RWIGS  =    1.500; RWIGS  =    0.794    wigner-seitz radius (au A)           
   ENMAX  =  400.000; ENMIN  =  300.000 eV                                      
   ICORE  =        2    local potential                                         
   LCOR   =        T    correct aug charges                                     
   LPAW   =        T    paw PP                                                  
   EAUG   =  613.614                                                            
   DEXC   =    0.000                                                            
   RMAX   =    1.555    core radius for proj-oper                               
   RAUG   =    1.300    factor for augmentation sphere                          
   RDEP   =    1.539    radius for radial grids                                 
   RDEPT  =    1.299    core radius for aug-charge                              
                                                                                
   Atomic configuration                                                         
    4 entries                                                                   
     n  l   j            E        occ.                                          
     1  0  0.50      -658.3386   2.0000                                         
     2  0  0.50       -29.6221   2.0000                                         
     2  1  0.50       -11.2952   5.0000                                         
     3  2  1.50       -12.2452   0.0000                                         
   Description                                                                  
     l       E           TYP  RCUT    TYP  RCUT                                 
     0    -29.6221019     23  1.200                                             
     0     -9.5240782     23  1.200                                             
     1    -11.2951545     23  1.520                                             
     1      1.3605826     23  1.520                                             
     2    -12.2452434      7  1.500                                             
  local pseudopotential read in
  partial core-charges read in
  partial kinetic energy density read in
  kinetic energy density of atom read in
  atomic valenz-charges read in
  non local Contribution for L=           0  read in
    real space projection operators read in
  non local Contribution for L=           0  read in
    real space projection operators read in
  non local Contribution for L=           1  read in
    real space projection operators read in
  non local Contribution for L=           1  read in
    real space projection operators read in
    PAW grid and wavefunctions read in
 
   number of l-projection  operators is LMAX  =           4
   number of lm-projection operators is LMMAX =           8
 
  PAW Mn_pv 02Aug2007                   :
 energy of atom  1       EATOM=-2028.0466
 kinetic energy error for atom=    0.0020 (will be added to EATOM!!)
  PAW F 31May2000                       :
 energy of atom  2       EATOM= -658.3685
 kinetic energy error for atom=    0.0137 (will be added to EATOM!!)
 
 
 POSCAR: Mn  F                                   
  positions in cartesian coordinates
  No initial velocities read in
 exchange correlation table for  LEXCH =        2
   RHO(1)=    0.500       N(1)  =     2000
   RHO(2)=  100.500       N(2)  =     4000
 


--------------------------------------------------------------------------------------------------------


 ion  position               nearest neighbor table
   1  0.500  0.500  0.500-   3 2.11   4 2.11   5 2.14   6 2.14   5 2.14   6 2.14
   2  0.000  0.000  0.000-   5 2.11   6 2.11   3 2.14   4 2.14   3 2.14   4 2.14
   3  0.195  0.805  0.500-   1 2.11   2 2.14   2 2.14
   4  0.805  0.195  0.500-   1 2.11   2 2.14   2 2.14
   5  0.305  0.305  0.000-   2 2.11   1 2.14   1 2.14
   6  0.695  0.695  0.000-   2 2.11   1 2.14   1 2.14
 

IMPORTANT INFORMATION: All symmetrisations will be switched off!
NOSYMM: (Re-)initialisation of all symmetry stuff for point group C_1.

 
 
 KPOINTS: KPOINTS created by Atomic Simulation Env
  k-points in reciprocal lattice
Space group operators:
 irot       det(A)        alpha          n_x          n_y          n_z        tau_x        tau_y        tau_z
    1     1.000000     0.000000     1.000000     0.000000     0.000000     0.000000     0.000000     0.000000


--------------------------------------------------------------------------------------------------------




 Dimension of arrays:
   k-points           NKPTS =    152   k-points in BZ     NKDIM =    152   number of bands    NBANDS=     48
   number of dos      NEDOS =    301   number of ions     NIONS =      6
   non local maximal  LDIM  =      6   non local SUM 2l+1 LMDIM =     18
   total plane-waves  NPLWV =  24576
   max r-space proj   IRMAX =      1   max aug-charges    IRDMAX=  75389
   dimension x,y,z NGX =    32 NGY =   32 NGZ =   24
   dimension x,y,z NGXF=    64 NGYF=   64 NGZF=   48
   support grid    NGXF=   128 NGYF=  128 NGZF=   96
   ions per type =               2   4
   NGX,Y,Z   is equivalent  to a cutoff of  10.88, 10.88, 12.04 a.u.
   NGXF,Y,Z  is equivalent  to a cutoff of  21.75, 21.75, 24.07 a.u.

 SYSTEM =  unknown system                          
 POSCAR =  Mn  F                                   

 Startparameter for this run:
   NWRITE =      2    write-flag & timer
   PREC   = normal    normal or accurate (medium, high low for compatibility)
   ISTART =      0    job   : 0-new  1-cont  2-samecut
   ICHARG =     11    charge: 1-file 2-atom 10-const
   ISPIN  =      2    spin polarized calculation?
   LNONCOLLINEAR =      F non collinear calculations
   LSORBIT =      F    spin-orbit coupling
   INIWAV =      1    electr: 0-lowe 1-rand  2-diag
   LASPH  =      T    aspherical Exc in radial PAW
   METAGGA=      F    non-selfconsistent MetaGGA calc.

 Electronic Relaxation 1
   ENCUT  =  700.0 eV  51.45 Ry    7.17 a.u.  10.55 10.55  7.15*2*pi/ulx,y,z
   ENINI  =  700.0     initial cutoff
   ENAUG  =  613.6 eV  augmentation charge cutoff
   NELM   =     60;   NELMIN=  2; NELMDL=  0     # of ELM steps 
   EDIFF  = 0.1E-06   stopping-criterion for ELM
   LREAL  =      F    real-space projection
   NLSPLINE    = F    spline interpolate recip. space projectors
   LCOMPAT=      F    compatible to vasp.4.4
   GGA_COMPAT  = T    GGA compatible to vasp.4.4-vasp.4.6
   LMAXPAW     = -100 max onsite density
   LMAXMIX     =    4 max onsite mixed and CHGCAR
   VOSKOWN=      0    Vosko Wilk Nusair interpolation
   ROPT   =    0.00000   0.00000
 Ionic relaxation
   EDIFFG = 0.1E-05   stopping-criterion for IOM
   NSW    =      0    number of steps for IOM
   NBLOCK =      1;   KBLOCK =      1    inner block; outer block 
   IBRION =     -1    ionic relax: 0-MD 1-quasi-New 2-CG
   NFREE  =      0    steps in history (QN), initial steepest desc. (CG)
   ISIF   =      2    stress and relaxation
   IWAVPR =     10    prediction:  0-non 1-charg 2-wave 3-comb
   ISYM   =      0    0-nonsym 1-usesym 2-fastsym
   LCORR  =      T    Harris-Foulkes like correction to forces

   POTIM  = 0.5000    time-step for ionic-motion
   TEIN   =    0.0    initial temperature
   TEBEG  =    0.0;   TEEND  =   0.0 temperature during run
   SMASS  =  -3.00    Nose mass-parameter (am)
   estimated Nose-frequenzy (Omega)   =  0.10E-29 period in steps =****** mass=  -0.547E-27a.u.
   SCALEE = 1.0000    scale energy and forces
   NPACO  =    256;   APACO  = 16.0  distance and # of slots for P.C.
   PSTRESS=    0.0 pullay stress

  Mass of Ions in am
   POMASS =  54.94 19.00
  Ionic Valenz
   ZVAL   =  13.00  7.00
  Atomic Wigner-Seitz radii
   RWIGS  =  -1.00 -1.00
  virtual crystal weights 
   VCA    =   1.00  1.00
   NELECT =      54.0000    total number of electrons
   NUPDOWN=      -1.0000    fix difference up-down

 DOS related values:
   EMIN   =  10.00;   EMAX   =-10.00  energy-range for DOS
   EFERMI =   0.00
   ISMEAR =     0;   SIGMA  =   0.01  broadening in eV -4-tet -1-fermi 0-gaus

 Electronic relaxation 2 (details)
   IALGO  =     38    algorithm
   LDIAG  =      T    sub-space diagonalisation (order eigenvalues)
   LSUBROT=      F    optimize rotation matrix (better conditioning)
   TURBO    =      0    0=normal 1=particle mesh
   IRESTART =      0    0=no restart 2=restart with 2 vectors
   NREBOOT  =      0    no. of reboots
   NMIN     =      0    reboot dimension
   EREF     =   0.00    reference energy to select bands
   IMIX   =      4    mixing-type and parameters
     AMIX     =   0.40;   BMIX     =  1.00
     AMIX_MAG =   1.60;   BMIX_MAG =  1.00
     AMIN     =   0.10
     WC   =   100.;   INIMIX=   1;  MIXPRE=   1;  MAXMIX= -45

 Intra band minimization:
   WEIMIN = 0.0000     energy-eigenvalue tresh-hold
   EBREAK =  0.52E-09  absolut break condition
   DEPER  =   0.30     relativ break condition  

   TIME   =   0.40     timestep for ELM

  volume/ion in A,a.u.               =      13.22        89.23
  Fermi-wavevector in a.u.,A,eV,Ry     =   1.440092  2.721380 28.216662  2.073866
  Thomas-Fermi vector in A             =   2.558875
 
 Write flags
   LWAVE        =      F    write WAVECAR
   LDOWNSAMPLE  =      F    k-point downsampling of WAVECAR
   LCHARG       =      T    write CHGCAR
   LVTOT        =      F    write LOCPOT, total local potential
   LVHAR        =      F    write LOCPOT, Hartree potential only
   LELF         =      F    write electronic localiz. function (ELF)
   LORBIT       =     11    0 simple, 1 ext, 2 COOP (PROOUT), +10 PAW based schemes


 Dipole corrections
   LMONO  =      F    monopole corrections only (constant potential shift)
   LDIPOL =      F    correct potential (dipole corrections)
   IDIPOL =      0    1-x, 2-y, 3-z, 4-all directions 
   EPSILON=  1.0000000 bulk dielectric constant

 LDA+U is selected, type is set to LDAUTYPE =  2
   angular momentum for each species LDAUL =     2   -1
   U (eV)           for each species LDAUU =   4.0  0.0
   J (eV)           for each species LDAUJ =   0.0  0.0
 Exchange correlation treatment:
   GGA     =    --    GGA type
   LEXCH   =     2    internal setting for exchange type
   VOSKOWN=      0    Vosko Wilk Nusair interpolation
   LHFCALC =     F    Hartree Fock is set to
   LHFONE  =     F    Hartree Fock one center treatment
   AEXX    =    0.0000 exact exchange contribution

 Linear response parameters
   LEPSILON=     F    determine dielectric tensor
   LRPA    =     F    only Hartree local field effects (RPA)
   LNABLA  =     F    use nabla operator in PAW spheres
   LVEL    =     F    velocity operator in full k-point grid
   LINTERFAST=   F  fast interpolation
   KINTER  =     0    interpolate to denser k-point grid
   CSHIFT  =0.1000    complex shift for real part using Kramers Kronig
   OMEGAMAX=  -1.0    maximum frequency
   DEG_THRESHOLD= 0.2000000E-02 threshold for treating states as degnerate
   RTIME   =   -0.100 relaxation time in fs
  (WPLASMAI=    0.000 imaginary part of plasma frequency in eV, 0.658/RTIME)
   DFIELD  = 0.0000000 0.0000000 0.0000000 field for delta impulse in time
 
 Orbital magnetization related:
   ORBITALMAG=     F  switch on orbital magnetization
   LCHIMAG   =     F  perturbation theory with respect to B field
   DQ        =  0.001000  dq finite difference perturbation B field
   LLRAUG    =     F  two centre corrections for induced B field



--------------------------------------------------------------------------------------------------------


 Static calculation
 charge density and potential remain constant during run
 spin polarized calculation
 Variant of blocked Davidson
 Davidson routine will perform the subspace rotation
 perform sub-space diagonalisation
    after iterative eigenvector-optimisation
 no mixing
 using additional bands           21
 reciprocal scheme for non local part
 use partial core corrections
 calculate Harris-corrections to forces 
   (improved forces if not selfconsistent)
 use of overlap-Matrix (Vanderbilt PP)
 Gauss-broadening in eV      SIGMA  =   0.01


--------------------------------------------------------------------------------------------------------


  energy-cutoff  :      700.00
  volume of cell :       79.33
      direct lattice vectors                 reciprocal lattice vectors
     4.891796665  0.000000000  0.000000000     0.204423869  0.000000000  0.000000000
     0.000000000  4.891796665  0.000000000     0.000000000  0.204423869  0.000000000
     0.000000000  0.000000000  3.315204934     0.000000000  0.000000000  0.301640478

  length of vectors
     4.891796665  4.891796665  3.315204934     0.204423869  0.204423869  0.301640478


 
 k-points in units of 2pi/SCALE and weight: KPOINTS created by Atomic Simulation Env
   0.00000000  0.00000000  0.00000000       0.007
   0.00000000  0.00786255  0.00000000       0.007
   0.00000000  0.01572490  0.00000000       0.007
   0.00000000  0.02358745  0.00000000       0.007
   0.00000000  0.03144979  0.00000000       0.007
   0.00000000  0.03931235  0.00000000       0.007
   0.00000000  0.04717469  0.00000000       0.007
   0.00000000  0.05503724  0.00000000       0.007
   0.00000000  0.06289959  0.00000000       0.007
   0.00000000  0.07076214  0.00000000       0.007
   0.00000000  0.07862449  0.00000000       0.007
   0.00000000  0.08648704  0.00000000       0.007
   0.00000000  0.09434938  0.00000000       0.007
   0.00000000  0.10221193  0.00000000       0.007
   0.00786255  0.10221193  0.00000000       0.007
   0.01572490  0.10221193  0.00000000       0.007
   0.02358745  0.10221193  0.00000000       0.007
   0.03144979  0.10221193  0.00000000       0.007
   0.03931235  0.10221193  0.00000000       0.007
   0.04717469  0.10221193  0.00000000       0.007
   0.05503724  0.10221193  0.00000000       0.007
   0.06289959  0.10221193  0.00000000       0.007
   0.07076214  0.10221193  0.00000000       0.007
   0.07862449  0.10221193  0.00000000       0.007
   0.08648704  0.10221193  0.00000000       0.007
   0.09434938  0.10221193  0.00000000       0.007
   0.10221193  0.10221193  0.00000000       0.007
   0.09653345  0.09653345  0.00000000       0.007
   0.09085496  0.09085496  0.00000000       0.007
   0.08517668  0.08517668  0.00000000       0.007
   0.07949819  0.07949819  0.00000000       0.007
   0.07381971  0.07381971  0.00000000       0.007
   0.06814122  0.06814122  0.00000000       0.007
   0.06246294  0.06246294  0.00000000       0.007
   0.05678445  0.05678445  0.00000000       0.007
   0.05110597  0.05110597  0.00000000       0.007
   0.04542748  0.04542748  0.00000000       0.007
   0.03974899  0.03974899  0.00000000       0.007
   0.03407071  0.03407071  0.00000000       0.007
   0.02839223  0.02839223  0.00000000       0.007
   0.02271374  0.02271374  0.00000000       0.007
   0.01703525  0.01703525  0.00000000       0.007
   0.01135697  0.01135697  0.00000000       0.007
   0.00567849  0.00567849  0.00000000       0.007
   0.00000000  0.00000000  0.00000000       0.007
   0.00000000  0.00000000  0.00793797       0.007
   0.00000000  0.00000000  0.01587594       0.007
   0.00000000  0.00000000  0.02381361       0.007
   0.00000000  0.00000000  0.03175158       0.007
   0.00000000  0.00000000  0.03968955       0.007
   0.00000000  0.00000000  0.04762752       0.007
   0.00000000  0.00000000  0.05556549       0.007
   0.00000000  0.00000000  0.06350316       0.007
   0.00000000  0.00000000  0.07144113       0.007
   0.00000000  0.00000000  0.07937910       0.007
   0.00000000  0.00000000  0.08731708       0.007
   0.00000000  0.00000000  0.09525474       0.007
   0.00000000  0.00000000  0.10319272       0.007
   0.00000000  0.00000000  0.11113069       0.007
   0.00000000  0.00000000  0.11906866       0.007
   0.00000000  0.00000000  0.12700663       0.007
   0.00000000  0.00000000  0.13494430       0.007
   0.00000000  0.00000000  0.14288227       0.007
   0.00000000  0.00000000  0.15082024       0.007
   0.00000000  0.00786255  0.15082024       0.007
   0.00000000  0.01572490  0.15082024       0.007
   0.00000000  0.02358745  0.15082024       0.007
   0.00000000  0.03144979  0.15082024       0.007
   0.00000000  0.03931235  0.15082024       0.007
   0.00000000  0.04717469  0.15082024       0.007
   0.00000000  0.05503724  0.15082024       0.007
   0.00000000  0.06289959  0.15082024       0.007
   0.00000000  0.07076214  0.15082024       0.007
   0.00000000  0.07862449  0.15082024       0.007
   0.00000000  0.08648704  0.15082024       0.007
   0.00000000  0.09434938  0.15082024       0.007
   0.00000000  0.10221193  0.15082024       0.007
   0.00786255  0.10221193  0.15082024       0.007
   0.01572490  0.10221193  0.15082024       0.007
   0.02358745  0.10221193  0.15082024       0.007
   0.03144979  0.10221193  0.15082024       0.007
   0.03931235  0.10221193  0.15082024       0.007
   0.04717469  0.10221193  0.15082024       0.007
   0.05503724  0.10221193  0.15082024       0.007
   0.06289959  0.10221193  0.15082024       0.007
   0.07076214  0.10221193  0.15082024       0.007
   0.07862449  0.10221193  0.15082024       0.007
   0.08648704  0.10221193  0.15082024       0.007
   0.09434938  0.10221193  0.15082024       0.007
   0.10221193  0.10221193  0.15082024       0.007
   0.09683232  0.09683232  0.15082024       0.007
   0.09145270  0.09145270  0.15082024       0.007
   0.08607328  0.08607328  0.15082024       0.007
   0.08069366  0.08069366  0.15082024       0.007
   0.07531405  0.07531405  0.15082024       0.007
   0.06993443  0.06993443  0.15082024       0.007
   0.06455481  0.06455481  0.15082024       0.007
   0.05917540  0.05917540  0.15082024       0.007
   0.05379578  0.05379578  0.15082024       0.007
   0.04841616  0.04841616  0.15082024       0.007
   0.04303654  0.04303654  0.15082024       0.007
   0.03765713  0.03765713  0.15082024       0.007
   0.03227751  0.03227751  0.15082024       0.007
   0.02689789  0.02689789  0.15082024       0.007
   0.02151827  0.02151827  0.15082024       0.007
   0.01613865  0.01613865  0.15082024       0.007
   0.01075924  0.01075924  0.15082024       0.007
   0.00537962  0.00537962  0.15082024       0.007
   0.00000000  0.00000000  0.15082024       0.007
   0.00000000  0.10221193  0.00000000       0.007
   0.00000000  0.10221193  0.00754101       0.007
   0.00000000  0.10221193  0.01508202       0.007
   0.00000000  0.10221193  0.02262304       0.007
   0.00000000  0.10221193  0.03016405       0.007
   0.00000000  0.10221193  0.03770506       0.007
   0.00000000  0.10221193  0.04524607       0.007
   0.00000000  0.10221193  0.05278708       0.007
   0.00000000  0.10221193  0.06032810       0.007
   0.00000000  0.10221193  0.06786911       0.007
   0.00000000  0.10221193  0.07541012       0.007
   0.00000000  0.10221193  0.08295113       0.007
   0.00000000  0.10221193  0.09049214       0.007
   0.00000000  0.10221193  0.09803316       0.007
   0.00000000  0.10221193  0.10557417       0.007
   0.00000000  0.10221193  0.11311518       0.007
   0.00000000  0.10221193  0.12065619       0.007
   0.00000000  0.10221193  0.12819720       0.007
   0.00000000  0.10221193  0.13573821       0.007
   0.00000000  0.10221193  0.14327923       0.007
   0.00000000  0.10221193  0.15082024       0.007
   0.10221193  0.10221193  0.00000000       0.007
   0.10221193  0.10221193  0.00718206       0.007
   0.10221193  0.10221193  0.01436382       0.007
   0.10221193  0.10221193  0.02154588       0.007
   0.10221193  0.10221193  0.02872764       0.007
   0.10221193  0.10221193  0.03590970       0.007
   0.10221193  0.10221193  0.04309145       0.007
   0.10221193  0.10221193  0.05027351       0.007
   0.10221193  0.10221193  0.05745527       0.007
   0.10221193  0.10221193  0.06463733       0.007
   0.10221193  0.10221193  0.07181909       0.007
   0.10221193  0.10221193  0.07900115       0.007
   0.10221193  0.10221193  0.08618291       0.007
   0.10221193  0.10221193  0.09336497       0.007
   0.10221193  0.10221193  0.10054673       0.007
   0.10221193  0.10221193  0.10772879       0.007
   0.10221193  0.10221193  0.11491054       0.007
   0.10221193  0.10221193  0.12209260       0.007
   0.10221193  0.10221193  0.12927436       0.007
   0.10221193  0.10221193  0.13645642       0.007
   0.10221193  0.10221193  0.14363818       0.007
   0.10221193  0.10221193  0.15082024       0.007
 
 k-points in reciprocal lattice and weights: KPOINTS created by Atomic Simulation Env
   0.00000000  0.00000000  0.00000000       0.007
   0.00000000  0.03846200  0.00000000       0.007
   0.00000000  0.07692300  0.00000000       0.007
   0.00000000  0.11538500  0.00000000       0.007
   0.00000000  0.15384600  0.00000000       0.007
   0.00000000  0.19230800  0.00000000       0.007
   0.00000000  0.23076900  0.00000000       0.007
   0.00000000  0.26923100  0.00000000       0.007
   0.00000000  0.30769200  0.00000000       0.007
   0.00000000  0.34615400  0.00000000       0.007
   0.00000000  0.38461500  0.00000000       0.007
   0.00000000  0.42307700  0.00000000       0.007
   0.00000000  0.46153800  0.00000000       0.007
   0.00000000  0.50000000  0.00000000       0.007
   0.03846200  0.50000000  0.00000000       0.007
   0.07692300  0.50000000  0.00000000       0.007
   0.11538500  0.50000000  0.00000000       0.007
   0.15384600  0.50000000  0.00000000       0.007
   0.19230800  0.50000000  0.00000000       0.007
   0.23076900  0.50000000  0.00000000       0.007
   0.26923100  0.50000000  0.00000000       0.007
   0.30769200  0.50000000  0.00000000       0.007
   0.34615400  0.50000000  0.00000000       0.007
   0.38461500  0.50000000  0.00000000       0.007
   0.42307700  0.50000000  0.00000000       0.007
   0.46153800  0.50000000  0.00000000       0.007
   0.50000000  0.50000000  0.00000000       0.007
   0.47222200  0.47222200  0.00000000       0.007
   0.44444400  0.44444400  0.00000000       0.007
   0.41666700  0.41666700  0.00000000       0.007
   0.38888900  0.38888900  0.00000000       0.007
   0.36111100  0.36111100  0.00000000       0.007
   0.33333300  0.33333300  0.00000000       0.007
   0.30555600  0.30555600  0.00000000       0.007
   0.27777800  0.27777800  0.00000000       0.007
   0.25000000  0.25000000  0.00000000       0.007
   0.22222200  0.22222200  0.00000000       0.007
   0.19444400  0.19444400  0.00000000       0.007
   0.16666700  0.16666700  0.00000000       0.007
   0.13888900  0.13888900  0.00000000       0.007
   0.11111100  0.11111100  0.00000000       0.007
   0.08333300  0.08333300  0.00000000       0.007
   0.05555600  0.05555600  0.00000000       0.007
   0.02777800  0.02777800  0.00000000       0.007
   0.00000000  0.00000000  0.00000000       0.007
   0.00000000  0.00000000  0.02631600       0.007
   0.00000000  0.00000000  0.05263200       0.007
   0.00000000  0.00000000  0.07894700       0.007
   0.00000000  0.00000000  0.10526300       0.007
   0.00000000  0.00000000  0.13157900       0.007
   0.00000000  0.00000000  0.15789500       0.007
   0.00000000  0.00000000  0.18421100       0.007
   0.00000000  0.00000000  0.21052600       0.007
   0.00000000  0.00000000  0.23684200       0.007
   0.00000000  0.00000000  0.26315800       0.007
   0.00000000  0.00000000  0.28947400       0.007
   0.00000000  0.00000000  0.31578900       0.007
   0.00000000  0.00000000  0.34210500       0.007
   0.00000000  0.00000000  0.36842100       0.007
   0.00000000  0.00000000  0.39473700       0.007
   0.00000000  0.00000000  0.42105300       0.007
   0.00000000  0.00000000  0.44736800       0.007
   0.00000000  0.00000000  0.47368400       0.007
   0.00000000  0.00000000  0.50000000       0.007
   0.00000000  0.03846200  0.50000000       0.007
   0.00000000  0.07692300  0.50000000       0.007
   0.00000000  0.11538500  0.50000000       0.007
   0.00000000  0.15384600  0.50000000       0.007
   0.00000000  0.19230800  0.50000000       0.007
   0.00000000  0.23076900  0.50000000       0.007
   0.00000000  0.26923100  0.50000000       0.007
   0.00000000  0.30769200  0.50000000       0.007
   0.00000000  0.34615400  0.50000000       0.007
   0.00000000  0.38461500  0.50000000       0.007
   0.00000000  0.42307700  0.50000000       0.007
   0.00000000  0.46153800  0.50000000       0.007
   0.00000000  0.50000000  0.50000000       0.007
   0.03846200  0.50000000  0.50000000       0.007
   0.07692300  0.50000000  0.50000000       0.007
   0.11538500  0.50000000  0.50000000       0.007
   0.15384600  0.50000000  0.50000000       0.007
   0.19230800  0.50000000  0.50000000       0.007
   0.23076900  0.50000000  0.50000000       0.007
   0.26923100  0.50000000  0.50000000       0.007
   0.30769200  0.50000000  0.50000000       0.007
   0.34615400  0.50000000  0.50000000       0.007
   0.38461500  0.50000000  0.50000000       0.007
   0.42307700  0.50000000  0.50000000       0.007
   0.46153800  0.50000000  0.50000000       0.007
   0.50000000  0.50000000  0.50000000       0.007
   0.47368400  0.47368400  0.50000000       0.007
   0.44736800  0.44736800  0.50000000       0.007
   0.42105300  0.42105300  0.50000000       0.007
   0.39473700  0.39473700  0.50000000       0.007
   0.36842100  0.36842100  0.50000000       0.007
   0.34210500  0.34210500  0.50000000       0.007
   0.31578900  0.31578900  0.50000000       0.007
   0.28947400  0.28947400  0.50000000       0.007
   0.26315800  0.26315800  0.50000000       0.007
   0.23684200  0.23684200  0.50000000       0.007
   0.21052600  0.21052600  0.50000000       0.007
   0.18421100  0.18421100  0.50000000       0.007
   0.15789500  0.15789500  0.50000000       0.007
   0.13157900  0.13157900  0.50000000       0.007
   0.10526300  0.10526300  0.50000000       0.007
   0.07894700  0.07894700  0.50000000       0.007
   0.05263200  0.05263200  0.50000000       0.007
   0.02631600  0.02631600  0.50000000       0.007
   0.00000000  0.00000000  0.50000000       0.007
   0.00000000  0.50000000  0.00000000       0.007
   0.00000000  0.50000000  0.02500000       0.007
   0.00000000  0.50000000  0.05000000       0.007
   0.00000000  0.50000000  0.07500000       0.007
   0.00000000  0.50000000  0.10000000       0.007
   0.00000000  0.50000000  0.12500000       0.007
   0.00000000  0.50000000  0.15000000       0.007
   0.00000000  0.50000000  0.17500000       0.007
   0.00000000  0.50000000  0.20000000       0.007
   0.00000000  0.50000000  0.22500000       0.007
   0.00000000  0.50000000  0.25000000       0.007
   0.00000000  0.50000000  0.27500000       0.007
   0.00000000  0.50000000  0.30000000       0.007
   0.00000000  0.50000000  0.32500000       0.007
   0.00000000  0.50000000  0.35000000       0.007
   0.00000000  0.50000000  0.37500000       0.007
   0.00000000  0.50000000  0.40000000       0.007
   0.00000000  0.50000000  0.42500000       0.007
   0.00000000  0.50000000  0.45000000       0.007
   0.00000000  0.50000000  0.47500000       0.007
   0.00000000  0.50000000  0.50000000       0.007
   0.50000000  0.50000000  0.00000000       0.007
   0.50000000  0.50000000  0.02381000       0.007
   0.50000000  0.50000000  0.04761900       0.007
   0.50000000  0.50000000  0.07142900       0.007
   0.50000000  0.50000000  0.09523800       0.007
   0.50000000  0.50000000  0.11904800       0.007
   0.50000000  0.50000000  0.14285700       0.007
   0.50000000  0.50000000  0.16666700       0.007
   0.50000000  0.50000000  0.19047600       0.007
   0.50000000  0.50000000  0.21428600       0.007
   0.50000000  0.50000000  0.23809500       0.007
   0.50000000  0.50000000  0.26190500       0.007
   0.50000000  0.50000000  0.28571400       0.007
   0.50000000  0.50000000  0.30952400       0.007
   0.50000000  0.50000000  0.33333300       0.007
   0.50000000  0.50000000  0.35714300       0.007
   0.50000000  0.50000000  0.38095200       0.007
   0.50000000  0.50000000  0.40476200       0.007
   0.50000000  0.50000000  0.42857100       0.007
   0.50000000  0.50000000  0.45238100       0.007
   0.50000000  0.50000000  0.47619000       0.007
   0.50000000  0.50000000  0.50000000       0.007
 
 position of ions in fractional coordinates (direct lattice) 
   0.50000000  0.50000000  0.50000000
   0.00000000  0.00000000  0.00000000
   0.19508961  0.80491039  0.50000000
   0.80491039  0.19508961  0.50000000
   0.30491039  0.30491039  0.00000000
   0.69508961  0.69508961  0.00000000
 
 position of ions in cartesian coordinates  (Angst):
   2.44589833  2.44589833  1.65760247
   0.00000000  0.00000000  0.00000000
   0.95433872  3.93745795  1.65760247
   3.93745795  0.95433872  1.65760247
   1.49155962  1.49155962  0.00000000
   3.40023705  3.40023705  0.00000000
 


--------------------------------------------------------------------------------------------------------


 k-point  1 :   0.0000 0.0000 0.0000  plane waves:    3347
 k-point  2 :   0.0000 0.0385 0.0000  plane waves:    3339
 k-point  3 :   0.0000 0.0769 0.0000  plane waves:    3347
 k-point  4 :   0.0000 0.1154 0.0000  plane waves:    3349
 k-point  5 :   0.0000 0.1538 0.0000  plane waves:    3343
 k-point  6 :   0.0000 0.1923 0.0000  plane waves:    3341
 k-point  7 :   0.0000 0.2308 0.0000  plane waves:    3337
 k-point  8 :   0.0000 0.2692 0.0000  plane waves:    3339
 k-point  9 :   0.0000 0.3077 0.0000  plane waves:    3333
 k-point 10 :   0.0000 0.3462 0.0000  plane waves:    3335
 k-point 11 :   0.0000 0.3846 0.0000  plane waves:    3335
 k-point 12 :   0.0000 0.4231 0.0000  plane waves:    3329
 k-point 13 :   0.0000 0.4615 0.0000  plane waves:    3346
 k-point 14 :   0.0000 0.5000 0.0000  plane waves:    3350
 k-point 15 :   0.0385 0.5000 0.0000  plane waves:    3336
 k-point 16 :   0.0769 0.5000 0.0000  plane waves:    3332
 k-point 17 :   0.1154 0.5000 0.0000  plane waves:    3328
 k-point 18 :   0.1538 0.5000 0.0000  plane waves:    3320
 k-point 19 :   0.1923 0.5000 0.0000  plane waves:    3332
 k-point 20 :   0.2308 0.5000 0.0000  plane waves:    3340
 k-point 21 :   0.2692 0.5000 0.0000  plane waves:    3332
 k-point 22 :   0.3077 0.5000 0.0000  plane waves:    3332
 k-point 23 :   0.3462 0.5000 0.0000  plane waves:    3330
 k-point 24 :   0.3846 0.5000 0.0000  plane waves:    3330
 k-point 25 :   0.4231 0.5000 0.0000  plane waves:    3324
 k-point 26 :   0.4615 0.5000 0.0000  plane waves:    3328
 k-point 27 :   0.5000 0.5000 0.0000  plane waves:    3356
 k-point 28 :   0.4722 0.4722 0.0000  plane waves:    3328
 k-point 29 :   0.4444 0.4444 0.0000  plane waves:    3327
 k-point 30 :   0.4167 0.4167 0.0000  plane waves:    3325
 k-point 31 :   0.3889 0.3889 0.0000  plane waves:    3333
 k-point 32 :   0.3611 0.3611 0.0000  plane waves:    3339
 k-point 33 :   0.3333 0.3333 0.0000  plane waves:    3333
 k-point 34 :   0.3056 0.3056 0.0000  plane waves:    3345
 k-point 35 :   0.2778 0.2778 0.0000  plane waves:    3335
 k-point 36 :   0.2500 0.2500 0.0000  plane waves:    3331
 k-point 37 :   0.2222 0.2222 0.0000  plane waves:    3325
 k-point 38 :   0.1944 0.1944 0.0000  plane waves:    3329
 k-point 39 :   0.1667 0.1667 0.0000  plane waves:    3325
 k-point 40 :   0.1389 0.1389 0.0000  plane waves:    3337
 k-point 41 :   0.1111 0.1111 0.0000  plane waves:    3333
 k-point 42 :   0.0833 0.0833 0.0000  plane waves:    3347
 k-point 43 :   0.0556 0.0556 0.0000  plane waves:    3349
 k-point 44 :   0.0278 0.0278 0.0000  plane waves:    3339
 k-point 45 :   0.0000 0.0000 0.0000  plane waves:    3347
 k-point 46 :   0.0000 0.0000 0.0263  plane waves:    3351
 k-point 47 :   0.0000 0.0000 0.0526  plane waves:    3355
 k-point 48 :   0.0000 0.0000 0.0789  plane waves:    3355
 k-point 49 :   0.0000 0.0000 0.1053  plane waves:    3351
 k-point 50 :   0.0000 0.0000 0.1316  plane waves:    3355
 k-point 51 :   0.0000 0.0000 0.1579  plane waves:    3342
 k-point 52 :   0.0000 0.0000 0.1842  plane waves:    3342
 k-point 53 :   0.0000 0.0000 0.2105  plane waves:    3342
 k-point 54 :   0.0000 0.0000 0.2368  plane waves:    3334
 k-point 55 :   0.0000 0.0000 0.2632  plane waves:    3322
 k-point 56 :   0.0000 0.0000 0.2895  plane waves:    3330
 k-point 57 :   0.0000 0.0000 0.3158  plane waves:    3314
 k-point 58 :   0.0000 0.0000 0.3421  plane waves:    3326
 k-point 59 :   0.0000 0.0000 0.3684  plane waves:    3322
 k-point 60 :   0.0000 0.0000 0.3947  plane waves:    3342
 k-point 61 :   0.0000 0.0000 0.4211  plane waves:    3350
 k-point 62 :   0.0000 0.0000 0.4474  plane waves:    3366
 k-point 63 :   0.0000 0.0000 0.4737  plane waves:    3362
 k-point 64 :   0.0000 0.0000 0.5000  plane waves:    3342
 k-point 65 :   0.0000 0.0385 0.5000  plane waves:    3354
 k-point 66 :   0.0000 0.0769 0.5000  plane waves:    3346
 k-point 67 :   0.0000 0.1154 0.5000  plane waves:    3344
 k-point 68 :   0.0000 0.1538 0.5000  plane waves:    3344
 k-point 69 :   0.0000 0.1923 0.5000  plane waves:    3360
 k-point 70 :   0.0000 0.2308 0.5000  plane waves:    3352
 k-point 71 :   0.0000 0.2692 0.5000  plane waves:    3354
 k-point 72 :   0.0000 0.3077 0.5000  plane waves:    3342
 k-point 73 :   0.0000 0.3462 0.5000  plane waves:    3344
 k-point 74 :   0.0000 0.3846 0.5000  plane waves:    3352
 k-point 75 :   0.0000 0.4231 0.5000  plane waves:    3350
 k-point 76 :   0.0000 0.4615 0.5000  plane waves:    3346
 k-point 77 :   0.0000 0.5000 0.5000  plane waves:    3364
 k-point 78 :   0.0385 0.5000 0.5000  plane waves:    3344
 k-point 79 :   0.0769 0.5000 0.5000  plane waves:    3340
 k-point 80 :   0.1154 0.5000 0.5000  plane waves:    3332
 k-point 81 :   0.1538 0.5000 0.5000  plane waves:    3344
 k-point 82 :   0.1923 0.5000 0.5000  plane waves:    3340
 k-point 83 :   0.2308 0.5000 0.5000  plane waves:    3336
 k-point 84 :   0.2692 0.5000 0.5000  plane waves:    3340
 k-point 85 :   0.3077 0.5000 0.5000  plane waves:    3340
 k-point 86 :   0.3462 0.5000 0.5000  plane waves:    3336
 k-point 87 :   0.3846 0.5000 0.5000  plane waves:    3332
 k-point 88 :   0.4231 0.5000 0.5000  plane waves:    3320
 k-point 89 :   0.4615 0.5000 0.5000  plane waves:    3320
 k-point 90 :   0.5000 0.5000 0.5000  plane waves:    3344
 k-point 91 :   0.4737 0.4737 0.5000  plane waves:    3322
 k-point 92 :   0.4474 0.4474 0.5000  plane waves:    3318
 k-point 93 :   0.4211 0.4211 0.5000  plane waves:    3324
 k-point 94 :   0.3947 0.3947 0.5000  plane waves:    3320
 k-point 95 :   0.3684 0.3684 0.5000  plane waves:    3328
 k-point 96 :   0.3421 0.3421 0.5000  plane waves:    3328
 k-point 97 :   0.3158 0.3158 0.5000  plane waves:    3336
 k-point 98 :   0.2895 0.2895 0.5000  plane waves:    3342
 k-point 99 :   0.2632 0.2632 0.5000  plane waves:    3338
 k-point ** :   0.2368 0.2368 0.5000  plane waves:    3342
 k-point ** :   0.2105 0.2105 0.5000  plane waves:    3340
 k-point ** :   0.1842 0.1842 0.5000  plane waves:    3334
 k-point ** :   0.1579 0.1579 0.5000  plane waves:    3334
 k-point ** :   0.1316 0.1316 0.5000  plane waves:    3338
 k-point ** :   0.1053 0.1053 0.5000  plane waves:    3344
 k-point ** :   0.0789 0.0789 0.5000  plane waves:    3348
 k-point ** :   0.0526 0.0526 0.5000  plane waves:    3352
 k-point ** :   0.0263 0.0263 0.5000  plane waves:    3352
 k-point ** :   0.0000 0.0000 0.5000  plane waves:    3342
 k-point ** :   0.0000 0.5000 0.0000  plane waves:    3350
 k-point ** :   0.0000 0.5000 0.0250  plane waves:    3342
 k-point ** :   0.0000 0.5000 0.0500  plane waves:    3328
 k-point ** :   0.0000 0.5000 0.0750  plane waves:    3330
 k-point ** :   0.0000 0.5000 0.1000  plane waves:    3324
 k-point ** :   0.0000 0.5000 0.1250  plane waves:    3324
 k-point ** :   0.0000 0.5000 0.1500  plane waves:    3326
 k-point ** :   0.0000 0.5000 0.1750  plane waves:    3338
 k-point ** :   0.0000 0.5000 0.2000  plane waves:    3338
 k-point ** :   0.0000 0.5000 0.2250  plane waves:    3346
 k-point ** :   0.0000 0.5000 0.2500  plane waves:    3336
 k-point ** :   0.0000 0.5000 0.2750  plane waves:    3322
 k-point ** :   0.0000 0.5000 0.3000  plane waves:    3336
 k-point ** :   0.0000 0.5000 0.3250  plane waves:    3340
 k-point ** :   0.0000 0.5000 0.3500  plane waves:    3328
 k-point ** :   0.0000 0.5000 0.3750  plane waves:    3334
 k-point ** :   0.0000 0.5000 0.4000  plane waves:    3334
 k-point ** :   0.0000 0.5000 0.4250  plane waves:    3342
 k-point ** :   0.0000 0.5000 0.4500  plane waves:    3342
 k-point ** :   0.0000 0.5000 0.4750  plane waves:    3356
 k-point ** :   0.0000 0.5000 0.5000  plane waves:    3364
 k-point ** :   0.5000 0.5000 0.0000  plane waves:    3356
 k-point ** :   0.5000 0.5000 0.0238  plane waves:    3304
 k-point ** :   0.5000 0.5000 0.0476  plane waves:    3304
 k-point ** :   0.5000 0.5000 0.0714  plane waves:    3320
 k-point ** :   0.5000 0.5000 0.0952  plane waves:    3320
 k-point ** :   0.5000 0.5000 0.1190  plane waves:    3304
 k-point ** :   0.5000 0.5000 0.1429  plane waves:    3316
 k-point ** :   0.5000 0.5000 0.1667  plane waves:    3320
 k-point ** :   0.5000 0.5000 0.1905  plane waves:    3320
 k-point ** :   0.5000 0.5000 0.2143  plane waves:    3320
 k-point ** :   0.5000 0.5000 0.2381  plane waves:    3304
 k-point ** :   0.5000 0.5000 0.2619  plane waves:    3308
 k-point ** :   0.5000 0.5000 0.2857  plane waves:    3324
 k-point ** :   0.5000 0.5000 0.3095  plane waves:    3320
 k-point ** :   0.5000 0.5000 0.3333  plane waves:    3324
 k-point ** :   0.5000 0.5000 0.3571  plane waves:    3324
 k-point ** :   0.5000 0.5000 0.3810  plane waves:    3340
 k-point ** :   0.5000 0.5000 0.4048  plane waves:    3340
 k-point ** :   0.5000 0.5000 0.4286  plane waves:    3340
 k-point ** :   0.5000 0.5000 0.4524  plane waves:    3324
 k-point ** :   0.5000 0.5000 0.4762  plane waves:    3332
 k-point ** :   0.5000 0.5000 0.5000  plane waves:    3344

 maximum and minimum number of plane-waves per node :      3366     3304

 maximum number of plane-waves:      3366
 maximum index in each direction: 
   IXMAX=   10   IYMAX=   10   IZMAX=    7
   IXMIN=  -11   IYMIN=  -11   IZMIN=   -7


 serial   3D FFT for wavefunctions
 parallel 3D FFT for charge:
    minimum data exchange during FFTs selected (reduces bandwidth)


 total amount of memory used by VASP MPI-rank0   391980. kBytes
=======================================================================

   base      :      30000. kBytes
   nonl-proj :     147760. kBytes
   fftplans  :       7420. kBytes
   grid      :       6062. kBytes
   one-center:        186. kBytes
   wavefun   :     200552. kBytes
 
     INWAV:  cpu time    0.0001: real time    0.0001
 initial charge density was supplied:
 number of electron      53.9999996 magnetization      -0.0000000
 keeping initial charge density in first step


--------------------------------------------------------------------------------------------------------


 Maximum index for augmentation-charges        18257 (set IRDMAX)


--------------------------------------------------------------------------------------------------------


 First call to EWALD:  gamma=   0.413
 Maximum number of real-space cells 2x 2x 3
 Maximum number of reciprocal cells 3x 3x 2

    FEWALD:  cpu time    0.0012: real time    0.0012


--------------------------------------- Iteration      1(   1)  ---------------------------------------


    POTLOK:  cpu time    0.0236: real time    0.0236
    SETDIJ:  cpu time    0.6903: real time    0.6903
atom =   1  type =  1  l = 2
 
 onsite density matrix
 
spin component  1
 
  0.0477  0.0000  0.0263 -0.0000  0.0000
  0.0000  0.0396 -0.0000  0.0223  0.0000
  0.0263 -0.0000  0.0337 -0.0000  0.0000
 -0.0000  0.0223 -0.0000  0.0396 -0.0000
  0.0000  0.0000  0.0000 -0.0000  0.0150
 
spin component  2
 
  0.9681 -0.0000  0.0192  0.0000  0.0000
 -0.0000  0.9626 -0.0000  0.0171 -0.0000
  0.0192 -0.0000  0.9567 -0.0000  0.0000
  0.0000  0.0171 -0.0000  0.9626  0.0000
  0.0000 -0.0000  0.0000  0.0000  0.9457
 
 occupancies and eigenvectors
 
  o =  0.0135  v = -0.6089  0.0000  0.7932 -0.0000  0.0000  0.0000  0.0000  0.0000  0.0000  0.0000      0.0000  0.0000  0.0000  0.0000  0.0000  0.0000  0.0000  0.0000  0.0000  0.0000
  o =  0.0150  v = -0.0000  0.0000  0.0000 -0.0000 -1.0000  0.0000  0.0000  0.0000  0.0000  0.0000      0.0000  0.0000  0.0000  0.0000  0.0000  0.0000  0.0000  0.0000  0.0000  0.0000
  o =  0.0174  v = -0.0000 -0.7071  0.0000  0.7071 -0.0000  0.0000  0.0000  0.0000  0.0000  0.0000      0.0000  0.0000  0.0000  0.0000  0.0000  0.0000  0.0000  0.0000  0.0000  0.0000
  o =  0.0619  v =  0.0000  0.7071  0.0000  0.7071  0.0000  0.0000  0.0000  0.0000  0.0000  0.0000      0.0000  0.0000  0.0000  0.0000  0.0000  0.0000  0.0000  0.0000  0.0000  0.0000
  o =  0.0679  v = -0.7932  0.0000 -0.6089  0.0000 -0.0000  0.0000  0.0000  0.0000  0.0000  0.0000      0.0000  0.0000  0.0000  0.0000  0.0000  0.0000  0.0000  0.0000  0.0000  0.0000
  o =  0.9423  v =  0.0000  0.0000  0.0000  0.0000  0.0000  0.5979  0.0000 -0.8016 -0.0000  0.0000      0.0000  0.0000  0.0000  0.0000  0.0000  0.0000  0.0000  0.0000  0.0000  0.0000
  o =  0.9455  v =  0.0000  0.0000  0.0000  0.0000  0.0000  0.0000 -0.7071 -0.0000  0.7071 -0.0000      0.0000  0.0000  0.0000  0.0000  0.0000  0.0000  0.0000  0.0000  0.0000  0.0000
  o =  0.9457  v =  0.0000  0.0000  0.0000  0.0000  0.0000 -0.0000 -0.0000  0.0000  0.0000  1.0000      0.0000  0.0000  0.0000  0.0000  0.0000  0.0000  0.0000  0.0000  0.0000  0.0000
  o =  0.9798  v =  0.0000  0.0000  0.0000  0.0000  0.0000  0.0000  0.7071  0.0000  0.7071 -0.0000      0.0000  0.0000  0.0000  0.0000  0.0000  0.0000  0.0000  0.0000  0.0000  0.0000
  o =  0.9824  v =  0.0000  0.0000  0.0000  0.0000  0.0000 -0.8016  0.0000 -0.5979  0.0000 -0.0000      0.0000  0.0000  0.0000  0.0000  0.0000  0.0000  0.0000  0.0000  0.0000  0.0000
atom =   2  type =  1  l = 2
 
 onsite density matrix
 
spin component  1
 
  0.9681 -0.0000 -0.0192  0.0000 -0.0000
 -0.0000  0.9626  0.0000 -0.0171 -0.0000
 -0.0192  0.0000  0.9567 -0.0000  0.0000
  0.0000 -0.0171 -0.0000  0.9626  0.0000
 -0.0000 -0.0000  0.0000  0.0000  0.9457
 
spin component  2
 
  0.0477  0.0000 -0.0263 -0.0000 -0.0000
  0.0000  0.0396 -0.0000 -0.0223 -0.0000
 -0.0263 -0.0000  0.0337  0.0000  0.0000
 -0.0000 -0.0223  0.0000  0.0396  0.0000
 -0.0000 -0.0000  0.0000  0.0000  0.0150
 
 occupancies and eigenvectors
 
  o =  0.0135  v =  0.0000  0.0000  0.0000  0.0000  0.0000 -0.6089  0.0000 -0.7932  0.0000  0.0000      0.0000  0.0000  0.0000  0.0000  0.0000  0.0000  0.0000  0.0000  0.0000  0.0000
  o =  0.0150  v =  0.0000  0.0000  0.0000  0.0000  0.0000 -0.0000  0.0000 -0.0000  0.0000 -1.0000      0.0000  0.0000  0.0000  0.0000  0.0000  0.0000  0.0000  0.0000  0.0000  0.0000
  o =  0.0174  v =  0.0000  0.0000  0.0000  0.0000  0.0000  0.0000  0.7071  0.0000  0.7071  0.0000      0.0000  0.0000  0.0000  0.0000  0.0000  0.0000  0.0000  0.0000  0.0000  0.0000
  o =  0.0619  v =  0.0000  0.0000  0.0000  0.0000  0.0000 -0.0000  0.7071  0.0000 -0.7071 -0.0000      0.0000  0.0000  0.0000  0.0000  0.0000  0.0000  0.0000  0.0000  0.0000  0.0000
  o =  0.0679  v =  0.0000  0.0000  0.0000  0.0000  0.0000 -0.7932 -0.0000  0.6089  0.0000  0.0000      0.0000  0.0000  0.0000  0.0000  0.0000  0.0000  0.0000  0.0000  0.0000  0.0000
  o =  0.9423  v =  0.5979 -0.0000  0.8016 -0.0000 -0.0000  0.0000  0.0000  0.0000  0.0000  0.0000      0.0000  0.0000  0.0000  0.0000  0.0000  0.0000  0.0000  0.0000  0.0000  0.0000
  o =  0.9455  v = -0.0000 -0.7071 -0.0000 -0.7071 -0.0000  0.0000  0.0000  0.0000  0.0000  0.0000      0.0000  0.0000  0.0000  0.0000  0.0000  0.0000  0.0000  0.0000  0.0000  0.0000
  o =  0.9457  v = -0.0000  0.0000  0.0000  0.0000 -1.0000  0.0000  0.0000  0.0000  0.0000  0.0000      0.0000  0.0000  0.0000  0.0000  0.0000  0.0000  0.0000  0.0000  0.0000  0.0000
  o =  0.9798  v =  0.0000  0.7071 -0.0000 -0.7071 -0.0000  0.0000  0.0000  0.0000  0.0000  0.0000      0.0000  0.0000  0.0000  0.0000  0.0000  0.0000  0.0000  0.0000  0.0000  0.0000
  o =  0.9824  v = -0.8016  0.0000  0.5979 -0.0000  0.0000  0.0000  0.0000  0.0000  0.0000  0.0000      0.0000  0.0000  0.0000  0.0000  0.0000  0.0000  0.0000  0.0000  0.0000  0.0000
     EDDAV:  cpu time   22.5696: real time   22.7066
       DOS:  cpu time    0.0086: real time    0.0086
    --------------------------------------------
      LOOP:  cpu time   23.2922: real time   23.4292

 eigenvalue-minimisations  : 29240
 total energy-change (2. order) : 0.7327256E+03  (-0.3338879E+04)
 number of electron      53.9999996 magnetization      -0.0000000
 augmentation part       53.9999996 magnetization      -0.0000000

 Free energy of the ion-electron system (eV)
  ---------------------------------------------------
  alpha Z        PSCENC =       192.05208299
  Ewald energy   TEWEN  =     -4167.81530784
  -Hartree energ DENC   =     -2155.75811610
  -exchange      EXHF   =         0.00000000
  -V(xc)+E(xc)   XCENC  =       295.54793508
  PAW double counting   =      6225.61119892    -6345.30982076
  entropy T*S    EENTRO =        -0.00014905
  eigenvalues    EBANDS =        -1.11071282
  atomic energy  EATOM  =      6689.50845332
  Solvation  Ediel_sol  =         0.00000000
  ---------------------------------------------------
  free energy    TOTEN  =       732.72556376 eV

  energy without entropy =      732.72571280  energy(sigma->0) =      732.72563828


--------------------------------------------------------------------------------------------------------




--------------------------------------- Iteration      1(   2)  ---------------------------------------


     EDDAV:  cpu time   28.0728: real time   28.1346
       DOS:  cpu time    0.0018: real time    0.0018
    --------------------------------------------
      LOOP:  cpu time   28.0746: real time   28.1365

 eigenvalue-minimisations  : 29240
 total energy-change (2. order) :-0.7036751E+03  (-0.6498109E+03)
 number of electron      53.9999996 magnetization      -0.0000000
 augmentation part       53.9999996 magnetization      -0.0000000

 Free energy of the ion-electron system (eV)
  ---------------------------------------------------
  alpha Z        PSCENC =       192.05208299
  Ewald energy   TEWEN  =     -4167.81530784
  -Hartree energ DENC   =     -2155.75811610
  -exchange      EXHF   =         0.00000000
  -V(xc)+E(xc)   XCENC  =       295.54793508
  PAW double counting   =      6225.61119892    -6345.30982076
  entropy T*S    EENTRO =        -0.00000000
  eigenvalues    EBANDS =      -704.78596990
  atomic energy  EATOM  =      6689.50845332
  Solvation  Ediel_sol  =         0.00000000
  ---------------------------------------------------
  free energy    TOTEN  =        29.05045573 eV

  energy without entropy =       29.05045573  energy(sigma->0) =       29.05045573


--------------------------------------------------------------------------------------------------------




--------------------------------------- Iteration      1(   3)  ---------------------------------------


     EDDAV:  cpu time   29.3903: real time   29.3909
       DOS:  cpu time    0.0021: real time    0.0021
    --------------------------------------------
      LOOP:  cpu time   29.3924: real time   29.3931

 eigenvalue-minimisations  : 33144
 total energy-change (2. order) :-0.6780259E+02  (-0.6654375E+02)
 number of electron      53.9999996 magnetization      -0.0000000
 augmentation part       53.9999996 magnetization      -0.0000000

 Free energy of the ion-electron system (eV)
  ---------------------------------------------------
  alpha Z        PSCENC =       192.05208299
  Ewald energy   TEWEN  =     -4167.81530784
  -Hartree energ DENC   =     -2155.75811610
  -exchange      EXHF   =         0.00000000
  -V(xc)+E(xc)   XCENC  =       295.54793508
  PAW double counting   =      6225.61119892    -6345.30982076
  entropy T*S    EENTRO =        -0.00000000
  eigenvalues    EBANDS =      -772.58856064
  atomic energy  EATOM  =      6689.50845332
  Solvation  Ediel_sol  =         0.00000000
  ---------------------------------------------------
  free energy    TOTEN  =       -38.75213502 eV

  energy without entropy =      -38.75213502  energy(sigma->0) =      -38.75213502


--------------------------------------------------------------------------------------------------------




--------------------------------------- Iteration      1(   4)  ---------------------------------------


     EDDAV:  cpu time   25.7368: real time   25.7371
       DOS:  cpu time    0.0019: real time    0.0019
    --------------------------------------------
      LOOP:  cpu time   25.7387: real time   25.7389

 eigenvalue-minimisations  : 32256
 total energy-change (2. order) :-0.1281858E+01  (-0.1279563E+01)
 number of electron      53.9999996 magnetization      -0.0000000
 augmentation part       53.9999996 magnetization      -0.0000000

 Free energy of the ion-electron system (eV)
  ---------------------------------------------------
  alpha Z        PSCENC =       192.05208299
  Ewald energy   TEWEN  =     -4167.81530784
  -Hartree energ DENC   =     -2155.75811610
  -exchange      EXHF   =         0.00000000
  -V(xc)+E(xc)   XCENC  =       295.54793508
  PAW double counting   =      6225.61119892    -6345.30982076
  entropy T*S    EENTRO =        -0.00000000
  eigenvalues    EBANDS =      -773.87041874
  atomic energy  EATOM  =      6689.50845332
  Solvation  Ediel_sol  =         0.00000000
  ---------------------------------------------------
  free energy    TOTEN  =       -40.03399312 eV

  energy without entropy =      -40.03399312  energy(sigma->0) =      -40.03399312


--------------------------------------------------------------------------------------------------------




--------------------------------------- Iteration      1(   5)  ---------------------------------------


     EDDAV:  cpu time   29.7759: real time   29.7762
       DOS:  cpu time    0.0020: real time    0.0020
    --------------------------------------------
      LOOP:  cpu time   29.7779: real time   29.7781

 eigenvalue-minimisations  : 34360
 total energy-change (2. order) :-0.1306092E-01  (-0.1306038E-01)
 number of electron      53.9999996 magnetization      -0.0000000
 augmentation part       53.9999996 magnetization      -0.0000000

 Free energy of the ion-electron system (eV)
  ---------------------------------------------------
  alpha Z        PSCENC =       192.05208299
  Ewald energy   TEWEN  =     -4167.81530784
  -Hartree energ DENC   =     -2155.75811610
  -exchange      EXHF   =         0.00000000
  -V(xc)+E(xc)   XCENC  =       295.54793508
  PAW double counting   =      6225.61119892    -6345.30982076
  entropy T*S    EENTRO =        -0.00000000
  eigenvalues    EBANDS =      -773.88347966
  atomic energy  EATOM  =      6689.50845332
  Solvation  Ediel_sol  =         0.00000000
  ---------------------------------------------------
  free energy    TOTEN  =       -40.04705403 eV

  energy without entropy =      -40.04705403  energy(sigma->0) =      -40.04705403


--------------------------------------------------------------------------------------------------------




--------------------------------------- Iteration      1(   6)  ---------------------------------------


     EDDAV:  cpu time   31.4185: real time   31.4189
       DOS:  cpu time    0.0021: real time    0.0021
    --------------------------------------------
      LOOP:  cpu time   31.4206: real time   31.4209

 eigenvalue-minimisations  : 32720
 total energy-change (2. order) :-0.3364856E-03  (-0.3364817E-03)
 number of electron      53.9999996 magnetization      -0.0000000
 augmentation part       53.9999996 magnetization      -0.0000000

 Free energy of the ion-electron system (eV)
  ---------------------------------------------------
  alpha Z        PSCENC =       192.05208299
  Ewald energy   TEWEN  =     -4167.81530784
  -Hartree energ DENC   =     -2155.75811610
  -exchange      EXHF   =         0.00000000
  -V(xc)+E(xc)   XCENC  =       295.54793508
  PAW double counting   =      6225.61119892    -6345.30982076
  entropy T*S    EENTRO =        -0.00000000
  eigenvalues    EBANDS =      -773.88381614
  atomic energy  EATOM  =      6689.50845332
  Solvation  Ediel_sol  =         0.00000000
  ---------------------------------------------------
  free energy    TOTEN  =       -40.04739052 eV

  energy without entropy =      -40.04739052  energy(sigma->0) =      -40.04739052


--------------------------------------------------------------------------------------------------------




--------------------------------------- Iteration      1(   7)  ---------------------------------------


     EDDAV:  cpu time   32.1857: real time   32.1860
       DOS:  cpu time    0.0021: real time    0.0021
    --------------------------------------------
      LOOP:  cpu time   32.1878: real time   32.1881

 eigenvalue-minimisations  : 37144
 total energy-change (2. order) :-0.1307681E-04  (-0.1307678E-04)
 number of electron      53.9999996 magnetization      -0.0000000
 augmentation part       53.9999996 magnetization      -0.0000000

 Free energy of the ion-electron system (eV)
  ---------------------------------------------------
  alpha Z        PSCENC =       192.05208299
  Ewald energy   TEWEN  =     -4167.81530784
  -Hartree energ DENC   =     -2155.75811610
  -exchange      EXHF   =         0.00000000
  -V(xc)+E(xc)   XCENC  =       295.54793508
  PAW double counting   =      6225.61119892    -6345.30982076
  entropy T*S    EENTRO =        -0.00000000
  eigenvalues    EBANDS =      -773.88382922
  atomic energy  EATOM  =      6689.50845332
  Solvation  Ediel_sol  =         0.00000000
  ---------------------------------------------------
  free energy    TOTEN  =       -40.04740360 eV

  energy without entropy =      -40.04740360  energy(sigma->0) =      -40.04740360


--------------------------------------------------------------------------------------------------------




--------------------------------------- Iteration      1(   8)  ---------------------------------------


     EDDAV:  cpu time   23.5472: real time   23.5474
       DOS:  cpu time    0.0021: real time    0.0021
    --------------------------------------------
      LOOP:  cpu time   23.5492: real time   23.5494

 eigenvalue-minimisations  : 28720
 total energy-change (2. order) :-0.5652109E-06  (-0.5652276E-06)
 number of electron      53.9999996 magnetization      -0.0000000
 augmentation part       53.9999996 magnetization      -0.0000000

 Free energy of the ion-electron system (eV)
  ---------------------------------------------------
  alpha Z        PSCENC =       192.05208299
  Ewald energy   TEWEN  =     -4167.81530784
  -Hartree energ DENC   =     -2155.75811610
  -exchange      EXHF   =         0.00000000
  -V(xc)+E(xc)   XCENC  =       295.54793508
  PAW double counting   =      6225.61119892    -6345.30982076
  entropy T*S    EENTRO =        -0.00000000
  eigenvalues    EBANDS =      -773.88382978
  atomic energy  EATOM  =      6689.50845332
  Solvation  Ediel_sol  =         0.00000000
  ---------------------------------------------------
  free energy    TOTEN  =       -40.04740416 eV

  energy without entropy =      -40.04740416  energy(sigma->0) =      -40.04740416


--------------------------------------------------------------------------------------------------------




--------------------------------------- Iteration      1(   9)  ---------------------------------------


     EDDAV:  cpu time   24.6427: real time   24.6428
       DOS:  cpu time    0.0020: real time    0.0020
    --------------------------------------------
      LOOP:  cpu time   24.6447: real time   24.6449

 eigenvalue-minimisations  : 23088
 total energy-change (2. order) :-0.2754496E-07  (-0.2752383E-07)
 number of electron      53.9999996 magnetization      -0.0000000
 augmentation part       53.9999996 magnetization      -0.0000000

 Free energy of the ion-electron system (eV)
  ---------------------------------------------------
  alpha Z        PSCENC =       192.05208299
  Ewald energy   TEWEN  =     -4167.81530784
  -Hartree energ DENC   =     -2155.75811610
  -exchange      EXHF   =         0.00000000
  -V(xc)+E(xc)   XCENC  =       295.54793508
  PAW double counting   =      6225.61119892    -6345.30982076
  entropy T*S    EENTRO =        -0.00000000
  eigenvalues    EBANDS =      -773.88382981
  atomic energy  EATOM  =      6689.50845332
  Solvation  Ediel_sol  =         0.00000000
  ---------------------------------------------------
  free energy    TOTEN  =       -40.04740419 eV

  energy without entropy =      -40.04740419  energy(sigma->0) =      -40.04740419


--------------------------------------------------------------------------------------------------------




 average (electrostatic) potential at core
  the test charge radii are     0.9577  0.7167
  (the norm of the test charge is              1.0000)
       1 -71.9640       2 -71.9640       3 -77.0610       4 -77.0610       5 -77.0610
       6 -77.0610
 
 
 
 E-fermi :   1.1908     XC(G=0): -10.4211     alpha+bet : -8.4173


 spin component 1

 k-point     1 :       0.0000    0.0000    0.0000
  band No.  band energies     occupation 
      1     -46.6687      1.00000
      2     -46.6116      1.00000
      3     -46.6068      1.00000
      4     -42.0654      1.00000
      5     -42.0076      1.00000
      6     -42.0000      1.00000
      7     -21.1727      1.00000
      8     -20.6369      1.00000
      9     -20.5989      1.00000
     10     -20.5521      1.00000
     11      -5.1851      1.00000
     12      -4.4146      1.00000
     13      -4.0703      1.00000
     14      -3.7907      1.00000
     15      -3.0967      1.00000
     16      -3.0800      1.00000
     17      -3.0343      1.00000
     18      -2.9836      1.00000
     19      -2.1388      1.00000
     20      -1.7343      1.00000
     21      -1.7169      1.00000
     22      -1.4162      1.00000
     23      -0.8128      1.00000
     24      -0.6342      1.00000
     25      -0.3562      1.00000
     26       0.6026      1.00000
     27       1.0206      1.00000
     28       4.2221      0.00000
     29       6.0824      0.00000
     30       6.6949      0.00000
     31       6.7339      0.00000
     32       7.5330      0.00000
     33       7.6184      0.00000
     34       9.3082      0.00000
     35       9.6636      0.00000
     36      11.2904      0.00000
     37      12.3720      0.00000
     38      13.9912      0.00000
     39      14.7952      0.00000
     40      15.1855      0.00000
     41      15.4016      0.00000
     42      16.4651      0.00000
     43      17.9389      0.00000
     44      18.7707      0.00000
     45      22.0956      0.00000
     46      22.2729      0.00000
     47      23.0270      0.00000
     48      23.0895      0.00000

 k-point     2 :       0.0000    0.0385    0.0000
  band No.  band energies     occupation 
      1     -46.6687      1.00000
      2     -46.6116      1.00000
      3     -46.6068      1.00000
      4     -42.0654      1.00000
      5     -42.0076      1.00000
      6     -42.0000      1.00000
      7     -21.1709      1.00000
      8     -20.6401      1.00000
      9     -20.5974      1.00000
     10     -20.5524      1.00000
     11      -5.1795      1.00000
     12      -4.4138      1.00000
     13      -4.0706      1.00000
     14      -3.7872      1.00000
     15      -3.1020      1.00000
     16      -3.0784      1.00000
     17      -3.0324      1.00000
     18      -2.9823      1.00000
     19      -2.1428      1.00000
     20      -1.7450      1.00000
     21      -1.7234      1.00000
     22      -1.4191      1.00000
     23      -0.8114      1.00000
     24      -0.6333      1.00000
     25      -0.3548      1.00000
     26       0.6077      1.00000
     27       1.0212      1.00000
     28       4.2401      0.00000
     29       6.0834      0.00000
     30       6.6946      0.00000
     31       6.7333      0.00000
     32       7.5309      0.00000
     33       7.6181      0.00000
     34       9.2932      0.00000
     35       9.6527      0.00000
     36      11.3072      0.00000
     37      12.3927      0.00000
     38      13.9577      0.00000
     39      14.6849      0.00000
     40      15.2996      0.00000
     41      15.4421      0.00000
     42      16.4709      0.00000
     43      17.9390      0.00000
     44      18.7761      0.00000
     45      22.0810      0.00000
     46      22.1263      0.00000
     47      23.0464      0.00000
     48      23.1545      0.00000

 k-point     3 :       0.0000    0.0769    0.0000
  band No.  band energies     occupation 
      1     -46.6687      1.00000
      2     -46.6116      1.00000
      3     -46.6068      1.00000
      4     -42.0654      1.00000
      5     -42.0076      1.00000
      6     -42.0000      1.00000
      7     -21.1655      1.00000
      8     -20.6486      1.00000
      9     -20.5939      1.00000
     10     -20.5533      1.00000
     11      -5.1629      1.00000
     12      -4.4117      1.00000
     13      -4.0715      1.00000
     14      -3.7767      1.00000
     15      -3.1188      1.00000
     16      -3.0738      1.00000
     17      -3.0256      1.00000
     18      -2.9782      1.00000
     19      -2.1548      1.00000
     20      -1.7834      1.00000
     21      -1.7361      1.00000
     22      -1.4278      1.00000
     23      -0.8074      1.00000
     24      -0.6305      1.00000
     25      -0.3508      1.00000
     26       0.6225      1.00000
     27       1.0229      1.00000
     28       4.2936      0.00000
     29       6.0863      0.00000
     30       6.6935      0.00000
     31       6.7316      0.00000
     32       7.5247      0.00000
     33       7.6173      0.00000
     34       9.2346      0.00000
     35       9.6400      0.00000
     36      11.3496      0.00000
     37      12.4562      0.00000
     38      13.8657      0.00000
     39      14.4956      0.00000
     40      15.4417      0.00000
     41      15.6132      0.00000
     42      16.4880      0.00000
     43      17.9393      0.00000
     44      18.7925      0.00000
     45      21.8085      0.00000
     46      22.0339      0.00000
     47      22.7443      0.00000
     48      23.0425      0.00000

 k-point     4 :       0.0000    0.1154    0.0000
  band No.  band energies     occupation 
      1     -46.6687      1.00000
      2     -46.6116      1.00000
      3     -46.6068      1.00000
      4     -42.0654      1.00000
      5     -42.0076      1.00000
      6     -42.0000      1.00000
      7     -21.1567      1.00000
      8     -20.6611      1.00000
      9     -20.5898      1.00000
     10     -20.5547      1.00000
     11      -5.1355      1.00000
     12      -4.4081      1.00000
     13      -4.0729      1.00000
     14      -3.7591      1.00000
     15      -3.1481      1.00000
     16      -3.0666      1.00000
     17      -3.0132      1.00000
     18      -2.9713      1.00000
     19      -2.1743      1.00000
     20      -1.8476      1.00000
     21      -1.7522      1.00000
     22      -1.4422      1.00000
     23      -0.8014      1.00000
     24      -0.6263      1.00000
     25      -0.3447      1.00000
     26       0.6459      1.00000
     27       1.0257      1.00000
     28       4.3810      0.00000
     29       6.0910      0.00000
     30       6.6919      0.00000
     31       6.7289      0.00000
     32       7.5147      0.00000
     33       7.6160      0.00000
     34       9.1151      0.00000
     35       9.6577      0.00000
     36      11.3994      0.00000
     37      12.5643      0.00000
     38      13.7355      0.00000
     39      14.3022      0.00000
     40      15.5550      0.00000
     41      15.8749      0.00000
     42      16.5158      0.00000
     43      17.9398      0.00000
     44      18.8200      0.00000
     45      21.4334      0.00000
     46      21.9473      0.00000
     47      22.2217      0.00000
     48      23.0236      0.00000

 k-point     5 :       0.0000    0.1538    0.0000
  band No.  band energies     occupation 
      1     -46.6687      1.00000
      2     -46.6116      1.00000
      3     -46.6068      1.00000
      4     -42.0654      1.00000
      5     -42.0076      1.00000
      6     -42.0000      1.00000
      7     -21.1445      1.00000
      8     -20.6767      1.00000
      9     -20.5858      1.00000
     10     -20.5565      1.00000
     11      -5.0984      1.00000
     12      -4.4031      1.00000
     13      -4.0747      1.00000
     14      -3.7340      1.00000
     15      -3.1893      1.00000
     16      -3.0573      1.00000
     17      -2.9957      1.00000
     18      -2.9610      1.00000
     19      -2.2006      1.00000
     20      -1.9325      1.00000
     21      -1.7713      1.00000
     22      -1.4621      1.00000
     23      -0.7939      1.00000
     24      -0.6208      1.00000
     25      -0.3373      1.00000
     26       0.6760      1.00000
     27       1.0294      1.00000
     28       4.4996      0.00000
     29       6.0973      0.00000
     30       6.6897      0.00000
     31       6.7253      0.00000
     32       7.5014      0.00000
     33       7.6143      0.00000
     34       8.9429      0.00000
     35       9.7124      0.00000
     36      11.4409      0.00000
     37      12.7149      0.00000
     38      13.5885      0.00000
     39      14.1145      0.00000
     40      15.6820      0.00000
     41      16.1508      0.00000
     42      16.5530      0.00000
     43      17.9403      0.00000
     44      18.8587      0.00000
     45      21.0423      0.00000
     46      21.7089      0.00000
     47      21.8156      0.00000
     48      22.9941      0.00000

 k-point     6 :       0.0000    0.1923    0.0000
  band No.  band energies     occupation 
      1     -46.6687      1.00000
      2     -46.6116      1.00000
      3     -46.6068      1.00000
      4     -42.0654      1.00000
      5     -42.0076      1.00000
      6     -42.0000      1.00000
      7     -21.1290      1.00000
      8     -20.6953      1.00000
      9     -20.5822      1.00000
     10     -20.5583      1.00000
     11      -5.0526      1.00000
     12      -4.3964      1.00000
     13      -4.0768      1.00000
     14      -3.7014      1.00000
     15      -3.2411      1.00000
     16      -3.0470      1.00000
     17      -2.9746      1.00000
     18      -2.9469      1.00000
     19      -2.2329      1.00000
     20      -2.0332      1.00000
     21      -1.7915      1.00000
     22      -1.4874      1.00000
     23      -0.7856      1.00000
     24      -0.6145      1.00000
     25      -0.3294      1.00000
     26       0.7107      1.00000
     27       1.0338      1.00000
     28       4.6461      0.00000
     29       6.1049      0.00000
     30       6.6872      0.00000
     31       6.7210      0.00000
     32       7.4851      0.00000
     33       7.6123      0.00000
     34       8.7366      0.00000
     35       9.7964      0.00000
     36      11.4657      0.00000
     37      12.8966      0.00000
     38      13.4436      0.00000
     39      13.9364      0.00000
     40      15.8246      0.00000
     41      16.4135      0.00000
     42      16.5980      0.00000
     43      17.9405      0.00000
     44      18.9088      0.00000
     45      20.6533      0.00000
     46      21.2344      0.00000
     47      21.6414      0.00000
     48      22.9541      0.00000

 k-point     7 :       0.0000    0.2308    0.0000
  band No.  band energies     occupation 
      1     -46.6687      1.00000
      2     -46.6116      1.00000
      3     -46.6068      1.00000
      4     -42.0654      1.00000
      5     -42.0076      1.00000
      6     -42.0000      1.00000
      7     -21.1106      1.00000
      8     -20.7165      1.00000
      9     -20.5791      1.00000
     10     -20.5602      1.00000
     11      -4.9998      1.00000
     12      -4.3877      1.00000
     13      -4.0792      1.00000
     14      -3.6614      1.00000
     15      -3.3017      1.00000
     16      -3.0365      1.00000
     17      -2.9514      1.00000
     18      -2.9286      1.00000
     19      -2.2700      1.00000
     20      -2.1449      1.00000
     21      -1.8108      1.00000
     22      -1.5174      1.00000
     23      -0.7771      1.00000
     24      -0.6079      1.00000
     25      -0.3215      1.00000
     26       0.7477      1.00000
     27       1.0386      1.00000
     28       4.8169      0.00000
     29       6.1136      0.00000
     30       6.6843      0.00000
     31       6.7163      0.00000
     32       7.4655      0.00000
     33       7.6101      0.00000
     34       8.5104      0.00000
     35       9.9033      0.00000
     36      11.4719      0.00000
     37      13.0663      0.00000
     38      13.3317      0.00000
     39      13.7843      0.00000
     40      15.9809      0.00000
     41      16.6368      0.00000
     42      16.6485      0.00000
     43      17.9403      0.00000
     44      18.9708      0.00000
     45      20.2721      0.00000
     46      20.8313      0.00000
     47      21.4354      0.00000
     48      22.9049      0.00000

 k-point     8 :       0.0000    0.2692    0.0000
  band No.  band energies     occupation 
      1     -46.6687      1.00000
      2     -46.6116      1.00000
      3     -46.6068      1.00000
      4     -42.0654      1.00000
      5     -42.0076      1.00000
      6     -42.0000      1.00000
      7     -21.0894      1.00000
      8     -20.7402      1.00000
      9     -20.5764      1.00000
     10     -20.5621      1.00000
     11      -4.9425      1.00000
     12      -4.3762      1.00000
     13      -4.0816      1.00000
     14      -3.6154      1.00000
     15      -3.3678      1.00000
     16      -3.0266      1.00000
     17      -2.9284      1.00000
     18      -2.9060      1.00000
     19      -2.3108      1.00000
     20      -2.2626      1.00000
     21      -1.8270      1.00000
     22      -1.5515      1.00000
     23      -0.7689      1.00000
     24      -0.6012      1.00000
     25      -0.3140      1.00000
     26       0.7848      1.00000
     27       1.0436      1.00000
     28       5.0080      0.00000
     29       6.1232      0.00000
     30       6.6812      0.00000
     31       6.7115      0.00000
     32       7.4412      0.00000
     33       7.6079      0.00000
     34       8.2750      0.00000
     35      10.0286      0.00000
     36      11.4595      0.00000
     37      13.0790      0.00000
     38      13.3261      0.00000
     39      13.7321      0.00000
     40      16.1478      0.00000
     41      16.7021      0.00000
     42      16.7893      0.00000
     43      17.9397      0.00000
     44      19.0450      0.00000
     45      19.8930      0.00000
     46      20.5454      0.00000
     47      21.2109      0.00000
     48      22.8462      0.00000

 k-point     9 :       0.0000    0.3077    0.0000
  band No.  band energies     occupation 
      1     -46.6687      1.00000
      2     -46.6116      1.00000
      3     -46.6068      1.00000
      4     -42.0654      1.00000
      5     -42.0076      1.00000
      6     -42.0000      1.00000
      7     -21.0657      1.00000
      8     -20.7661      1.00000
      9     -20.5741      1.00000
     10     -20.5637      1.00000
     11      -4.8837      1.00000
     12      -4.3610      1.00000
     13      -4.0839      1.00000
     14      -3.5702      1.00000
     15      -3.4306      1.00000
     16      -3.0180      1.00000
     17      -2.9082      1.00000
     18      -2.8794      1.00000
     19      -2.3813      1.00000
     20      -2.3539      1.00000
     21      -1.8382      1.00000
     22      -1.5885      1.00000
     23      -0.7613      1.00000
     24      -0.5950      1.00000
     25      -0.3073      1.00000
     26       0.8199      1.00000
     27       1.0484      1.00000
     28       5.2147      0.00000
     29       6.1339      0.00000
     30       6.6783      0.00000
     31       6.7068      0.00000
     32       7.4074      0.00000
     33       7.6058      0.00000
     34       8.0413      0.00000
     35      10.1687      0.00000
     36      11.4285      0.00000
     37      12.9829      0.00000
     38      13.2685      0.00000
     39      13.8928      0.00000
     40      16.3171      0.00000
     41      16.7556      0.00000
     42      16.8452      0.00000
     43      17.9385      0.00000
     44      19.1317      0.00000
     45      19.5127      0.00000
     46      20.4176      0.00000
     47      20.9797      0.00000
     48      22.7755      0.00000

 k-point    10 :       0.0000    0.3462    0.0000
  band No.  band energies     occupation 
      1     -46.6687      1.00000
      2     -46.6116      1.00000
      3     -46.6068      1.00000
      4     -42.0654      1.00000
      5     -42.0076      1.00000
      6     -42.0000      1.00000
      7     -21.0400      1.00000
      8     -20.7937      1.00000
      9     -20.5722      1.00000
     10     -20.5651      1.00000
     11      -4.8275      1.00000
     12      -4.3409      1.00000
     13      -4.0860      1.00000
     14      -3.5669      1.00000
     15      -3.4465      1.00000
     16      -3.0108      1.00000
     17      -2.8951      1.00000
     18      -2.8497      1.00000
     19      -2.4943      1.00000
     20      -2.3979      1.00000
     21      -1.8432      1.00000
     22      -1.6275      1.00000
     23      -0.7547      1.00000
     24      -0.5896      1.00000
     25      -0.3016      1.00000
     26       0.8512      1.00000
     27       1.0528      1.00000
     28       5.4317      0.00000
     29       6.1468      0.00000
     30       6.6755      0.00000
     31       6.7025      0.00000
     32       7.3501      0.00000
     33       7.6039      0.00000
     34       7.8285      0.00000
     35      10.3202      0.00000
     36      11.3775      0.00000
     37      12.8827      0.00000
     38      13.1554      0.00000
     39      14.1692      0.00000
     40      16.4492      0.00000
     41      16.8059      0.00000
     42      16.8281      0.00000
     43      17.9369      0.00000
     44      19.1399      0.00000
     45      19.2310      0.00000
     46      20.4563      0.00000
     47      20.7511      0.00000
     48      22.6839      0.00000

 k-point    11 :       0.0000    0.3846    0.0000
[...]
     25      -0.3162      1.00000
     26       0.3671      1.00000
     27       0.8548      1.00000
     28       6.4295      0.00000
     29       6.4466      0.00000
     30       6.7214      0.00000
     31       7.1402      0.00000
     32       7.4747      0.00000
     33       9.6468      0.00000
     34      10.5343      0.00000
     35      10.6191      0.00000
     36      10.6461      0.00000
     37      11.7544      0.00000
     38      11.8406      0.00000
     39      11.8649      0.00000
     40      12.2255      0.00000
     41      17.0981      0.00000
     42      17.9568      0.00000
     43      18.0327      0.00000
     44      19.3762      0.00000
     45      19.4877      0.00000
     46      20.3033      0.00000
     47      20.9665      0.00000
     48      21.1604      0.00000

 k-point   151 :       0.5000    0.5000    0.4762
  band No.  band energies     occupation 
      1     -46.6652      1.00000
      2     -46.6284      1.00000
      3     -46.6103      1.00000
      4     -42.0599      1.00000
      5     -42.0305      1.00000
      6     -42.0058      1.00000
      7     -20.7541      1.00000
      8     -20.7147      1.00000
      9     -20.6644      1.00000
     10     -20.5780      1.00000
     11      -4.7311      1.00000
     12      -4.5551      1.00000
     13      -4.1841      1.00000
     14      -3.9458      1.00000
     15      -3.9403      1.00000
     16      -3.4002      1.00000
     17      -2.9387      1.00000
     18      -2.7618      1.00000
     19      -2.1939      1.00000
     20      -1.9134      1.00000
     21      -1.9126      1.00000
     22      -1.8467      1.00000
     23      -0.7280      1.00000
     24      -0.5884      1.00000
     25      -0.3103      1.00000
     26       0.3572      1.00000
     27       0.8633      1.00000
     28       6.4251      0.00000
     29       6.4420      0.00000
     30       6.7293      0.00000
     31       7.1403      0.00000
     32       7.4878      0.00000
     33       9.6920      0.00000
     34      10.5966      0.00000
     35      10.6986      0.00000
     36      10.7766      0.00000
     37      11.6084      0.00000
     38      11.7387      0.00000
     39      11.8471      0.00000
     40      12.0811      0.00000
     41      17.1807      0.00000
     42      18.0212      0.00000
     43      18.0428      0.00000
     44      19.3652      0.00000
     45      19.3928      0.00000
     46      20.2994      0.00000
     47      21.0102      0.00000
     48      21.1210      0.00000

 k-point   152 :       0.5000    0.5000    0.5000
  band No.  band energies     occupation 
      1     -46.6652      1.00000
      2     -46.6285      1.00000
      3     -46.6103      1.00000
      4     -42.0599      1.00000
      5     -42.0307      1.00000
      6     -42.0058      1.00000
      7     -20.7532      1.00000
      8     -20.7139      1.00000
      9     -20.6646      1.00000
     10     -20.5780      1.00000
     11      -4.7327      1.00000
     12      -4.5545      1.00000
     13      -4.1872      1.00000
     14      -3.9445      1.00000
     15      -3.9361      1.00000
     16      -3.4148      1.00000
     17      -2.9375      1.00000
     18      -2.7634      1.00000
     19      -2.1903      1.00000
     20      -1.9122      1.00000
     21      -1.9118      1.00000
     22      -1.8405      1.00000
     23      -0.7304      1.00000
     24      -0.5916      1.00000
     25      -0.3083      1.00000
     26       0.3539      1.00000
     27       0.8661      1.00000
     28       6.4236      0.00000
     29       6.4404      0.00000
     30       6.7319      0.00000
     31       7.1403      0.00000
     32       7.4921      0.00000
     33       9.7080      0.00000
     34      10.6178      0.00000
     35      10.7287      0.00000
     36      10.8319      0.00000
     37      11.5479      0.00000
     38      11.7010      0.00000
     39      11.8574      0.00000
     40      12.0152      0.00000
     41      17.2101      0.00000
     42      18.0174      0.00000
     43      18.0730      0.00000
     44      19.3587      0.00000
     45      19.3615      0.00000
     46      20.2953      0.00000
     47      21.0258      0.00000
     48      21.0993      0.00000


--------------------------------------------------------------------------------------------------------


 soft charge-density along one line, spin component           1
         0         1         2         3         4         5         6         7         8         9
 total charge-density along one line
 
 soft charge-density along one line, spin component           2
         0         1         2         3         4         5         6         7         8         9
 total charge-density along one line
 
 pseudopotential strength for first ion, spin component:           1
-42.369  -0.000  -0.028   8.119   0.000   0.011   0.000  -0.000
 -0.000 -42.340  -0.000   0.000   8.107   0.000  -0.000   0.000
 -0.028  -0.000 -42.369   0.011   0.000   8.119  -0.000  -0.000
  8.119   0.000   0.011   5.283   0.000  -0.004  -0.000   0.000
  0.000   8.107   0.000   0.000   5.287  -0.000   0.000   0.000
  0.011   0.000   8.119  -0.004  -0.000   5.283  -0.000   0.000
  0.000  -0.000  -0.000  -0.000   0.000  -0.000  -1.759  -0.000
 -0.000   0.000  -0.000   0.000   0.000   0.000  -0.000  -1.719
  0.000  -0.000  -0.000   0.000   0.000  -0.000  -0.065   0.000
 -0.000  -0.000  -0.000   0.000   0.000   0.000   0.000  -0.082
 -0.000   0.000   0.000   0.000  -0.000   0.000  -0.000   0.000
  0.000  -0.000  -0.000  -0.000   0.000  -0.000  -2.195  -0.000
 -0.000   0.000  -0.000   0.000   0.000   0.000  -0.000  -2.154
  0.000  -0.000  -0.000   0.000   0.000  -0.000  -0.068   0.000
 -0.000  -0.000  -0.000   0.000   0.000   0.000   0.000  -0.084
 -0.000   0.000   0.000   0.000  -0.000   0.000  -0.000   0.000
 -0.000   0.000   0.000  -0.000  -0.000   0.000   0.006   0.000
 -0.000   0.000   0.000  -0.000  -0.000   0.000   0.011   0.000
 pseudopotential strength for first ion, spin component:           2
-45.446  -0.000  -0.021   9.608   0.000   0.008   0.000   0.000
 -0.000 -45.425  -0.000   0.000   9.600   0.000   0.000   0.000
 -0.021  -0.000 -45.446   0.008   0.000   9.608  -0.000   0.000
  9.608   0.000   0.008   4.787   0.000  -0.002   0.000  -0.000
  0.000   9.600   0.000   0.000   4.790  -0.000  -0.000   0.000
  0.008   0.000   9.608  -0.002  -0.000   4.787  -0.000  -0.000
  0.000   0.000  -0.000   0.000  -0.000  -0.000  -7.783  -0.000
  0.000   0.000   0.000  -0.000   0.000  -0.000  -0.000  -7.754
  0.000  -0.000  -0.000   0.000   0.000  -0.000  -0.045   0.000
  0.000  -0.000   0.000  -0.000   0.000  -0.000  -0.000  -0.065
 -0.000  -0.000   0.000  -0.000   0.000   0.000  -0.000   0.000
  0.000   0.000  -0.000   0.000  -0.000  -0.000  -8.269  -0.000
  0.000   0.000   0.000  -0.000   0.000  -0.000  -0.000  -8.240
  0.000  -0.000  -0.000   0.000   0.000  -0.000  -0.047   0.000
  0.000  -0.000   0.000  -0.000   0.000  -0.000  -0.000  -0.066
 -0.000  -0.000   0.000  -0.000   0.000   0.000  -0.000   0.000
  0.000  -0.000   0.000   0.000   0.000   0.000   0.004   0.000
  0.000  -0.000   0.000   0.000   0.000   0.000   0.006   0.000
 total augmentation occupancy for first ion, spin component:           1
  2.000   0.000   0.000   0.000   0.000   0.000   0.000   0.000   0.000   0.000   0.000   0.000   0.000   0.000   0.000   0.000
  0.000   2.000   0.000   0.000   0.000   0.000   0.000   0.000   0.000   0.000   0.000   0.000   0.000   0.000   0.000   0.000
  0.000   0.000   2.000   0.000   0.000   0.000   0.000   0.000   0.000   0.000   0.000   0.000   0.000   0.000   0.000   0.000
  0.000   0.000   0.000   0.000   0.000   0.000   0.000   0.000   0.000   0.000   0.000   0.000   0.000   0.000   0.000   0.000
  0.000   0.000   0.000   0.000   0.000   0.000   0.000   0.000   0.000   0.000   0.000   0.000   0.000   0.000   0.000   0.000
  0.000   0.000   0.000   0.000   0.000   0.000   0.000   0.000   0.000   0.000   0.000   0.000   0.000   0.000   0.000   0.000
  0.000   0.000   0.000   0.000   0.000   0.000   1.200   0.000   0.000   0.000   0.000   0.000   0.000   0.000   0.000   0.000
  0.000   0.000   0.000   0.000   0.000   0.000   0.000   1.200   0.000   0.000   0.000   0.000   0.000   0.000   0.000   0.000
  0.000   0.000   0.000   0.000   0.000   0.000   0.000   0.000   1.200   0.000   0.000   0.000   0.000   0.000   0.000   0.000
  0.000   0.000   0.000   0.000   0.000   0.000   0.000   0.000   0.000   1.200   0.000   0.000   0.000   0.000   0.000   0.000
  0.000   0.000   0.000   0.000   0.000   0.000   0.000   0.000   0.000   0.000   1.200   0.000   0.000   0.000   0.000   0.000
  0.000   0.000   0.000   0.000   0.000   0.000   0.000   0.000   0.000   0.000   0.000   0.000   0.000   0.000   0.000   0.000
  0.000   0.000   0.000   0.000   0.000   0.000   0.000   0.000   0.000   0.000   0.000   0.000   0.000   0.000   0.000   0.000
  0.000   0.000   0.000   0.000   0.000   0.000   0.000   0.000   0.000   0.000   0.000   0.000   0.000   0.000   0.000   0.000
  0.000   0.000   0.000   0.000   0.000   0.000   0.000   0.000   0.000   0.000   0.000   0.000   0.000   0.000   0.000   0.000
  0.000   0.000   0.000   0.000   0.000   0.000   0.000   0.000   0.000   0.000   0.000   0.000   0.000   0.000   0.000   0.000
  0.000   0.000   0.000   0.000   0.000   0.000   0.000   0.000   0.000   0.000   0.000   0.000   0.000   0.000   0.000   0.000
  0.000   0.000   0.000   0.000   0.000   0.000   0.000   0.000   0.000   0.000   0.000   0.000   0.000   0.000   0.000   0.000
 total augmentation occupancy for first ion, spin component:           2
 -0.923   0.000   0.000   0.000   0.000   0.000   0.000   0.000   0.000   0.000   0.000   0.000   0.000   0.000   0.000   0.000
  0.000  -0.923   0.000   0.000   0.000   0.000   0.000   0.000   0.000   0.000   0.000   0.000   0.000   0.000   0.000   0.000
  0.000   0.000  -0.923   0.000   0.000   0.000   0.000   0.000   0.000   0.000   0.000   0.000   0.000   0.000   0.000   0.000
  0.000   0.000   0.000   0.000   0.000   0.000   0.000   0.000   0.000   0.000   0.000   0.000   0.000   0.000   0.000   0.000
  0.000   0.000   0.000   0.000   0.000   0.000   0.000   0.000   0.000   0.000   0.000   0.000   0.000   0.000   0.000   0.000
  0.000   0.000   0.000   0.000   0.000   0.000   0.000   0.000   0.000   0.000   0.000   0.000   0.000   0.000   0.000   0.000
  0.000   0.000   0.000   0.000   0.000   0.000  -0.554   0.000   0.000   0.000   0.000   0.000   0.000   0.000   0.000   0.000
  0.000   0.000   0.000   0.000   0.000   0.000   0.000  -0.554   0.000   0.000   0.000   0.000   0.000   0.000   0.000   0.000
  0.000   0.000   0.000   0.000   0.000   0.000   0.000   0.000  -0.554   0.000   0.000   0.000   0.000   0.000   0.000   0.000
  0.000   0.000   0.000   0.000   0.000   0.000   0.000   0.000   0.000  -0.554   0.000   0.000   0.000   0.000   0.000   0.000
  0.000   0.000   0.000   0.000   0.000   0.000   0.000   0.000   0.000   0.000  -0.554   0.000   0.000   0.000   0.000   0.000
  0.000   0.000   0.000   0.000   0.000   0.000   0.000   0.000   0.000   0.000   0.000   0.000   0.000   0.000   0.000   0.000
  0.000   0.000   0.000   0.000   0.000   0.000   0.000   0.000   0.000   0.000   0.000   0.000   0.000   0.000   0.000   0.000
  0.000   0.000   0.000   0.000   0.000   0.000   0.000   0.000   0.000   0.000   0.000   0.000   0.000   0.000   0.000   0.000
  0.000   0.000   0.000   0.000   0.000   0.000   0.000   0.000   0.000   0.000   0.000   0.000   0.000   0.000   0.000   0.000
  0.000   0.000   0.000   0.000   0.000   0.000   0.000   0.000   0.000   0.000   0.000   0.000   0.000   0.000   0.000   0.000
  0.000   0.000   0.000   0.000   0.000   0.000   0.000   0.000   0.000   0.000   0.000   0.000   0.000   0.000   0.000   0.000
  0.000   0.000   0.000   0.000   0.000   0.000   0.000   0.000   0.000   0.000   0.000   0.000   0.000   0.000   0.000   0.000


------------------------ aborting loop because EDIFF is reached ----------------------------------------


 


 total charge     
 
# of ion       s       p       d       tot
------------------------------------------
    1        0.166   6.150   4.951  11.267
    2        0.167   6.149   4.952  11.268
    3        1.719   4.355   0.000   6.074
    4        1.719   4.355   0.000   6.074
    5        1.719   4.354   0.000   6.073
    6        1.719   4.354   0.000   6.073
--------------------------------------------------
tot          7.209  29.717   9.903  46.829
 


 magnetization (x)
 
# of ion       s       p       d       tot
------------------------------------------
    1       -0.015  -0.013  -4.612  -4.639
    2        0.015   0.012   4.611   4.638
    3        0.001   0.020   0.000   0.021
    4        0.001   0.020   0.000   0.021
    5       -0.002  -0.019   0.000  -0.021
    6       -0.002  -0.019   0.000  -0.021
--------------------------------------------------
tot         -0.000   0.001  -0.001   0.000
 
    CHARGE:  cpu time    0.8564: real time    0.8564
    FORLOC:  cpu time    0.0035: real time    0.0035
    FORNL :  cpu time    7.9806: real time    7.9807
    STRESS:  cpu time   12.0505: real time   12.0506
    FORCOR:  cpu time    0.0201: real time    0.0201
    FORHAR:  cpu time    0.0106: real time    0.0105
    OFIELD:  cpu time    0.0008: real time    0.0008

  FORCE on cell =-STRESS in cart. coord.  units (eV):
  Direction    XX          YY          ZZ          XY          YZ          ZX
  --------------------------------------------------------------------------------------
  Alpha Z   192.05208   192.05208   192.05208
  Ewald   -1579.42609 -1579.42609 -1008.96626    -0.00000    -0.00000    -0.00000
  Hartree   590.53485   590.27998   976.10697    -0.16646     0.00000     0.00000
  E(xc)    -308.82041  -308.82114  -308.86529    -0.00000    -0.00000    -0.00000
  Local     155.17339   156.20608  -793.95191     0.29387    -0.00000    -0.00000
  n-local  -239.68870  -239.40010  -238.51773     0.00832     0.00000     0.00000
  augment   267.56063   267.41490   267.01685    -0.00857    -0.00000    -0.00000
  Kinetic   920.31761   919.52993   912.50222    -0.13340    -0.00000    -0.00000
  Fock        0.00000     0.00000     0.00000     0.00000     0.00000     0.00000
  -------------------------------------------------------------------------------------
  Total      -2.29663    -2.16436    -2.62306    -0.00624    -0.00000    -0.00000
  in kB     -46.38262   -43.71117   -52.97514    -0.12604    -0.00003    -0.00005
  external pressure =      -47.69 kB  Pullay stress =        0.00 kB


 VOLUME and BASIS-vectors are now :
 -----------------------------------------------------------------------------
  energy-cutoff  :      700.00
  volume of cell :       79.33
      direct lattice vectors                 reciprocal lattice vectors
     4.891796665  0.000000000  0.000000000     0.204423869  0.000000000  0.000000000
     0.000000000  4.891796665  0.000000000     0.000000000  0.204423869  0.000000000
     0.000000000  0.000000000  3.315204934     0.000000000  0.000000000  0.301640478

  length of vectors
     4.891796665  4.891796665  3.315204934     0.204423869  0.204423869  0.301640478


 FORCES acting on ions
    electron-ion (+dipol)            ewald-force                    non-local-force                 convergence-correction
 -----------------------------------------------------------------------------------------------
   0.247E-05 0.223E-05 -.561E-06   0.000E+00 -.568E-13 -.757E-14   -.219E-05 -.268E-05 -.362E-06   -.257E-05 -.171E-05 0.420E-06
   -.261E-05 0.206E-05 -.137E-05   0.000E+00 0.000E+00 -.937E-14   0.625E-05 0.526E-06 -.205E-05   0.159E-05 -.160E-05 0.106E-05
   -.343E+02 0.343E+02 0.176E-06   0.357E+02 -.357E+02 0.376E-14   -.134E+01 0.137E+01 -.209E-06   0.305E-01 -.341E-01 -.547E-07
   0.343E+02 -.343E+02 0.169E-06   -.357E+02 0.357E+02 0.355E-14   0.134E+01 -.137E+01 0.100E-06   -.305E-01 0.341E-01 -.103E-06
   0.343E+02 0.343E+02 -.197E-06   -.357E+02 -.357E+02 0.688E-14   0.136E+01 0.139E+01 -.115E-07   0.290E-01 0.254E-01 0.708E-07
   -.343E+02 -.343E+02 -.115E-06   0.357E+02 0.357E+02 0.656E-14   -.136E+01 -.139E+01 -.101E-06   -.290E-01 -.254E-01 0.102E-06
 -----------------------------------------------------------------------------------------------
   -.426E-06 0.494E-05 -.190E-05   0.711E-14 0.000E+00 0.381E-14   0.363E-05 -.209E-05 -.263E-05   -.863E-06 -.364E-05 0.149E-05
 
 
 POSITION                                       TOTAL-FORCE (eV/Angst)
 -----------------------------------------------------------------------------------
      2.44590      2.44590      1.65760        -0.000003     -0.000002      0.000000
      0.00000      0.00000      0.00000         0.000005      0.000001     -0.000002
      0.95434      3.93746      1.65760        -0.000485      0.030415      0.000000
      3.93746      0.95434      1.65760         0.000484     -0.030414      0.000001
      1.49156      1.49156      0.00000         0.006025      0.035955      0.000000
      3.40024      3.40024      0.00000        -0.006026     -0.035955      0.000000
 -----------------------------------------------------------------------------------
    total drift:                                0.000002     -0.000001     -0.000003


--------------------------------------------------------------------------------------------------------



  FREE ENERGIE OF THE ION-ELECTRON SYSTEM (eV)
  ---------------------------------------------------
  free  energy   TOTEN  =       -40.04740419 eV

  energy  without entropy=      -40.04740419  energy(sigma->0) =      -40.04740419
 


--------------------------------------------------------------------------------------------------------


    POTLOK:  cpu time    0.7193: real time    0.7193


--------------------------------------------------------------------------------------------------------


     LOOP+:  cpu time  270.8670: real time  271.0684
    4ORBIT:  cpu time    0.0000: real time    0.0000
 


 total charge     
 
# of ion       s       p       d       tot
------------------------------------------
    1        0.166   6.150   4.951  11.267
    2        0.167   6.149   4.952  11.268
    3        1.719   4.355   0.000   6.074
    4        1.719   4.355   0.000   6.074
    5        1.719   4.354   0.000   6.073
    6        1.719   4.354   0.000   6.073
--------------------------------------------------
tot          7.209  29.717   9.903  46.829
 


 magnetization (x)
 
# of ion       s       p       d       tot
------------------------------------------
    1       -0.015  -0.013  -4.612  -4.639
    2        0.015   0.012   4.611   4.638
    3        0.001   0.020   0.000   0.021
    4        0.001   0.020   0.000   0.021
    5       -0.002  -0.019   0.000  -0.021
    6       -0.002  -0.019   0.000  -0.021
--------------------------------------------------
tot         -0.000   0.001  -0.001   0.000
 

 total amount of memory used by VASP MPI-rank0   391980. kBytes
=======================================================================

   base      :      30000. kBytes
   nonl-proj :     147760. kBytes
   fftplans  :       7420. kBytes
   grid      :       6062. kBytes
   one-center:        186. kBytes
   wavefun   :     200552. kBytes
 
  
  
 General timing and accounting informations for this job:
 ========================================================
  
                  Total CPU time used (sec):      279.385
                            User time (sec):      278.189
                          System time (sec):        1.196
                         Elapsed time (sec):      279.606
  
                   Maximum memory used (kb):      394552.
                   Average memory used (kb):           0.
  
                          Minor page faults:        95043
                          Major page faults:            6
                 Voluntary context switches:          189
