       N       E                     dE             d eps       ncg     rms          rms(c)
DAV:   1     0.969389118503E+03    0.96939E+03   -0.37495E+04  1296   0.200E+03
DAV:   2     0.404095730390E+03   -0.56529E+03   -0.54045E+03  1512   0.514E+02
DAV:   3     0.369551172588E+03   -0.34545E+02   -0.34295E+02  1464   0.137E+02
DAV:   4     0.369126653314E+03   -0.42452E+00   -0.42416E+00  1572   0.165E+01
DAV:   5     0.369119446633E+03   -0.72067E-02   -0.72066E-02  1476   0.198E+00    0.588E+01
DAV:   6    -0.688184126967E+02   -0.43794E+03   -0.28332E+02  1584   0.212E+02    0.627E+01
DAV:   7    -0.715484020716E+02   -0.27300E+01   -0.49929E+01  1356   0.451E+01    0.172E+01
DAV:   8    -0.686640700982E+02    0.28843E+01   -0.69912E+00  1560   0.218E+01    0.667E+00
DAV:   9    -0.681615486061E+02    0.50252E+00   -0.50234E+00  1524   0.192E+01    0.817E+00
DAV:  10    -0.681103364022E+02    0.51212E-01   -0.44098E-01  1380   0.557E+00    0.597E+00
DAV:  11    -0.680756084707E+02    0.34728E-01   -0.11176E+00  1560   0.789E+00    0.199E+00
DAV:  12    -0.680375599020E+02    0.38049E-01   -0.10278E-01  1596   0.326E+00    0.124E+00
DAV:  13    -0.680293147419E+02    0.82452E-02   -0.71423E-02  1512   0.157E+00    0.105E+00
DAV:  14    -0.680245072981E+02    0.48074E-02   -0.52289E-02  1296   0.248E+00    0.409E-01
DAV:  15    -0.680253349004E+02   -0.82760E-03   -0.37075E-03  1476   0.441E-01    0.399E-01
DAV:  16    -0.680245481014E+02    0.78680E-03   -0.29298E-03  1404   0.360E-01    0.153E-01
DAV:  17    -0.680244854626E+02    0.62639E-04   -0.34212E-03  1416   0.415E-01    0.111E-01
DAV:  18    -0.680242671109E+02    0.21835E-03   -0.19716E-04  1308   0.103E-01    0.317E-02
DAV:  19    -0.680242599709E+02    0.71400E-05   -0.11139E-04  1512   0.691E-02    0.808E-03
DAV:  20    -0.680242800119E+02   -0.20041E-04   -0.65201E-06  1428   0.162E-02    0.888E-03
DAV:  21    -0.680242822515E+02   -0.22396E-05   -0.27277E-06  1080   0.114E-02    0.397E-03
DAV:  22    -0.680242806963E+02    0.15553E-05   -0.10963E-06   756   0.658E-03    0.130E-03
DAV:  23    -0.680242846038E+02   -0.39076E-05   -0.16072E-07   648   0.292E-03    0.111E-03
DAV:  24    -0.680242841172E+02    0.48667E-06   -0.23320E-08   648   0.119E-03
   1 F= -.68024284E+02 E0= -.68024284E+02  d E =-.238941-190  mag=    -0.0000
