       N       E                     dE             d eps       ncg     rms          rms(c)
DAV:   1     0.931835978455E+03    0.93184E+03   -0.35857E+04  1308   0.189E+03
DAV:   2     0.398955808848E+03   -0.53288E+03   -0.51028E+03  1524   0.488E+02
DAV:   3     0.368119957733E+03   -0.30836E+02   -0.30641E+02  1452   0.128E+02
DAV:   4     0.367763578531E+03   -0.35638E+00   -0.35609E+00  1548   0.150E+01
DAV:   5     0.367757244034E+03   -0.63345E-02   -0.63344E-02  1488   0.183E+00    0.587E+01
DAV:   6    -0.690544383089E+02   -0.43681E+03   -0.27497E+02  1584   0.211E+02    0.625E+01
DAV:   7    -0.715835848613E+02   -0.25291E+01   -0.49586E+01  1356   0.447E+01    0.172E+01
DAV:   8    -0.686693331307E+02    0.29143E+01   -0.70631E+00  1548   0.217E+01    0.668E+00
DAV:   9    -0.681644654006E+02    0.50487E+00   -0.50846E+00  1488   0.192E+01    0.817E+00
DAV:  10    -0.681173815365E+02    0.47084E-01   -0.44663E-01  1428   0.555E+00    0.609E+00
DAV:  11    -0.680767283828E+02    0.40653E-01   -0.11904E+00  1548   0.799E+00    0.202E+00
DAV:  12    -0.680385625710E+02    0.38166E-01   -0.10850E-01  1596   0.333E+00    0.129E+00
DAV:  13    -0.680299086484E+02    0.86539E-02   -0.72160E-02  1524   0.158E+00    0.106E+00
DAV:  14    -0.680249556889E+02    0.49530E-02   -0.53211E-02  1296   0.249E+00    0.415E-01
DAV:  15    -0.680257821052E+02   -0.82642E-03   -0.40107E-03  1464   0.466E-01    0.401E-01
DAV:  16    -0.680250056412E+02    0.77646E-03   -0.34488E-03  1380   0.390E-01    0.139E-01
DAV:  17    -0.680249875265E+02    0.18115E-04   -0.29871E-03  1416   0.393E-01    0.108E-01
DAV:  18    -0.680247516073E+02    0.23592E-03   -0.20020E-04  1332   0.101E-01    0.331E-02
DAV:  19    -0.680247438214E+02    0.77860E-05   -0.11995E-04  1500   0.726E-02    0.809E-03
DAV:  20    -0.680247662686E+02   -0.22447E-04   -0.69783E-06  1404   0.155E-02    0.911E-03
DAV:  21    -0.680247673418E+02   -0.10732E-05   -0.24407E-06  1368   0.108E-02    0.445E-03
DAV:  22    -0.680247659695E+02    0.13724E-05   -0.15102E-06  1452   0.738E-03    0.181E-03
DAV:  23    -0.680247693271E+02   -0.33577E-05   -0.12019E-07   936   0.261E-03    0.103E-03
DAV:  24    -0.680247699429E+02   -0.61579E-06   -0.12884E-08   648   0.948E-04    0.327E-04
DAV:  25    -0.680247703310E+02   -0.38807E-06   -0.17641E-08   648   0.870E-04    0.246E-04
DAV:  26    -0.680247704623E+02   -0.13128E-06   -0.13381E-09   648   0.251E-04    0.967E-05
DAV:  27    -0.680247704159E+02    0.46318E-07   -0.54072E-10   648   0.179E-04
   1 F= -.68024770E+02 E0= -.68024770E+02  d E =-.680248E+02  mag=    -0.0000
       N       E                     dE             d eps       ncg     rms          rms(c)
DAV:   1    -0.680312661922E+02   -0.64957E-02   -0.13506E-01  1296   0.333E+00    0.695E-01
DAV:   2    -0.680246199362E+02    0.66463E-02   -0.12023E-02  1296   0.901E-01    0.417E-01
DAV:   3    -0.680247756642E+02   -0.15573E-03   -0.44045E-03  1356   0.466E-01    0.149E-01
DAV:   4    -0.680250357693E+02   -0.26011E-03   -0.22543E-04  1512   0.139E-01    0.124E-01
DAV:   5    -0.680250461897E+02   -0.10420E-04   -0.51876E-04  1584   0.145E-01    0.778E-02
DAV:   6    -0.680249954387E+02    0.50751E-04   -0.11560E-04  1440   0.792E-02    0.239E-02
DAV:   7    -0.680250146980E+02   -0.19259E-04   -0.13534E-04  1524   0.690E-02    0.304E-02
DAV:   8    -0.680249912262E+02    0.23472E-04   -0.21579E-05  1380   0.351E-02    0.924E-03
DAV:   9    -0.680249910612E+02    0.16506E-06   -0.10870E-05  1572   0.185E-02    0.161E-03
DAV:  10    -0.680249915127E+02   -0.45151E-06   -0.13653E-06  1344   0.612E-03    0.359E-03
DAV:  11    -0.680249920236E+02   -0.51095E-06   -0.56339E-08   816   0.202E-03    0.298E-03
DAV:  12    -0.680249915857E+02    0.43791E-06   -0.12480E-07   648   0.207E-03    0.179E-03
DAV:  13    -0.680249915039E+02    0.81819E-07   -0.22074E-07   996   0.274E-03
   2 F= -.68024992E+02 E0= -.68024992E+02  d E =-.221088E-03  mag=     0.0000
       N       E                     dE             d eps       ncg     rms          rms(c)
DAV:   1    -0.680250195965E+02   -0.28011E-04   -0.66665E-04  1296   0.233E-01    0.487E-02
DAV:   2    -0.680250266832E+02   -0.70868E-05   -0.59269E-05  1296   0.631E-02    0.290E-02
DAV:   3    -0.680250063466E+02    0.20337E-04   -0.22038E-05  1356   0.329E-02    0.104E-02
DAV:   4    -0.680249901862E+02    0.16160E-04   -0.10923E-06  1512   0.964E-03    0.864E-03
DAV:   5    -0.680249898679E+02    0.31825E-06   -0.26508E-06  1584   0.104E-02    0.552E-03
DAV:   6    -0.680249894387E+02    0.42926E-06   -0.57266E-07  1224   0.559E-03    0.172E-03
DAV:   7    -0.680249893661E+02    0.72556E-07   -0.74028E-07  1452   0.511E-03
   3 F= -.68024989E+02 E0= -.68024989E+02  d E =-.218950E-03  mag=    -0.0000
       N       E                     dE             d eps       ncg     rms          rms(c)
DAV:   1    -0.680249913836E+02   -0.19449E-05   -0.11789E-05  1296   0.320E-02    0.749E-03
DAV:   2    -0.680249853238E+02    0.60598E-05   -0.16704E-06  1296   0.982E-03    0.425E-03
DAV:   3    -0.680249878941E+02   -0.25703E-05   -0.48853E-07  1356   0.506E-03    0.148E-03
DAV:   4    -0.680249903733E+02   -0.24792E-05   -0.18948E-08   648   0.142E-03    0.128E-03
DAV:   5    -0.680249906017E+02   -0.22841E-06   -0.50393E-08   648   0.147E-03    0.795E-04
DAV:   6    -0.680249905155E+02    0.86243E-07   -0.11126E-08   648   0.806E-04
   4 F= -.68024991E+02 E0= -.68024991E+02  d E =-.220100E-03  mag=     0.0000
       N       E                     dE             d eps       ncg     rms          rms(c)
DAV:   1    -0.680249906158E+02   -0.14101E-07   -0.89414E-06  1296   0.267E-02    0.582E-03
DAV:   2    -0.680249942499E+02   -0.36340E-05   -0.84551E-07  1296   0.738E-03    0.340E-03
DAV:   3    -0.680249920731E+02    0.21767E-05   -0.31166E-07  1140   0.392E-03    0.117E-03
DAV:   4    -0.680249901722E+02    0.19009E-05   -0.16637E-08   648   0.121E-03    0.102E-03
DAV:   5    -0.680249900862E+02    0.86033E-07   -0.33323E-08   648   0.122E-03
   5 F= -.68024990E+02 E0= -.68024990E+02  d E =-.219670E-03  mag=    -0.0000
       N       E                     dE             d eps       ncg     rms          rms(c)
DAV:   1    -0.680249900444E+02    0.12777E-06   -0.32926E-07  1296   0.534E-03    0.129E-03
DAV:   2    -0.680249908432E+02   -0.79874E-06   -0.46170E-08   648   0.166E-03    0.764E-04
DAV:   3    -0.680249904475E+02    0.39565E-06   -0.17205E-08   648   0.903E-04    0.294E-04
DAV:   4    -0.680249900800E+02    0.36750E-06   -0.13836E-09   648   0.318E-04    0.259E-04
DAV:   5    -0.680249900486E+02    0.31441E-07   -0.16298E-09   648   0.286E-04
   6 F= -.68024990E+02 E0= -.68024990E+02  d E =-.219633E-03  mag=     0.0000
       N       E                     dE             d eps       ncg     rms          rms(c)
DAV:   1    -0.680249900683E+02    0.11694E-07   -0.10567E-08   648   0.973E-04    0.248E-04
DAV:   2    -0.680249902169E+02   -0.14860E-06   -0.15449E-09   648   0.323E-04    0.163E-04
DAV:   3    -0.680249901442E+02    0.72676E-07   -0.75298E-10   648   0.176E-04
   7 F= -.68024990E+02 E0= -.68024990E+02  d E =-.219728E-03  mag=     0.0000
       N       E                     dE             d eps       ncg     rms          rms(c)
DAV:   1    -0.680249900749E+02    0.14198E-06   -0.40060E-10   648   0.191E-04    0.621E-05
DAV:   2    -0.680249900979E+02   -0.22942E-07   -0.47407E-11   648   0.694E-05
   8 F= -.68024990E+02 E0= -.68024990E+02  d E =-.219682E-03  mag=     0.0000
       N       E                     dE             d eps       ncg     rms          rms(c)
DAV:   1    -0.680249900675E+02    0.74633E-08   -0.16641E-11   648   0.447E-05    0.482E-05
DAV:   2    -0.680249900727E+02   -0.52623E-08   -0.41717E-12   648   0.208E-05
   9 F= -.68024990E+02 E0= -.68024990E+02  d E =-.219657E-03  mag=    -0.0000
       N       E                     dE             d eps       ncg     rms          rms(c)
DAV:   1    -0.680249900697E+02   -0.22628E-08   -0.34333E-12   648   0.124E-05    0.421E-05
DAV:   2    -0.680249900720E+02   -0.22546E-08   -0.10289E-11   648   0.753E-06
  10 F= -.68024990E+02 E0= -.68024990E+02  d E =-.219656E-03  mag=    -0.0000
       N       E                     dE             d eps       ncg     rms          rms(c)
DAV:   1    -0.680249900726E+02   -0.29086E-08   -0.58633E-12   648   0.491E-06    0.408E-05
DAV:   2    -0.680249900737E+02   -0.10359E-08    0.21103E-12   648   0.272E-06
  11 F= -.68024990E+02 E0= -.68024990E+02  d E =-.219658E-03  mag=     0.0000
       N       E                     dE             d eps       ncg     rms          rms(c)
DAV:   1    -0.680249900747E+02   -0.20182E-08   -0.32842E-12   648   0.183E-06    0.405E-05
DAV:   2    -0.680249900751E+02   -0.44201E-09   -0.14027E-12   648   0.110E-06
  12 F= -.68024990E+02 E0= -.68024990E+02  d E =-.219659E-03  mag=     0.0000
       N       E                     dE             d eps       ncg     rms          rms(c)
DAV:   1    -0.680249900756E+02   -0.96861E-09   -0.53091E-12   648   0.658E-07    0.405E-05
DAV:   2    -0.680249900758E+02   -0.19736E-09   -0.28071E-12   648   0.432E-07
  13 F= -.68024990E+02 E0= -.68024990E+02  d E =-.219660E-03  mag=     0.0000
       N       E                     dE             d eps       ncg     rms          rms(c)
DAV:   1    -0.680301964242E+02   -0.52063E-02   -0.11661E-01  1296   0.308E+00    0.645E-01
DAV:   2    -0.680253711837E+02    0.48252E-02   -0.10431E-02  1296   0.838E-01    0.384E-01
DAV:   3    -0.680249973220E+02    0.37386E-03   -0.38598E-03  1356   0.435E-01    0.138E-01
DAV:   4    -0.680248059844E+02    0.19134E-03   -0.19017E-04  1524   0.127E-01    0.114E-01
DAV:   5    -0.680248067369E+02   -0.75251E-06   -0.46240E-04  1584   0.137E-01    0.732E-02
DAV:   6    -0.680247586370E+02    0.48100E-04   -0.97842E-05  1440   0.732E-02    0.228E-02
DAV:   7    -0.680247723278E+02   -0.13691E-04   -0.12907E-04  1512   0.675E-02    0.293E-02
DAV:   8    -0.680247698529E+02    0.24749E-05   -0.19872E-05  1344   0.338E-02    0.898E-03
DAV:   9    -0.680247702063E+02   -0.35335E-06   -0.97933E-06  1560   0.175E-02    0.139E-03
DAV:  10    -0.680247707888E+02   -0.58257E-06   -0.12820E-06  1356   0.594E-03    0.328E-03
DAV:  11    -0.680247701386E+02    0.65026E-06   -0.50936E-08   840   0.186E-03    0.277E-03
DAV:  12    -0.680247704043E+02   -0.26567E-06   -0.10056E-07   648   0.189E-03    0.169E-03
DAV:  13    -0.680247704505E+02   -0.46262E-07   -0.16723E-07   708   0.239E-03
  14 F= -.68024770E+02 E0= -.68024770E+02  d E =-.345717E-07  mag=     0.0000
