 vasp.5.4.4.18Apr17-6-g9f103f2a35 (build Apr 24 2018 11:19:41) complex          
  
 executed on         CrayXC-Intel date 2021.08.25  22:01:27
 running on  192 total cores
 distrk:  each k-point on   48 cores,    4 groups
 distr:  one band on NCORES_PER_BAND=  12 cores,    4 groups


--------------------------------------------------------------------------------------------------------


 INCAR:
 POTCAR:    PAW_PBE Mn_pv 02Aug2007               
 POTCAR:    PAW_PBE F 08Apr2002                   
 POTCAR:    PAW_PBE H 15Jun2001                   

 ----------------------------------------------------------------------------- 
|                                                                             |
|           W    W    AA    RRRRR   N    N  II  N    N   GGGG   !!!           |
|           W    W   A  A   R    R  NN   N  II  NN   N  G    G  !!!           |
|           W    W  A    A  R    R  N N  N  II  N N  N  G       !!!           |
|           W WW W  AAAAAA  RRRRR   N  N N  II  N  N N  G  GGG   !            |
|           WW  WW  A    A  R   R   N   NN  II  N   NN  G    G                |
|           W    W  A    A  R    R  N    N  II  N    N   GGGG   !!!           |
|                                                                             |
|      You have enabled k-point parallelism (KPAR>1).                         |
|      This developmental code was originally  written by Paul Kent at ORNL,  |
|      and carefully double checked in Vienna.                                |
|      GW as well as linear response parallelism added by Martijn Marsman     |
|      and Georg Kresse.                                                      |
|      Carefully verify results versus KPAR=1.                                |
|      Report problems to Paul Kent and Vienna.                               |
|                                                                             |
 ----------------------------------------------------------------------------- 

 POTCAR:    PAW_PBE Mn_pv 02Aug2007               
   VRHFIN =Mn: 3p4s3d                                                           
   LEXCH  = PE                                                                  
   EATOM  =  2025.2664 eV,  148.8529 Ry                                         
                                                                                
   TITEL  = PAW_PBE Mn_pv 02Aug2007                                             
   LULTRA =        F    use ultrasoft PP ?                                      
   IUNSCR =        1    unscreen: 0-lin 1-nonlin 2-no                           
   RPACOR =    2.080    partial core radius                                     
   POMASS =   54.938; ZVAL   =   13.000    mass and valenz                      
   RCORE  =    2.300    outmost cutoff radius                                   
   RWIGS  =    2.500; RWIGS  =    1.323    wigner-seitz radius (au A)           
   ENMAX  =  269.864; ENMIN  =  202.398 eV                                      
   ICORE  =        3    local potential                                         
   LCOR   =        T    correct aug charges                                     
   LPAW   =        T    paw PP                                                  
   EAUG   =  569.085                                                            
   DEXC   =    0.000                                                            
   RMAX   =    2.343    core radius for proj-oper                               
   RAUG   =    1.300    factor for augmentation sphere                          
   RDEP   =    2.338    radius for radial grids                                 
   RDEPT  =    1.798    core radius for aug-charge                              
                                                                                
   Atomic configuration                                                         
    8 entries                                                                   
     n  l   j            E        occ.                                          
     1  0  0.50     -6424.8287   2.0000                                         
     2  0  0.50      -739.1154   2.0000                                         
     2  1  1.50      -625.3949   6.0000                                         
     3  0  0.50       -81.6100   2.0000                                         
     3  1  1.50       -50.4667   6.0000                                         
     3  2  2.50        -3.3745   6.0000                                         
     4  0  0.50        -4.1331   1.0000                                         
     4  3  2.50        -1.3606   0.0000                                         
   Description                                                                  
     l       E           TYP  RCUT    TYP  RCUT                                 
     1    -50.4666628     23  2.000                                             
     1     -1.3605826     23  2.000                                             
     2     -3.3744729     23  2.300                                             
     2     -4.7350555     23  2.300                                             
     0     -4.1331431     23  2.300                                             
     0      7.6656591     23  2.300                                             
     3      9.5240782     23  2.300                                             
  local pseudopotential read in
  partial core-charges read in
  partial kinetic energy density read in
  atomic valenz-charges read in
  non local Contribution for L=           1  read in
    real space projection operators read in
  non local Contribution for L=           1  read in
    real space projection operators read in
  non local Contribution for L=           2  read in
    real space projection operators read in
  non local Contribution for L=           2  read in
    real space projection operators read in
  non local Contribution for L=           0  read in
    real space projection operators read in
  non local Contribution for L=           0  read in
    real space projection operators read in
    PAW grid and wavefunctions read in
 
   number of l-projection  operators is LMAX  =           6
   number of lm-projection operators is LMMAX =          18
 
 POTCAR:    PAW_PBE F 08Apr2002                   
   VRHFIN =F: s2p5                                                              
   LEXCH  = PE                                                                  
   EATOM  =   659.6475 eV,   48.4827 Ry                                         
                                                                                
   TITEL  = PAW_PBE F 08Apr2002                                                 
   LULTRA =        F    use ultrasoft PP ?                                      
   IUNSCR =        1    unscreen: 0-lin 1-nonlin 2-no                           
   RPACOR =    1.200    partial core radius                                     
   POMASS =   18.998; ZVAL   =    7.000    mass and valenz                      
   RCORE  =    1.520    outmost cutoff radius                                   
   RWIGS  =    1.500; RWIGS  =    0.794    wigner-seitz radius (au A)           
   ENMAX  =  400.000; ENMIN  =  300.000 eV                                      
   ICORE  =        2    local potential                                         
   LCOR   =        T    correct aug charges                                     
   LPAW   =        T    paw PP                                                  
   EAUG   =  613.614                                                            
   RMAX   =    1.555    core radius for proj-oper                               
   RAUG   =    1.300    factor for augmentation sphere                          
   RDEP   =    1.539    radius for radial grids                                 
   RDEPT  =    1.299    core radius for aug-charge                              
                                                                                
   Atomic configuration                                                         
    4 entries                                                                   
     n  l   j            E        occ.                                          
     1  0  0.50      -663.3661   2.0000                                         
     2  0  0.50       -29.8995   2.0000                                         
     2  1  0.50       -11.1114   5.0000                                         
     3  2  1.50       -10.8847   0.0000                                         
   Description                                                                  
     l       E           TYP  RCUT    TYP  RCUT                                 
     0    -29.8995018     23  1.200                                             
     0     -9.5240782     23  1.200                                             
     1    -11.1113914     23  1.520                                             
     1      1.3605826     23  1.520                                             
     2    -10.8846608      7  1.500                                             
  local pseudopotential read in
  partial core-charges read in
  partial kinetic energy density read in
  atomic valenz-charges read in
  non local Contribution for L=           0  read in
    real space projection operators read in
  non local Contribution for L=           0  read in
    real space projection operators read in
  non local Contribution for L=           1  read in
    real space projection operators read in
  non local Contribution for L=           1  read in
    real space projection operators read in
    PAW grid and wavefunctions read in
 
   number of l-projection  operators is LMAX  =           4
   number of lm-projection operators is LMMAX =           8
 
 POTCAR:    PAW_PBE H 15Jun2001                   
   VRHFIN =H: ultrasoft test                                                    
   LEXCH  = PE                                                                  
   EATOM  =    12.4884 eV,    0.9179 Ry                                         
                                                                                
   TITEL  = PAW_PBE H 15Jun2001                                                 
   LULTRA =        F    use ultrasoft PP ?                                      
   IUNSCR =        0    unscreen: 0-lin 1-nonlin 2-no                           
   RPACOR =    0.000    partial core radius                                     
   POMASS =    1.000; ZVAL   =    1.000    mass and valenz                      
   RCORE  =    1.100    outmost cutoff radius                                   
   RWIGS  =    0.700; RWIGS  =    0.370    wigner-seitz radius (au A)           
   ENMAX  =  250.000; ENMIN  =  200.000 eV                                      
   RCLOC  =    0.701    cutoff for local pot                                    
   LCOR   =        T    correct aug charges                                     
   LPAW   =        T    paw PP                                                  
   EAUG   =  400.000                                                            
   RMAX   =    1.123    core radius for proj-oper                               
   RAUG   =    1.200    factor for augmentation sphere                          
   RDEP   =    1.112    radius for radial grids                                 
   RDEPT  =    0.926    core radius for aug-charge                              
                                                                                
   Atomic configuration                                                         
    2 entries                                                                   
     n  l   j            E        occ.                                          
     1  0  0.50        -6.4927   1.0000                                         
     2  1  0.50        -3.4015   0.0000                                         
   Description                                                                  
     l       E           TYP  RCUT    TYP  RCUT                                 
     0     -6.4927494     23  1.100                                             
     0      6.8029130     23  1.100                                             
     1     -4.0817478     23  1.100                                             
  local pseudopotential read in
  atomic valenz-charges read in
  non local Contribution for L=           0  read in
    real space projection operators read in
  non local Contribution for L=           0  read in
    real space projection operators read in
  non local Contribution for L=           1  read in
    real space projection operators read in
    PAW grid and wavefunctions read in
 
   number of l-projection  operators is LMAX  =           3
   number of lm-projection operators is LMMAX =           5
 

 ----------------------------------------------------------------------------- 
|                                                                             |
|  ADVICE TO THIS USER RUNNING 'VASP/VAMP'   (HEAR YOUR MASTER'S VOICE ...):  |
|                                                                             |
|      You have a (more or less) 'large supercell' and for larger cells       |
|      it might be more efficient to use real space projection opertators     |
|      So try LREAL= Auto  in the INCAR   file.                               |
|      Mind:          For very  accurate calculation you might also keep the  |
|      reciprocal projection scheme          (i.e. LREAL=.FALSE.)             |
|                                                                             |
 ----------------------------------------------------------------------------- 


 ----------------------------------------------------------------------------- 
|                                                                             |
|  ADVICE TO THIS USER RUNNING 'VASP/VAMP'   (HEAR YOUR MASTER'S VOICE ...):  |
|                                                                             |
|      You enforced a specific xc-type in the INCAR file,                     |
|      a different type was found on the POTCAR file                          |
|          I HOPE YOU KNOW, WHAT YOU ARE  DOING                               |
|                                                                             |
 ----------------------------------------------------------------------------- 

  PAW_PBE Mn_pv 02Aug2007               :
 energy of atom  1       EATOM=-2025.2664
 kinetic energy error for atom=    0.0020 (will be added to EATOM!!)
  PAW_PBE F 08Apr2002                   :
 energy of atom  2       EATOM= -659.6475
 kinetic energy error for atom=    0.0140 (will be added to EATOM!!)
  PAW_PBE H 15Jun2001                   :
 energy of atom  3       EATOM=  -12.4884
 kinetic energy error for atom=    0.0002 (will be added to EATOM!!)
 
 
 POSCAR: Mn  F  H                                
  positions in direct lattice
  velocities in cartesian coordinates
 exchange correlation table for  LEXCH =       14
   RHO(1)=    0.500       N(1)  =     2000
   RHO(2)=  100.500       N(2)  =     4000
 


--------------------------------------------------------------------------------------------------------


 ion  position               nearest neighbor table
   1  0.200  0.200  0.125-  76 2.02  80 2.02  73 2.10  74 2.10  75 2.39  79 2.39
   2  0.994  0.994  1.000- 204 2.05 117 2.10 182 2.10 170 2.13 105 2.13  75 2.24
   3  0.166  0.166  0.381-  78 2.07  77 2.07  80 2.08  83 2.08  84 2.10
   4  0.994  0.994  0.250- 208 2.05 109 2.10 174 2.10 170 2.13 105 2.13  79 2.24
   5  0.167  0.167  0.625-  81 2.09  82 2.09  84 2.13  88 2.13  83 2.14  87 2.14
   6  0.999  0.999  0.500- 212 2.09  83 2.11 178 2.13 113 2.13 174 2.15 109 2.15
   7  0.166  0.166  0.869-  86 2.07  85 2.07  76 2.08  87 2.08  88 2.10
   8  0.999  0.999  0.750- 216 2.09  87 2.11 178 2.13 113 2.13 182 2.15 117 2.15
   9  0.165  0.498  0.125-  89 2.10  92 2.13  96 2.13  91 2.13  95 2.13  90 2.15
  10  0.001  0.333  0.001-  91 2.10 172 2.10 186 2.12 198 2.12  85 2.14  73 2.17
  11  0.167  0.501  0.375-  93 2.10  94 2.11 100 2.12  95 2.13  99 2.14  96 2.14
  12  0.001  0.333  0.249-  95 2.10 176 2.10 186 2.12 190 2.12  77 2.14  73 2.17
  13  0.166  0.500  0.625-  97 2.10  98 2.10 100 2.13 104 2.13 103 2.14  99 2.14
  14  1.000  0.333  0.500- 180 2.10  99 2.10 190 2.12 194 2.13  81 2.14  77 2.18
  15  0.167  0.501  0.875- 101 2.10 102 2.11 104 2.12  91 2.13 103 2.14  92 2.14
  16  1.000  0.333  0.750- 184 2.10 103 2.10 198 2.12 194 2.13  81 2.14  85 2.18
  17  0.165  0.831  0.125- 106 2.10 105 2.12 111 2.13 107 2.13 108 2.13 112 2.13
  18  1.000  0.666  0.000- 188 2.10 107 2.11 101 2.13 202 2.13 214 2.13  89 2.14
  19  0.167  0.834  0.375- 110 2.10 109 2.12 116 2.13 111 2.13 115 2.13 112 2.15
  20  1.000  0.666  0.250- 192 2.10 111 2.11  93 2.13 202 2.13 206 2.13  89 2.14
  21  0.166  0.833  0.625- 114 2.10 113 2.11 115 2.13 119 2.13 116 2.14 120 2.14
  22  0.000  0.667  0.500- 196 2.10 115 2.11 206 2.13 210 2.13  97 2.13  93 2.14
  23  0.167  0.834  0.875- 118 2.10 117 2.12 120 2.13 107 2.13 119 2.13 108 2.15
  24  0.000  0.667  0.750- 200 2.10 119 2.11 214 2.13 210 2.13  97 2.13 101 2.14
  25  0.498  0.165  0.125- 122 2.10 124 2.13 128 2.13 123 2.13 127 2.13 121 2.15
  26  0.333  0.001  0.001- 123 2.10 108 2.10 153 2.12 165 2.12  86 2.14  74 2.17
  27  0.501  0.167  0.375- 126 2.10 125 2.11 132 2.12 127 2.13 131 2.14 128 2.14
  28  0.333  0.001  0.249- 127 2.10 112 2.10 153 2.12 157 2.12  78 2.14  74 2.17
  29  0.500  0.166  0.625- 130 2.10 129 2.10 132 2.13 136 2.13 135 2.14 131 2.14
  30  0.333  1.000  0.500- 116 2.10 131 2.10 157 2.12 161 2.13  82 2.14  78 2.18
  31  0.501  0.167  0.875- 134 2.10 133 2.11 136 2.12 123 2.13 135 2.14 124 2.14
  32  0.333  1.000  0.750- 120 2.10 135 2.10 165 2.12 161 2.13  82 2.14  86 2.18
  33  0.504  0.504  0.125- 138 2.10 137 2.10 140 2.11 144 2.11 143 2.13 139 2.13
  34  0.338  0.338  0.996- 139 2.05 102 2.11 133 2.11  76 2.13  90 2.16 121 2.16
  35  0.501  0.501  0.376- 142 2.10 141 2.10 148 2.12 144 2.12 147 2.12 143 2.15
  36  0.338  0.338  0.254- 143 2.05  94 2.11 125 2.11  80 2.13  90 2.16 121 2.16
  37  0.501  0.501  0.625- 146 2.11 145 2.11 148 2.12 152 2.12 151 2.13 147 2.13
  38  0.334  0.334  0.501- 147 2.10  84 2.11 129 2.12  98 2.12 125 2.13  94 2.13
  39  0.501  0.501  0.874- 150 2.10 149 2.10 152 2.12 140 2.12 151 2.12 139 2.15
  40  0.334  0.334  0.749- 151 2.10  88 2.11 129 2.12  98 2.12 133 2.13 102 2.13
  41  0.499  0.833  0.125- 154 2.11 153 2.12 155 2.13 159 2.13 160 2.13 156 2.13
  42  0.333  0.666  0.000- 155 2.10  92 2.11 149 2.13 137 2.13 118 2.13 106 2.13
  43  0.500  0.834  0.375- 158 2.11 157 2.12 163 2.13 164 2.13 160 2.13 159 2.13
  44  0.333  0.666  0.250- 159 2.10  96 2.11 141 2.13 137 2.13 110 2.13 106 2.13
  45  0.500  0.834  0.625- 162 2.10 161 2.11 164 2.13 168 2.13 163 2.13 167 2.13
  46  0.333  0.667  0.500- 163 2.10 100 2.10 145 2.13 114 2.13 141 2.13 110 2.14
  47  0.500  0.834  0.875- 166 2.11 165 2.12 167 2.13 168 2.13 156 2.13 155 2.13
  48  0.333  0.667  0.750- 167 2.10 104 2.10 145 2.13 114 2.13 149 2.13 118 2.14
  49  0.831  0.165  0.125- 169 2.10 170 2.12 175 2.13 171 2.13 172 2.13 176 2.13
  50  0.666  0.999  0.000- 156 2.10 171 2.11 134 2.13 201 2.13 213 2.13 122 2.14
  51  0.834  0.167  0.375- 173 2.10 174 2.12 180 2.13 175 2.13 179 2.13 176 2.15
  52  0.666  0.999  0.250- 160 2.10 175 2.11 126 2.13 201 2.13 205 2.13 122 2.14
  53  0.833  0.166  0.625- 177 2.10 178 2.11 179 2.13 183 2.13 180 2.14 184 2.14
  54  0.667  1.000  0.500- 164 2.10 179 2.11 205 2.13 209 2.13 130 2.13 126 2.14
  55  0.834  0.167  0.875- 181 2.10 182 2.12 184 2.13 171 2.13 183 2.13 172 2.15
  56  0.667  1.000  0.750- 168 2.10 183 2.11 213 2.13 209 2.13 130 2.13 134 2.14
  57  0.833  0.499  0.125- 185 2.11 186 2.12 187 2.13 191 2.13 192 2.13 188 2.13
  58  0.666  0.333  0.000- 187 2.10 124 2.11 150 2.13 138 2.13 181 2.13 169 2.13
  59  0.834  0.500  0.375- 189 2.11 190 2.12 195 2.13 196 2.13 192 2.13 191 2.13
  60  0.666  0.333  0.250- 191 2.10 128 2.11 142 2.13 138 2.13 173 2.13 169 2.13
  61  0.834  0.500  0.625- 193 2.10 194 2.11 196 2.13 200 2.13 195 2.13 199 2.13
  62  0.667  0.333  0.500- 195 2.10 132 2.10 146 2.13 177 2.13 142 2.13 173 2.14
  63  0.834  0.500  0.875- 197 2.11 198 2.12 199 2.13 200 2.13 188 2.13 187 2.13
  64  0.667  0.333  0.750- 199 2.10 136 2.10 146 2.13 177 2.13 150 2.13 181 2.14
  65  0.831  0.830  0.125- 201 2.11 202 2.11 203 2.11 207 2.11 208 2.13 204 2.13
  66  0.666  0.666  1.000- 203 2.08 140 2.08 197 2.14 166 2.14 154 2.14 185 2.14
  67  0.830  0.830  0.376- 205 2.10 206 2.10 211 2.11 207 2.12 208 2.13 212 2.14
  68  0.666  0.666  0.251- 207 2.08 144 2.08 189 2.14 158 2.14 154 2.14 185 2.14
  69  0.834  0.834  0.625- 210 2.10 209 2.10 215 2.13 211 2.13 212 2.14 216 2.14
  70  0.667  0.666  0.500- 148 2.09 211 2.10 162 2.13 193 2.13 158 2.13 189 2.13
  71  0.830  0.830  0.874- 213 2.10 214 2.10 215 2.11 203 2.12 204 2.13 216 2.14
  72  0.667  0.666  0.750- 152 2.09 215 2.10 162 2.13 193 2.13 197 2.13 166 2.13
  73  0.078  0.274  0.125-   1 2.10  12 2.17  10 2.17
  74  0.274  0.077  0.125-   1 2.10  28 2.17  26 2.17
  75  0.099  0.099  0.037- 217 1.16   2 2.24   1 2.39
  76  0.236  0.236  0.983-   1 2.02   7 2.08  34 2.13
  77  0.063  0.262  0.373-   3 2.07  12 2.14  14 2.18
  78  0.262  0.063  0.373-   3 2.07  28 2.14  30 2.18
  79  0.099  0.099  0.213- 217 1.16   4 2.24   1 2.39
  80  0.236  0.236  0.267-   1 2.02   3 2.08  36 2.13
  81  0.065  0.267  0.625-   5 2.09  14 2.14  16 2.14
  82  0.268  0.065  0.625-   5 2.09  30 2.14  32 2.14
  83  0.101  0.101  0.501-   3 2.08   6 2.11   5 2.14
  84  0.232  0.232  0.501-   3 2.10  38 2.11   5 2.13
  85  0.063  0.262  0.877-   7 2.07  10 2.14  16 2.18
  86  0.262  0.063  0.877-   7 2.07  26 2.14  32 2.18
  87  0.101  0.101  0.749-   7 2.08   8 2.11   5 2.14
  88  0.232  0.232  0.749-   7 2.10  40 2.11   5 2.13
  89  0.066  0.601  0.125-   9 2.10  18 2.14  20 2.14
  90  0.261  0.386  0.125-   9 2.15  36 2.16  34 2.16
  91  0.102  0.434  0.998-  10 2.10   9 2.13  15 2.13
  92  0.234  0.562  0.002-  42 2.11   9 2.13  15 2.14
  93  0.066  0.602  0.375-  11 2.10  20 2.13  22 2.14
  94  0.271  0.402  0.376-  11 2.11  36 2.11  38 2.13
  95  0.102  0.434  0.252-  12 2.10   9 2.13  11 2.13
  96  0.234  0.562  0.248-  44 2.11   9 2.13  11 2.14
  97  0.065  0.602  0.625-  13 2.10  24 2.13  22 2.13
  98  0.268  0.399  0.625-  13 2.10  38 2.12  40 2.12
  99  0.103  0.433  0.499-  14 2.10  11 2.14  13 2.14
 100  0.231  0.566  0.501-  46 2.10  11 2.12  13 2.13
 101  0.066  0.602  0.875-  15 2.10  18 2.13  24 2.14
 102  0.271  0.402  0.874-  15 2.11  34 2.11  40 2.13
 103  0.103  0.433  0.751-  16 2.10  15 2.14  13 2.14
 104  0.231  0.566  0.749-  48 2.10  15 2.12  13 2.13
 105  0.060  0.930  0.125-  17 2.12   4 2.13   2 2.13
 106  0.267  0.731  0.125-  17 2.10  44 2.13  42 2.13
 107  0.101  0.769  0.999-  18 2.11  17 2.13  23 2.13
 108  0.230  0.901  0.002-  26 2.10  17 2.13  23 2.15
 109  0.067  0.939  0.373-   4 2.10  19 2.12   6 2.15
 110  0.268  0.732  0.374-  19 2.10  44 2.13  46 2.14
 111  0.101  0.769  0.251-  20 2.11  17 2.13  19 2.13
 112  0.230  0.901  0.248-  28 2.10  17 2.13  19 2.15
 113  0.064  0.935  0.625-  21 2.11   6 2.13   8 2.13
 114  0.268  0.732  0.625-  21 2.10  48 2.13  46 2.13
 115  0.100  0.770  0.499-  22 2.11  19 2.13  21 2.13
 116  0.231  0.899  0.500-  30 2.10  19 2.13  21 2.14
 117  0.067  0.939  0.877-   2 2.10  23 2.12   8 2.15
 118  0.268  0.732  0.876-  23 2.10  42 2.13  48 2.14
 119  0.100  0.770  0.751-  24 2.11  23 2.13  21 2.13
 120  0.231  0.899  0.750-  32 2.10  23 2.13  21 2.14
 121  0.387  0.261  0.125-  25 2.15  36 2.16  34 2.16
 122  0.601  0.066  0.125-  25 2.10  50 2.14  52 2.14
 123  0.434  0.102  0.998-  26 2.10  25 2.13  31 2.13
 124  0.562  0.234  0.002-  58 2.11  25 2.13  31 2.14
 125  0.402  0.271  0.376-  27 2.11  36 2.11  38 2.13
 126  0.602  0.066  0.375-  27 2.10  52 2.13  54 2.14
 127  0.434  0.102  0.252-  28 2.10  25 2.13  27 2.13
 128  0.562  0.234  0.248-  60 2.11  25 2.13  27 2.14
 129  0.399  0.268  0.625-  29 2.10  38 2.12  40 2.12
 130  0.602  0.065  0.625-  29 2.10  56 2.13  54 2.13
 131  0.433  0.103  0.499-  30 2.10  27 2.14  29 2.14
 132  0.566  0.231  0.501-  62 2.10  27 2.12  29 2.13
 133  0.402  0.271  0.874-  31 2.11  34 2.11  40 2.13
 134  0.602  0.066  0.875-  31 2.10  50 2.13  56 2.14
 135  0.433  0.103  0.751-  32 2.10  31 2.14  29 2.14
 136  0.566  0.231  0.749-  64 2.10  31 2.12  29 2.13
 137  0.400  0.603  0.125-  33 2.10  44 2.13  42 2.13
 138  0.603  0.400  0.125-  33 2.10  60 2.13  58 2.13
 139  0.437  0.437  0.003-  34 2.05  33 2.13  39 2.15
 140  0.566  0.566  0.998-  66 2.08  33 2.11  39 2.12
 141  0.398  0.601  0.375-  35 2.10  44 2.13  46 2.13
 142  0.601  0.398  0.375-  35 2.10  60 2.13  62 2.13
 143  0.437  0.437  0.247-  36 2.05  33 2.13  35 2.15
 144  0.566  0.566  0.252-  68 2.08  33 2.11  35 2.12
 145  0.399  0.602  0.625-  37 2.11  46 2.13  48 2.13
 146  0.602  0.399  0.625-  37 2.11  62 2.13  64 2.13
 147  0.436  0.435  0.501-  38 2.10  35 2.12  37 2.13
 148  0.565  0.565  0.500-  70 2.09  35 2.12  37 2.12
 149  0.398  0.601  0.875-  39 2.10  42 2.13  48 2.13
 150  0.601  0.398  0.875-  39 2.10  58 2.13  64 2.13
 151  0.436  0.435  0.749-  40 2.10  39 2.12  37 2.13
 152  0.565  0.565  0.750-  72 2.09  39 2.12  37 2.12
 153  0.397  0.936  0.125-  28 2.12  26 2.12  41 2.12
 154  0.600  0.731  0.125-  41 2.11  68 2.14  66 2.14
 155  0.434  0.769  1.000-  42 2.10  41 2.13  47 2.13
 156  0.564  0.899  0.000-  50 2.10  41 2.13  47 2.13
 157  0.397  0.935  0.374-  43 2.12  30 2.12  28 2.12
 158  0.602  0.732  0.376-  43 2.11  70 2.13  68 2.14
 159  0.434  0.769  0.250-  44 2.10  41 2.13  43 2.13
 160  0.564  0.899  0.250-  52 2.10  41 2.13  43 2.13
 161  0.398  0.936  0.625-  45 2.11  32 2.13  30 2.13
 162  0.601  0.732  0.625-  45 2.10  72 2.13  70 2.13
 163  0.434  0.769  0.500-  46 2.10  43 2.13  45 2.13
 164  0.564  0.899  0.500-  54 2.10  43 2.13  45 2.13
 165  0.397  0.935  0.876-  47 2.12  32 2.12  26 2.12
 166  0.602  0.732  0.875-  47 2.11  72 2.13  66 2.14
 167  0.434  0.769  0.750-  48 2.10  47 2.13  45 2.13
 168  0.564  0.899  0.750-  56 2.10  47 2.13  45 2.13
 169  0.731  0.267  0.125-  49 2.10  60 2.13  58 2.13
 170  0.930  0.060  0.125-  49 2.12   4 2.13   2 2.13
 171  0.769  0.100  0.999-  50 2.11  49 2.13  55 2.13
 172  0.901  0.230  0.002-  10 2.10  49 2.13  55 2.15
 173  0.732  0.268  0.374-  51 2.10  60 2.13  62 2.14
 174  0.939  0.067  0.373-   4 2.10  51 2.12   6 2.15
 175  0.769  0.100  0.251-  52 2.11  49 2.13  51 2.13
 176  0.901  0.230  0.248-  12 2.10  49 2.13  51 2.15
 177  0.732  0.268  0.625-  53 2.10  64 2.13  62 2.13
 178  0.935  0.064  0.625-  53 2.11   6 2.13   8 2.13
 179  0.770  0.100  0.499-  54 2.11  51 2.13  53 2.13
 180  0.899  0.231  0.500-  14 2.10  51 2.13  53 2.14
 181  0.732  0.268  0.876-  55 2.10  58 2.13  64 2.14
 182  0.939  0.067  0.877-   2 2.10  55 2.12   8 2.15
 183  0.770  0.100  0.751-  56 2.11  55 2.13  53 2.13
 184  0.899  0.231  0.750-  16 2.10  55 2.13  53 2.14
 185  0.731  0.600  0.125-  57 2.11  68 2.14  66 2.14
 186  0.936  0.397  0.125-  12 2.12  10 2.12  57 2.12
 187  0.769  0.434  1.000-  58 2.10  57 2.13  63 2.13
 188  0.899  0.564  0.000-  18 2.10  57 2.13  63 2.13
 189  0.733  0.602  0.376-  59 2.11  70 2.13  68 2.14
 190  0.936  0.397  0.374-  59 2.12  14 2.12  12 2.12
 191  0.769  0.434  0.250-  60 2.10  57 2.13  59 2.13
 192  0.899  0.564  0.250-  20 2.10  57 2.13  59 2.13
 193  0.732  0.601  0.625-  61 2.10  72 2.13  70 2.13
 194  0.936  0.398  0.625-  61 2.11  16 2.13  14 2.13
 195  0.769  0.434  0.500-  62 2.10  59 2.13  61 2.13
 196  0.899  0.564  0.500-  22 2.10  59 2.13  61 2.13
 197  0.733  0.602  0.875-  63 2.11  72 2.13  66 2.14
 198  0.936  0.397  0.876-  63 2.12  16 2.12  10 2.12
 199  0.769  0.434  0.750-  64 2.10  63 2.13  61 2.13
 200  0.899  0.564  0.750-  24 2.10  63 2.13  61 2.13
 201  0.731  0.934  0.125-  65 2.11  52 2.13  50 2.13
 202  0.934  0.731  0.125-  65 2.11  20 2.13  18 2.13
 203  0.767  0.767  1.000-  66 2.08  65 2.11  71 2.12
 204  0.895  0.895  0.999-   2 2.05  71 2.13  65 2.13
 205  0.731  0.934  0.375-  67 2.10  54 2.13  52 2.13
 206  0.934  0.731  0.375-  67 2.10  22 2.13  20 2.13
 207  0.767  0.767  0.250-  68 2.08  65 2.11  67 2.12
 208  0.895  0.895  0.251-   4 2.05  67 2.13  65 2.13
 209  0.733  0.935  0.625-  69 2.10  56 2.13  54 2.13
 210  0.936  0.733  0.625-  69 2.10  24 2.13  22 2.13
 211  0.768  0.768  0.502-  70 2.10  67 2.11  69 2.13
 212  0.898  0.898  0.498-   6 2.09  69 2.14  67 2.14
 213  0.731  0.934  0.875-  71 2.10  56 2.13  50 2.13
 214  0.934  0.731  0.875-  71 2.10  24 2.13  18 2.13
 215  0.768  0.768  0.748-  72 2.10  71 2.11  69 2.13
 216  0.898  0.898  0.752-   8 2.09  69 2.14  71 2.14
 217  0.093  0.093  0.125-  75 1.16  79 1.16
 

IMPORTANT INFORMATION: All symmetrisations will be switched off!
NOSYMM: (Re-)initialisation of all symmetry stuff for point group C_1.

 
 
 KPOINTS: KPOINTS created by Atomic Simulation Env

Automatic generation of k-mesh.
Space group operators:
 irot       det(A)        alpha          n_x          n_y          n_z        tau_x        tau_y        tau_z
    1     1.000000     0.000000     1.000000     0.000000     0.000000     0.000000     0.000000     0.000000
 
 Subroutine IBZKPT returns following result:
 ===========================================
 
 Found      4 irreducible k-points:
 
 Following reciprocal coordinates:
            Coordinates               Weight
  0.250000  0.250000  0.250000      2.000000
 -0.250000  0.250000  0.250000      2.000000
  0.250000 -0.250000  0.250000      2.000000
 -0.250000 -0.250000  0.250000      2.000000
 
 Following cartesian coordinates:
            Coordinates               Weight
  0.017066  0.017066  0.018935      2.000000
 -0.017066  0.017066  0.018935      2.000000
  0.017066 -0.017066  0.018935      2.000000
 -0.017066 -0.017066  0.018935      2.000000
 


--------------------------------------------------------------------------------------------------------




 Dimension of arrays:
   k-points           NKPTS =      4   k-points in BZ     NKDIM =      4   number of bands    NBANDS=   1168
   number of dos      NEDOS =    301   number of ions     NIONS =    217
   non local maximal  LDIM  =      6   non local SUM 2l+1 LMDIM =     18
   total plane-waves  NPLWV = 829440
   max r-space proj   IRMAX =      1   max aug-charges    IRDMAX=  71248
   dimension x,y,z NGX =    96 NGY =   96 NGZ =   90
   dimension x,y,z NGXF=   192 NGYF=  192 NGZF=  180
   support grid    NGXF=   384 NGYF=  384 NGZF=  360
   ions per type =              72 144   1
   NGX,Y,Z   is equivalent  to a cutoff of  10.89, 10.89, 11.33 a.u.
   NGXF,Y,Z  is equivalent  to a cutoff of  21.79, 21.79, 22.66 a.u.

 SYSTEM =  unknown system                          
 POSCAR =  Mn  F  H                                

 Startparameter for this run:
   NWRITE =      2    write-flag & timer
   PREC   = normal    normal or accurate (medium, high low for compatibility)
   ISTART =      1    job   : 0-new  1-cont  2-samecut
   ICHARG =      0    charge: 1-file 2-atom 10-const
   ISPIN  =      2    spin polarized calculation?
   LNONCOLLINEAR =      F non collinear calculations
   LSORBIT =      F    spin-orbit coupling
   INIWAV =      1    electr: 0-lowe 1-rand  2-diag
   LASPH  =      T    aspherical Exc in radial PAW
   METAGGA=      F    non-selfconsistent MetaGGA calc.

 Electronic Relaxation 1
   ENCUT  =  700.0 eV  51.45 Ry    7.17 a.u.  31.60 31.60 28.48*2*pi/ulx,y,z
   ENINI  =  700.0     initial cutoff
   ENAUG  =  613.6 eV  augmentation charge cutoff
   NELM   =     60;   NELMIN=  2; NELMDL=  0     # of ELM steps 
   EDIFF  = 0.1E-07   stopping-criterion for ELM
   LREAL  =      F    real-space projection
   NLSPLINE    = F    spline interpolate recip. space projectors
   LCOMPAT=      F    compatible to vasp.4.4
   GGA_COMPAT  = T    GGA compatible to vasp.4.4-vasp.4.6
   LMAXPAW     = -100 max onsite density
   LMAXMIX     =    4 max onsite mixed and CHGCAR
   VOSKOWN=      0    Vosko Wilk Nusair interpolation
   ROPT   =    0.00000   0.00000   0.00000
 Ionic relaxation
   EDIFFG = -.5E-02   stopping-criterion for IOM
   NSW    =      0    number of steps for IOM
   NBLOCK =      1;   KBLOCK =      1    inner block; outer block 
   IBRION =     -1    ionic relax: 0-MD 1-quasi-New 2-CG
   NFREE  =      0    steps in history (QN), initial steepest desc. (CG)
   ISIF   =      0    stress and relaxation
   IWAVPR =     10    prediction:  0-non 1-charg 2-wave 3-comb
   ISYM   =      0    0-nonsym 1-usesym 2-fastsym
   LCORR  =      T    Harris-Foulkes like correction to forces

   POTIM  = 0.2000    time-step for ionic-motion
   TEIN   =    0.0    initial temperature
   TEBEG  =    0.0;   TEEND  =   0.0 temperature during run
   SMASS  =  -3.00    Nose mass-parameter (am)
   estimated Nose-frequenzy (Omega)   =  0.10E-29 period in steps =****** mass=  -0.490E-26a.u.
   SCALEE = 1.0000    scale energy and forces
   NPACO  =    256;   APACO  = 16.0  distance and # of slots for P.C.
   PSTRESS=    0.0 pullay stress

  Mass of Ions in am
   POMASS =  54.94 19.00  1.00
  Ionic Valenz
   ZVAL   =  13.00  7.00  1.00
  Atomic Wigner-Seitz radii
   RWIGS  =  -1.00 -1.00 -1.00
  virtual crystal weights 
   VCA    =   1.00  1.00  1.00
   NELECT =    1944.0000    total number of electrons
   NUPDOWN=      -1.0000    fix difference up-down

 DOS related values:
   EMIN   =  10.00;   EMAX   =-10.00  energy-range for DOS
   EFERMI =   0.00
   ISMEAR =     0;   SIGMA  =   0.01  broadening in eV -4-tet -1-fermi 0-gaus

 Electronic relaxation 2 (details)
   IALGO  =     68    algorithm
   LDIAG  =      T    sub-space diagonalisation (order eigenvalues)
   LSUBROT=      F    optimize rotation matrix (better conditioning)
   TURBO    =      0    0=normal 1=particle mesh
   IRESTART =      0    0=no restart 2=restart with 2 vectors
   NREBOOT  =      0    no. of reboots
   NMIN     =      0    reboot dimension
   EREF     =   0.00    reference energy to select bands
   IMIX   =      4    mixing-type and parameters
     AMIX     =   0.40;   BMIX     =  1.00
     AMIX_MAG =   1.60;   BMIX_MAG =  1.00
     AMIN     =   0.10
     WC   =   100.;   INIMIX=   1;  MIXPRE=   1;  MAXMIX= -45

 Intra band minimization:
   WEIMIN = 0.0000     energy-eigenvalue tresh-hold
   EBREAK =  0.21E-11  absolut break condition
   DEPER  =   0.30     relativ break condition  

   TIME   =   0.40     timestep for ELM

  volume/ion in A,a.u.               =      13.06        88.12
  Fermi-wavevector in a.u.,A,eV,Ry     =   1.443888  2.728552 28.365585  2.084812
  Thomas-Fermi vector in A             =   2.562245
 
 Write flags
   LWAVE        =      T    write WAVECAR
   LDOWNSAMPLE  =      F    k-point downsampling of WAVECAR
   LCHARG       =      T    write CHGCAR
   LVTOT        =      F    write LOCPOT, total local potential
   LVHAR        =      F    write LOCPOT, Hartree potential only
   LELF         =      F    write electronic localiz. function (ELF)
   LORBIT       =     11    0 simple, 1 ext, 2 COOP (PROOUT), +10 PAW based schemes


 Dipole corrections
   LMONO  =      F    monopole corrections only (constant potential shift)
   LDIPOL =      F    correct potential (dipole corrections)
   IDIPOL =      0    1-x, 2-y, 3-z, 4-all directions 
   EPSILON=  1.0000000 bulk dielectric constant

 LDA+U is selected, type is set to LDAUTYPE =  2
   angular momentum for each species LDAUL =     2   -1   -1
   U (eV)           for each species LDAUU =   4.0  0.0  0.0
   J (eV)           for each species LDAUJ =   0.0  0.0  0.0
 Exchange correlation treatment:
   GGA     =    PS    GGA type
   LEXCH   =    14    internal setting for exchange type
   VOSKOWN=      0    Vosko Wilk Nusair interpolation
   LHFCALC =     F    Hartree Fock is set to
   LHFONE  =     F    Hartree Fock one center treatment
   AEXX    =    0.0000 exact exchange contribution

 Linear response parameters
   LEPSILON=     F    determine dielectric tensor
   LRPA    =     F    only Hartree local field effects (RPA)
   LNABLA  =     F    use nabla operator in PAW spheres
   LVEL    =     F    velocity operator in full k-point grid
   LINTERFAST=   F  fast interpolation
   KINTER  =     0    interpolate to denser k-point grid
   CSHIFT  =0.1000    complex shift for real part using Kramers Kronig
   OMEGAMAX=  -1.0    maximum frequency
   DEG_THRESHOLD= 0.2000000E-02 threshold for treating states as degnerate
   RTIME   =   -0.100 relaxation time in fs
  (WPLASMAI=    0.000 imaginary part of plasma frequency in eV, 0.658/RTIME)
   DFIELD  = 0.0000000 0.0000000 0.0000000 field for delta impulse in time
 
 Orbital magnetization related:
   ORBITALMAG=     F  switch on orbital magnetization
   LCHIMAG   =     F  perturbation theory with respect to B field
   DQ        =  0.001000  dq finite difference perturbation B field
   LLRAUG    =     F  two centre corrections for induced B field



--------------------------------------------------------------------------------------------------------


 Static calculation
 charge density and potential will be updated during run
 spin polarized calculation
 RMM-DIIS sequential band-by-band and
  variant of blocked Davidson during initial phase
 perform sub-space diagonalisation
    before iterative eigenvector-optimisation
 modified Broyden-mixing scheme, WC =      100.0
 initial mixing is a Kerker type mixing with AMIX =  0.4000 and BMIX =      1.0000
 Hartree-type preconditioning will be used
 using additional bands          196
 reciprocal scheme for non local part
 use partial core corrections
 calculate Harris-corrections to forces 
   (improved forces if not selfconsistent)
 use gradient corrections 
 use of overlap-Matrix (Vanderbilt PP)
 Gauss-broadening in eV      SIGMA  =   0.01


--------------------------------------------------------------------------------------------------------


  energy-cutoff  :      700.00
  volume of cell :     2833.48
      direct lattice vectors                 reciprocal lattice vectors
    14.649432430  0.000000000  0.000000000     0.068262030  0.000000000  0.000000000
     0.000000000 14.649432430  0.000000000     0.000000000  0.068262030  0.000000000
     0.000000000  0.000000000 13.203190708     0.000000000  0.000000000  0.075739268

  length of vectors
    14.649432430 14.649432430 13.203190708     0.068262030  0.068262030  0.075739268


 
 old parameters found on file WAVECAR:
  energy-cutoff  :      700.00
  volume of cell :     2833.48
      direct lattice vectors                 reciprocal lattice vectors
    14.649432430  0.000000000  0.000000000     0.068262030  0.000000000  0.000000000
     0.000000000 14.649432430  0.000000000     0.000000000  0.068262030  0.000000000
     0.000000000  0.000000000 13.203190708     0.000000000  0.000000000  0.075739268

  length of vectors

 
 k-points in units of 2pi/SCALE and weight: KPOINTS created by Atomic Simulation Env
   0.01706551  0.01706551  0.01893482       0.250
  -0.01706551  0.01706551  0.01893482       0.250
   0.01706551 -0.01706551  0.01893482       0.250
  -0.01706551 -0.01706551  0.01893482       0.250
 
 k-points in reciprocal lattice and weights: KPOINTS created by Atomic Simulation Env
   0.25000000  0.25000000  0.25000000       0.250
  -0.25000000  0.25000000  0.25000000       0.250
   0.25000000 -0.25000000  0.25000000       0.250
  -0.25000000 -0.25000000  0.25000000       0.250
 
 position of ions in fractional coordinates (direct lattice) 
   0.20023371  0.20015651  0.12501971
   0.99400744  0.99393257  0.99993651
   0.16612281  0.16604633  0.38061887
   0.99400563  0.99393102  0.25011830
   0.16694876  0.16687435  0.62501728
   0.99920168  0.99912660  0.50009902
   0.16613159  0.16605506  0.86941179
   0.99920362  0.99912870  0.74995260
   0.16546153  0.49781953  0.12502232
   0.00060013  0.33276015  0.00060502
   0.16738463  0.50124906  0.37543815
   0.00059950  0.33276081  0.24944160
   0.16589470  0.49955611  0.62502257
   0.99990117  0.33288410  0.49988202
   0.16738471  0.50124852  0.87460693
   0.99990114  0.33288408  0.75016396
   0.16542960  0.83135034  0.12502446
   0.99955356  0.66611729  0.00001730
   0.16736171  0.83402819  0.37456247
   0.99955321  0.66611699  0.25002972
   0.16607856  0.83293554  0.62502421
   0.00004781  0.66678419  0.49996462
   0.16736164  0.83402954  0.87548622
   0.00004802  0.66678458  0.75008285
   0.49789486  0.16538546  0.12502231
   0.33283576  0.00052258  0.00060487
   0.50132392  0.16730894  0.37543822
   0.33283656  0.00052180  0.24944180
   0.49963047  0.16581726  0.62502254
   0.33295775  0.99982452  0.49988215
   0.50132341  0.16730899  0.87460679
   0.33295796  0.99982427  0.75016383
   0.50445368  0.50437646  0.12502261
   0.33844715  0.33837205  0.99637999
   0.50058913  0.50051319  0.37622803
   0.33844661  0.33837165  0.25366200
   0.50075822  0.50068338  0.62502240
   0.33435607  0.33427948  0.50108592
   0.50059119  0.50051523  0.87381781
   0.33435893  0.33428244  0.74895468
   0.49911063  0.83292272  0.12502351
   0.33339162  0.66614364  0.00007977
   0.49962269  0.83372065  0.37511767
   0.33339180  0.66614332  0.24996764
   0.49973328  0.83354849  0.62502357
   0.33318087  0.66695656  0.50016730
   0.49962249  0.83372110  0.87492949
   0.33318085  0.66695676  0.74988050
   0.83142582  0.16535378  0.12502444
   0.66619176  0.99947977  0.00001652
   0.83410566  0.16728865  0.37456289
   0.66619142  0.99947949  0.25003043
   0.83300990  0.16600293  0.62502420
   0.66685915  0.99997183  0.49996482
   0.83410702  0.16728851  0.87548578
   0.66685948  0.99997207  0.75008255
   0.83299802  0.49903392  0.12502348
   0.66621995  0.33331548  0.00007928
   0.83379646  0.49954737  0.37511808
   0.66621950  0.33331581  0.24996797
   0.83362363  0.49965797  0.62502358
   0.66703108  0.33310575  0.50016759
   0.83379693  0.49954718  0.87492908
   0.66703120  0.33310583  0.74988007
   0.83051124  0.83043919  0.12502379
   0.66643080  0.66635511  0.99951126
   0.83040695  0.83033334  0.37631945
   0.66642994  0.66635403  0.25053562
   0.83422638  0.83415126  0.62502400
   0.66657315  0.66649858  0.50044004
   0.83040875  0.83033513  0.87372837
   0.66657404  0.66649927  0.74960703
   0.07757377  0.27391339  0.12502398
   0.27398828  0.07749516  0.12502409
   0.09945104  0.09937649  0.03745826
   0.23588791  0.23580944  0.98289599
   0.06329613  0.26225276  0.37318701
   0.26232839  0.06321901  0.37318645
   0.09945207  0.09937773  0.21262712
   0.23588826  0.23581001  0.26714625
   0.06532918  0.26748335  0.62502275
   0.26755465  0.06525121  0.62502289
   0.10097390  0.10089687  0.50066111
   0.23235527  0.23228188  0.50102141
   0.06329782  0.26225197  0.87685858
   0.26232765  0.06322068  0.87685894
   0.10097617  0.10089935  0.74937961
   0.23235860  0.23228543  0.74901011
   0.06591926  0.60133481  0.12502344
   0.26112764  0.38648436  0.12502119
   0.10193203  0.43410760  0.99824210
   0.23395633  0.56184144  0.00206499
   0.06585734  0.60208178  0.37481103
   0.27104233  0.40157150  0.37637949
   0.10193155  0.43410841  0.25180290
   0.23395583  0.56184197  0.24797999
   0.06509297  0.60152458  0.62502398
   0.26809055  0.39864627  0.62502019
   0.10265233  0.43285189  0.49901480
   0.23105821  0.56589846  0.50081357
   0.06585791  0.60208215  0.87523599
   0.27104164  0.40157003  0.87366209
   0.10265248  0.43285155  0.75102997
   0.23105915  0.56589765  0.74923207
   0.05958387  0.93007177  0.12502765
   0.26730509  0.73077181  0.12502393
   0.10054185  0.76870546  0.99897119
   0.22985962  0.90073889  0.00240858
   0.06749249  0.93899081  0.37268651
   0.26758496  0.73153303  0.37427136
   0.10054249  0.76870386  0.25107713
   0.22986032  0.90073777  0.24764068
   0.06444862  0.93475514  0.62502569
   0.26766254  0.73210746  0.62502411
   0.10049379  0.76983527  0.49893198
   0.23116141  0.89897972  0.50005145
   0.06749522  0.93899566  0.87736654
   0.26758453  0.73153355  0.87577634
   0.10049333  0.76983649  0.75111708
   0.23116136  0.89898014  0.74999683
   0.38656167  0.26105234  0.12502125
   0.60140981  0.06584399  0.12502338
   0.43418267  0.10185557  0.99824199
   0.56192037  0.23387747  0.00206465
   0.40164837  0.27096779  0.37637880
   0.60215620  0.06578203  0.37481249
   0.43418362  0.10185494  0.25180298
   0.56192086  0.23387703  0.24798028
   0.39872337  0.26801562  0.62502025
   0.60159831  0.06501589  0.62502389
   0.43292365  0.10257780  0.49901459
   0.56597272  0.23098269  0.50081428
   0.40164691  0.27096706  0.87366263
   0.60215656  0.06578256  0.87523450
   0.43292357  0.10257767  0.75103013
   0.56597187  0.23098367  0.74923127
   0.40018879  0.60278680  0.12502361
   0.60286314  0.40011107  0.12502347
   0.43729033  0.43721089  0.00264058
   0.56586257  0.56578723  0.99771563
   0.39799040  0.60105593  0.37521258
   0.60113163  0.39791452  0.37521253
   0.43728957  0.43721017  0.24740359
   0.56586175  0.56578620  0.25233094
   0.39869404  0.60208792  0.62502385
   0.60216304  0.39861963  0.62502372
   0.43550844  0.43543213  0.50055260
   0.56546003  0.56538579  0.50016604
   0.39799125  0.60105696  0.87483476
   0.60113266  0.39791531  0.87483481
   0.43551016  0.43543385  0.74949354
   0.56546090  0.56538647  0.74987881
   0.39680215  0.93560679  0.12502334
   0.60044428  0.73084304  0.12502362
   0.43384756  0.76877059  0.99975320
   0.56378913  0.89896951  0.00045904
   0.39687680  0.93547089  0.37449812
   0.60168416  0.73245618  0.37553083
   0.43384754  0.76877031  0.25029403
   0.56378896  0.89896927  0.24958798
   0.39816438  0.93568463  0.62502312
   0.60073967  0.73163557  0.62502371
   0.43389960  0.76915682  0.49981332
   0.56435294  0.89932280  0.49997214
   0.39687610  0.93547139  0.87554896
   0.60168427  0.73245654  0.87451590
   0.43389910  0.76915760  0.75023403
   0.56435270  0.89932339  0.75007522
   0.73085052  0.26723157  0.12502397
   0.93014550  0.05950740  0.12502750
   0.76878132  0.10046752  0.99896965
   0.90081626  0.22978463  0.00240970
   0.73161073  0.26751163  0.37427226
   0.93906899  0.06742066  0.37268689
   0.76877982  0.10046808  0.25107863
   0.90081533  0.22978514  0.24763953
   0.73218198  0.26758728  0.62502412
   0.93483052  0.06437380  0.62502561
   0.76991065  0.10041856  0.49893104
   0.89905625  0.23108729  0.50005320
   0.73161128  0.26751118  0.87577518
   0.93907382  0.06742328  0.87736637
   0.76991192  0.10041803  0.75111796
   0.89905692  0.23108698  0.74999509
   0.73091670  0.60036630  0.12502346
   0.93568416  0.39672716  0.12502341
   0.76884478  0.43377392  0.99975241
   0.89904545  0.56371304  0.00045933
   0.73253074  0.60160831  0.37553163
   0.93554716  0.39680128  0.37449729
   0.76884432  0.43377410  0.25029476
   0.89904501  0.56371304  0.24958766
   0.73170926  0.60066332  0.62502359
   0.93575997  0.39808956  0.62502326
   0.76923115  0.43382554  0.49981323
   0.89940018  0.56427672  0.49997223
   0.73253111  0.60160845  0.87451534
   0.93554771  0.39680060  0.87554953
   0.76923172  0.43382526  0.75023412
   0.89940063  0.56427666  0.75007514
   0.73107649  0.93418579  0.12502361
   0.93425950  0.73100460  0.12502361
   0.76687593  0.76680296  0.99988397
   0.89487899  0.89480929  0.99895131
   0.73069676  0.93361821  0.37500297
   0.93369328  0.73062389  0.37500295
   0.76687513  0.76680189  0.25016290
   0.89487753  0.89480801  0.25109748
   0.73266580  0.93549114  0.62502390
   0.93556717  0.73259167  0.62502392
   0.76783501  0.76776267  0.50221055
   0.89838334  0.89830896  0.49818469
   0.73069770  0.93361890  0.87504424
   0.93369393  0.73062479  0.87504439
   0.76783591  0.76776344  0.74783786
   0.89838477  0.89831044  0.75186298
   0.09320229  0.09312885  0.12503647
 
 position of ions in cartesian coordinates  (Angst):
   2.93331015  2.93217925  1.65065911
  14.56164482 14.56054803 13.20235250
   2.43360493  2.43248451  5.02538348
  14.56161829 14.56052531  3.30235959
   2.44570454  2.44461459  8.25222232
  14.63773743 14.63663767  6.60290275
   2.43373347  2.43261244 11.47900972
  14.63776596 14.63666842  9.90176720
   2.42391755  7.29277363  1.65069350
   0.00879153  4.87474739  0.00798823
   2.45208989  7.34301422  4.95698149
   0.00878231  4.87475702  3.29342495
   2.43026326  7.31821349  8.25229219
  14.64798462  4.87656313  6.60003763
   2.45209097  7.34300634 11.54760205
  14.64798423  4.87656289  9.90455784
   2.42344981 12.17881065  1.65072173
  14.64289236  9.75824025  0.00022841
   2.45175400 12.21803963  4.94541974
  14.64288723  9.75823584  3.30119008
   2.43295671 12.20203296  8.25231384
   0.00070039  9.76800989  6.60112817
   2.45175297 12.21805944 11.55921150
   0.00070349  9.76801562  9.90348688
   7.29387716  2.42280307  1.65069334
   4.87585502  0.00765551  0.00798618
   7.34411089  2.45098108  4.95698243
   4.87586675  0.00764410  3.29342766
   7.31930277  2.42912879  8.25229178
   4.87764204 14.64686175  6.60003936
   7.34410337  2.45098176 11.54760023
   4.87764507 14.64685805  9.90455615
   7.38996012  7.38882891  1.65069736
   4.95805864  4.95695848 13.15539500
   7.33334670  7.33223422  4.96741039
   4.95805080  4.95695264  3.34914776
   7.33582365  7.33472740  8.25228993
   4.89812667  4.89700470  6.61593302
   7.33337688  7.33226403 11.53718321
   4.89816854  4.89704805  9.88859154
   7.31168751 12.20184507  1.65070928
   4.88399804  9.75862631  0.00105322
   7.31918883 12.21353440  4.95275017
   4.88400057  9.75862150  3.30037038
   7.32080889 12.21101227  8.25230543
   4.88091063  9.77053499  6.60380425
   7.31918588 12.21354092 11.55186092
   4.88091038  9.77053804  9.90081529
  12.17991640  2.42233900  1.65072147
   9.75933122 14.64181129  0.00021811
  12.21917447  2.45068372  4.94542531
   9.75932619 14.64180721  3.30119951
  12.20312219  2.43184868  8.25231370
   9.76910807 14.64901969  6.60113082
  12.21919448  2.45068178 11.55920572
   9.76911286 14.64902323  9.90348295
  12.20294822  7.31056364  1.65070886
   9.75974420  4.88288266  0.00104677
  12.21464494  7.31808542  4.95275558
   9.75973753  4.88288738  3.30037472
  12.21211299  7.31970574  8.25230552
   9.77162672  4.87981016  6.60380807
  12.21465173  7.31808265 11.55185545
   9.77162852  4.87981141  9.90080952
  12.16651836 12.16546287  1.65071300
   9.76283293  9.76172420 13.19673778
  12.16499046 12.16391221  4.96861743
   9.76282042  9.76170839  3.30786952
  12.22094297 12.21984245  8.25231107
   9.76491825  9.76382593  6.60740533
  12.16501685 12.16393843 11.53600231
   9.76493135  9.76383603  9.89720453
   1.13641174  4.01267576  1.65071544
   4.01377286  1.13526013  1.65071686
   1.45690135  1.45580915  0.49456850
   3.45562406  3.45447450 12.97736327
   0.92725238  3.84185413  4.92725924
   3.84296203  0.92612268  4.92725181
   1.45691644  1.45582737  2.80735645
   3.45562907  3.45448284  3.52718290
   0.95703540  3.91847925  8.25229458
   3.91952382  0.95589324  8.25229640
   1.47921037  1.47808183  6.61032408
   3.40387287  3.40279773  6.61508128
   0.92727715  3.84184256 11.57733112
   3.84295123  0.92614714 11.57733584
   1.47924359  1.47811818  9.89420187
   3.40392164  3.40284964  9.88932335
   0.96567974  8.80921371  1.65070831
   3.82537165  5.66177650  1.65067861
   1.49324635  6.35942998 13.17998084
   3.42732741  8.23065828  0.02726447
   0.96477262  8.82015630  4.94870154
   3.97061634  5.88279451  4.96941015
   1.49323929  6.35944186  3.32460177
   3.42732006  8.23066605  3.27412712
   0.95357501  8.81199368  8.25231082
   3.92737436  5.83994165  8.25226083
   1.50379842  6.34103456  6.58858762
   3.38487167  8.29009123  6.61233710
   0.96478100  8.82016175 11.55590768
   3.97060623  5.88277297 11.53512720
   1.50380056  6.34102954  9.91599196
   3.38488540  8.29007935  9.89225397
   0.87286989 13.62502350  1.65076393
   3.91586790 10.70539229  1.65071483
   1.47288102 11.26109873 13.18960708
   3.36731300 13.19531351  0.03180098
   0.98872673 13.75568249  4.92065104
   3.91996785 10.71654368  4.94157610
   1.47289044 11.26107523  3.31501920
   3.36732322 13.19529704  3.26964710
   0.94413570 13.69363229  8.25233343
   3.92110423 10.72495877  8.25231257
   1.47217694 11.27764977  6.58749405
   3.38638352 13.16954263  6.60227465
   0.98876669 13.75575341 11.58403779
   3.91996156 10.71655129 11.56304207
   1.47217025 11.27766767  9.91714200
   3.38638274 13.16954885  9.90235113
   5.66290910  3.82426868  1.65067946
   8.81031240  0.96457711  1.65070748
   6.36052964  1.49212636 13.17997939
   8.23181452  3.42617215  0.02726003
   5.88392070  3.96952431  4.96940113
   8.82124658  0.96366944  4.94872084
   6.36054364  1.49211704  3.32460282
   8.23182168  3.42616571  3.27413096
   5.84107109  3.92627672  8.25226160
   8.81307381  0.95244591  8.25230963
   6.34208579  1.50270660  6.58858483
   8.29117911  3.38376535  6.61234650
   5.88389931  3.96951367 11.53513426
   8.82125190  0.96367722 11.55588805
   6.34208460  1.50270468  9.91599397
   8.29116666  3.38377972  9.89224335
   5.86253863  8.83048446  1.65071061
   8.83160283  5.86140013  1.65070870
   6.40605508  6.40489132  0.03486410
   8.28956543  8.28846177 13.17302968
   5.83033354  8.80512821  4.95400318
   8.80623715  5.82922190  4.95400255
   6.40604402  6.40488078  3.26651674
   8.28955343  8.28844677  3.33157357
   5.84064143  8.82024636  8.25230911
   8.82134681  5.83955132  8.25230743
   6.37995141  6.37883353  6.60889138
   8.28366844  8.28258088  6.60378758
   5.83034586  8.80514328 11.55061017
   8.80625226  5.82923350 11.55061085
   6.37997659  6.37885876  9.89570610
   8.28368121  8.28259089  9.90079293
   5.81292635 13.70610840  1.65070702
   8.79616791 10.70643566  1.65071064
   6.35562052 11.26205286 13.19993222
   8.25919070 13.16939303  0.00606081
   5.81401983 13.70411764  4.94457005
   8.81433141 10.73006729  4.95820515
   6.35562024 11.26204875  3.30467985
   8.25918821 13.16938961  3.29535771
   5.83288222 13.70724871  8.25229939
   8.80049527 10.71804582  8.25230725
   6.35638292 11.26771092  6.59913057
   8.26745020 13.17456862  6.60122750
   5.81400962 13.70412493 11.56003984
   8.81433299 10.73007256 11.54640018
   6.35637550 11.26772225  9.90548291
   8.26744677 13.17457724  9.90338612
  10.70654532  3.91479082  1.65071527
  13.62610370  0.87174968  1.65076187
  11.26220993  1.47179208 13.18958682
  13.19644699  3.36621447  0.03181572
  10.71768191  3.91889359  4.94158809
  13.75682772  0.98767442  4.92065609
  11.26218809  1.47180038  3.31503907
  13.19643332  3.36622191  3.26963190
  10.72605048  3.92000182  8.25231267
  13.69473653  0.94303962  8.25233227
  11.27875408  1.47107497  6.58748161
  13.17066376  3.38529767  6.60229775
  10.71769005  3.91888697 11.56302668
  13.75689852  0.98771281 11.58403557
  11.27877266  1.47106722  9.91715370
  13.17067353  3.38529316  9.90232827
  10.70751487  8.79502553  1.65070865
  13.70724187  5.81182771  1.65070797
  11.26313968  6.35454177 13.19992171
  13.17050556  8.25807606  0.00606460
  10.73115956  8.81322028  4.95821577
  13.70523485  5.81291348  4.94455909
  11.26313290  6.35454436  3.30468950
  13.17049918  8.25807602  3.29535352
  10.71912537  8.79937678  8.25230569
  13.70835238  5.83178605  8.25230127
  11.26879977  6.35529798  6.59912935
  13.17570223  8.26633375  6.60122870
  10.73116503  8.81322238 11.54639282
  13.70524298  5.81290356 11.56004741
  11.26880813  6.35529388  9.90548418
  13.17570874  8.26633284  9.90338508
  10.70985569 13.68529161  1.65071060
  13.68637140 10.70880247  1.65071050
  11.23429719 11.23322810 13.20165880
  13.10946925 13.10844817 13.18934462
  10.70429275 13.67697687  4.95123578
  13.67807658 10.70322532  4.95123545
  11.23428545 11.23321249  3.30294850
  13.10944786 13.10842955  3.31528797
  10.73313815 13.70441430  8.25230978
  13.70552809 10.73205215  8.25230996
  11.24834712 11.24728737  6.63078160
  13.16080611 13.15971642  6.57762741
  10.70430665 13.67698701 11.55337602
  13.67808609 10.70323842 11.55337795
  11.24836030 11.24729857  9.87384582
  13.16082697 13.15973808  9.92699025
   1.36536072  1.36428473  1.65088037
 


--------------------------------------------------------------------------------------------------------


 k-point  1 :   0.2500 0.2500 0.2500  plane waves:  119170
 k-point  2 :  -0.2500 0.2500 0.2500  plane waves:  119170
 k-point  3 :   0.2500-0.2500 0.2500  plane waves:  119170
 k-point  4 :  -0.2500-0.2500 0.2500  plane waves:  119170

 maximum and minimum number of plane-waves per node :      9968     9893

 maximum number of plane-waves:    119170
 maximum index in each direction: 
   IXMAX=   31   IYMAX=   31   IZMAX=   28
   IXMIN=  -31   IYMIN=  -31   IZMIN=  -28


 parallel 3D FFT for wavefunctions:
    minimum data exchange during FFTs selected (reduces bandwidth)
 parallel 3D FFT for charge:
    minimum data exchange during FFTs selected (reduces bandwidth)


 total amount of memory used by VASP MPI-rank0   501409. kBytes
=======================================================================

   base      :      30000. kBytes
   nonl-proj :      51625. kBytes
   fftplans  :      22373. kBytes
   grid      :      17829. kBytes
   one-center:        590. kBytes
   wavefun   :     378992. kBytes
 
     INWAV:  cpu time   69.8051: real time   69.9267
 Broyden mixing: mesh for mixing (old mesh)
   NGX = 63   NGY = 63   NGZ = 57
  (NGX  =192   NGY  =192   NGZ  =180)
  gives a total of 226233 points

 charge density for first step will be calculated from the start-wavefunctions


--------------------------------------------------------------------------------------------------------


 Maximum index for augmentation-charges         2065 (set IRDMAX)


--------------------------------------------------------------------------------------------------------


 initial charge from wavefunction
 First call to EWALD:  gamma=   0.125
 Maximum number of real-space cells 3x 3x 3
 Maximum number of reciprocal cells 3x 3x 3

    FEWALD:  cpu time    0.0066: real time    0.0066


--------------------------------------- Iteration      1(   1)  ---------------------------------------


    POTLOK:  cpu time    0.2135: real time    0.2410
    SETDIJ:  cpu time    4.8746: real time    4.8748
atom =   1  type =  1  l = 2
 
 onsite density matrix
 
spin component  1
 
  0.9623  0.0000  0.0170  0.0000  0.0000
  0.0000  0.9563 -0.0000  0.0058  0.0000
  0.0170 -0.0000  0.9693 -0.0000  0.0000
  0.0000  0.0058 -0.0000  0.9563 -0.0000
  0.0000  0.0000  0.0000 -0.0000  0.9506
 
spin component  2
 
  0.0405  0.0000  0.0206  0.0000  0.0000
  0.0000  0.0286 -0.0000  0.0089  0.0000
  0.0206 -0.0000  0.0587 -0.0000  0.0000
  0.0000  0.0089 -0.0000  0.0286 -0.0000
  0.0000  0.0000  0.0000 -0.0000  0.0205
 
 occupancies and eigenvectors
 
  o =  0.0197  v =  0.0000  0.0000  0.0000  0.0000  0.0000 -0.0000 -0.7071  0.0000  0.7071  0.0010      0.0000  0.0000  0.0000  0.0000  0.0000  0.0000  0.0000  0.0000  0.0000  0.0000
  o =  0.0205  v =  0.0000  0.0000  0.0000  0.0000  0.0000 -0.0000  0.0007 -0.0000 -0.0007  1.0000      0.0000  0.0000  0.0000  0.0000  0.0000  0.0000  0.0000  0.0000  0.0000  0.0000
  o =  0.0270  v =  0.0000  0.0000  0.0000  0.0000  0.0000 -0.8378  0.0003  0.5460  0.0003 -0.0000      0.0000  0.0000  0.0000  0.0000  0.0000  0.0000  0.0000  0.0000  0.0000  0.0000
  o =  0.0375  v =  0.0000  0.0000  0.0000  0.0000  0.0000  0.0004  0.7071 -0.0002  0.7071 -0.0000      0.0000  0.0000  0.0000  0.0000  0.0000  0.0000  0.0000  0.0000  0.0000  0.0000
  o =  0.0721  v =  0.0000  0.0000  0.0000  0.0000  0.0000 -0.5460 -0.0000 -0.8378  0.0000 -0.0000      0.0000  0.0000  0.0000  0.0000  0.0000  0.0000  0.0000  0.0000  0.0000  0.0000
  o =  0.9484  v = -0.7752  0.0002  0.6317  0.0002 -0.0000  0.0000  0.0000  0.0000  0.0000  0.0000      0.0000  0.0000  0.0000  0.0000  0.0000  0.0000  0.0000  0.0000  0.0000  0.0000
  o =  0.9506  v =  0.0000  0.7071 -0.0000 -0.7071 -0.0072  0.0000  0.0000  0.0000  0.0000  0.0000      0.0000  0.0000  0.0000  0.0000  0.0000  0.0000  0.0000  0.0000  0.0000  0.0000
  o =  0.9506  v =  0.0000 -0.0051  0.0000  0.0051 -1.0000  0.0000  0.0000  0.0000  0.0000  0.0000      0.0000  0.0000  0.0000  0.0000  0.0000  0.0000  0.0000  0.0000  0.0000  0.0000
  o =  0.9621  v =  0.0002  0.7071 -0.0002  0.7071 -0.0000  0.0000  0.0000  0.0000  0.0000  0.0000      0.0000  0.0000  0.0000  0.0000  0.0000  0.0000  0.0000  0.0000  0.0000  0.0000
  o =  0.9831  v = -0.6317 -0.0000 -0.7752 -0.0000 -0.0000  0.0000  0.0000  0.0000  0.0000  0.0000      0.0000  0.0000  0.0000  0.0000  0.0000  0.0000  0.0000  0.0000  0.0000  0.0000
atom =   2  type =  1  l = 2
 
 onsite density matrix
 
spin component  1
 
  0.0427  0.0030 -0.0226  0.0030  0.0000
  0.0030  0.0410 -0.0022 -0.0232  0.0020
 -0.0226 -0.0022  0.0317 -0.0022 -0.0000
  0.0030 -0.0232 -0.0022  0.0410 -0.0020
  0.0000  0.0020 -0.0000 -0.0020  0.0139
 
spin component  2
 
  0.9675  0.0029 -0.0159  0.0029  0.0000
  0.0029  0.9660 -0.0022 -0.0178  0.0014
 -0.0159 -0.0022  0.9566 -0.0022 -0.0000
  0.0029 -0.0178 -0.0022  0.9660 -0.0014
  0.0000  0.0014 -0.0000 -0.0014  0.9477
 
 occupancies and eigenvectors
 
  o =  0.0138  v =  0.0001 -0.0390  0.0001  0.0390  0.9985  0.0000  0.0000  0.0000  0.0000  0.0000      0.0000  0.0000  0.0000  0.0000  0.0000  0.0000  0.0000  0.0000  0.0000  0.0000
  o =  0.0139  v =  0.6218 -0.0448  0.7806 -0.0449 -0.0002  0.0000  0.0000  0.0000  0.0000  0.0000      0.0000  0.0000  0.0000  0.0000  0.0000  0.0000  0.0000  0.0000  0.0000  0.0000
  o =  0.0172  v =  0.0542 -0.7006 -0.1237 -0.7006  0.0000  0.0000  0.0000  0.0000  0.0000  0.0000      0.0000  0.0000  0.0000  0.0000  0.0000  0.0000  0.0000  0.0000  0.0000  0.0000
  o =  0.0611  v = -0.7813 -0.0844  0.6127 -0.0842 -0.0000  0.0000  0.0000  0.0000  0.0000  0.0000      0.0000  0.0000  0.0000  0.0000  0.0000  0.0000  0.0000  0.0000  0.0000  0.0000
  o =  0.0643  v =  0.0001 -0.7060 -0.0001  0.7060 -0.0551  0.0000  0.0000  0.0000  0.0000  0.0000      0.0000  0.0000  0.0000  0.0000  0.0000  0.0000  0.0000  0.0000  0.0000  0.0000
  o =  0.9452  v =  0.0000  0.0000  0.0000  0.0000  0.0000 -0.5740 -0.0391 -0.8170 -0.0391 -0.0000      0.0000  0.0000  0.0000  0.0000  0.0000  0.0000  0.0000  0.0000  0.0000  0.0000
  o =  0.9473  v =  0.0000  0.0000  0.0000  0.0000  0.0000 -0.1645  0.6966  0.0489  0.6966  0.0000      0.0000  0.0000  0.0000  0.0000  0.0000  0.0000  0.0000  0.0000  0.0000  0.0000
  o =  0.9476  v =  0.0000  0.0000  0.0000  0.0000  0.0000 -0.0000 -0.0390 -0.0000  0.0390  0.9985      0.0000  0.0000  0.0000  0.0000  0.0000  0.0000  0.0000  0.0000  0.0000  0.0000
  o =  0.9797  v =  0.0000  0.0000  0.0000  0.0000  0.0000 -0.8022 -0.1149  0.5746 -0.1148 -0.0000      0.0000  0.0000  0.0000  0.0000  0.0000  0.0000  0.0000  0.0000  0.0000  0.0000
  o =  0.9840  v =  0.0000  0.0000  0.0000  0.0000  0.0000 -0.0001  0.7060  0.0000 -0.7060  0.0551      0.0000  0.0000  0.0000  0.0000  0.0000  0.0000  0.0000  0.0000  0.0000  0.0000
atom =   3  type =  1  l = 2
 
 onsite density matrix
 
spin component  1
 
  0.9699 -0.0081  0.0175 -0.0081  0.0000
 -0.0081  0.9597 -0.0030  0.0111  0.0008
  0.0175 -0.0030  0.9576 -0.0030  0.0000
 -0.0081  0.0111 -0.0030  0.9597 -0.0008
  0.0000  0.0008  0.0000 -0.0008  0.9496
 
spin component  2
 
  0.0525 -0.0062  0.0273 -0.0062  0.0000
 -0.0062  0.0366 -0.0038  0.0187  0.0009
  0.0273 -0.0038  0.0314 -0.0038  0.0000
 -0.0062  0.0187 -0.0038  0.0366 -0.0009
  0.0000  0.0009  0.0000 -0.0009  0.0164
 
 occupancies and eigenvectors
 
  o =  0.0127  v =  0.0000  0.0000  0.0000  0.0000  0.0000  0.5671  0.0087 -0.8236  0.0087 -0.0000      0.0000  0.0000  0.0000  0.0000  0.0000  0.0000  0.0000  0.0000  0.0000  0.0000
  o =  0.0156  v =  0.0000  0.0000  0.0000  0.0000  0.0000  0.0000 -0.3611 -0.0000  0.3611  0.8598      0.0000  0.0000  0.0000  0.0000  0.0000  0.0000  0.0000  0.0000  0.0000  0.0000
  o =  0.0187  v =  0.0000  0.0000  0.0000  0.0000  0.0000 -0.0000  0.6080  0.0000 -0.6080  0.5106      0.0000  0.0000  0.0000  0.0000  0.0000  0.0000  0.0000  0.0000  0.0000  0.0000
  o =  0.0503  v =  0.0000  0.0000  0.0000  0.0000  0.0000  0.3544  0.6357  0.2574  0.6356 -0.0000      0.0000  0.0000  0.0000  0.0000  0.0000  0.0000  0.0000  0.0000  0.0000  0.0000
  o =  0.0762  v =  0.0000  0.0000  0.0000  0.0000  0.0000 -0.7435  0.3096 -0.5054  0.3096 -0.0000      0.0000  0.0000  0.0000  0.0000  0.0000  0.0000  0.0000  0.0000  0.0000  0.0000
  o =  0.9448  v =  0.6083  0.1002 -0.7810  0.1003  0.0000  0.0000  0.0000  0.0000  0.0000  0.0000      0.0000  0.0000  0.0000  0.0000  0.0000  0.0000  0.0000  0.0000  0.0000  0.0000
  o =  0.9479  v = -0.0000 -0.5940  0.0000  0.5940  0.5426  0.0000  0.0000  0.0000  0.0000  0.0000      0.0000  0.0000  0.0000  0.0000  0.0000  0.0000  0.0000  0.0000  0.0000  0.0000
  o =  0.9503  v = -0.0000  0.3837  0.0000 -0.3836  0.8400  0.0000  0.0000  0.0000  0.0000  0.0000      0.0000  0.0000  0.0000  0.0000  0.0000  0.0000  0.0000  0.0000  0.0000  0.0000
  o =  0.9637  v =  0.3513  0.5899  0.4250  0.5899 -0.0000  0.0000  0.0000  0.0000  0.0000  0.0000      0.0000  0.0000  0.0000  0.0000  0.0000  0.0000  0.0000  0.0000  0.0000  0.0000
  o =  0.9897  v = -0.7118  0.3768 -0.4576  0.3768 -0.0000  0.0000  0.0000  0.0000  0.0000  0.0000      0.0000  0.0000  0.0000  0.0000  0.0000  0.0000  0.0000  0.0000  0.0000  0.0000
atom =   4  type =  1  l = 2
 
 onsite density matrix
 
spin component  1
 
  0.0427 -0.0030 -0.0226 -0.0030  0.0000
 -0.0030  0.0410  0.0022 -0.0232 -0.0020
 -0.0226  0.0022  0.0317  0.0022 -0.0000
 -0.0030 -0.0232  0.0022  0.0410  0.0020
  0.0000 -0.0020 -0.0000  0.0020  0.0139
 
spin component  2
 
  0.9675 -0.0029 -0.0159 -0.0029  0.0000
 -0.0029  0.9660  0.0022 -0.0178 -0.0014
 -0.0159  0.0022  0.9566  0.0022 -0.0000
 -0.0029 -0.0178  0.0022  0.9660  0.0014
  0.0000 -0.0014 -0.0000  0.0014  0.9477
 
 occupancies and eigenvectors
 
  o =  0.0138  v =  0.0001  0.0389  0.0002 -0.0389  0.9985  0.0000  0.0000  0.0000  0.0000  0.0000      0.0000  0.0000  0.0000  0.0000  0.0000  0.0000  0.0000  0.0000  0.0000  0.0000
  o =  0.0139  v =  0.6218  0.0448  0.7806  0.0448 -0.0003  0.0000  0.0000  0.0000  0.0000  0.0000      0.0000  0.0000  0.0000  0.0000  0.0000  0.0000  0.0000  0.0000  0.0000  0.0000
  o =  0.0172  v =  0.0542  0.7006 -0.1235  0.7007  0.0000  0.0000  0.0000  0.0000  0.0000  0.0000      0.0000  0.0000  0.0000  0.0000  0.0000  0.0000  0.0000  0.0000  0.0000  0.0000
  o =  0.0611  v = -0.7813  0.0843  0.6127  0.0841 -0.0000  0.0000  0.0000  0.0000  0.0000  0.0000      0.0000  0.0000  0.0000  0.0000  0.0000  0.0000  0.0000  0.0000  0.0000  0.0000
  o =  0.0643  v =  0.0001  0.7060 -0.0001 -0.7060 -0.0551  0.0000  0.0000  0.0000  0.0000  0.0000      0.0000  0.0000  0.0000  0.0000  0.0000  0.0000  0.0000  0.0000  0.0000  0.0000
  o =  0.9452  v =  0.0000  0.0000  0.0000  0.0000  0.0000  0.5740 -0.0391  0.8170 -0.0391  0.0000      0.0000  0.0000  0.0000  0.0000  0.0000  0.0000  0.0000  0.0000  0.0000  0.0000
  o =  0.9473  v =  0.0000  0.0000  0.0000  0.0000  0.0000 -0.1644 -0.6966  0.0488 -0.6966  0.0000      0.0000  0.0000  0.0000  0.0000  0.0000  0.0000  0.0000  0.0000  0.0000  0.0000
  o =  0.9476  v =  0.0000  0.0000  0.0000  0.0000  0.0000 -0.0000  0.0390 -0.0000 -0.0389  0.9985      0.0000  0.0000  0.0000  0.0000  0.0000  0.0000  0.0000  0.0000  0.0000  0.0000
  o =  0.9797  v =  0.0000  0.0000  0.0000  0.0000  0.0000 -0.8022  0.1148  0.5746  0.1147 -0.0000      0.0000  0.0000  0.0000  0.0000  0.0000  0.0000  0.0000  0.0000  0.0000  0.0000
  o =  0.9840  v =  0.0000  0.0000  0.0000  0.0000  0.0000  0.0001  0.7060 -0.0000 -0.7060 -0.0551      0.0000  0.0000  0.0000  0.0000  0.0000  0.0000  0.0000  0.0000  0.0000  0.0000
atom =   5  type =  1  l = 2
 
 onsite density matrix
 
spin component  1
 
  0.9709  0.0000  0.0193  0.0000  0.0000
  0.0000  0.9644 -0.0000  0.0172 -0.0000
  0.0193 -0.0000  0.9584 -0.0000  0.0000
  0.0000  0.0172 -0.0000  0.9644 -0.0000
  0.0000 -0.0000  0.0000 -0.0000  0.9480
 
spin component  2
 
  0.0474  0.0000  0.0261  0.0000  0.0000
  0.0000  0.0378 -0.0000  0.0215 -0.0000
  0.0261 -0.0000  0.0323 -0.0000  0.0000
  0.0000  0.0215 -0.0000  0.0377 -0.0000
  0.0000 -0.0000  0.0000 -0.0000  0.0142
 
 occupancies and eigenvectors
 
  o =  0.0126  v =  0.0000  0.0000  0.0000  0.0000  0.0000 -0.6008  0.0000  0.7994  0.0000 -0.0000      0.0000  0.0000  0.0000  0.0000  0.0000  0.0000  0.0000  0.0000  0.0000  0.0000
  o =  0.0142  v =  0.0000  0.0000  0.0000  0.0000  0.0000 -0.0000  0.0000  0.0000 -0.0000  1.0000      0.0000  0.0000  0.0000  0.0000  0.0000  0.0000  0.0000  0.0000  0.0000  0.0000
  o =  0.0163  v =  0.0000  0.0000  0.0000  0.0000  0.0000 -0.0000  0.7071 -0.0000 -0.7071 -0.0000      0.0000  0.0000  0.0000  0.0000  0.0000  0.0000  0.0000  0.0000  0.0000  0.0000
  o =  0.0592  v =  0.0000  0.0000  0.0000  0.0000  0.0000  0.0000  0.7071 -0.0000  0.7071 -0.0000      0.0000  0.0000  0.0000  0.0000  0.0000  0.0000  0.0000  0.0000  0.0000  0.0000
  o =  0.0670  v =  0.0000  0.0000  0.0000  0.0000  0.0000 -0.7994 -0.0000 -0.6008 -0.0000 -0.0000      0.0000  0.0000  0.0000  0.0000  0.0000  0.0000  0.0000  0.0000  0.0000  0.0000
  o =  0.9443  v = -0.5876  0.0000  0.8091  0.0000 -0.0001  0.0000  0.0000  0.0000  0.0000  0.0000      0.0000  0.0000  0.0000  0.0000  0.0000  0.0000  0.0000  0.0000  0.0000  0.0000
  o =  0.9472  v =  0.0000 -0.7071  0.0000  0.7071 -0.0000  0.0000  0.0000  0.0000  0.0000  0.0000      0.0000  0.0000  0.0000  0.0000  0.0000  0.0000  0.0000  0.0000  0.0000  0.0000
  o =  0.9480  v = -0.0000 -0.0000  0.0000  0.0000  1.0000  0.0000  0.0000  0.0000  0.0000  0.0000      0.0000  0.0000  0.0000  0.0000  0.0000  0.0000  0.0000  0.0000  0.0000  0.0000
  o =  0.9817  v = -0.0000  0.7071 -0.0001  0.7071 -0.0000  0.0000  0.0000  0.0000  0.0000  0.0000      0.0000  0.0000  0.0000  0.0000  0.0000  0.0000  0.0000  0.0000  0.0000  0.0000
  o =  0.9850  v = -0.8091 -0.0001 -0.5876 -0.0001 -0.0000  0.0000  0.0000  0.0000  0.0000  0.0000      0.0000  0.0000  0.0000  0.0000  0.0000  0.0000  0.0000  0.0000  0.0000  0.0000
atom =   6  type =  1  l = 2
 
 onsite density matrix
 
spin component  1
 
  0.0456  0.0005 -0.0257  0.0005  0.0000
  0.0005  0.0371 -0.0005 -0.0211  0.0006
 -0.0257 -0.0005  0.0323 -0.0005 -0.0000
  0.0005 -0.0211 -0.0005  0.0371 -0.0006
  0.0000  0.0006 -0.0000 -0.0006  0.0138
 
spin component  2
 
  0.9695  0.0005 -0.0195  0.0005  0.0000
  0.0005  0.9642 -0.0004 -0.0168  0.0005
 -0.0195 -0.0004  0.9589 -0.0004 -0.0000
  0.0005 -0.0168 -0.0004  0.9642 -0.0005
  0.0000  0.0005 -0.0000 -0.0005  0.9477
 
 occupancies and eigenvectors
 
  o =  0.0124  v = -0.6120 -0.0218 -0.7902 -0.0218 -0.0000  0.0000  0.0000  0.0000  0.0000  0.0000      0.0000  0.0000  0.0000  0.0000  0.0000  0.0000  0.0000  0.0000  0.0000  0.0000
  o =  0.0137  v = -0.0000 -0.0146  0.0000  0.0146  0.9998  0.0000  0.0000  0.0000  0.0000  0.0000      0.0000  0.0000  0.0000  0.0000  0.0000  0.0000  0.0000  0.0000  0.0000  0.0000
  o =  0.0160  v =  0.0355 -0.7066  0.0114 -0.7066 -0.0000  0.0000  0.0000  0.0000  0.0000  0.0000      0.0000  0.0000  0.0000  0.0000  0.0000  0.0000  0.0000  0.0000  0.0000  0.0000
  o =  0.0582  v =  0.0000  0.7070 -0.0000 -0.7069  0.0206  0.0000  0.0000  0.0000  0.0000  0.0000      0.0000  0.0000  0.0000  0.0000  0.0000  0.0000  0.0000  0.0000  0.0000  0.0000
  o =  0.0655  v = -0.7900 -0.0149  0.6127 -0.0149 -0.0000  0.0000  0.0000  0.0000  0.0000  0.0000      0.0000  0.0000  0.0000  0.0000  0.0000  0.0000  0.0000  0.0000  0.0000  0.0000
  o =  0.9440  v =  0.0000  0.0000  0.0000  0.0000  0.0000 -0.6072  0.0046 -0.7945  0.0046  0.0000      0.0000  0.0000  0.0000  0.0000  0.0000  0.0000  0.0000  0.0000  0.0000  0.0000
  o =  0.9474  v =  0.0000  0.0000  0.0000  0.0000  0.0000 -0.0156  0.7069  0.0200  0.7069 -0.0000      0.0000  0.0000  0.0000  0.0000  0.0000  0.0000  0.0000  0.0000  0.0000  0.0000
  o =  0.9477  v =  0.0000  0.0000  0.0000  0.0000  0.0000 -0.0000 -0.0158  0.0000  0.0158  0.9997      0.0000  0.0000  0.0000  0.0000  0.0000  0.0000  0.0000  0.0000  0.0000  0.0000
  o =  0.9810  v =  0.0000  0.0000  0.0000  0.0000  0.0000  0.0000  0.7069 -0.0000 -0.7069  0.0224      0.0000  0.0000  0.0000  0.0000  0.0000  0.0000  0.0000  0.0000  0.0000  0.0000
  o =  0.9844  v =  0.0000  0.0000  0.0000  0.0000  0.0000 -0.7944 -0.0173  0.6069 -0.0174 -0.0000      0.0000  0.0000  0.0000  0.0000  0.0000  0.0000  0.0000  0.0000  0.0000  0.0000
atom =   7  type =  1  l = 2
 
 onsite density matrix
 
spin component  1
 
  0.9699  0.0081  0.0175  0.0081  0.0000
  0.0081  0.9596  0.0030  0.0111 -0.0008
  0.0175  0.0030  0.9576  0.0030  0.0000
  0.0081  0.0111  0.0030  0.9596  0.0008
  0.0000 -0.0008  0.0000  0.0008  0.9496
 
spin component  2
 
  0.0525  0.0062  0.0273  0.0062  0.0000
  0.0062  0.0366  0.0038  0.0187 -0.0009
  0.0273  0.0038  0.0314  0.0038  0.0000
  0.0062  0.0187  0.0038  0.0366  0.0009
  0.0000 -0.0009  0.0000  0.0009  0.0164
 
 occupancies and eigenvectors
 
  o =  0.0127  v =  0.0000  0.0000  0.0000  0.0000  0.0000 -0.5671  0.0087  0.8236  0.0087  0.0000      0.0000  0.0000  0.0000  0.0000  0.0000  0.0000  0.0000  0.0000  0.0000  0.0000
  o =  0.0157  v =  0.0000  0.0000  0.0000  0.0000  0.0000  0.0000  0.3608 -0.0000 -0.3609  0.8600      0.0000  0.0000  0.0000  0.0000  0.0000  0.0000  0.0000  0.0000  0.0000  0.0000
  o =  0.0187  v =  0.0000  0.0000  0.0000  0.0000  0.0000  0.0000  0.6081 -0.0000 -0.6081 -0.5103      0.0000  0.0000  0.0000  0.0000  0.0000  0.0000  0.0000  0.0000  0.0000  0.0000
  o =  0.0503  v =  0.0000  0.0000  0.0000  0.0000  0.0000  0.3545 -0.6356  0.2575 -0.6356 -0.0000      0.0000  0.0000  0.0000  0.0000  0.0000  0.0000  0.0000  0.0000  0.0000  0.0000
  o =  0.0762  v =  0.0000  0.0000  0.0000  0.0000  0.0000 -0.7435 -0.3097 -0.5054 -0.3097 -0.0000      0.0000  0.0000  0.0000  0.0000  0.0000  0.0000  0.0000  0.0000  0.0000  0.0000
  o =  0.9448  v = -0.6083  0.1003  0.7809  0.1003 -0.0000  0.0000  0.0000  0.0000  0.0000  0.0000      0.0000  0.0000  0.0000  0.0000  0.0000  0.0000  0.0000  0.0000  0.0000  0.0000
  o =  0.9479  v = -0.0000  0.5940  0.0000 -0.5940  0.5426  0.0000  0.0000  0.0000  0.0000  0.0000      0.0000  0.0000  0.0000  0.0000  0.0000  0.0000  0.0000  0.0000  0.0000  0.0000
  o =  0.9503  v =  0.0000  0.3837 -0.0000 -0.3837 -0.8400  0.0000  0.0000  0.0000  0.0000  0.0000      0.0000  0.0000  0.0000  0.0000  0.0000  0.0000  0.0000  0.0000  0.0000  0.0000
  o =  0.9637  v =  0.3513 -0.5899  0.4251 -0.5899 -0.0000  0.0000  0.0000  0.0000  0.0000  0.0000      0.0000  0.0000  0.0000  0.0000  0.0000  0.0000  0.0000  0.0000  0.0000  0.0000
  o =  0.9897  v = -0.7117 -0.3768 -0.4576 -0.3768 -0.0000  0.0000  0.0000  0.0000  0.0000  0.0000      0.0000  0.0000  0.0000  0.0000  0.0000  0.0000  0.0000  0.0000  0.0000  0.0000
atom =   8  type =  1  l = 2
 
 onsite density matrix
 
spin component  1
 
  0.0456 -0.0005 -0.0257 -0.0005  0.0000
 -0.0005  0.0371  0.0005 -0.0211 -0.0006
 -0.0257  0.0005  0.0323  0.0005 -0.0000
 -0.0005 -0.0211  0.0005  0.0371  0.0006
  0.0000 -0.0006 -0.0000  0.0006  0.0138
 
spin component  2
 
  0.9695 -0.0005 -0.0195 -0.0005  0.0000
 -0.0005  0.9642  0.0004 -0.0168 -0.0005
 -0.0195  0.0004  0.9589  0.0004 -0.0000
 -0.0005 -0.0168  0.0004  0.9642  0.0005
  0.0000 -0.0005 -0.0000  0.0005  0.9477
 
 occupancies and eigenvectors
 
  o =  0.0124  v =  0.6120 -0.0218  0.7902 -0.0218  0.0000  0.0000  0.0000  0.0000  0.0000  0.0000      0.0000  0.0000  0.0000  0.0000  0.0000  0.0000  0.0000  0.0000  0.0000  0.0000
  o =  0.0137  v = -0.0000  0.0146  0.0000 -0.0146  0.9998  0.0000  0.0000  0.0000  0.0000  0.0000      0.0000  0.0000  0.0000  0.0000  0.0000  0.0000  0.0000  0.0000  0.0000  0.0000
  o =  0.0160  v =  0.0356  0.7066  0.0114  0.7066 -0.0000  0.0000  0.0000  0.0000  0.0000  0.0000      0.0000  0.0000  0.0000  0.0000  0.0000  0.0000  0.0000  0.0000  0.0000  0.0000
  o =  0.0582  v = -0.0000  0.7070  0.0000 -0.7069 -0.0207  0.0000  0.0000  0.0000  0.0000  0.0000      0.0000  0.0000  0.0000  0.0000  0.0000  0.0000  0.0000  0.0000  0.0000  0.0000
  o =  0.0655  v = -0.7900  0.0150  0.6127  0.0150 -0.0000  0.0000  0.0000  0.0000  0.0000  0.0000      0.0000  0.0000  0.0000  0.0000  0.0000  0.0000  0.0000  0.0000  0.0000  0.0000
  o =  0.9440  v =  0.0000  0.0000  0.0000  0.0000  0.0000  0.6072  0.0046  0.7945  0.0046 -0.0000      0.0000  0.0000  0.0000  0.0000  0.0000  0.0000  0.0000  0.0000  0.0000  0.0000
  o =  0.9474  v =  0.0000  0.0000  0.0000  0.0000  0.0000 -0.0156 -0.7069  0.0201 -0.7069 -0.0000      0.0000  0.0000  0.0000  0.0000  0.0000  0.0000  0.0000  0.0000  0.0000  0.0000
  o =  0.9477  v =  0.0000  0.0000  0.0000  0.0000  0.0000 -0.0000  0.0158  0.0000 -0.0159  0.9997      0.0000  0.0000  0.0000  0.0000  0.0000  0.0000  0.0000  0.0000  0.0000  0.0000
  o =  0.9810  v =  0.0000  0.0000  0.0000  0.0000  0.0000 -0.0000  0.7069  0.0000 -0.7069 -0.0224      0.0000  0.0000  0.0000  0.0000  0.0000  0.0000  0.0000  0.0000  0.0000  0.0000
  o =  0.9844  v =  0.0000  0.0000  0.0000  0.0000  0.0000 -0.7944  0.0174  0.6069  0.0174 -0.0000      0.0000  0.0000  0.0000  0.0000  0.0000  0.0000  0.0000  0.0000  0.0000  0.0000
atom =   9  type =  1  l = 2
 
 onsite density matrix
 
spin component  1
 
  0.9690 -0.0000  0.0181  0.0000  0.0016
 -0.0000  0.9642 -0.0000  0.0175 -0.0000
  0.0181 -0.0000  0.9581  0.0000  0.0015
  0.0000  0.0175  0.0000  0.9651 -0.0000
  0.0016 -0.0000  0.0015 -0.0000  0.9474
 
spin component  2
 
  0.0432 -0.0000  0.0237  0.0000  0.0023
 -0.0000  0.0373 -0.0000  0.0225 -0.0000
  0.0237 -0.0000  0.0315 -0.0000  0.0017
  0.0000  0.0225 -0.0000  0.0386 -0.0000
  0.0023 -0.0000  0.0017 -0.0000  0.0133
 
 occupancies and eigenvectors
 
  o =  0.0129  v =  0.0000  0.0000  0.0000  0.0000  0.0000  0.6170  0.0000 -0.7764 -0.0000 -0.1286      0.0000  0.0000  0.0000  0.0000  0.0000  0.0000  0.0000  0.0000  0.0000  0.0000
  o =  0.0132  v =  0.0000  0.0000  0.0000  0.0000  0.0000 -0.0337 -0.0000  0.1372 -0.0000 -0.9900      0.0000  0.0000  0.0000  0.0000  0.0000  0.0000  0.0000  0.0000  0.0000  0.0000
  o =  0.0154  v =  0.0000  0.0000  0.0000  0.0000  0.0000 -0.0000  0.7175  0.0000 -0.6965  0.0000      0.0000  0.0000  0.0000  0.0000  0.0000  0.0000  0.0000  0.0000  0.0000  0.0000
  o =  0.0604  v =  0.0000  0.0000  0.0000  0.0000  0.0000  0.0001  0.6965  0.0001  0.7175  0.0000      0.0000  0.0000  0.0000  0.0000  0.0000  0.0000  0.0000  0.0000  0.0000  0.0000
  o =  0.0619  v =  0.0000  0.0000  0.0000  0.0000  0.0000 -0.7862  0.0001 -0.6152  0.0001 -0.0585      0.0000  0.0000  0.0000  0.0000  0.0000  0.0000  0.0000  0.0000  0.0000  0.0000
  o =  0.9446  v =  0.5891 -0.0000 -0.8023  0.0000  0.0960  0.0000  0.0000  0.0000  0.0000  0.0000      0.0000  0.0000  0.0000  0.0000  0.0000  0.0000  0.0000  0.0000  0.0000  0.0000
  o =  0.9472  v =  0.0000  0.7157 -0.0000 -0.6984 -0.0003  0.0000  0.0000  0.0000  0.0000  0.0000      0.0000  0.0000  0.0000  0.0000  0.0000  0.0000  0.0000  0.0000  0.0000  0.0000
  o =  0.9473  v =  0.1071 -0.0002 -0.0403  0.0002 -0.9934  0.0000  0.0000  0.0000  0.0000  0.0000      0.0000  0.0000  0.0000  0.0000  0.0000  0.0000  0.0000  0.0000  0.0000  0.0000
  o =  0.9821  v = -0.0001 -0.6984 -0.0001 -0.7157 -0.0000  0.0000  0.0000  0.0000  0.0000  0.0000      0.0000  0.0000  0.0000  0.0000  0.0000  0.0000  0.0000  0.0000  0.0000  0.0000
  o =  0.9826  v = -0.8009  0.0001 -0.5955  0.0001 -0.0622  0.0000  0.0000  0.0000  0.0000  0.0000      0.0000  0.0000  0.0000  0.0000  0.0000  0.0000  0.0000  0.0000  0.0000  0.0000
atom =  10  type =  1  l = 2
 
 onsite density matrix
 
spin component  1
 
  0.0465 -0.0016 -0.0254 -0.0004 -0.0007
[...]
    1        0.174   6.157   4.952  11.283
    2        0.168   6.153   4.955  11.277
    3        0.171   6.153   4.951  11.275
    4        0.168   6.153   4.955  11.277
    5        0.168   6.153   4.956  11.276
    6        0.166   6.150   4.951  11.267
    7        0.171   6.153   4.951  11.275
    8        0.166   6.150   4.951  11.267
    9        0.165   6.148   4.949  11.262
   10        0.166   6.149   4.951  11.266
   11        0.166   6.150   4.953  11.269
   12        0.166   6.149   4.951  11.266
   13        0.165   6.149   4.951  11.265
   14        0.165   6.149   4.950  11.264
   15        0.166   6.150   4.953  11.269
   16        0.165   6.149   4.950  11.264
   17        0.166   6.151   4.953  11.270
   18        0.166   6.150   4.952  11.267
   19        0.165   6.149   4.950  11.264
   20        0.166   6.150   4.952  11.267
   21        0.166   6.149   4.951  11.266
   22        0.166   6.149   4.951  11.266
   23        0.165   6.149   4.950  11.264
   24        0.166   6.149   4.951  11.266
   25        0.165   6.148   4.949  11.262
   26        0.166   6.149   4.951  11.266
   27        0.166   6.150   4.953  11.269
   28        0.166   6.149   4.951  11.266
   29        0.165   6.149   4.951  11.265
   30        0.165   6.149   4.950  11.264
   31        0.166   6.150   4.953  11.269
   32        0.165   6.149   4.950  11.264
   33        0.168   6.154   4.958  11.280
   34        0.169   6.154   4.956  11.279
   35        0.166   6.151   4.954  11.271
   36        0.169   6.154   4.956  11.279
   37        0.167   6.151   4.954  11.272
   38        0.167   6.151   4.954  11.272
   39        0.166   6.151   4.954  11.271
   40        0.167   6.151   4.954  11.272
   41        0.165   6.149   4.951  11.265
   42        0.166   6.150   4.952  11.267
   43        0.165   6.149   4.951  11.265
   44        0.166   6.150   4.952  11.267
   45        0.165   6.149   4.951  11.266
   46        0.165   6.149   4.951  11.266
   47        0.165   6.149   4.951  11.265
   48        0.165   6.149   4.951  11.266
   49        0.166   6.151   4.953  11.270
   50        0.166   6.150   4.952  11.267
   51        0.165   6.149   4.950  11.264
   52        0.166   6.150   4.952  11.267
   53        0.166   6.149   4.951  11.266
   54        0.166   6.149   4.951  11.266
   55        0.165   6.149   4.950  11.264
   56        0.166   6.149   4.951  11.266
   57        0.165   6.149   4.951  11.265
   58        0.166   6.150   4.952  11.267
   59        0.165   6.149   4.951  11.265
   60        0.166   6.150   4.952  11.267
   61        0.165   6.149   4.951  11.266
   62        0.165   6.149   4.951  11.266
   63        0.165   6.149   4.951  11.265
   64        0.165   6.149   4.951  11.266
   65        0.167   6.152   4.955  11.274
   66        0.168   6.153   4.956  11.276
   67        0.167   6.153   4.956  11.276
   68        0.168   6.153   4.956  11.276
   69        0.166   6.150   4.953  11.269
   70        0.166   6.151   4.954  11.271
   71        0.167   6.153   4.956  11.276
   72        0.166   6.151   4.954  11.271
   73        1.726   4.360   0.000   6.086
   74        1.726   4.360   0.000   6.086
   75        1.730   4.374   0.000   6.103
   76        1.727   4.377   0.000   6.104
   77        1.725   4.364   0.000   6.090
   78        1.725   4.364   0.000   6.090
   79        1.730   4.374   0.000   6.103
   80        1.727   4.377   0.000   6.104
   81        1.726   4.365   0.000   6.091
   82        1.726   4.365   0.000   6.091
   83        1.726   4.368   0.000   6.094
   84        1.726   4.368   0.000   6.094
   85        1.725   4.364   0.000   6.090
   86        1.725   4.364   0.000   6.090
   87        1.726   4.368   0.000   6.094
   88        1.726   4.368   0.000   6.094
   89        1.725   4.364   0.000   6.090
   90        1.726   4.357   0.000   6.083
   91        1.726   4.366   0.000   6.092
   92        1.726   4.365   0.000   6.090
   93        1.726   4.366   0.000   6.091
   94        1.726   4.367   0.000   6.093
   95        1.726   4.366   0.000   6.092
   96        1.726   4.365   0.000   6.090
   97        1.726   4.365   0.000   6.091
   98        1.726   4.367   0.000   6.093
   99        1.725   4.364   0.000   6.090
  100        1.726   4.366   0.000   6.092
  101        1.726   4.366   0.000   6.091
  102        1.726   4.367   0.000   6.093
  103        1.725   4.364   0.000   6.090
  104        1.726   4.366   0.000   6.092
  105        1.726   4.367   0.000   6.093
  106        1.726   4.366   0.000   6.091
  107        1.726   4.366   0.000   6.091
  108        1.725   4.364   0.000   6.090
  109        1.726   4.364   0.000   6.090
  110        1.725   4.365   0.000   6.090
  111        1.726   4.366   0.000   6.091
  112        1.725   4.364   0.000   6.090
  113        1.726   4.366   0.000   6.092
  114        1.726   4.366   0.000   6.091
  115        1.726   4.365   0.000   6.090
  116        1.726   4.366   0.000   6.091
  117        1.726   4.364   0.000   6.090
  118        1.725   4.365   0.000   6.090
  119        1.726   4.365   0.000   6.090
  120        1.726   4.366   0.000   6.091
  121        1.726   4.357   0.000   6.083
  122        1.725   4.364   0.000   6.090
  123        1.726   4.366   0.000   6.092
  124        1.726   4.365   0.000   6.090
  125        1.726   4.367   0.000   6.093
  126        1.726   4.366   0.000   6.091
  127        1.726   4.366   0.000   6.092
  128        1.726   4.365   0.000   6.090
  129        1.726   4.367   0.000   6.093
  130        1.726   4.365   0.000   6.091
  131        1.725   4.364   0.000   6.090
  132        1.726   4.366   0.000   6.092
  133        1.726   4.367   0.000   6.093
  134        1.726   4.366   0.000   6.091
  135        1.725   4.364   0.000   6.090
  136        1.726   4.366   0.000   6.092
  137        1.726   4.366   0.000   6.092
  138        1.726   4.366   0.000   6.092
  139        1.726   4.370   0.000   6.095
  140        1.726   4.371   0.000   6.097
  141        1.726   4.365   0.000   6.091
  142        1.726   4.365   0.000   6.091
  143        1.726   4.370   0.000   6.095
  144        1.726   4.371   0.000   6.097
  145        1.726   4.365   0.000   6.091
  146        1.726   4.365   0.000   6.091
  147        1.726   4.367   0.000   6.093
  148        1.726   4.368   0.000   6.094
  149        1.726   4.365   0.000   6.091
  150        1.726   4.365   0.000   6.091
  151        1.726   4.367   0.000   6.093
  152        1.726   4.368   0.000   6.094
  153        1.726   4.366   0.000   6.091
  154        1.726   4.364   0.000   6.090
  155        1.726   4.366   0.000   6.091
  156        1.726   4.366   0.000   6.091
  157        1.726   4.365   0.000   6.091
  158        1.726   4.365   0.000   6.090
  159        1.726   4.366   0.000   6.091
  160        1.726   4.366   0.000   6.091
  161        1.726   4.366   0.000   6.091
  162        1.726   4.366   0.000   6.091
  163        1.726   4.366   0.000   6.091
  164        1.726   4.365   0.000   6.091
  165        1.726   4.365   0.000   6.091
  166        1.726   4.365   0.000   6.090
  167        1.726   4.366   0.000   6.091
  168        1.726   4.365   0.000   6.091
  169        1.726   4.366   0.000   6.091
  170        1.726   4.367   0.000   6.093
  171        1.726   4.366   0.000   6.091
  172        1.725   4.364   0.000   6.090
  173        1.725   4.365   0.000   6.090
  174        1.726   4.364   0.000   6.090
  175        1.726   4.366   0.000   6.091
  176        1.725   4.364   0.000   6.090
  177        1.726   4.366   0.000   6.091
  178        1.726   4.366   0.000   6.092
  179        1.726   4.365   0.000   6.090
  180        1.726   4.366   0.000   6.091
  181        1.725   4.365   0.000   6.090
  182        1.726   4.364   0.000   6.090
  183        1.726   4.365   0.000   6.090
  184        1.726   4.366   0.000   6.091
  185        1.726   4.364   0.000   6.090
  186        1.726   4.366   0.000   6.091
  187        1.726   4.366   0.000   6.091
  188        1.726   4.366   0.000   6.091
  189        1.726   4.365   0.000   6.090
  190        1.726   4.365   0.000   6.091
  191        1.726   4.366   0.000   6.091
  192        1.726   4.366   0.000   6.091
  193        1.726   4.366   0.000   6.091
  194        1.726   4.366   0.000   6.091
  195        1.726   4.366   0.000   6.091
  196        1.726   4.365   0.000   6.091
  197        1.726   4.365   0.000   6.090
  198        1.726   4.365   0.000   6.091
  199        1.726   4.366   0.000   6.091
  200        1.726   4.365   0.000   6.091
  201        1.726   4.365   0.000   6.091
  202        1.726   4.365   0.000   6.091
  203        1.726   4.371   0.000   6.096
  204        1.726   4.372   0.000   6.098
  205        1.726   4.366   0.000   6.091
  206        1.726   4.366   0.000   6.091
  207        1.726   4.371   0.000   6.096
  208        1.726   4.372   0.000   6.098
  209        1.726   4.365   0.000   6.091
  210        1.726   4.365   0.000   6.091
  211        1.726   4.369   0.000   6.094
  212        1.726   4.366   0.000   6.091
  213        1.726   4.366   0.000   6.091
  214        1.726   4.366   0.000   6.091
  215        1.726   4.369   0.000   6.094
  216        1.726   4.366   0.000   6.091
  217        0.441   0.114   0.000   0.555
--------------------------------------------------
tot        260.9031071.637 356.5571689.097
 


 magnetization (x)
 
# of ion       s       p       d       tot
------------------------------------------
    1        0.023   0.024   4.608   4.655
    2       -0.019  -0.020  -4.624  -4.663
    3        0.021   0.021   4.613   4.655
    4       -0.019  -0.020  -4.624  -4.663
    5        0.018   0.018   4.627   4.664
    6       -0.019  -0.019  -4.629  -4.666
    7        0.021   0.021   4.613   4.655
    8       -0.019  -0.019  -4.629  -4.666
    9        0.019   0.019   4.630   4.667
   10       -0.018  -0.018  -4.628  -4.665
   11        0.018   0.018   4.628   4.665
   12       -0.018  -0.018  -4.628  -4.665
   13        0.018   0.018   4.629   4.666
   14       -0.019  -0.018  -4.629  -4.666
   15        0.018   0.018   4.628   4.665
   16       -0.019  -0.018  -4.629  -4.666
   17        0.018   0.019   4.628   4.665
   18       -0.018  -0.018  -4.629  -4.666
   19        0.018   0.018   4.630   4.666
   20       -0.018  -0.018  -4.629  -4.666
   21        0.018   0.018   4.629   4.666
   22       -0.018  -0.018  -4.629  -4.666
   23        0.018   0.018   4.630   4.666
   24       -0.018  -0.018  -4.629  -4.666
   25        0.019   0.019   4.630   4.667
   26       -0.018  -0.018  -4.628  -4.665
   27        0.018   0.018   4.628   4.665
   28       -0.018  -0.018  -4.628  -4.665
   29        0.018   0.018   4.629   4.666
   30       -0.019  -0.018  -4.629  -4.666
   31        0.018   0.018   4.628   4.665
   32       -0.019  -0.018  -4.629  -4.666
   33        0.018   0.019   4.626   4.663
   34       -0.019  -0.020  -4.624  -4.662
   35        0.018   0.019   4.628   4.665
   36       -0.019  -0.020  -4.624  -4.662
   37        0.018   0.019   4.628   4.665
   38       -0.018  -0.018  -4.628  -4.664
   39        0.018   0.019   4.628   4.665
   40       -0.018  -0.018  -4.628  -4.664
   41        0.018   0.018   4.629   4.666
   42       -0.018  -0.018  -4.629  -4.666
   43        0.018   0.018   4.629   4.666
   44       -0.018  -0.018  -4.629  -4.666
   45        0.018   0.018   4.629   4.666
   46       -0.018  -0.018  -4.629  -4.666
   47        0.018   0.018   4.629   4.666
   48       -0.018  -0.018  -4.629  -4.666
   49        0.018   0.019   4.628   4.665
   50       -0.018  -0.018  -4.629  -4.666
   51        0.018   0.018   4.630   4.666
   52       -0.018  -0.018  -4.629  -4.666
   53        0.018   0.018   4.629   4.666
   54       -0.018  -0.018  -4.629  -4.666
   55        0.018   0.018   4.630   4.666
   56       -0.018  -0.018  -4.629  -4.666
   57        0.018   0.018   4.629   4.666
   58       -0.018  -0.018  -4.629  -4.666
   59        0.018   0.018   4.629   4.666
   60       -0.018  -0.018  -4.629  -4.666
   61        0.018   0.018   4.629   4.666
   62       -0.018  -0.018  -4.629  -4.666
   63        0.018   0.018   4.629   4.666
   64       -0.018  -0.018  -4.629  -4.666
   65        0.018   0.019   4.627   4.664
   66       -0.018  -0.019  -4.627  -4.664
   67        0.018   0.019   4.627   4.664
   68       -0.018  -0.019  -4.627  -4.664
   69        0.018   0.018   4.628   4.665
   70       -0.018  -0.018  -4.628  -4.665
   71        0.018   0.019   4.627   4.664
   72       -0.018  -0.018  -4.628  -4.665
   73       -0.002  -0.009   0.000  -0.011
   74       -0.002  -0.009   0.000  -0.011
   75        0.001   0.003   0.000   0.003
   76        0.002   0.022   0.000   0.024
   77       -0.002  -0.011   0.000  -0.013
   78       -0.002  -0.011   0.000  -0.013
   79        0.001   0.003   0.000   0.003
   80        0.002   0.022   0.000   0.024
   81       -0.002  -0.013   0.000  -0.015
   82       -0.002  -0.013   0.000  -0.015
   83        0.002   0.017   0.000   0.019
   84        0.002   0.024   0.000   0.026
   85       -0.002  -0.011   0.000  -0.013
   86       -0.002  -0.011   0.000  -0.013
   87        0.002   0.017   0.000   0.019
   88        0.002   0.024   0.000   0.026
   89       -0.002  -0.014   0.000  -0.015
   90       -0.001  -0.012   0.000  -0.014
   91        0.002   0.014   0.000   0.016
   92        0.002   0.015   0.000   0.017
   93       -0.002  -0.014   0.000  -0.016
   94       -0.002  -0.017   0.000  -0.019
   95        0.002   0.014   0.000   0.016
   96        0.002   0.015   0.000   0.017
   97       -0.002  -0.015   0.000  -0.016
   98       -0.002  -0.016   0.000  -0.018
   99        0.002   0.014   0.000   0.016
  100        0.002   0.016   0.000   0.018
  101       -0.002  -0.014   0.000  -0.016
  102       -0.002  -0.017   0.000  -0.019
  103        0.002   0.014   0.000   0.016
  104        0.002   0.016   0.000   0.018
  105       -0.002  -0.017   0.000  -0.018
  106       -0.002  -0.014   0.000  -0.016
  107        0.002   0.016   0.000   0.018
  108        0.002   0.014   0.000   0.016
  109       -0.002  -0.017   0.000  -0.018
  110       -0.002  -0.014   0.000  -0.016
  111        0.002   0.016   0.000   0.018
  112        0.002   0.014   0.000   0.016
  113       -0.002  -0.016   0.000  -0.018
  114       -0.002  -0.014   0.000  -0.016
  115        0.002   0.015   0.000   0.017
  116        0.002   0.014   0.000   0.016
  117       -0.002  -0.017   0.000  -0.018
  118       -0.002  -0.014   0.000  -0.016
  119        0.002   0.015   0.000   0.017
  120        0.002   0.014   0.000   0.016
  121       -0.001  -0.012   0.000  -0.014
  122       -0.002  -0.014   0.000  -0.015
  123        0.002   0.014   0.000   0.016
  124        0.002   0.015   0.000   0.017
  125       -0.002  -0.017   0.000  -0.019
  126       -0.002  -0.014   0.000  -0.016
  127        0.002   0.014   0.000   0.016
  128        0.002   0.015   0.000   0.017
  129       -0.002  -0.016   0.000  -0.018
  130       -0.002  -0.015   0.000  -0.016
  131        0.002   0.014   0.000   0.016
  132        0.002   0.016   0.000   0.018
  133       -0.002  -0.017   0.000  -0.019
  134       -0.002  -0.014   0.000  -0.016
  135        0.002   0.014   0.000   0.016
  136        0.002   0.016   0.000   0.018
  137       -0.002  -0.014   0.000  -0.016
  138       -0.002  -0.014   0.000  -0.016
  139        0.002   0.010   0.000   0.012
  140        0.002   0.015   0.000   0.017
  141       -0.002  -0.015   0.000  -0.017
  142       -0.002  -0.015   0.000  -0.017
  143        0.002   0.010   0.000   0.012
  144        0.002   0.015   0.000   0.017
  145       -0.002  -0.015   0.000  -0.017
  146       -0.002  -0.015   0.000  -0.017
  147        0.002   0.014   0.000   0.016
  148        0.002   0.016   0.000   0.018
  149       -0.002  -0.015   0.000  -0.017
  150       -0.002  -0.015   0.000  -0.017
  151        0.002   0.014   0.000   0.016
  152        0.002   0.016   0.000   0.018
  153       -0.002  -0.018   0.000  -0.020
  154       -0.002  -0.015   0.000  -0.017
  155        0.002   0.015   0.000   0.016
  156        0.002   0.015   0.000   0.016
  157       -0.002  -0.017   0.000  -0.019
  158       -0.002  -0.015   0.000  -0.017
  159        0.002   0.015   0.000   0.016
  160        0.002   0.015   0.000   0.016
  161       -0.002  -0.017   0.000  -0.019
  162       -0.002  -0.015   0.000  -0.017
  163        0.002   0.015   0.000   0.017
  164        0.002   0.015   0.000   0.017
  165       -0.002  -0.017   0.000  -0.019
  166       -0.002  -0.015   0.000  -0.017
  167        0.002   0.015   0.000   0.017
  168        0.002   0.015   0.000   0.017
  169       -0.002  -0.014   0.000  -0.016
  170       -0.002  -0.017   0.000  -0.018
  171        0.002   0.016   0.000   0.018
  172        0.002   0.014   0.000   0.016
  173       -0.002  -0.014   0.000  -0.016
  174       -0.002  -0.017   0.000  -0.018
  175        0.002   0.016   0.000   0.018
  176        0.002   0.014   0.000   0.016
  177       -0.002  -0.014   0.000  -0.016
  178       -0.002  -0.016   0.000  -0.018
  179        0.002   0.015   0.000   0.017
  180        0.002   0.014   0.000   0.016
  181       -0.002  -0.014   0.000  -0.016
  182       -0.002  -0.017   0.000  -0.018
  183        0.002   0.015   0.000   0.017
  184        0.002   0.014   0.000   0.016
  185       -0.002  -0.015   0.000  -0.017
  186       -0.002  -0.018   0.000  -0.020
  187        0.002   0.015   0.000   0.016
  188        0.002   0.015   0.000   0.016
  189       -0.002  -0.015   0.000  -0.017
  190       -0.002  -0.017   0.000  -0.019
  191        0.002   0.015   0.000   0.016
  192        0.002   0.015   0.000   0.016
  193       -0.002  -0.015   0.000  -0.017
  194       -0.002  -0.017   0.000  -0.019
  195        0.002   0.015   0.000   0.017
  196        0.002   0.015   0.000   0.017
  197       -0.002  -0.015   0.000  -0.017
  198       -0.002  -0.017   0.000  -0.019
  199        0.002   0.015   0.000   0.017
  200        0.002   0.015   0.000   0.017
  201       -0.002  -0.015   0.000  -0.017
  202       -0.002  -0.015   0.000  -0.017
  203        0.002   0.015   0.000   0.017
  204        0.002   0.008   0.000   0.010
  205       -0.002  -0.015   0.000  -0.017
  206       -0.002  -0.015   0.000  -0.017
  207        0.002   0.015   0.000   0.017
  208        0.002   0.008   0.000   0.010
  209       -0.002  -0.015   0.000  -0.017
  210       -0.002  -0.015   0.000  -0.017
  211        0.002   0.016   0.000   0.018
  212        0.002   0.013   0.000   0.015
  213       -0.002  -0.015   0.000  -0.017
  214       -0.002  -0.015   0.000  -0.017
  215        0.002   0.016   0.000   0.018
  216        0.002   0.013   0.000   0.015
  217        0.001   0.000   0.000   0.001
--------------------------------------------------
tot          0.007  -0.001  -0.030  -0.024
 

 total amount of memory used by VASP MPI-rank0   501409. kBytes
=======================================================================

   base      :      30000. kBytes
   nonl-proj :      51625. kBytes
   fftplans  :      22373. kBytes
   grid      :      17829. kBytes
   one-center:        590. kBytes
   wavefun   :     378992. kBytes
 
  
  
 General timing and accounting informations for this job:
 ========================================================
  
                  Total CPU time used (sec):      469.011
                            User time (sec):      449.619
                          System time (sec):       19.392
                         Elapsed time (sec):      564.767
  
                   Maximum memory used (kb):      721440.
                   Average memory used (kb):           0.
  
                          Minor page faults:       197952
                          Major page faults:           24
                 Voluntary context switches:        10202
