       N       E                     dE             d eps       ncg     rms          rms(c)
DAV:   1     0.930494026801E+03    0.93049E+03   -0.35784E+04  1308   0.188E+03
DAV:   2     0.398582148662E+03   -0.53191E+03   -0.50934E+03  1512   0.485E+02
DAV:   3     0.367425638248E+03   -0.31157E+02   -0.30925E+02  1488   0.128E+02
DAV:   4     0.367064561471E+03   -0.36108E+00   -0.36078E+00  1524   0.150E+01
DAV:   5     0.367058294409E+03   -0.62671E-02   -0.62670E-02  1500   0.181E+00    0.586E+01
DAV:   6    -0.690231794439E+02   -0.43608E+03   -0.27432E+02  1572   0.210E+02    0.624E+01
DAV:   7    -0.715985648101E+02   -0.25754E+01   -0.50185E+01  1332   0.445E+01    0.172E+01
DAV:   8    -0.686728917462E+02    0.29257E+01   -0.69524E+00  1560   0.216E+01    0.672E+00
DAV:   9    -0.681647437743E+02    0.50815E+00   -0.52068E+00  1512   0.194E+01    0.815E+00
DAV:  10    -0.681168567446E+02    0.47887E-01   -0.45732E-01  1416   0.562E+00    0.604E+00
DAV:  11    -0.680773006315E+02    0.39556E-01   -0.11973E+00  1560   0.802E+00    0.202E+00
DAV:  12    -0.680386157459E+02    0.38685E-01   -0.10977E-01  1572   0.337E+00    0.128E+00
DAV:  13    -0.680303180558E+02    0.82977E-02   -0.74528E-02  1512   0.160E+00    0.107E+00
DAV:  14    -0.680256077378E+02    0.47103E-02   -0.52549E-02  1296   0.247E+00    0.423E-01
DAV:  15    -0.680263238150E+02   -0.71608E-03   -0.39139E-03  1488   0.463E-01    0.405E-01
DAV:  16    -0.680254674176E+02    0.85640E-03   -0.35619E-03  1416   0.390E-01    0.142E-01
DAV:  17    -0.680254462235E+02    0.21194E-04   -0.31323E-03  1404   0.399E-01    0.104E-01
DAV:  18    -0.680252242460E+02    0.22198E-03   -0.18458E-04  1344   0.996E-02    0.314E-02
DAV:  19    -0.680252115998E+02    0.12646E-04   -0.11487E-04  1488   0.712E-02    0.813E-03
DAV:  20    -0.680252345813E+02   -0.22982E-04   -0.65981E-06  1440   0.148E-02    0.925E-03
DAV:  21    -0.680252350805E+02   -0.49917E-06   -0.26245E-06  1068   0.112E-02
   1 F= -.68025235E+02 E0= -.68025235E+02  d E =0.000000E+00  mag=     0.0000
