 vasp.5.4.4.18Apr17-6-g9f103f2a35 (build Apr 27 2017 11:13:10) complex          
  
 executed on           IFC91_ompi date 2020.05.13  11:45:42
 running on   12 total cores
 distrk:  each k-point on   12 cores,    1 groups
 distr:  one band on NCORES_PER_BAND=   1 cores,   12 groups


--------------------------------------------------------------------------------------------------------


 INCAR:
 POTCAR:    PAW_PBE Mn_pv 02Aug2007               
 POTCAR:    PAW_PBE F 08Apr2002                   

 ----------------------------------------------------------------------------- 
|                                                                             |
|           W    W    AA    RRRRR   N    N  II  N    N   GGGG   !!!           |
|           W    W   A  A   R    R  NN   N  II  NN   N  G    G  !!!           |
|           W    W  A    A  R    R  N N  N  II  N N  N  G       !!!           |
|           W WW W  AAAAAA  RRRRR   N  N N  II  N  N N  G  GGG   !            |
|           WW  WW  A    A  R   R   N   NN  II  N   NN  G    G                |
|           W    W  A    A  R    R  N    N  II  N    N   GGGG   !!!           |
|                                                                             |
|      For optimal performance we recommend to set                            |
|        NCORE= 4 - approx SQRT( number of cores)                             |
|      NCORE specifies how many cores store one orbital (NPAR=cpu/NCORE).     |
|      This setting can  greatly improve the performance of VASP for DFT.     |
|      The default,   NCORE=1            might be grossly inefficient         |
|      on modern multi-core architectures or massively parallel machines.     |
|      Do your own testing !!!!                                               |
|      Unfortunately you need to use the default for GW and RPA calculations. |
|      (for HF NCORE is supported but not extensively tested yet)             |
|                                                                             |
 ----------------------------------------------------------------------------- 

 POTCAR:    PAW_PBE Mn_pv 02Aug2007               
   VRHFIN =Mn: 3p4s3d                                                           
   LEXCH  = PE                                                                  
   EATOM  =  2025.2664 eV,  148.8529 Ry                                         
                                                                                
   TITEL  = PAW_PBE Mn_pv 02Aug2007                                             
   LULTRA =        F    use ultrasoft PP ?                                      
   IUNSCR =        1    unscreen: 0-lin 1-nonlin 2-no                           
   RPACOR =    2.080    partial core radius                                     
   POMASS =   54.938; ZVAL   =   13.000    mass and valenz                      
   RCORE  =    2.300    outmost cutoff radius                                   
   RWIGS  =    2.500; RWIGS  =    1.323    wigner-seitz radius (au A)           
   ENMAX  =  269.864; ENMIN  =  202.398 eV                                      
   ICORE  =        3    local potential                                         
   LCOR   =        T    correct aug charges                                     
   LPAW   =        T    paw PP                                                  
   EAUG   =  569.085                                                            
   DEXC   =    0.000                                                            
   RMAX   =    2.343    core radius for proj-oper                               
   RAUG   =    1.300    factor for augmentation sphere                          
   RDEP   =    2.338    radius for radial grids                                 
   RDEPT  =    1.798    core radius for aug-charge                              
                                                                                
   Atomic configuration                                                         
    8 entries                                                                   
     n  l   j            E        occ.                                          
     1  0  0.50     -6424.8287   2.0000                                         
     2  0  0.50      -739.1154   2.0000                                         
     2  1  1.50      -625.3949   6.0000                                         
     3  0  0.50       -81.6100   2.0000                                         
     3  1  1.50       -50.4667   6.0000                                         
     3  2  2.50        -3.3745   6.0000                                         
     4  0  0.50        -4.1331   1.0000                                         
     4  3  2.50        -1.3606   0.0000                                         
   Description                                                                  
     l       E           TYP  RCUT    TYP  RCUT                                 
     1    -50.4666628     23  2.000                                             
     1     -1.3605826     23  2.000                                             
     2     -3.3744729     23  2.300                                             
     2     -4.7350555     23  2.300                                             
     0     -4.1331431     23  2.300                                             
     0      7.6656591     23  2.300                                             
     3      9.5240782     23  2.300                                             
  local pseudopotential read in
  partial core-charges read in
  partial kinetic energy density read in
  atomic valenz-charges read in
  non local Contribution for L=           1  read in
    real space projection operators read in
  non local Contribution for L=           1  read in
    real space projection operators read in
  non local Contribution for L=           2  read in
    real space projection operators read in
  non local Contribution for L=           2  read in
    real space projection operators read in
  non local Contribution for L=           0  read in
    real space projection operators read in
  non local Contribution for L=           0  read in
    real space projection operators read in
    PAW grid and wavefunctions read in
 
   number of l-projection  operators is LMAX  =           6
   number of lm-projection operators is LMMAX =          18
 
 POTCAR:    PAW_PBE F 08Apr2002                   
   VRHFIN =F: s2p5                                                              
   LEXCH  = PE                                                                  
   EATOM  =   659.6475 eV,   48.4827 Ry                                         
                                                                                
   TITEL  = PAW_PBE F 08Apr2002                                                 
   LULTRA =        F    use ultrasoft PP ?                                      
   IUNSCR =        1    unscreen: 0-lin 1-nonlin 2-no                           
   RPACOR =    1.200    partial core radius                                     
   POMASS =   18.998; ZVAL   =    7.000    mass and valenz                      
   RCORE  =    1.520    outmost cutoff radius                                   
   RWIGS  =    1.500; RWIGS  =    0.794    wigner-seitz radius (au A)           
   ENMAX  =  400.000; ENMIN  =  300.000 eV                                      
   ICORE  =        2    local potential                                         
   LCOR   =        T    correct aug charges                                     
   LPAW   =        T    paw PP                                                  
   EAUG   =  613.614                                                            
   RMAX   =    1.555    core radius for proj-oper                               
   RAUG   =    1.300    factor for augmentation sphere                          
   RDEP   =    1.539    radius for radial grids                                 
   RDEPT  =    1.299    core radius for aug-charge                              
                                                                                
   Atomic configuration                                                         
    4 entries                                                                   
     n  l   j            E        occ.                                          
     1  0  0.50      -663.3661   2.0000                                         
     2  0  0.50       -29.8995   2.0000                                         
     2  1  0.50       -11.1114   5.0000                                         
     3  2  1.50       -10.8847   0.0000                                         
   Description                                                                  
     l       E           TYP  RCUT    TYP  RCUT                                 
     0    -29.8995018     23  1.200                                             
     0     -9.5240782     23  1.200                                             
     1    -11.1113914     23  1.520                                             
     1      1.3605826     23  1.520                                             
     2    -10.8846608      7  1.500                                             
  local pseudopotential read in
  partial core-charges read in
  partial kinetic energy density read in
  atomic valenz-charges read in
  non local Contribution for L=           0  read in
    real space projection operators read in
  non local Contribution for L=           0  read in
    real space projection operators read in
  non local Contribution for L=           1  read in
    real space projection operators read in
  non local Contribution for L=           1  read in
    real space projection operators read in
    PAW grid and wavefunctions read in
 
   number of l-projection  operators is LMAX  =           4
   number of lm-projection operators is LMMAX =           8
 
  PAW_PBE Mn_pv 02Aug2007               :
 energy of atom  1       EATOM=-2025.2664
 kinetic energy error for atom=    0.0055 (will be added to EATOM!!)
  PAW_PBE F 08Apr2002                   :
 energy of atom  2       EATOM= -659.6475
 kinetic energy error for atom=    0.0296 (will be added to EATOM!!)
 
 
 POSCAR: Mn  F                                   
  positions in cartesian coordinates
  No initial velocities read in

 METAGGA = SCAN     LMAXTAU =  6    LMIXTAU =  F

 exchange correlation table for  LEXCH =        8
   RHO(1)=    0.500       N(1)  =     2000
   RHO(2)=  100.500       N(2)  =     4000
 


--------------------------------------------------------------------------------------------------------


 ion  position               nearest neighbor table
   1  0.500  0.500  0.500-   3 2.09   4 2.09   5 2.13   6 2.13   5 2.13   6 2.13
   2  0.000  0.000  0.000-   5 2.09   6 2.09   3 2.13   4 2.13   3 2.13   4 2.13
   3  0.196  0.804  0.500-   1 2.09   2 2.13   2 2.13
   4  0.804  0.196  0.500-   1 2.09   2 2.13   2 2.13
   5  0.304  0.304  0.000-   2 2.09   1 2.13   1 2.13
   6  0.696  0.696  0.000-   2 2.09   1 2.13   1 2.13
 
  LATTYP: Found a simple tetragonal cell.
 ALAT       =     4.8576179902
 C/A-ratio  =     0.6771175779
  
  Lattice vectors:
  
 A1 = (   4.8576179902,   0.0000000000,   0.0000000000)
 A2 = (   0.0000000000,   4.8576179902,   0.0000000000)
 A3 = (   0.0000000000,   0.0000000000,   3.2891785281)


Analysis of symmetry for initial positions (statically):
=====================================================================
 Subroutine PRICEL returns:
 Original cell was already a primitive cell.
 

 Routine SETGRP: Setting up the symmetry group for a 
 simple tetragonal supercell.


 Subroutine GETGRP returns: Found 16 space group operations
 (whereof  8 operations were pure point group operations)
 out of a pool of 16 trial point group operations.


The static configuration has the point symmetry D_2h.
 The point group associated with its full space group is D_4h.


Analysis of symmetry for dynamics (positions and initial velocities):
=====================================================================
 Subroutine PRICEL returns:
 Original cell was already a primitive cell.
 

 Routine SETGRP: Setting up the symmetry group for a 
 simple tetragonal supercell.


 Subroutine GETGRP returns: Found 16 space group operations
 (whereof  8 operations were pure point group operations)
 out of a pool of 16 trial point group operations.


The dynamic configuration has the point symmetry D_2h.
 The point group associated with its full space group is D_4h.


Analysis of structural, dynamic, and magnetic symmetry:
=====================================================================
 Subroutine PRICEL returns:
 Original cell was already a primitive cell.
 

 Routine SETGRP: Setting up the symmetry group for a 
 simple tetragonal supercell.


 Subroutine GETGRP returns: Found 16 space group operations
 (whereof  8 operations were pure point group operations)
 out of a pool of 16 trial point group operations.


The magnetic configuration has the point symmetry D_2h.
 The point group associated with its full space group is D_4h.


 Subroutine INISYM returns: Found 16 space group operations
 (whereof  8 operations are pure point group operations),
 and found     1 'primitive' translations

 
 
 KPOINTS: KPOINTS created by Atomic Simulation Env

Automatic generation of k-mesh.
Space group operators:
 irot       det(A)        alpha          n_x          n_y          n_z        tau_x        tau_y        tau_z
    1     1.000000     0.000000     1.000000     0.000000     0.000000     0.000000     0.000000     0.000000
    2    -1.000000     0.000000     1.000000     0.000000     0.000000     0.000000     0.000000     0.000000
    3     1.000000   180.000000     0.000000     0.000000     1.000000     0.000000     0.000000     0.000000
    4    -1.000000   180.000000     0.000000     0.000000     1.000000     0.000000     0.000000     0.000000
    5     1.000000   180.000000     0.707107     0.707107     0.000000     0.000000     0.000000     0.000000
    6    -1.000000   180.000000     0.707107     0.707107     0.000000     0.000000     0.000000     0.000000
    7     1.000000   180.000000     0.707107    -0.707107     0.000000     0.000000     0.000000     0.000000
    8    -1.000000   180.000000     0.707107    -0.707107     0.000000     0.000000     0.000000     0.000000
    9     1.000000    90.000000     0.000000     0.000000    -1.000000     0.500000     0.500000     0.500000
   10    -1.000000    90.000000     0.000000     0.000000    -1.000000     0.500000     0.500000     0.500000
   11     1.000000    90.000000     0.000000     0.000000     1.000000     0.500000     0.500000     0.500000
   12    -1.000000    90.000000     0.000000     0.000000     1.000000     0.500000     0.500000     0.500000
   13     1.000000   179.999999     0.000000     1.000000     0.000000     0.500000     0.500000     0.500000
   14    -1.000000   179.999999     0.000000     1.000000     0.000000     0.500000     0.500000     0.500000
   15     1.000000   180.000000     1.000000     0.000000     0.000000     0.500000     0.500000     0.500000
   16    -1.000000   180.000000     1.000000     0.000000     0.000000     0.500000     0.500000     0.500000
 
 Subroutine IBZKPT returns following result:
 ===========================================
 
 Found      9 irreducible k-points:
 
 Following reciprocal coordinates:
            Coordinates               Weight
  0.125000  0.125000  0.083333      8.000000
  0.375000  0.125000  0.083333     16.000000
  0.375000  0.375000  0.083333      8.000000
  0.125000  0.125000  0.250000      8.000000
  0.375000  0.125000  0.250000     16.000000
  0.375000  0.375000  0.250000      8.000000
  0.125000  0.125000  0.416667      8.000000
  0.375000  0.125000  0.416667     16.000000
  0.375000  0.375000  0.416667      8.000000
 
 Following cartesian coordinates:
            Coordinates               Weight
  0.025733  0.025733  0.025336      8.000000
  0.077198  0.025733  0.025336     16.000000
  0.077198  0.077198  0.025336      8.000000
  0.025733  0.025733  0.076007      8.000000
  0.077198  0.025733  0.076007     16.000000
  0.077198  0.077198  0.076007      8.000000
  0.025733  0.025733  0.126678      8.000000
  0.077198  0.025733  0.126678     16.000000
  0.077198  0.077198  0.126678      8.000000
 
 TETIRR: Found    106 inequivalent tetrahedra from      576


--------------------------------------------------------------------------------------------------------




 Dimension of arrays:
   k-points           NKPTS =      9   k-points in BZ     NKDIM =      9   number of bands    NBANDS=     36
   number of dos      NEDOS =    301   number of ions     NIONS =      6
   non local maximal  LDIM  =      6   non local SUM 2l+1 LMDIM =     18
   total plane-waves  NPLWV =  15680
   max r-space proj   IRMAX =      1   max aug-charges    IRDMAX=  49234
   dimension x,y,z NGX =    28 NGY =   28 NGZ =   20
   dimension x,y,z NGXF=    56 NGYF=   56 NGZF=   40
   support grid    NGXF=   112 NGYF=  112 NGZF=   80
   ions per type =               2   4
   NGX,Y,Z   is equivalent  to a cutoff of   9.58,  9.58, 10.11 a.u.
   NGXF,Y,Z  is equivalent  to a cutoff of  19.17, 19.17, 20.22 a.u.

 SYSTEM =  unknown system                          
 POSCAR =  Mn  F                                   

 Startparameter for this run:
   NWRITE =      2    write-flag & timer
   PREC   = normal    normal or accurate (medium, high low for compatibility)
   ISTART =      0    job   : 0-new  1-cont  2-samecut
   ICHARG =      2    charge: 1-file 2-atom 10-const
   ISPIN  =      2    spin polarized calculation?
   LNONCOLLINEAR =      F non collinear calculations
   LSORBIT =      F    spin-orbit coupling
   INIWAV =      1    electr: 0-lowe 1-rand  2-diag
   LASPH  =      T    aspherical Exc in radial PAW
   METAGGA=      F    non-selfconsistent MetaGGA calc.

 Electronic Relaxation 1
   ENCUT  =  550.0 eV  40.42 Ry    6.36 a.u.   9.29  9.29  6.29*2*pi/ulx,y,z
   ENINI  =  550.0     initial cutoff
   ENAUG  =  613.6 eV  augmentation charge cutoff
   NELM   =     60;   NELMIN=  2; NELMDL= -5     # of ELM steps 
   EDIFF  = 0.1E-05   stopping-criterion for ELM
   LREAL  =      F    real-space projection
   NLSPLINE    = F    spline interpolate recip. space projectors
   LCOMPAT=      F    compatible to vasp.4.4
   GGA_COMPAT  = T    GGA compatible to vasp.4.4-vasp.4.6
   LMAXPAW     = -100 max onsite density
   LMAXMIX     =    4 max onsite mixed and CHGCAR
   VOSKOWN=      0    Vosko Wilk Nusair interpolation
   ROPT   =    0.00000   0.00000
 Ionic relaxation
   EDIFFG = 0.1E-04   stopping-criterion for IOM
   NSW    =      0    number of steps for IOM
   NBLOCK =      1;   KBLOCK =      1    inner block; outer block 
   IBRION =     -1    ionic relax: 0-MD 1-quasi-New 2-CG
   NFREE  =      0    steps in history (QN), initial steepest desc. (CG)
   ISIF   =      2    stress and relaxation
   IWAVPR =     10    prediction:  0-non 1-charg 2-wave 3-comb
   ISYM   =      2    0-nonsym 1-usesym 2-fastsym
   LCORR  =      T    Harris-Foulkes like correction to forces

   POTIM  = 0.5000    time-step for ionic-motion
   TEIN   =    0.0    initial temperature
   TEBEG  =    0.0;   TEEND  =   0.0 temperature during run
   SMASS  =  -3.00    Nose mass-parameter (am)
   estimated Nose-frequenzy (Omega)   =  0.10E-29 period in steps =****** mass=  -0.539E-27a.u.
   SCALEE = 1.0000    scale energy and forces
   NPACO  =    256;   APACO  = 16.0  distance and # of slots for P.C.
   PSTRESS=    0.0 pullay stress

  Mass of Ions in am
   POMASS =  54.94 19.00
  Ionic Valenz
   ZVAL   =  13.00  7.00
  Atomic Wigner-Seitz radii
   RWIGS  =  -1.00 -1.00
  virtual crystal weights 
   VCA    =   1.00  1.00
   NELECT =      54.0000    total number of electrons
   NUPDOWN=      -1.0000    fix difference up-down

 DOS related values:
   EMIN   =  10.00;   EMAX   =-10.00  energy-range for DOS
   EFERMI =   0.00
   ISMEAR =    -5;   SIGMA  =   0.20  broadening in eV -4-tet -1-fermi 0-gaus

 Electronic relaxation 2 (details)
   IALGO  =     38    algorithm
   LDIAG  =      T    sub-space diagonalisation (order eigenvalues)
   LSUBROT=      F    optimize rotation matrix (better conditioning)
   TURBO    =      0    0=normal 1=particle mesh
   IRESTART =      0    0=no restart 2=restart with 2 vectors
   NREBOOT  =      0    no. of reboots
   NMIN     =      0    reboot dimension
   EREF     =   0.00    reference energy to select bands
   IMIX   =      4    mixing-type and parameters
     AMIX     =   0.40;   BMIX     =  1.00
     AMIX_MAG =   1.60;   BMIX_MAG =  1.00
     AMIN     =   0.10
     WC   =   100.;   INIMIX=   1;  MIXPRE=   1;  MAXMIX= -45

 Intra band minimization:
   WEIMIN = 0.0000     energy-eigenvalue tresh-hold
   EBREAK =  0.69E-08  absolut break condition
   DEPER  =   0.30     relativ break condition  

   TIME   =   0.40     timestep for ELM

  volume/ion in A,a.u.               =      12.94        87.29
  Fermi-wavevector in a.u.,A,eV,Ry     =   1.450646  2.741323 28.631733  2.104373
  Thomas-Fermi vector in A             =   2.568234
 
 Write flags
   LWAVE        =      T    write WAVECAR
   LDOWNSAMPLE  =      F    k-point downsampling of WAVECAR
   LCHARG       =      T    write CHGCAR
   LVTOT        =      F    write LOCPOT, total local potential
   LVHAR        =      F    write LOCPOT, Hartree potential only
   LELF         =      F    write electronic localiz. function (ELF)
   LORBIT       =     11    0 simple, 1 ext, 2 COOP (PROOUT), +10 PAW based schemes


 Dipole corrections
   LMONO  =      F    monopole corrections only (constant potential shift)
   LDIPOL =      F    correct potential (dipole corrections)
   IDIPOL =      0    1-x, 2-y, 3-z, 4-all directions 
   EPSILON=  1.0000000 bulk dielectric constant

 LDA+U is selected, type is set to LDAUTYPE =  2
   angular momentum for each species LDAUL =     2   -1
   U (eV)           for each species LDAUU =   0.0  0.0
   J (eV)           for each species LDAUJ =   0.0  0.0
 Exchange correlation treatment:
   GGA     =    --    GGA type
   LEXCH   =     8    internal setting for exchange type
   VOSKOWN=      0    Vosko Wilk Nusair interpolation
   LHFCALC =     F    Hartree Fock is set to
   LHFONE  =     F    Hartree Fock one center treatment
   AEXX    =    0.0000 exact exchange contribution

 Linear response parameters
   LEPSILON=     F    determine dielectric tensor
   LRPA    =     F    only Hartree local field effects (RPA)
   LNABLA  =     F    use nabla operator in PAW spheres
   LVEL    =     F    velocity operator in full k-point grid
   LINTERFAST=   F  fast interpolation
   KINTER  =     0    interpolate to denser k-point grid
   CSHIFT  =0.1000    complex shift for real part using Kramers Kronig
   OMEGAMAX=  -1.0    maximum frequency
   DEG_THRESHOLD= 0.2000000E-02 threshold for treating states as degnerate
   RTIME   =   -0.100 relaxation time in fs
  (WPLASMAI=    0.000 imaginary part of plasma frequency in eV, 0.658/RTIME)
   DFIELD  = 0.0000000 0.0000000 0.0000000 field for delta impulse in time
 
 Orbital magnetization related:
   ORBITALMAG=     F  switch on orbital magnetization
   LCHIMAG   =     F  perturbation theory with respect to B field
   DQ        =  0.001000  dq finite difference perturbation B field
   LLRAUG    =     F  two centre corrections for induced B field



--------------------------------------------------------------------------------------------------------


 Static calculation
 charge density and potential will be updated during run
 spin polarized calculation
 Variant of blocked Davidson
 Davidson routine will perform the subspace rotation
 perform sub-space diagonalisation
    after iterative eigenvector-optimisation
 modified Broyden-mixing scheme, WC =      100.0
 initial mixing is a Kerker type mixing with AMIX =  0.4000 and BMIX =      1.0000
 Hartree-type preconditioning will be used
 using additional bands            9
 reciprocal scheme for non local part
 use partial core corrections
 calculate Harris-corrections to forces 
   (improved forces if not selfconsistent)
 use gradient corrections 
 use of overlap-Matrix (Vanderbilt PP)
 Fermi weights with tetrahedron method with Bloechl corrections


--------------------------------------------------------------------------------------------------------


  energy-cutoff  :      550.00
  volume of cell :       77.61
      direct lattice vectors                 reciprocal lattice vectors
     4.857617990  0.000000000  0.000000000     0.205862215  0.000000000  0.000000000
     0.000000000  4.857617990  0.000000000     0.000000000  0.205862215  0.000000000
     0.000000000  0.000000000  3.289178528     0.000000000  0.000000000  0.304027280

  length of vectors
     4.857617990  4.857617990  3.289178528     0.205862215  0.205862215  0.304027280


 
 k-points in units of 2pi/SCALE and weight: KPOINTS created by Atomic Simulation Env
   0.02573278  0.02573278  0.02533561       0.083
   0.07719833  0.02573278  0.02533561       0.167
   0.07719833  0.07719833  0.02533561       0.083
   0.02573278  0.02573278  0.07600682       0.083
   0.07719833  0.02573278  0.07600682       0.167
   0.07719833  0.07719833  0.07600682       0.083
   0.02573278  0.02573278  0.12667803       0.083
   0.07719833  0.02573278  0.12667803       0.167
   0.07719833  0.07719833  0.12667803       0.083
 
 k-points in reciprocal lattice and weights: KPOINTS created by Atomic Simulation Env
   0.12500000  0.12500000  0.08333333       0.083
   0.37500000  0.12500000  0.08333333       0.167
   0.37500000  0.37500000  0.08333333       0.083
   0.12500000  0.12500000  0.25000000       0.083
   0.37500000  0.12500000  0.25000000       0.167
   0.37500000  0.37500000  0.25000000       0.083
   0.12500000  0.12500000  0.41666667       0.083
   0.37500000  0.12500000  0.41666667       0.167
   0.37500000  0.37500000  0.41666667       0.083
 
 position of ions in fractional coordinates (direct lattice) 
   0.50000000  0.50000000  0.50000000
   0.00000000  0.00000000  0.00000000
   0.19608995  0.80391005  0.50000000
   0.80391005  0.19608995  0.50000000
   0.30391005  0.30391005  0.00000000
   0.69608995  0.69608995  0.00000000
 
 position of ions in cartesian coordinates  (Angst):
   2.42880900  2.42880900  1.64458926
   0.00000000  0.00000000  0.00000000
   0.95253007  3.90508792  1.64458926
   3.90508792  0.95253007  1.64458926
   1.47627893  1.47627893  0.00000000
   3.38133906  3.38133906  0.00000000
 


--------------------------------------------------------------------------------------------------------


 k-point  1 :   0.1250 0.1250 0.0833  plane waves:    2279
 k-point  2 :   0.3750 0.1250 0.0833  plane waves:    2275
 k-point  3 :   0.3750 0.3750 0.0833  plane waves:    2277
 k-point  4 :   0.1250 0.1250 0.2500  plane waves:    2266
 k-point  5 :   0.3750 0.1250 0.2500  plane waves:    2272
 k-point  6 :   0.3750 0.3750 0.2500  plane waves:    2273
 k-point  7 :   0.1250 0.1250 0.4167  plane waves:    2273
 k-point  8 :   0.3750 0.1250 0.4167  plane waves:    2278
 k-point  9 :   0.3750 0.3750 0.4167  plane waves:    2264

 maximum and minimum number of plane-waves per node :      2279     2264

 maximum number of plane-waves:      2279
 maximum index in each direction: 
   IXMAX=    9   IYMAX=    9   IZMAX=    6
   IXMIN=   -9   IYMIN=   -9   IZMIN=   -6


 serial   3D FFT for wavefunctions
 parallel 3D FFT for charge:
    minimum data exchange during FFTs selected (reduces bandwidth)


 total amount of memory used by VASP MPI-rank0    43466. kBytes
=======================================================================

   base      :      30000. kBytes
   nonl-proj :       6128. kBytes
   fftplans  :       1718. kBytes
   grid      :       3402. kBytes
   one-center:        186. kBytes
   wavefun   :       2032. kBytes
 
     INWAV:  cpu time    0.0000: real time    0.0000
 Broyden mixing: mesh for mixing (old mesh)
   NGX = 19   NGY = 19   NGZ = 13
  (NGX  = 56   NGY  = 56   NGZ  = 40)
  gives a total of   4693 points

 initial charge density was supplied:
 charge density of overlapping atoms calculated
 number of electron      54.0000000 magnetization       0.0000000
 keeping initial charge density in first step


--------------------------------------------------------------------------------------------------------


 Maximum index for augmentation-charges         5088 (set IRDMAX)


--------------------------------------------------------------------------------------------------------


 First call to EWALD:  gamma=   0.416
 Maximum number of real-space cells 2x 2x 3
 Maximum number of reciprocal cells 3x 3x 2

    FEWALD:  cpu time    0.0010: real time    0.0010


--------------------------------------- Iteration      1(   1)  ---------------------------------------


    POTLOK:  cpu time    0.0329: real time    0.0329
    SETDIJ:  cpu time    0.7778: real time    0.7779
atom =   1  type =  1  l = 2
 
 onsite density matrix
 
spin component  1
 
  0.2835  0.0000  0.0000  0.0000  0.0000
  0.0000  0.2835  0.0000  0.0000  0.0000
  0.0000  0.0000  0.2835  0.0000  0.0000
  0.0000  0.0000  0.0000  0.2835  0.0000
  0.0000  0.0000  0.0000  0.0000  0.2835
 
spin component  2
 
  0.7694  0.0000  0.0000  0.0000  0.0000
  0.0000  0.7694  0.0000  0.0000  0.0000
  0.0000  0.0000  0.7694  0.0000  0.0000
  0.0000  0.0000  0.0000  0.7694  0.0000
  0.0000  0.0000  0.0000  0.0000  0.7694
 
 occupancies and eigenvectors
 
  o =  0.2835  v =  1.0000  0.0000  0.0000  0.0000  0.0000  0.0000  0.0000  0.0000  0.0000  0.0000      0.0000  0.0000  0.0000  0.0000  0.0000  0.0000  0.0000  0.0000  0.0000  0.0000
  o =  0.2835  v =  0.0000  1.0000  0.0000  0.0000  0.0000  0.0000  0.0000  0.0000  0.0000  0.0000      0.0000  0.0000  0.0000  0.0000  0.0000  0.0000  0.0000  0.0000  0.0000  0.0000
  o =  0.2835  v =  0.0000  0.0000  1.0000  0.0000  0.0000  0.0000  0.0000  0.0000  0.0000  0.0000      0.0000  0.0000  0.0000  0.0000  0.0000  0.0000  0.0000  0.0000  0.0000  0.0000
  o =  0.2835  v =  0.0000  0.0000  0.0000  1.0000  0.0000  0.0000  0.0000  0.0000  0.0000  0.0000      0.0000  0.0000  0.0000  0.0000  0.0000  0.0000  0.0000  0.0000  0.0000  0.0000
  o =  0.2835  v =  0.0000  0.0000  0.0000  0.0000  1.0000  0.0000  0.0000  0.0000  0.0000  0.0000      0.0000  0.0000  0.0000  0.0000  0.0000  0.0000  0.0000  0.0000  0.0000  0.0000
  o =  0.7694  v =  0.0000  0.0000  0.0000  0.0000  0.0000  1.0000  0.0000  0.0000  0.0000  0.0000      0.0000  0.0000  0.0000  0.0000  0.0000  0.0000  0.0000  0.0000  0.0000  0.0000
  o =  0.7694  v =  0.0000  0.0000  0.0000  0.0000  0.0000  0.0000  1.0000  0.0000  0.0000  0.0000      0.0000  0.0000  0.0000  0.0000  0.0000  0.0000  0.0000  0.0000  0.0000  0.0000
  o =  0.7694  v =  0.0000  0.0000  0.0000  0.0000  0.0000  0.0000  0.0000  1.0000  0.0000  0.0000      0.0000  0.0000  0.0000  0.0000  0.0000  0.0000  0.0000  0.0000  0.0000  0.0000
  o =  0.7694  v =  0.0000  0.0000  0.0000  0.0000  0.0000  0.0000  0.0000  0.0000  1.0000  0.0000      0.0000  0.0000  0.0000  0.0000  0.0000  0.0000  0.0000  0.0000  0.0000  0.0000
  o =  0.7694  v =  0.0000  0.0000  0.0000  0.0000  0.0000  0.0000  0.0000  0.0000  0.0000  1.0000      0.0000  0.0000  0.0000  0.0000  0.0000  0.0000  0.0000  0.0000  0.0000  0.0000
atom =   2  type =  1  l = 2
 
 onsite density matrix
 
spin component  1
 
  0.7694  0.0000  0.0000  0.0000  0.0000
  0.0000  0.7694  0.0000  0.0000  0.0000
  0.0000  0.0000  0.7694  0.0000  0.0000
  0.0000  0.0000  0.0000  0.7694  0.0000
  0.0000  0.0000  0.0000  0.0000  0.7694
 
spin component  2
 
  0.2835  0.0000  0.0000  0.0000  0.0000
  0.0000  0.2835  0.0000  0.0000  0.0000
  0.0000  0.0000  0.2835  0.0000  0.0000
  0.0000  0.0000  0.0000  0.2835  0.0000
  0.0000  0.0000  0.0000  0.0000  0.2835
 
 occupancies and eigenvectors
 
  o =  0.2835  v =  0.0000  0.0000  0.0000  0.0000  0.0000  1.0000  0.0000  0.0000  0.0000  0.0000      0.0000  0.0000  0.0000  0.0000  0.0000  0.0000  0.0000  0.0000  0.0000  0.0000
  o =  0.2835  v =  0.0000  0.0000  0.0000  0.0000  0.0000  0.0000  1.0000  0.0000  0.0000  0.0000      0.0000  0.0000  0.0000  0.0000  0.0000  0.0000  0.0000  0.0000  0.0000  0.0000
  o =  0.2835  v =  0.0000  0.0000  0.0000  0.0000  0.0000  0.0000  0.0000  1.0000  0.0000  0.0000      0.0000  0.0000  0.0000  0.0000  0.0000  0.0000  0.0000  0.0000  0.0000  0.0000
  o =  0.2835  v =  0.0000  0.0000  0.0000  0.0000  0.0000  0.0000  0.0000  0.0000  1.0000  0.0000      0.0000  0.0000  0.0000  0.0000  0.0000  0.0000  0.0000  0.0000  0.0000  0.0000
  o =  0.2835  v =  0.0000  0.0000  0.0000  0.0000  0.0000  0.0000  0.0000  0.0000  0.0000  1.0000      0.0000  0.0000  0.0000  0.0000  0.0000  0.0000  0.0000  0.0000  0.0000  0.0000
  o =  0.7694  v =  1.0000  0.0000  0.0000  0.0000  0.0000  0.0000  0.0000  0.0000  0.0000  0.0000      0.0000  0.0000  0.0000  0.0000  0.0000  0.0000  0.0000  0.0000  0.0000  0.0000
  o =  0.7694  v =  0.0000  1.0000  0.0000  0.0000  0.0000  0.0000  0.0000  0.0000  0.0000  0.0000      0.0000  0.0000  0.0000  0.0000  0.0000  0.0000  0.0000  0.0000  0.0000  0.0000
  o =  0.7694  v =  0.0000  0.0000  1.0000  0.0000  0.0000  0.0000  0.0000  0.0000  0.0000  0.0000      0.0000  0.0000  0.0000  0.0000  0.0000  0.0000  0.0000  0.0000  0.0000  0.0000
  o =  0.7694  v =  0.0000  0.0000  0.0000  1.0000  0.0000  0.0000  0.0000  0.0000  0.0000  0.0000      0.0000  0.0000  0.0000  0.0000  0.0000  0.0000  0.0000  0.0000  0.0000  0.0000
  o =  0.7694  v =  0.0000  0.0000  0.0000  0.0000  1.0000  0.0000  0.0000  0.0000  0.0000  0.0000      0.0000  0.0000  0.0000  0.0000  0.0000  0.0000  0.0000  0.0000  0.0000  0.0000
     EDDAV:  cpu time    0.6261: real time    0.6448
 BZINTS: Fermi energy: 24.733804; 54.000000 electrons
         Band energy: 340.605266;  BLOECHL correction: -0.177206
       DOS:  cpu time    0.0104: real time    0.0104
    --------------------------------------------
      LOOP:  cpu time    1.4473: real time    1.4659

 eigenvalue-minimisations  :  1308
 total energy-change (2. order) : 0.9304940E+03  (-0.3578361E+04)
 number of electron      54.0000000 magnetization       0.0000000
 augmentation part       54.0000000 magnetization       0.0000000

 Free energy of the ion-electron system (eV)
  ---------------------------------------------------
  alpha Z        PSCENC =       198.90350418
  Ewald energy   TEWEN  =     -4199.39206938
  -Hartree energ DENC   =     -2132.96017324
  -exchange      EXHF   =         0.00000000
  -V(xc)+E(xc)   XCENC  =        -3.96110471
  PAW double counting   =      5566.43601843    -5528.13058630
  entropy T*S    EENTRO =         0.00000000
  eigenvalues    EBANDS =       340.60526552
  atomic energy  EATOM  =      6688.99317229
  Solvation  Ediel_sol  =         0.00000000
  ---------------------------------------------------
  free energy    TOTEN  =       930.49402680 eV

  energy without entropy =      930.49402680  energy(sigma->0) =      930.49402680


--------------------------------------------------------------------------------------------------------




--------------------------------------- Iteration      1(   2)  ---------------------------------------


     EDDAV:  cpu time    0.6830: real time    0.6830
 BZINTS: Fermi energy: 11.855388; 54.000000 electrons
         Band energy:-191.306613;  BLOECHL correction: -0.011123
       DOS:  cpu time    0.0102: real time    0.0102
    --------------------------------------------
      LOOP:  cpu time    0.6931: real time    0.6932

 eigenvalue-minimisations  :  1512
 total energy-change (2. order) :-0.5319119E+03  (-0.5093389E+03)
 number of electron      54.0000000 magnetization       0.0000000
 augmentation part       54.0000000 magnetization       0.0000000

 Free energy of the ion-electron system (eV)
  ---------------------------------------------------
  alpha Z        PSCENC =       198.90350418
  Ewald energy   TEWEN  =     -4199.39206938
  -Hartree energ DENC   =     -2132.96017324
  -exchange      EXHF   =         0.00000000
  -V(xc)+E(xc)   XCENC  =        -3.96110471
  PAW double counting   =      5566.43601843    -5528.13058630
  entropy T*S    EENTRO =         0.00000000
  eigenvalues    EBANDS =      -191.30661262
  atomic energy  EATOM  =      6688.99317229
  Solvation  Ediel_sol  =         0.00000000
  ---------------------------------------------------
  free energy    TOTEN  =       398.58214866 eV

  energy without entropy =      398.58214866  energy(sigma->0) =      398.58214866


--------------------------------------------------------------------------------------------------------




--------------------------------------- Iteration      1(   3)  ---------------------------------------


     EDDAV:  cpu time    0.6758: real time    0.6758
 BZINTS: Fermi energy:  9.831642; 54.000000 electrons
         Band energy:-222.463123;  BLOECHL correction:  0.000000
       DOS:  cpu time    0.0017: real time    0.0017
    --------------------------------------------
      LOOP:  cpu time    0.6775: real time    0.6775

 eigenvalue-minimisations  :  1488
 total energy-change (2. order) :-0.3115651E+02  (-0.3092494E+02)
 number of electron      54.0000000 magnetization       0.0000000
 augmentation part       54.0000000 magnetization       0.0000000

 Free energy of the ion-electron system (eV)
  ---------------------------------------------------
  alpha Z        PSCENC =       198.90350418
  Ewald energy   TEWEN  =     -4199.39206938
  -Hartree energ DENC   =     -2132.96017324
  -exchange      EXHF   =         0.00000000
  -V(xc)+E(xc)   XCENC  =        -3.96110471
  PAW double counting   =      5566.43601843    -5528.13058630
  entropy T*S    EENTRO =         0.00000000
  eigenvalues    EBANDS =      -222.46312303
  atomic energy  EATOM  =      6688.99317229
  Solvation  Ediel_sol  =         0.00000000
  ---------------------------------------------------
  free energy    TOTEN  =       367.42563825 eV

  energy without entropy =      367.42563825  energy(sigma->0) =      367.42563825


--------------------------------------------------------------------------------------------------------




--------------------------------------- Iteration      1(   4)  ---------------------------------------


     EDDAV:  cpu time    0.6890: real time    0.6890
 BZINTS: Fermi energy:  9.915946; 54.000000 electrons
         Band energy:-222.824200;  BLOECHL correction:  0.000000
       DOS:  cpu time    0.0020: real time    0.0020
    --------------------------------------------
      LOOP:  cpu time    0.6909: real time    0.6909

 eigenvalue-minimisations  :  1524
 total energy-change (2. order) :-0.3610768E+00  (-0.3607849E+00)
 number of electron      54.0000000 magnetization       0.0000000
 augmentation part       54.0000000 magnetization       0.0000000

 Free energy of the ion-electron system (eV)
  ---------------------------------------------------
  alpha Z        PSCENC =       198.90350418
  Ewald energy   TEWEN  =     -4199.39206938
  -Hartree energ DENC   =     -2132.96017324
  -exchange      EXHF   =         0.00000000
  -V(xc)+E(xc)   XCENC  =        -3.96110471
  PAW double counting   =      5566.43601843    -5528.13058630
  entropy T*S    EENTRO =         0.00000000
  eigenvalues    EBANDS =      -222.82419981
  atomic energy  EATOM  =      6688.99317229
  Solvation  Ediel_sol  =         0.00000000
  ---------------------------------------------------
  free energy    TOTEN  =       367.06456147 eV

  energy without entropy =      367.06456147  energy(sigma->0) =      367.06456147


--------------------------------------------------------------------------------------------------------




--------------------------------------- Iteration      1(   5)  ---------------------------------------


     EDDAV:  cpu time    0.6803: real time    0.6803
 BZINTS: Fermi energy:  9.912457; 54.000000 electrons
         Band energy:-222.830467;  BLOECHL correction:  0.000000
       DOS:  cpu time    0.0020: real time    0.0020
    CHARGE:  cpu time    0.1284: real time    0.1284
    MIXING:  cpu time    0.0005: real time    0.0005
    --------------------------------------------
      LOOP:  cpu time    0.8112: real time    0.8112

 eigenvalue-minimisations  :  1500
 total energy-change (2. order) :-0.6267062E-02  (-0.6267004E-02)
 number of electron      54.0000009 magnetization      -0.0000000
 augmentation part       22.6131244 magnetization      -0.0000000

 Broyden mixing:
  rms(total) = 0.58595E+01    rms(broyden)= 0.58591E+01
  rms(prec ) = 0.60858E+01
  weight for this iteration     100.00

 Free energy of the ion-electron system (eV)
  ---------------------------------------------------
  alpha Z        PSCENC =       198.90350418
  Ewald energy   TEWEN  =     -4199.39206938
  -Hartree energ DENC   =     -2132.96017324
  -exchange      EXHF   =         0.00000000
  -V(xc)+E(xc)   XCENC  =        -3.96110471
  PAW double counting   =      5566.43601843    -5528.13058630
  entropy T*S    EENTRO =         0.00000000
  eigenvalues    EBANDS =      -222.83046687
  atomic energy  EATOM  =      6688.99317229
  Solvation  Ediel_sol  =         0.00000000
  ---------------------------------------------------
  free energy    TOTEN  =       367.05829441 eV

  energy without entropy =      367.05829441  energy(sigma->0) =      367.05829441


--------------------------------------------------------------------------------------------------------




--------------------------------------- Iteration      1(   6)  ---------------------------------------


    POTLOK:  cpu time    0.0314: real time    0.0314
    SETDIJ:  cpu time    1.4937: real time    1.4938
atom =   1  type =  1  l = 2
 
 onsite density matrix
 
spin component  1
 
  0.0312  0.0000  0.0648  0.0000  0.0000
  0.0000  0.0070  0.0000  0.0599  0.0000
  0.0648  0.0000 -0.0093  0.0000 -0.0000
  0.0000  0.0599  0.0000  0.0070  0.0000
  0.0000  0.0000 -0.0000  0.0000 -0.0707
 
spin component  2
 
  1.0591  0.0000 -0.0307  0.0000 -0.0000
  0.0000  1.0711  0.0000 -0.0288  0.0000
 -0.0307  0.0000  1.0783  0.0000  0.0000
  0.0000 -0.0288  0.0000  1.0711  0.0000
 -0.0000  0.0000  0.0000  0.0000  1.1087
 
 occupancies and eigenvectors
 
  o = -0.0707  v =  0.0000 -0.0000 -0.0000  0.0000 -1.0000  0.0000  0.0000  0.0000  0.0000  0.0000      0.0000  0.0000  0.0000  0.0000  0.0000  0.0000  0.0000  0.0000  0.0000  0.0000
  o = -0.0569  v = -0.5922 -0.0000  0.8058  0.0000 -0.0000  0.0000  0.0000  0.0000  0.0000  0.0000      0.0000  0.0000  0.0000  0.0000  0.0000  0.0000  0.0000  0.0000  0.0000  0.0000
  o = -0.0529  v =  0.0000 -0.7071 -0.0000  0.7071  0.0000  0.0000  0.0000  0.0000  0.0000  0.0000      0.0000  0.0000  0.0000  0.0000  0.0000  0.0000  0.0000  0.0000  0.0000  0.0000
  o =  0.0670  v =  0.0000 -0.7071  0.0000 -0.7071 -0.0000  0.0000  0.0000  0.0000  0.0000  0.0000      0.0000  0.0000  0.0000  0.0000  0.0000  0.0000  0.0000  0.0000  0.0000  0.0000
  o =  0.0788  v = -0.8058 -0.0000 -0.5922 -0.0000  0.0000  0.0000  0.0000  0.0000  0.0000  0.0000      0.0000  0.0000  0.0000  0.0000  0.0000  0.0000  0.0000  0.0000  0.0000  0.0000
  o =  1.0365  v =  0.0000  0.0000  0.0000  0.0000  0.0000  0.8057 -0.0000  0.5923 -0.0000 -0.0000      0.0000  0.0000  0.0000  0.0000  0.0000  0.0000  0.0000  0.0000  0.0000  0.0000
  o =  1.0424  v =  0.0000  0.0000  0.0000  0.0000  0.0000 -0.0000 -0.7071 -0.0000 -0.7071  0.0000      0.0000  0.0000  0.0000  0.0000  0.0000  0.0000  0.0000  0.0000  0.0000  0.0000
  o =  1.0999  v =  0.0000  0.0000  0.0000  0.0000  0.0000  0.0000  0.7071 -0.0000 -0.7071  0.0000      0.0000  0.0000  0.0000  0.0000  0.0000  0.0000  0.0000  0.0000  0.0000  0.0000
  o =  1.1009  v =  0.0000  0.0000  0.0000  0.0000  0.0000 -0.5923  0.0000  0.8057 -0.0000 -0.0000      0.0000  0.0000  0.0000  0.0000  0.0000  0.0000  0.0000  0.0000  0.0000  0.0000
  o =  1.1087  v =  0.0000  0.0000  0.0000  0.0000  0.0000 -0.0000 -0.0000  0.0000  0.0000  1.0000      0.0000  0.0000  0.0000  0.0000  0.0000  0.0000  0.0000  0.0000  0.0000  0.0000
atom =   2  type =  1  l = 2
 
 onsite density matrix
 
spin component  1
 
  1.0591  0.0000  0.0307  0.0000 -0.0000
  0.0000  1.0711  0.0000  0.0288  0.0000
  0.0307  0.0000  1.0783  0.0000 -0.0000
  0.0000  0.0288  0.0000  1.0711  0.0000
 -0.0000  0.0000 -0.0000  0.0000  1.1087
 
spin component  2
 
  0.0312  0.0000 -0.0648  0.0000  0.0000
  0.0000  0.0070  0.0000 -0.0599  0.0000
 -0.0648  0.0000 -0.0093  0.0000  0.0000
  0.0000 -0.0599  0.0000  0.0070  0.0000
  0.0000  0.0000  0.0000  0.0000 -0.0707
 
 occupancies and eigenvectors
 
  o = -0.0707  v =  0.0000  0.0000  0.0000  0.0000  0.0000  0.0000  0.0000  0.0000  0.0000 -1.0000      0.0000  0.0000  0.0000  0.0000  0.0000  0.0000  0.0000  0.0000  0.0000  0.0000
  o = -0.0569  v =  0.0000  0.0000  0.0000  0.0000  0.0000 -0.5922  0.0000 -0.8058  0.0000 -0.0000      0.0000  0.0000  0.0000  0.0000  0.0000  0.0000  0.0000  0.0000  0.0000  0.0000
  o = -0.0529  v =  0.0000  0.0000  0.0000  0.0000  0.0000  0.0000 -0.7071  0.0000 -0.7071 -0.0000      0.0000  0.0000  0.0000  0.0000  0.0000  0.0000  0.0000  0.0000  0.0000  0.0000
  o =  0.0670  v =  0.0000  0.0000  0.0000  0.0000  0.0000  0.0000 -0.7071  0.0000  0.7071 -0.0000      0.0000  0.0000  0.0000  0.0000  0.0000  0.0000  0.0000  0.0000  0.0000  0.0000
  o =  0.0788  v =  0.0000  0.0000  0.0000  0.0000  0.0000  0.8058  0.0000 -0.5922  0.0000 -0.0000      0.0000  0.0000  0.0000  0.0000  0.0000  0.0000  0.0000  0.0000  0.0000  0.0000
  o =  1.0365  v =  0.8057 -0.0000 -0.5923  0.0000 -0.0000  0.0000  0.0000  0.0000  0.0000  0.0000      0.0000  0.0000  0.0000  0.0000  0.0000  0.0000  0.0000  0.0000  0.0000  0.0000
  o =  1.0424  v = -0.0000 -0.7071  0.0000  0.7071  0.0000  0.0000  0.0000  0.0000  0.0000  0.0000      0.0000  0.0000  0.0000  0.0000  0.0000  0.0000  0.0000  0.0000  0.0000  0.0000
  o =  1.0999  v =  0.0000  0.7071  0.0000  0.7071 -0.0000  0.0000  0.0000  0.0000  0.0000  0.0000      0.0000  0.0000  0.0000  0.0000  0.0000  0.0000  0.0000  0.0000  0.0000  0.0000
  o =  1.1009  v = -0.5923  0.0000 -0.8057  0.0000 -0.0000  0.0000  0.0000  0.0000  0.0000  0.0000      0.0000  0.0000  0.0000  0.0000  0.0000  0.0000  0.0000  0.0000  0.0000  0.0000
  o =  1.1087  v = -0.0000  0.0000 -0.0000  0.0000  1.0000  0.0000  0.0000  0.0000  0.0000  0.0000      0.0000  0.0000  0.0000  0.0000  0.0000  0.0000  0.0000  0.0000  0.0000  0.0000
     EDDAV:  cpu time    0.7068: real time    0.7068
 BZINTS: Fermi energy:  6.911812; 54.000000 electrons
         Band energy:-736.213449;  BLOECHL correction: -0.007387
       DOS:  cpu time    0.0103: real time    0.0103
    CHARGE:  cpu time    0.1281: real time    0.1281
    MIXING:  cpu time    0.0005: real time    0.0005
    --------------------------------------------
      LOOP:  cpu time    2.3708: real time    2.3709

 eigenvalue-minimisations  :  1572
 total energy-change (2. order) :-0.4360815E+03  (-0.2743201E+02)
 number of electron      54.0000008 magnetization      -0.0000000
 augmentation part       19.6915240 magnetization      -0.0000000

 Broyden mixing:
  rms(total) = 0.62370E+01    rms(broyden)= 0.62370E+01
  rms(prec ) = 0.67269E+01
  weight for this iteration     100.00

 eigenvalues of (default mixing * dielectric matrix)
  average eigenvalue GAMMA=   0.4173
  0.4173

 Free energy of the ion-electron system (eV)
  ---------------------------------------------------
  alpha Z        PSCENC =       198.90350418
  Ewald energy   TEWEN  =     -4199.39206938
  -Hartree energ DENC   =     -2199.08502000
  -exchange      EXHF   =         0.00000000
  -V(xc)+E(xc)   XCENC  =       144.28844071
  PAW double counting   =      6426.25629243    -6392.77405112
  entropy T*S    EENTRO =         0.00000000
  eigenvalues    EBANDS =      -736.21344856
  atomic energy  EATOM  =      6688.99317229
  Solvation  Ediel_sol  =         0.00000000
  ---------------------------------------------------
  free energy    TOTEN  =       -69.02317944 eV

  energy without entropy =      -69.02317944  energy(sigma->0) =      -69.02317944


--------------------------------------------------------------------------------------------------------




--------------------------------------- Iteration      1(   7)  ---------------------------------------


    POTLOK:  cpu time    0.0315: real time    0.0315
    SETDIJ:  cpu time    1.4739: real time    1.4739
atom =   1  type =  1  l = 2
 
 onsite density matrix
 
spin component  1
 
  0.0824  0.0000  0.0357  0.0000 -0.0000
  0.0000  0.0545  0.0000  0.0242  0.0000
  0.0357  0.0000  0.0567  0.0000 -0.0000
  0.0000  0.0242  0.0000  0.0545  0.0000
 -0.0000  0.0000 -0.0000  0.0000  0.0195
 
spin component  2
 
  0.9756  0.0000 -0.0059  0.0000 -0.0000
  0.0000  1.0025  0.0000  0.0083  0.0000
 -0.0059  0.0000  0.9867  0.0000  0.0000
  0.0000  0.0083  0.0000  1.0025  0.0000
 -0.0000  0.0000  0.0000  0.0000  0.9979
 
 occupancies and eigenvectors
 
  o =  0.0195  v =  0.0000 -0.0000 -0.0000  0.0000 -1.0000  0.0000  0.0000  0.0000  0.0000  0.0000      0.0000  0.0000  0.0000  0.0000  0.0000  0.0000  0.0000  0.0000  0.0000  0.0000
  o =  0.0303  v =  0.0000 -0.7071  0.0000  0.7071  0.0000  0.0000  0.0000  0.0000  0.0000  0.0000      0.0000  0.0000  0.0000  0.0000  0.0000  0.0000  0.0000  0.0000  0.0000  0.0000
  o =  0.0316  v = -0.5752 -0.0000  0.8180  0.0000 -0.0000  0.0000  0.0000  0.0000  0.0000  0.0000      0.0000  0.0000  0.0000  0.0000  0.0000  0.0000  0.0000  0.0000  0.0000  0.0000
  o =  0.0787  v =  0.0000  0.7071  0.0000  0.7071 -0.0000  0.0000  0.0000  0.0000  0.0000  0.0000      0.0000  0.0000  0.0000  0.0000  0.0000  0.0000  0.0000  0.0000  0.0000  0.0000
  o =  0.1075  v = -0.8180  0.0000 -0.5752  0.0000  0.0000  0.0000  0.0000  0.0000  0.0000  0.0000      0.0000  0.0000  0.0000  0.0000  0.0000  0.0000  0.0000  0.0000  0.0000  0.0000
  o =  0.9731  v =  0.0000  0.0000  0.0000  0.0000  0.0000 -0.9185  0.0000 -0.3955  0.0000 -0.0000      0.0000  0.0000  0.0000  0.0000  0.0000  0.0000  0.0000  0.0000  0.0000  0.0000
  o =  0.9893  v =  0.0000  0.0000  0.0000  0.0000  0.0000 -0.3955  0.0000  0.9185  0.0000  0.0000      0.0000  0.0000  0.0000  0.0000  0.0000  0.0000  0.0000  0.0000  0.0000  0.0000
  o =  0.9943  v =  0.0000  0.0000  0.0000  0.0000  0.0000  0.0000  0.7071  0.0000 -0.7071 -0.0000      0.0000  0.0000  0.0000  0.0000  0.0000  0.0000  0.0000  0.0000  0.0000  0.0000
  o =  0.9979  v =  0.0000  0.0000  0.0000  0.0000  0.0000  0.0000 -0.0000  0.0000  0.0000 -1.0000      0.0000  0.0000  0.0000  0.0000  0.0000  0.0000  0.0000  0.0000  0.0000  0.0000
  o =  1.0108  v =  0.0000  0.0000  0.0000  0.0000  0.0000  0.0000 -0.7071  0.0000 -0.7071  0.0000      0.0000  0.0000  0.0000  0.0000  0.0000  0.0000  0.0000  0.0000  0.0000  0.0000
atom =   2  type =  1  l = 2
 
 onsite density matrix
 
spin component  1
 
  0.9756  0.0000  0.0059  0.0000 -0.0000
  0.0000  1.0025  0.0000 -0.0083  0.0000
  0.0059  0.0000  0.9867  0.0000 -0.0000
  0.0000 -0.0083  0.0000  1.0025  0.0000
 -0.0000  0.0000 -0.0000  0.0000  0.9979
 
spin component  2
 
  0.0824  0.0000 -0.0357  0.0000  0.0000
  0.0000  0.0545  0.0000 -0.0242  0.0000
 -0.0357  0.0000  0.0567  0.0000  0.0000
  0.0000 -0.0242  0.0000  0.0545  0.0000
  0.0000  0.0000  0.0000  0.0000  0.0195
 
 occupancies and eigenvectors
 
  o =  0.0195  v =  0.0000  0.0000  0.0000  0.0000  0.0000  0.0000  0.0000  0.0000  0.0000 -1.0000      0.0000  0.0000  0.0000  0.0000  0.0000  0.0000  0.0000  0.0000  0.0000  0.0000
  o =  0.0303  v =  0.0000  0.0000  0.0000  0.0000  0.0000  0.0000  0.7071  0.0000  0.7071 -0.0000      0.0000  0.0000  0.0000  0.0000  0.0000  0.0000  0.0000  0.0000  0.0000  0.0000
  o =  0.0316  v =  0.0000  0.0000  0.0000  0.0000  0.0000 -0.5752  0.0000 -0.8180  0.0000 -0.0000      0.0000  0.0000  0.0000  0.0000  0.0000  0.0000  0.0000  0.0000  0.0000  0.0000
  o =  0.0787  v =  0.0000  0.0000  0.0000  0.0000  0.0000  0.0000 -0.7071  0.0000  0.7071  0.0000      0.0000  0.0000  0.0000  0.0000  0.0000  0.0000  0.0000  0.0000  0.0000  0.0000
  o =  0.1075  v =  0.0000  0.0000  0.0000  0.0000  0.0000 -0.8180 -0.0000  0.5752  0.0000  0.0000      0.0000  0.0000  0.0000  0.0000  0.0000  0.0000  0.0000  0.0000  0.0000  0.0000
  o =  0.9731  v =  0.9185 -0.0000 -0.3955  0.0000 -0.0000  0.0000  0.0000  0.0000  0.0000  0.0000      0.0000  0.0000  0.0000  0.0000  0.0000  0.0000  0.0000  0.0000  0.0000  0.0000
  o =  0.9893  v =  0.3955  0.0000  0.9185  0.0000  0.0000  0.0000  0.0000  0.0000  0.0000  0.0000      0.0000  0.0000  0.0000  0.0000  0.0000  0.0000  0.0000  0.0000  0.0000  0.0000
  o =  0.9943  v =  0.0000 -0.7071  0.0000 -0.7071  0.0000  0.0000  0.0000  0.0000  0.0000  0.0000      0.0000  0.0000  0.0000  0.0000  0.0000  0.0000  0.0000  0.0000  0.0000  0.0000
  o =  0.9979  v =  0.0000 -0.0000  0.0000  0.0000 -1.0000  0.0000  0.0000  0.0000  0.0000  0.0000      0.0000  0.0000  0.0000  0.0000  0.0000  0.0000  0.0000  0.0000  0.0000  0.0000
  o =  1.0108  v =  0.0000  0.7071  0.0000 -0.7071 -0.0000  0.0000  0.0000  0.0000  0.0000  0.0000      0.0000  0.0000  0.0000  0.0000  0.0000  0.0000  0.0000  0.0000  0.0000  0.0000
     EDDAV:  cpu time    0.6264: real time    0.6264
 BZINTS: Fermi energy:  4.879423; 54.000000 electrons
         Band energy:-780.435922;  BLOECHL correction:  0.000000
       DOS:  cpu time    0.0017: real time    0.0017
    CHARGE:  cpu time    0.1292: real time    0.1292
    MIXING:  cpu time    0.0005: real time    0.0005
    --------------------------------------------
      LOOP:  cpu time    2.2632: real time    2.2632

 eigenvalue-minimisations  :  1332
 total energy-change (2. order) :-0.2575385E+01  (-0.5018496E+01)
 number of electron      54.0000008 magnetization      -0.0000000
 augmentation part       19.7103801 magnetization      -0.0000000

 Broyden mixing:
  rms(total) = 0.17222E+01    rms(broyden)= 0.17220E+01
  rms(prec ) = 0.25324E+01
  weight for this iteration     100.00

 eigenvalues of (default mixing * dielectric matrix)
  average eigenvalue GAMMA=   0.6931
  0.6931  0.6931

 Free energy of the ion-electron system (eV)
  ---------------------------------------------------
  alpha Z        PSCENC =       198.90350418
  Ewald energy   TEWEN  =     -4199.39206938
  -Hartree energ DENC   =     -2180.44477613
  -exchange      EXHF   =         0.00000000
  -V(xc)+E(xc)   XCENC  =       167.64346829
  PAW double counting   =      6483.40092766    -6450.26686995
  entropy T*S    EENTRO =         0.00000000
  eigenvalues    EBANDS =      -780.43592178
  atomic energy  EATOM  =      6688.99317229
  Solvation  Ediel_sol  =         0.00000000
  ---------------------------------------------------
  free energy    TOTEN  =       -71.59856481 eV

  energy without entropy =      -71.59856481  energy(sigma->0) =      -71.59856481


--------------------------------------------------------------------------------------------------------




--------------------------------------- Iteration      1(   8)  ---------------------------------------


    POTLOK:  cpu time    0.0314: real time    0.0314
    SETDIJ:  cpu time    1.4744: real time    1.4744
atom =   1  type =  1  l = 2
 
 onsite density matrix
 
spin component  1
 
  0.0461  0.0000  0.0141  0.0000  0.0000
  0.0000  0.0499  0.0000  0.0213  0.0000
  0.0141  0.0000  0.0400  0.0000 -0.0000
  0.0000  0.0213  0.0000  0.0499  0.0000
  0.0000  0.0000 -0.0000  0.0000  0.0236
 
spin component  2
 
  0.9917  0.0000  0.0225  0.0000 -0.0000
  0.0000  0.9820  0.0000  0.0120  0.0000
  0.0225  0.0000  0.9802  0.0000 -0.0000
  0.0000  0.0120  0.0000  0.9820  0.0000
 -0.0000  0.0000 -0.0000  0.0000  0.9691
 
 occupancies and eigenvectors
 
  o =  0.0236  v =  0.0000  0.0000 -0.0000  0.0000 -1.0000  0.0000  0.0000  0.0000  0.0000  0.0000      0.0000  0.0000  0.0000  0.0000  0.0000  0.0000  0.0000  0.0000  0.0000  0.0000
  o =  0.0286  v =  0.0000  0.7071  0.0000 -0.7071  0.0000  0.0000  0.0000  0.0000  0.0000  0.0000      0.0000  0.0000  0.0000  0.0000  0.0000  0.0000  0.0000  0.0000  0.0000  0.0000
  o =  0.0286  v = -0.6291  0.0000  0.7773  0.0000 -0.0000  0.0000  0.0000  0.0000  0.0000  0.0000      0.0000  0.0000  0.0000  0.0000  0.0000  0.0000  0.0000  0.0000  0.0000  0.0000
  o =  0.0575  v = -0.7773 -0.0000 -0.6291  0.0000  0.0000  0.0000  0.0000  0.0000  0.0000  0.0000      0.0000  0.0000  0.0000  0.0000  0.0000  0.0000  0.0000  0.0000  0.0000  0.0000
  o =  0.0713  v =  0.0000  0.7071  0.0000  0.7071  0.0000  0.0000  0.0000  0.0000  0.0000  0.0000      0.0000  0.0000  0.0000  0.0000  0.0000  0.0000  0.0000  0.0000  0.0000  0.0000
  o =  0.9628  v =  0.0000  0.0000  0.0000  0.0000  0.0000 -0.6137  0.0000  0.7896  0.0000 -0.0000      0.0000  0.0000  0.0000  0.0000  0.0000  0.0000  0.0000  0.0000  0.0000  0.0000
  o =  0.9691  v =  0.0000  0.0000  0.0000  0.0000  0.0000  0.0000 -0.0000 -0.0000  0.0000 -1.0000      0.0000  0.0000  0.0000  0.0000  0.0000  0.0000  0.0000  0.0000  0.0000  0.0000
  o =  0.9699  v =  0.0000  0.0000  0.0000  0.0000  0.0000  0.0000  0.7071  0.0000 -0.7071 -0.0000      0.0000  0.0000  0.0000  0.0000  0.0000  0.0000  0.0000  0.0000  0.0000  0.0000
  o =  0.9940  v =  0.0000  0.0000  0.0000  0.0000  0.0000  0.0000  0.7071  0.0000  0.7071 -0.0000      0.0000  0.0000  0.0000  0.0000  0.0000  0.0000  0.0000  0.0000  0.0000  0.0000
  o =  1.0091  v =  0.0000  0.0000  0.0000  0.0000  0.0000 -0.7896  0.0000 -0.6137  0.0000  0.0000      0.0000  0.0000  0.0000  0.0000  0.0000  0.0000  0.0000  0.0000  0.0000  0.0000
atom =   2  type =  1  l = 2
 
 onsite density matrix
 
spin component  1
 
  0.9917  0.0000 -0.0225  0.0000  0.0000
  0.0000  0.9820  0.0000 -0.0120  0.0000
 -0.0225  0.0000  0.9802  0.0000 -0.0000
  0.0000 -0.0120  0.0000  0.9820  0.0000
  0.0000  0.0000 -0.0000  0.0000  0.9691
 
spin component  2
 
  0.0461  0.0000 -0.0141  0.0000 -0.0000
  0.0000  0.0499  0.0000 -0.0213  0.0000
 -0.0141  0.0000  0.0400  0.0000  0.0000
  0.0000 -0.0213  0.0000  0.0499  0.0000
 -0.0000  0.0000  0.0000  0.0000  0.0236
 
 occupancies and eigenvectors
 
  o =  0.0236  v =  0.0000  0.0000  0.0000  0.0000  0.0000  0.0000 -0.0000  0.0000  0.0000 -1.0000      0.0000  0.0000  0.0000  0.0000  0.0000  0.0000  0.0000  0.0000  0.0000  0.0000
  o =  0.0286  v =  0.0000  0.0000  0.0000  0.0000  0.0000  0.0000 -0.7071  0.0000 -0.7071  0.0000      0.0000  0.0000  0.0000  0.0000  0.0000  0.0000  0.0000  0.0000  0.0000  0.0000
  o =  0.0286  v =  0.0000  0.0000  0.0000  0.0000  0.0000 -0.6291 -0.0000 -0.7773  0.0000 -0.0000      0.0000  0.0000  0.0000  0.0000  0.0000  0.0000  0.0000  0.0000  0.0000  0.0000
  o =  0.0575  v =  0.0000  0.0000  0.0000  0.0000  0.0000 -0.7773  0.0000  0.6291  0.0000  0.0000      0.0000  0.0000  0.0000  0.0000  0.0000  0.0000  0.0000  0.0000  0.0000  0.0000
  o =  0.0713  v =  0.0000  0.0000  0.0000  0.0000  0.0000  0.0000 -0.7071  0.0000  0.7071  0.0000      0.0000  0.0000  0.0000  0.0000  0.0000  0.0000  0.0000  0.0000  0.0000  0.0000
  o =  0.9628  v = -0.6137  0.0000 -0.7896  0.0000 -0.0000  0.0000  0.0000  0.0000  0.0000  0.0000      0.0000  0.0000  0.0000  0.0000  0.0000  0.0000  0.0000  0.0000  0.0000  0.0000
  o =  0.9691  v = -0.0000 -0.0000 -0.0000  0.0000  1.0000  0.0000  0.0000  0.0000  0.0000  0.0000      0.0000  0.0000  0.0000  0.0000  0.0000  0.0000  0.0000  0.0000  0.0000  0.0000
  o =  0.9699  v =  0.0000 -0.7071  0.0000 -0.7071 -0.0000  0.0000  0.0000  0.0000  0.0000  0.0000      0.0000  0.0000  0.0000  0.0000  0.0000  0.0000  0.0000  0.0000  0.0000  0.0000
  o =  0.9940  v =  0.0000  0.7071  0.0000 -0.7071  0.0000  0.0000  0.0000  0.0000  0.0000  0.0000      0.0000  0.0000  0.0000  0.0000  0.0000  0.0000  0.0000  0.0000  0.0000  0.0000
  o =  1.0091  v = -0.7896  0.0000  0.6137  0.0000 -0.0000  0.0000  0.0000  0.0000  0.0000  0.0000      0.0000  0.0000  0.0000  0.0000  0.0000  0.0000  0.0000  0.0000  0.0000  0.0000
     EDDAV:  cpu time    0.6970: real time    0.6970
 BZINTS: Fermi energy:  3.262872; 54.000000 electrons
         Band energy:-789.219594;  BLOECHL correction:  0.000000
       DOS:  cpu time    0.0017: real time    0.0017
    CHARGE:  cpu time    0.1272: real time    0.1272
    MIXING:  cpu time    0.0006: real time    0.0006
    --------------------------------------------
      LOOP:  cpu time    2.3323: real time    2.3323

 eigenvalue-minimisations  :  1560
 total energy-change (2. order) : 0.2925673E+01  (-0.6952450E+00)
 number of electron      54.0000008 magnetization       0.0000000
 augmentation part       19.8658302 magnetization       0.0000000

 Broyden mixing:
  rms(total) = 0.67195E+00    rms(broyden)= 0.67178E+00
  rms(prec ) = 0.10144E+01
  weight for this iteration     100.00

 eigenvalues of (default mixing * dielectric matrix)
  average eigenvalue GAMMA=   0.7775
  1.0048  0.6638  0.6638

 Free energy of the ion-electron system (eV)
  ---------------------------------------------------
  alpha Z        PSCENC =       198.90350418
  Ewald energy   TEWEN  =     -4199.39206938
  -Hartree energ DENC   =     -2173.50164596
  -exchange      EXHF   =         0.00000000
  -V(xc)+E(xc)   XCENC  =       170.51982821
  PAW double counting   =      6412.45343888    -6377.42952595
  entropy T*S    EENTRO =         0.00000000
  eigenvalues    EBANDS =      -789.21959403
  atomic energy  EATOM  =      6688.99317229
  Solvation  Ediel_sol  =         0.00000000
  ---------------------------------------------------
  free energy    TOTEN  =       -68.67289175 eV

  energy without entropy =      -68.67289175  energy(sigma->0) =      -68.67289175


--------------------------------------------------------------------------------------------------------




--------------------------------------- Iteration      1(   9)  ---------------------------------------


    POTLOK:  cpu time    0.0313: real time    0.0313
    SETDIJ:  cpu time    1.4740: real time    1.4740
atom =   1  type =  1  l = 2
 
 onsite density matrix
 
spin component  1
 
  0.0683  0.0000  0.0372  0.0000  0.0000
  0.0000  0.0472  0.0000  0.0198  0.0000
  0.0372  0.0000  0.0495  0.0000 -0.0000
  0.0000  0.0198  0.0000  0.0472  0.0000
  0.0000  0.0000 -0.0000  0.0000  0.0229
 
spin component  2
 
  0.9488  0.0000  0.0061  0.0000 -0.0000
  0.0000  0.9581  0.0000  0.0159  0.0000
  0.0061  0.0000  0.9452  0.0000  0.0000
  0.0000  0.0159  0.0000  0.9581  0.0000
 -0.0000  0.0000  0.0000  0.0000  0.9427
 
 occupancies and eigenvectors
 
  o =  0.0205  v = -0.6143 -0.0000  0.7891  0.0000  0.0000  0.0000  0.0000  0.0000  0.0000  0.0000      0.0000  0.0000  0.0000  0.0000  0.0000  0.0000  0.0000  0.0000  0.0000  0.0000
  o =  0.0229  v = -0.0000  0.0000  0.0000  0.0000 -1.0000  0.0000  0.0000  0.0000  0.0000  0.0000      0.0000  0.0000  0.0000  0.0000  0.0000  0.0000  0.0000  0.0000  0.0000  0.0000
  o =  0.0274  v =  0.0000  0.7071  0.0000 -0.7071  0.0000  0.0000  0.0000  0.0000  0.0000  0.0000      0.0000  0.0000  0.0000  0.0000  0.0000  0.0000  0.0000  0.0000  0.0000  0.0000
  o =  0.0670  v =  0.0000  0.7071  0.0000  0.7071  0.0000  0.0000  0.0000  0.0000  0.0000  0.0000      0.0000  0.0000  0.0000  0.0000  0.0000  0.0000  0.0000  0.0000  0.0000  0.0000
  o =  0.0972  v = -0.7891 -0.0000 -0.6143  0.0000  0.0000  0.0000  0.0000  0.0000  0.0000  0.0000      0.0000  0.0000  0.0000  0.0000  0.0000  0.0000  0.0000  0.0000  0.0000  0.0000
  o =  0.9407  v =  0.0000  0.0000  0.0000  0.0000  0.0000 -0.5969  0.0000  0.8023 -0.0000 -0.0000      0.0000  0.0000  0.0000  0.0000  0.0000  0.0000  0.0000  0.0000  0.0000  0.0000
  o =  0.9422  v =  0.0000  0.0000  0.0000  0.0000  0.0000 -0.0000 -0.7071  0.0000  0.7071 -0.0000      0.0000  0.0000  0.0000  0.0000  0.0000  0.0000  0.0000  0.0000  0.0000  0.0000
  o =  0.9427  v =  0.0000  0.0000  0.0000  0.0000  0.0000 -0.0000 -0.0000  0.0000  0.0000  1.0000      0.0000  0.0000  0.0000  0.0000  0.0000  0.0000  0.0000  0.0000  0.0000  0.0000
  o =  0.9534  v =  0.0000  0.0000  0.0000  0.0000  0.0000 -0.8023  0.0000 -0.5969 -0.0000 -0.0000      0.0000  0.0000  0.0000  0.0000  0.0000  0.0000  0.0000  0.0000  0.0000  0.0000
  o =  0.9740  v =  0.0000  0.0000  0.0000  0.0000  0.0000  0.0000 -0.7071  0.0000 -0.7071  0.0000      0.0000  0.0000  0.0000  0.0000  0.0000  0.0000  0.0000  0.0000  0.0000  0.0000
atom =   2  type =  1  l = 2
 
 onsite density matrix
 
spin component  1
 
  0.9488  0.0000 -0.0061  0.0000  0.0000
  0.0000  0.9581  0.0000 -0.0159  0.0000
 -0.0061  0.0000  0.9452  0.0000 -0.0000
  0.0000 -0.0159  0.0000  0.9581  0.0000
  0.0000  0.0000 -0.0000  0.0000  0.9427
 
spin component  2
 
  0.0683  0.0000 -0.0372  0.0000 -0.0000
  0.0000  0.0472  0.0000 -0.0198  0.0000
 -0.0372  0.0000  0.0495  0.0000  0.0000
  0.0000 -0.0198  0.0000  0.0472  0.0000
 -0.0000  0.0000  0.0000  0.0000  0.0229
 
 occupancies and eigenvectors
 
  o =  0.0205  v =  0.0000  0.0000  0.0000  0.0000  0.0000 -0.6143  0.0000 -0.7891  0.0000  0.0000      0.0000  0.0000  0.0000  0.0000  0.0000  0.0000  0.0000  0.0000  0.0000  0.0000
  o =  0.0229  v =  0.0000  0.0000  0.0000  0.0000  0.0000 -0.0000 -0.0000 -0.0000  0.0000 -1.0000      0.0000  0.0000  0.0000  0.0000  0.0000  0.0000  0.0000  0.0000  0.0000  0.0000
  o =  0.0274  v =  0.0000  0.0000  0.0000  0.0000  0.0000  0.0000  0.7071  0.0000  0.7071 -0.0000      0.0000  0.0000  0.0000  0.0000  0.0000  0.0000  0.0000  0.0000  0.0000  0.0000
  o =  0.0670  v =  0.0000  0.0000  0.0000  0.0000  0.0000  0.0000  0.7071  0.0000 -0.7071 -0.0000      0.0000  0.0000  0.0000  0.0000  0.0000  0.0000  0.0000  0.0000  0.0000  0.0000
  o =  0.0972  v =  0.0000  0.0000  0.0000  0.0000  0.0000 -0.7891  0.0000  0.6143  0.0000  0.0000      0.0000  0.0000  0.0000  0.0000  0.0000  0.0000  0.0000  0.0000  0.0000  0.0000
  o =  0.9407  v = -0.5969 -0.0000 -0.8023 -0.0000 -0.0000  0.0000  0.0000  0.0000  0.0000  0.0000      0.0000  0.0000  0.0000  0.0000  0.0000  0.0000  0.0000  0.0000  0.0000  0.0000
  o =  0.9422  v =  0.0000  0.7071 -0.0000  0.7071 -0.0000  0.0000  0.0000  0.0000  0.0000  0.0000      0.0000  0.0000  0.0000  0.0000  0.0000  0.0000  0.0000  0.0000  0.0000  0.0000
  o =  0.9427  v = -0.0000  0.0000 -0.0000  0.0000  1.0000  0.0000  0.0000  0.0000  0.0000  0.0000      0.0000  0.0000  0.0000  0.0000  0.0000  0.0000  0.0000  0.0000  0.0000  0.0000
  o =  0.9534  v =  0.8023  0.0000 -0.5969  0.0000  0.0000  0.0000  0.0000  0.0000  0.0000  0.0000      0.0000  0.0000  0.0000  0.0000  0.0000  0.0000  0.0000  0.0000  0.0000  0.0000
  o =  0.9740  v =  0.0000  0.7071  0.0000 -0.7071  0.0000  0.0000  0.0000  0.0000  0.0000  0.0000      0.0000  0.0000  0.0000  0.0000  0.0000  0.0000  0.0000  0.0000  0.0000  0.0000
     EDDAV:  cpu time    0.6843: real time    0.6843
 BZINTS: Fermi energy:  2.215346; 54.000000 electrons
         Band energy:-795.564611;  BLOECHL correction:  0.000000
       DOS:  cpu time    0.0013: real time    0.0013
    CHARGE:  cpu time    0.1230: real time    0.1230
    MIXING:  cpu time    0.0006: real time    0.0006
    --------------------------------------------
      LOOP:  cpu time    2.3145: real time    2.3145

 eigenvalue-minimisations  :  1512
 total energy-change (2. order) : 0.5081480E+00  (-0.5206834E+00)
 number of electron      54.0000008 magnetization       0.0000000
 augmentation part       19.9950839 magnetization       0.0000000

 Broyden mixing:
  rms(total) = 0.81493E+00    rms(broyden)= 0.81488E+00
  rms(prec ) = 0.89902E+00
  weight for this iteration     100.00

 eigenvalues of (default mixing * dielectric matrix)
  average eigenvalue GAMMA=   0.9426
  1.7038  0.5742  0.7462  0.7462

 Free energy of the ion-electron system (eV)
  ---------------------------------------------------
  alpha Z        PSCENC =       198.90350418
  Ewald energy   TEWEN  =     -4199.39206938
  -Hartree energ DENC   =     -2165.95059312
  -exchange      EXHF   =         0.00000000
  -V(xc)+E(xc)   XCENC  =       168.59101185
  PAW double counting   =      6432.83250104    -6396.57765939
  entropy T*S    EENTRO =         0.00000000
  eigenvalues    EBANDS =      -795.56461125
  atomic energy  EATOM  =      6688.99317229
  Solvation  Ediel_sol  =         0.00000000
  ---------------------------------------------------
  free energy    TOTEN  =       -68.16474377 eV

  energy without entropy =      -68.16474377  energy(sigma->0) =      -68.16474377


--------------------------------------------------------------------------------------------------------




--------------------------------------- Iteration      1(  10)  ---------------------------------------


    POTLOK:  cpu time    0.0304: real time    0.0304
    SETDIJ:  cpu time    1.3947: real time    1.3948
atom =   1  type =  1  l = 2
 
 onsite density matrix
 
spin component  1
 
  0.0471  0.0000  0.0154  0.0000  0.0000
  0.0000  0.0508  0.0000  0.0207  0.0000
  0.0154  0.0000  0.0401  0.0000  0.0000
  0.0000  0.0207  0.0000  0.0508  0.0000
  0.0000  0.0000  0.0000  0.0000  0.0284
 
spin component  2
 
  0.9670  0.0000  0.0296  0.0000  0.0000
  0.0000  0.9518  0.0000  0.0168  0.0000
  0.0296  0.0000  0.9510  0.0000 -0.0000
  0.0000  0.0168  0.0000  0.9518  0.0000
  0.0000  0.0000 -0.0000  0.0000  0.9331
 
 occupancies and eigenvectors
 
  o =  0.0278  v = -0.6236  0.0000  0.7817  0.0000 -0.0000  0.0000  0.0000  0.0000  0.0000  0.0000      0.0000  0.0000  0.0000  0.0000  0.0000  0.0000  0.0000  0.0000  0.0000  0.0000
  o =  0.0284  v = -0.0000 -0.0000  0.0000  0.0000  1.0000  0.0000  0.0000  0.0000  0.0000  0.0000      0.0000  0.0000  0.0000  0.0000  0.0000  0.0000  0.0000  0.0000  0.0000  0.0000
  o =  0.0301  v =  0.0000  0.7071  0.0000 -0.7071 -0.0000  0.0000  0.0000  0.0000  0.0000  0.0000      0.0000  0.0000  0.0000  0.0000  0.0000  0.0000  0.0000  0.0000  0.0000  0.0000
  o =  0.0594  v = -0.7817  0.0000 -0.6236  0.0000 -0.0000  0.0000  0.0000  0.0000  0.0000  0.0000      0.0000  0.0000  0.0000  0.0000  0.0000  0.0000  0.0000  0.0000  0.0000  0.0000
  o =  0.0715  v =  0.0000 -0.7071  0.0000 -0.7071  0.0000  0.0000  0.0000  0.0000  0.0000  0.0000      0.0000  0.0000  0.0000  0.0000  0.0000  0.0000  0.0000  0.0000  0.0000  0.0000
  o =  0.9283  v =  0.0000  0.0000  0.0000  0.0000  0.0000 -0.6080  0.0000  0.7939  0.0000  0.0000      0.0000  0.0000  0.0000  0.0000  0.0000  0.0000  0.0000  0.0000  0.0000  0.0000
  o =  0.9331  v =  0.0000  0.0000  0.0000  0.0000  0.0000  0.0000  0.0000  0.0000  0.0000 -1.0000      0.0000  0.0000  0.0000  0.0000  0.0000  0.0000  0.0000  0.0000  0.0000  0.0000
  o =  0.9350  v =  0.0000  0.0000  0.0000  0.0000  0.0000  0.0000  0.7071  0.0000 -0.7071  0.0000      0.0000  0.0000  0.0000  0.0000  0.0000  0.0000  0.0000  0.0000  0.0000  0.0000
  o =  0.9686  v =  0.0000  0.0000  0.0000  0.0000  0.0000  0.0000  0.7071  0.0000  0.7071  0.0000      0.0000  0.0000  0.0000  0.0000  0.0000  0.0000  0.0000  0.0000  0.0000  0.0000
  o =  0.9897  v =  0.0000  0.0000  0.0000  0.0000  0.0000 -0.7939  0.0000 -0.6080  0.0000 -0.0000      0.0000  0.0000  0.0000  0.0000  0.0000  0.0000  0.0000  0.0000  0.0000  0.0000
atom =   2  type =  1  l = 2
 
 onsite density matrix
 
spin component  1
 
  0.9670  0.0000 -0.0296  0.0000 -0.0000
  0.0000  0.9518  0.0000 -0.0168  0.0000
 -0.0296  0.0000  0.9510  0.0000  0.0000
  0.0000 -0.0168  0.0000  0.9518  0.0000
 -0.0000  0.0000  0.0000  0.0000  0.9331
 
spin component  2
 
  0.0471  0.0000 -0.0154  0.0000  0.0000
  0.0000  0.0508  0.0000 -0.0207  0.0000
 -0.0154  0.0000  0.0401  0.0000 -0.0000
  0.0000 -0.0207  0.0000  0.0508  0.0000
  0.0000  0.0000 -0.0000  0.0000  0.0284
 
 occupancies and eigenvectors
 
  o =  0.0278  v =  0.0000  0.0000  0.0000  0.0000  0.0000  0.6236 -0.0000  0.7817 -0.0000  0.0000      0.0000  0.0000  0.0000  0.0000  0.0000  0.0000  0.0000  0.0000  0.0000  0.0000
  o =  0.0284  v =  0.0000  0.0000  0.0000  0.0000  0.0000 -0.0000 -0.0000 -0.0000 -0.0000  1.0000      0.0000  0.0000  0.0000  0.0000  0.0000  0.0000  0.0000  0.0000  0.0000  0.0000
  o =  0.0301  v =  0.0000  0.0000  0.0000  0.0000  0.0000  0.0000  0.7071  0.0000  0.7071  0.0000      0.0000  0.0000  0.0000  0.0000  0.0000  0.0000  0.0000  0.0000  0.0000  0.0000
  o =  0.0594  v =  0.0000  0.0000  0.0000  0.0000  0.0000  0.7817  0.0000 -0.6236  0.0000  0.0000      0.0000  0.0000  0.0000  0.0000  0.0000  0.0000  0.0000  0.0000  0.0000  0.0000
  o =  0.0715  v =  0.0000  0.0000  0.0000  0.0000  0.0000  0.0000  0.7071  0.0000 -0.7071  0.0000      0.0000  0.0000  0.0000  0.0000  0.0000  0.0000  0.0000  0.0000  0.0000  0.0000
  o =  0.9283  v = -0.6080  0.0000 -0.7939  0.0000 -0.0000  0.0000  0.0000  0.0000  0.0000  0.0000      0.0000  0.0000  0.0000  0.0000  0.0000  0.0000  0.0000  0.0000  0.0000  0.0000
  o =  0.9331  v =  0.0000 -0.0000  0.0000  0.0000 -1.0000  0.0000  0.0000  0.0000  0.0000  0.0000      0.0000  0.0000  0.0000  0.0000  0.0000  0.0000  0.0000  0.0000  0.0000  0.0000
  o =  0.9350  v =  0.0000  0.7071  0.0000  0.7071 -0.0000  0.0000  0.0000  0.0000  0.0000  0.0000      0.0000  0.0000  0.0000  0.0000  0.0000  0.0000  0.0000  0.0000  0.0000  0.0000
  o =  0.9686  v =  0.0000  0.7071  0.0000 -0.7071 -0.0000  0.0000  0.0000  0.0000  0.0000  0.0000      0.0000  0.0000  0.0000  0.0000  0.0000  0.0000  0.0000  0.0000  0.0000  0.0000
  o =  0.9897  v = -0.7939  0.0000  0.6080  0.0000  0.0000  0.0000  0.0000  0.0000  0.0000  0.0000      0.0000  0.0000  0.0000  0.0000  0.0000  0.0000  0.0000  0.0000  0.0000  0.0000
     EDDAV:  cpu time    0.6162: real time    0.6162
 BZINTS: Fermi energy:  2.173044; 54.000000 electrons
         Band energy:-797.963274;  BLOECHL correction:  0.000000
       DOS:  cpu time    0.0013: real time    0.0013
    CHARGE:  cpu time    0.1289: real time    0.1289
    MIXING:  cpu time    0.0006: real time    0.0006
    --------------------------------------------
      LOOP:  cpu time    2.1722: real time    2.1723

 eigenvalue-minimisations  :  1416
 total energy-change (2. order) : 0.4788703E-01  (-0.4573233E-01)
 number of electron      54.0000008 magnetization      -0.0000000
 augmentation part       19.9883534 magnetization      -0.0000000

 Broyden mixing:
  rms(total) = 0.60439E+00    rms(broyden)= 0.60439E+00
  rms(prec ) = 0.67705E+00
  weight for this iteration     100.00

 eigenvalues of (default mixing * dielectric matrix)
  average eigenvalue GAMMA=   1.2096
  2.8502  0.9976  0.9976  0.6012  0.6012

 Free energy of the ion-electron system (eV)
  ---------------------------------------------------
  alpha Z        PSCENC =       198.90350418
  Ewald energy   TEWEN  =     -4199.39206938
  -Hartree energ DENC   =     -2159.46759044
  -exchange      EXHF   =         0.00000000
  -V(xc)+E(xc)   XCENC  =       165.74434433
  PAW double counting   =      6497.02820342    -6461.96314697
  entropy T*S    EENTRO =         0.00000000
  eigenvalues    EBANDS =      -797.96327418
  atomic energy  EATOM  =      6688.99317229
  Solvation  Ediel_sol  =         0.00000000
  ---------------------------------------------------
  free energy    TOTEN  =       -68.11685674 eV

  energy without entropy =      -68.11685674  energy(sigma->0) =      -68.11685674


--------------------------------------------------------------------------------------------------------




--------------------------------------- Iteration      1(  11)  ---------------------------------------


    POTLOK:  cpu time    0.0304: real time    0.0304
    SETDIJ:  cpu time    1.4443: real time    1.4443
atom =   1  type =  1  l = 2
 
 onsite density matrix
 
spin component  1
 
  0.0507  0.0000  0.0300  0.0000 -0.0000
  0.0000  0.0437  0.0000  0.0253  0.0000
  0.0300  0.0000  0.0368  0.0000 -0.0000
  0.0000  0.0253  0.0000  0.0437  0.0000
 -0.0000  0.0000 -0.0000  0.0000  0.0148
 
spin component  2
 
  0.9637  0.0000  0.0190  0.0000  0.0000
  0.0000  0.9591  0.0000  0.0168  0.0000
  0.0190  0.0000  0.9520  0.0000 -0.0000
  0.0000  0.0168  0.0000  0.9591  0.0000
  0.0000  0.0000 -0.0000  0.0000  0.9430
 
 occupancies and eigenvectors
 
  o =  0.0130  v = -0.6223  0.0000  0.7828  0.0000  0.0000  0.0000  0.0000  0.0000  0.0000  0.0000      0.0000  0.0000  0.0000  0.0000  0.0000  0.0000  0.0000  0.0000  0.0000  0.0000
  o =  0.0148  v = -0.0000 -0.0000  0.0000  0.0000 -1.0000  0.0000  0.0000  0.0000  0.0000  0.0000      0.0000  0.0000  0.0000  0.0000  0.0000  0.0000  0.0000  0.0000  0.0000  0.0000
  o =  0.0184  v =  0.0000 -0.7071  0.0000  0.7071  0.0000  0.0000  0.0000  0.0000  0.0000  0.0000      0.0000  0.0000  0.0000  0.0000  0.0000  0.0000  0.0000  0.0000  0.0000  0.0000
  o =  0.0689  v =  0.0000 -0.7071  0.0000 -0.7071  0.0000  0.0000  0.0000  0.0000  0.0000  0.0000      0.0000  0.0000  0.0000  0.0000  0.0000  0.0000  0.0000  0.0000  0.0000  0.0000
  o =  0.0746  v = -0.7828  0.0000 -0.6223  0.0000  0.0000  0.0000  0.0000  0.0000  0.0000  0.0000      0.0000  0.0000  0.0000  0.0000  0.0000  0.0000  0.0000  0.0000  0.0000  0.0000
  o =  0.9379  v =  0.0000  0.0000  0.0000  0.0000  0.0000 -0.5942  0.0000  0.8043  0.0000  0.0000      0.0000  0.0000  0.0000  0.0000  0.0000  0.0000  0.0000  0.0000  0.0000  0.0000
  o =  0.9422  v =  0.0000  0.0000  0.0000  0.0000  0.0000  0.0000  0.7071  0.0000 -0.7071  0.0000      0.0000  0.0000  0.0000  0.0000  0.0000  0.0000  0.0000  0.0000  0.0000  0.0000
  o =  0.9430  v =  0.0000  0.0000  0.0000  0.0000  0.0000  0.0000  0.0000  0.0000  0.0000 -1.0000      0.0000  0.0000  0.0000  0.0000  0.0000  0.0000  0.0000  0.0000  0.0000  0.0000
  o =  0.9759  v =  0.0000  0.0000  0.0000  0.0000  0.0000  0.0000  0.7071  0.0000  0.7071  0.0000      0.0000  0.0000  0.0000  0.0000  0.0000  0.0000  0.0000  0.0000  0.0000  0.0000
  o =  0.9778  v =  0.0000  0.0000  0.0000  0.0000  0.0000 -0.8043  0.0000 -0.5942  0.0000 -0.0000      0.0000  0.0000  0.0000  0.0000  0.0000  0.0000  0.0000  0.0000  0.0000  0.0000
atom =   2  type =  1  l = 2
 
 onsite density matrix
 
spin component  1
 
  0.9637  0.0000 -0.0190  0.0000  0.0000
  0.0000  0.9591  0.0000 -0.0168  0.0000
 -0.0190  0.0000  0.9520  0.0000  0.0000
  0.0000 -0.0168  0.0000  0.9591  0.0000
  0.0000  0.0000  0.0000  0.0000  0.9430
 
spin component  2
 
  0.0507  0.0000 -0.0300  0.0000 -0.0000
  0.0000  0.0437  0.0000 -0.0253  0.0000
 -0.0300  0.0000  0.0368  0.0000 -0.0000
  0.0000 -0.0253  0.0000  0.0437  0.0000
 -0.0000  0.0000 -0.0000  0.0000  0.0148
 
 occupancies and eigenvectors
 
  o =  0.0130  v =  0.0000  0.0000  0.0000  0.0000  0.0000 -0.6223  0.0000 -0.7828  0.0000 -0.0000      0.0000  0.0000  0.0000  0.0000  0.0000  0.0000  0.0000  0.0000  0.0000  0.0000
  o =  0.0148  v =  0.0000  0.0000  0.0000  0.0000  0.0000 -0.0000 -0.0000 -0.0000 -0.0000  1.0000      0.0000  0.0000  0.0000  0.0000  0.0000  0.0000  0.0000  0.0000  0.0000  0.0000
  o =  0.0184  v =  0.0000  0.0000  0.0000  0.0000  0.0000  0.0000 -0.7071  0.0000 -0.7071 -0.0000      0.0000  0.0000  0.0000  0.0000  0.0000  0.0000  0.0000  0.0000  0.0000  0.0000
  o =  0.0689  v =  0.0000  0.0000  0.0000  0.0000  0.0000 -0.0000  0.7071  0.0000 -0.7071  0.0000      0.0000  0.0000  0.0000  0.0000  0.0000  0.0000  0.0000  0.0000  0.0000  0.0000
  o =  0.0746  v =  0.0000  0.0000  0.0000  0.0000  0.0000 -0.7828 -0.0000  0.6223  0.0000 -0.0000      0.0000  0.0000  0.0000  0.0000  0.0000  0.0000  0.0000  0.0000  0.0000  0.0000
  o =  0.9379  v = -0.5942  0.0000 -0.8043  0.0000  0.0000  0.0000  0.0000  0.0000  0.0000  0.0000      0.0000  0.0000  0.0000  0.0000  0.0000  0.0000  0.0000  0.0000  0.0000  0.0000
  o =  0.9422  v = -0.0000 -0.7071 -0.0000 -0.7071 -0.0000  0.0000  0.0000  0.0000  0.0000  0.0000      0.0000  0.0000  0.0000  0.0000  0.0000  0.0000  0.0000  0.0000  0.0000  0.0000
  o =  0.9430  v = -0.0000  0.0000 -0.0000  0.0000 -1.0000  0.0000  0.0000  0.0000  0.0000  0.0000      0.0000  0.0000  0.0000  0.0000  0.0000  0.0000  0.0000  0.0000  0.0000  0.0000
[...]
     33       8.9427      0.00000
     34      10.3761      0.00000
     35      10.6385      0.00000
     36      11.9417      0.00000

 k-point     7 :       0.1250    0.1250    0.4167
  band No.  band energies     occupation 
      1     -49.2732      1.00000
      2     -49.2331      1.00000
      3     -49.2132      1.00000
      4     -42.7630      1.00000
      5     -42.7193      1.00000
      6     -42.6899      1.00000
      7     -22.6806      1.00000
      8     -22.5471      1.00000
      9     -22.5077      1.00000
     10     -22.4263      1.00000
     11      -4.4710      1.00000
     12      -4.2228      1.00000
     13      -4.0340      1.00000
     14      -3.8545      1.00000
     15      -3.6936      1.00000
     16      -3.5021      1.00000
     17      -3.1214      1.00000
     18      -2.9443      1.00000
     19      -2.8075      1.00000
     20      -2.4048      1.00000
     21      -2.3151      1.00000
     22      -2.2557      1.00000
     23       0.7603      1.00000
     24       0.8021      1.00000
     25       1.0456      1.00000
     26       1.6721      1.00000
     27       2.0158      1.00000
     28       6.3673      0.00000
     29       6.3957      0.00000
     30       6.5026      0.00000
     31       7.3496      0.00000
     32       7.6352      0.00000
     33       8.9508      0.00000
     34      11.2439      0.00000
     35      12.7029      0.00000
     36      13.0726      0.00000

 k-point     8 :       0.3750    0.1250    0.4167
  band No.  band energies     occupation 
      1     -49.2732      1.00000
      2     -49.2331      1.00000
      3     -49.2132      1.00000
      4     -42.7630      1.00000
      5     -42.7193      1.00000
      6     -42.6899      1.00000
      7     -22.6245      1.00000
      8     -22.5682      1.00000
      9     -22.5185      1.00000
     10     -22.4501      1.00000
     11      -4.5109      1.00000
     12      -4.2548      1.00000
     13      -4.1722      1.00000
     14      -3.9943      1.00000
     15      -3.6269      1.00000
     16      -3.3912      1.00000
     17      -3.2181      1.00000
     18      -3.1135      1.00000
     19      -2.5445      1.00000
     20      -2.3862      1.00000
     21      -2.2070      1.00000
     22      -2.1047      1.00000
     23       0.7467      1.00000
     24       0.7758      1.00000
     25       0.9850      1.00000
     26       1.6291      1.00000
     27       2.1441      1.00000
     28       6.3556      0.00000
     29       6.3887      0.00000
     30       6.5581      0.00000
     31       7.3044      0.00000
     32       7.8158      0.00000
     33       9.5743      0.00000
     34      11.1030      0.00000
     35      11.6189      0.00000
     36      12.9305      0.00000

 k-point     9 :       0.3750    0.3750    0.4167
  band No.  band energies     occupation 
      1     -49.2732      1.00000
      2     -49.2331      1.00000
      3     -49.2132      1.00000
      4     -42.7631      1.00000
      5     -42.7193      1.00000
      6     -42.6900      1.00000
      7     -22.6175      1.00000
      8     -22.5768      1.00000
      9     -22.5192      1.00000
     10     -22.4446      1.00000
     11      -4.7452      1.00000
     12      -4.5353      1.00000
     13      -4.1666      1.00000
     14      -4.1049      1.00000
     15      -3.6017      1.00000
     16      -3.3253      1.00000
     17      -3.1537      1.00000
     18      -2.9247      1.00000
     19      -2.3348      1.00000
     20      -2.2413      1.00000
     21      -2.1301      1.00000
     22      -2.0534      1.00000
     23       0.7441      1.00000
     24       0.7688      1.00000
     25       0.9706      1.00000
     26       1.6633      1.00000
     27       2.1198      1.00000
     28       6.3623      0.00000
     29       6.3862      0.00000
     30       6.5758      0.00000
     31       7.2808      0.00000
     32       7.7202      0.00000
     33      10.0643      0.00000
     34      11.6619      0.00000
     35      11.6825      0.00000
     36      11.9174      0.00000


--------------------------------------------------------------------------------------------------------


 soft charge-density along one line, spin component           1
         0         1         2         3         4         5         6         7         8         9
 total charge-density along one line
 
 soft charge-density along one line, spin component           2
         0         1         2         3         4         5         6         7         8         9
 total charge-density along one line
 
 pseudopotential strength for first ion, spin component:           1
-45.245  -0.000  -0.037   7.807   0.000   0.016  -0.000   0.000
 -0.000 -45.212  -0.000   0.000   7.792   0.000  -0.000   0.000
 -0.037  -0.000 -45.245   0.016   0.000   7.807   0.000  -0.000
  7.807   0.000   0.016   5.589  -0.000   0.004  -0.000  -0.000
  0.000   7.792   0.000  -0.000   5.583  -0.000   0.000   0.000
  0.016   0.000   7.807   0.004  -0.000   5.589   0.000   0.000
 -0.000  -0.000   0.000  -0.000   0.000   0.000  -3.000  -0.000
  0.000   0.000  -0.000  -0.000   0.000   0.000  -0.000  -2.982
 -0.000   0.000   0.000   0.000  -0.000   0.000   0.019  -0.000
 -0.000   0.000   0.000   0.000   0.000  -0.000  -0.000  -0.018
  0.000  -0.000  -0.000  -0.000   0.000  -0.000  -0.000   0.000
 -0.000  -0.000   0.000  -0.000   0.000  -0.000  -3.515  -0.000
  0.000   0.000  -0.000  -0.000   0.000   0.000  -0.000  -3.497
 -0.000   0.000   0.000   0.000  -0.000   0.000   0.018  -0.000
 -0.000   0.000   0.000   0.000   0.000  -0.000  -0.000  -0.018
  0.000  -0.000  -0.000  -0.000   0.000  -0.000  -0.000   0.000
  0.000  -0.000   0.000   0.000  -0.000  -0.000   0.011   0.000
  0.000  -0.000   0.000   0.000  -0.000  -0.000   0.022   0.000
 pseudopotential strength for first ion, spin component:           2
-50.999  -0.000  -0.004   9.806   0.000   0.015   0.000   0.000
 -0.000 -51.000  -0.000   0.000   9.791   0.000  -0.000   0.000
 -0.004  -0.000 -50.999   0.015   0.000   9.806  -0.000  -0.000
  9.806   0.000   0.015   4.704  -0.000   0.001  -0.000  -0.000
  0.000   9.791   0.000  -0.000   4.704  -0.000   0.000  -0.000
  0.015   0.000   9.806   0.001  -0.000   4.704  -0.000   0.000
  0.000  -0.000  -0.000  -0.000   0.000  -0.000  -7.353  -0.000
  0.000   0.000  -0.000  -0.000  -0.000   0.000  -0.000  -7.344
  0.000   0.000  -0.000  -0.000  -0.000   0.000  -0.009  -0.000
 -0.000  -0.000   0.000   0.000   0.000  -0.000  -0.000  -0.027
 -0.000  -0.000   0.000  -0.000   0.000  -0.000   0.000   0.000
  0.000  -0.000  -0.000  -0.000   0.000  -0.000  -7.823  -0.000
  0.000   0.000  -0.000  -0.000  -0.000   0.000  -0.000  -7.814
  0.000   0.000  -0.000  -0.000  -0.000   0.000  -0.008  -0.000
 -0.000  -0.000   0.000   0.000   0.000  -0.000  -0.000  -0.027
 -0.000  -0.000   0.000  -0.000   0.000  -0.000   0.000   0.000
  0.000  -0.000  -0.000  -0.000  -0.000   0.000   0.011   0.000
  0.000  -0.000  -0.000  -0.000  -0.000   0.000   0.023   0.000
 total augmentation occupancy for first ion, spin component:           1
  2.001   0.000   0.000  -0.013   0.000   0.001   0.000   0.000   0.000   0.000   0.000   0.000   0.000   0.000   0.000   0.000
  0.000   2.001   0.000   0.000  -0.013   0.000   0.000   0.000   0.000   0.000   0.000   0.000   0.000   0.000   0.000   0.000
  0.000   0.000   2.001   0.001   0.000  -0.013   0.000   0.000   0.000   0.000   0.000   0.000   0.000   0.000   0.000   0.000
 -0.013   0.000   0.001   0.080   0.000  -0.009   0.000   0.000   0.000   0.000   0.000   0.000   0.000   0.000   0.000   0.000
  0.000  -0.013   0.000   0.000   0.090   0.000   0.000   0.000   0.000   0.000   0.000   0.000   0.000   0.000   0.000   0.000
  0.001   0.000  -0.013  -0.009   0.000   0.080   0.000   0.000   0.000   0.000   0.000   0.000   0.000   0.000   0.000   0.000
  0.000   0.000   0.000   0.000   0.000   0.000   7.726   0.000   2.972   0.000  -0.000  -5.752   0.000  -2.794   0.000  -0.000
  0.000   0.000   0.000   0.000   0.000   0.000   0.000   6.551   0.000   2.524   0.000   0.000  -4.622   0.000  -2.371   0.000
  0.000   0.000   0.000   0.000   0.000   0.000   2.972   0.000   5.937   0.000   0.000  -2.795   0.000  -4.076   0.000  -0.000
  0.000   0.000   0.000   0.000   0.000   0.000   0.000   2.524   0.000   6.551   0.000   0.000  -2.371   0.000  -4.622   0.000
  0.000   0.000   0.000   0.000   0.000   0.000  -0.000   0.000  -0.000   0.000   3.891   0.000   0.000   0.000   0.000  -2.108
  0.000   0.000   0.000   0.000   0.000   0.000  -5.752   0.000  -2.795   0.000  -0.000   4.952   0.000   2.661   0.000  -0.000
  0.000   0.000   0.000   0.000   0.000   0.000   0.000  -4.622   0.000  -2.371   0.000   0.000   3.856   0.000   2.255   0.000
  0.000   0.000   0.000   0.000   0.000   0.000  -2.794   0.000  -4.076   0.000   0.000   2.661   0.000   3.365   0.000   0.000
  0.000   0.000   0.000   0.000   0.000   0.000   0.000  -2.371   0.000  -4.622   0.000   0.000   2.255   0.000   3.856   0.000
  0.000   0.000   0.000   0.000   0.000   0.000   0.000   0.000   0.000   0.000  -2.108   0.000   0.000   0.000   0.000   1.450
  0.000   0.000   0.000   0.000   0.000   0.000   0.431   0.000  -0.300   0.000   0.000  -0.409   0.000   0.279   0.000  -0.000
  0.000   0.000   0.000   0.000   0.000   0.000  -0.090   0.000   0.069   0.000   0.000   0.095   0.000  -0.068   0.000  -0.000
 total augmentation occupancy for first ion, spin component:           2
  0.004   0.000  -0.000   0.017   0.000  -0.001   0.000   0.000   0.000   0.000   0.000   0.000   0.000   0.000   0.000   0.000
  0.000   0.004   0.000   0.000   0.018   0.000   0.000   0.000   0.000   0.000   0.000   0.000   0.000   0.000   0.000   0.000
 -0.000   0.000   0.004  -0.001   0.000   0.017   0.000   0.000   0.000   0.000   0.000   0.000   0.000   0.000   0.000   0.000
  0.017   0.000  -0.001  -0.011   0.000  -0.000   0.000   0.000   0.000   0.000   0.000   0.000   0.000   0.000   0.000   0.000
  0.000   0.018   0.000   0.000  -0.010   0.000   0.000   0.000   0.000   0.000   0.000   0.000   0.000   0.000   0.000   0.000
 -0.001   0.000   0.017  -0.000   0.000  -0.011   0.000   0.000   0.000   0.000   0.000   0.000   0.000   0.000   0.000   0.000
  0.000   0.000   0.000   0.000   0.000   0.000  -5.094   0.000  -1.483   0.000   0.000   2.720   0.000   1.089   0.000   0.000
  0.000   0.000   0.000   0.000   0.000   0.000   0.000  -4.547   0.000  -1.269   0.000   0.000   2.298   0.000   0.933   0.000
  0.000   0.000   0.000   0.000   0.000   0.000  -1.483   0.000  -4.145   0.000   0.000   1.089   0.000   2.009   0.000  -0.000
  0.000   0.000   0.000   0.000   0.000   0.000   0.000  -1.269   0.000  -4.547   0.000   0.000   0.933   0.000   2.298   0.000
  0.000   0.000   0.000   0.000   0.000   0.000   0.000   0.000   0.000   0.000  -3.259   0.000   0.000   0.000   0.000   1.357
  0.000   0.000   0.000   0.000   0.000   0.000   2.720   0.000   1.089   0.000   0.000  -1.451   0.000  -0.700   0.000   0.000
  0.000   0.000   0.000   0.000   0.000   0.000   0.000   2.298   0.000   0.933   0.000   0.000  -1.153   0.000  -0.603   0.000
  0.000   0.000   0.000   0.000   0.000   0.000   1.089   0.000   2.009   0.000   0.000  -0.700   0.000  -0.972   0.000  -0.000
  0.000   0.000   0.000   0.000   0.000   0.000   0.000   0.933   0.000   2.298   0.000   0.000  -0.603   0.000  -1.153   0.000
  0.000   0.000   0.000   0.000   0.000   0.000  -0.000   0.000   0.000   0.000   1.357   0.000   0.000  -0.000   0.000  -0.557
  0.000   0.000   0.000   0.000   0.000   0.000  -0.096   0.000   0.057   0.000  -0.000   0.021   0.000   0.000   0.000   0.000
  0.000   0.000   0.000   0.000   0.000   0.000  -0.000   0.000  -0.006   0.000   0.000   0.009   0.000  -0.003   0.000  -0.000


------------------------ aborting loop because EDIFF is reached ----------------------------------------


 


 total charge     
 
# of ion       s       p       d       tot
------------------------------------------
    1        0.167   6.148   4.964  11.279
    2        0.172   6.144   4.970  11.286
    3        1.731   4.399   0.000   6.131
    4        1.731   4.399   0.000   6.131
    5        1.731   4.395   0.000   6.127
    6        1.731   4.395   0.000   6.127
--------------------------------------------------
tot          7.265  29.881   9.934  47.079
 


 magnetization (x)
 
# of ion       s       p       d       tot
------------------------------------------
    1       -0.022  -0.018  -4.582  -4.622
    2        0.023   0.016   4.579   4.618
    3        0.003   0.025   0.000   0.027
    4        0.003   0.025   0.000   0.027
    5       -0.003  -0.021   0.000  -0.024
    6       -0.003  -0.021   0.000  -0.024
--------------------------------------------------
tot         -0.001   0.006  -0.003   0.003
 
    CHARGE:  cpu time    0.0310: real time    0.0310
    FORLOC:  cpu time    0.0009: real time    0.0009
    FORNL :  cpu time    0.1511: real time    0.1511
    STRESS:  cpu time    1.8934: real time    1.8934
    FORCOR:  cpu time    0.0303: real time    0.0303
    FORHAR:  cpu time    0.0019: real time    0.0019
    MIXING:  cpu time    0.0012: real time    0.0012
    OFIELD:  cpu time    0.0000: real time    0.0000

  FORCE on cell =-STRESS in cart. coord.  units (eV):
  Direction    XX          YY          ZZ          XY          YZ          ZX
  --------------------------------------------------------------------------------------
  Alpha Z   198.90350   198.90350   198.90350
  Ewald   -1585.10928 -1585.10928 -1029.17665    -0.00000     0.00000     0.00000
  Hartree   594.62880   594.62880   970.53367    -0.00000    -0.00000    -0.00000
  E(xc)    -150.51228  -150.48919  -150.62228    -0.01621    -0.02582    -0.02752
  Local     162.79223   162.79223  -762.16485    -0.00000    -0.00000    -0.00000
  n-local  -309.98505  -310.26433  -309.22082     0.01979     0.11172     0.11245
  augment   158.52134   158.52134   158.02730    -0.00000     0.00000    -0.00000
  Kinetic   930.60925   931.18125   923.69558    -0.43654    -0.80873    -0.84474
  Fock        0.00000     0.00000     0.00000     0.00000     0.00000     0.00000
  -------------------------------------------------------------------------------------
  Total       0.00641     0.00641    -0.02455     0.00000     0.00000     0.00000
  in kB       0.13229     0.13229    -0.50673     0.00000     0.00000     0.00000
  external pressure =       -0.08 kB  Pullay stress =        0.00 kB


 VOLUME and BASIS-vectors are now :
 -----------------------------------------------------------------------------
  energy-cutoff  :      550.00
  volume of cell :       77.61
      direct lattice vectors                 reciprocal lattice vectors
     4.857617990  0.000000000  0.000000000     0.205862215  0.000000000  0.000000000
     0.000000000  4.857617990  0.000000000     0.000000000  0.205862215  0.000000000
     0.000000000  0.000000000  3.289178528     0.000000000  0.000000000  0.304027280

  length of vectors
     4.857617990  4.857617990  3.289178528     0.205862215  0.205862215  0.304027280


 FORCES acting on ions
    electron-ion (+dipol)            ewald-force                    non-local-force                 convergence-correction
 -----------------------------------------------------------------------------------------------
   0.214E-11 0.517E-11 0.365E-11   0.000E+00 -.853E-13 0.261E-13   0.000E+00 0.000E+00 0.000E+00   0.126E-13 0.103E-13 0.870E-13
   -.532E-13 -.320E-13 0.620E-13   -.568E-13 -.853E-13 0.240E-13   0.000E+00 0.000E+00 0.000E+00   -.731E-14 -.162E-13 -.129E-12
   -.327E+02 0.327E+02 0.210E-11   0.339E+02 -.339E+02 -.113E-13   -.122E+01 0.122E+01 0.000E+00   0.428E-04 -.428E-04 0.817E-14
   0.327E+02 -.327E+02 0.267E-11   -.339E+02 0.339E+02 -.115E-13   0.122E+01 -.122E+01 0.000E+00   -.428E-04 0.428E-04 0.915E-13
   0.327E+02 0.327E+02 -.196E-07   -.339E+02 -.339E+02 -.508E-14   0.122E+01 0.122E+01 0.000E+00   -.428E-04 -.428E-04 0.500E-11
   -.327E+02 -.327E+02 0.196E-07   0.339E+02 0.339E+02 -.546E-14   -.122E+01 -.122E+01 0.000E+00   0.428E-04 0.428E-04 -.512E-11
 -----------------------------------------------------------------------------------------------
   0.670E-11 0.395E-11 0.103E-10   -.711E-14 0.000E+00 0.168E-13   0.000E+00 0.222E-15 0.000E+00   0.267E-13 -.887E-15 -.612E-13
 
 
 POSITION                                       TOTAL-FORCE (eV/Angst)
 -----------------------------------------------------------------------------------
      2.42881      2.42881      1.64459         0.000000     -0.000000      0.000000
      0.00000      0.00000      0.00000         0.000000     -0.000000      0.000000
      0.95253      3.90509      1.64459         0.000168     -0.000168      0.000000
      3.90509      0.95253      1.64459        -0.000168      0.000168      0.000000
      1.47628      1.47628      0.00000        -0.000168     -0.000168      0.000000
      3.38134      3.38134      0.00000         0.000168      0.000168      0.000000
 -----------------------------------------------------------------------------------
    total drift:                                0.000000      0.000000      0.000000


--------------------------------------------------------------------------------------------------------



  FREE ENERGIE OF THE ION-ELECTRON SYSTEM (eV)
  ---------------------------------------------------
  free  energy   TOTEN  =       -68.02523508 eV

  energy  without entropy=      -68.02523508  energy(sigma->0) =      -68.02523508
 


--------------------------------------------------------------------------------------------------------


    POTLOK:  cpu time    1.4736: real time    1.4736


--------------------------------------------------------------------------------------------------------


 writing wavefunctions
     LOOP+:  cpu time   45.3746: real time   45.3938
    4ORBIT:  cpu time    0.0000: real time    0.0000
 


 total charge     
 
# of ion       s       p       d       tot
------------------------------------------
    1        0.167   6.148   4.964  11.279
    2        0.172   6.144   4.970  11.286
    3        1.731   4.399   0.000   6.131
    4        1.731   4.399   0.000   6.131
    5        1.731   4.395   0.000   6.127
    6        1.731   4.395   0.000   6.127
--------------------------------------------------
tot          7.265  29.881   9.934  47.079
 


 magnetization (x)
 
# of ion       s       p       d       tot
------------------------------------------
    1       -0.022  -0.018  -4.582  -4.622
    2        0.023   0.016   4.579   4.618
    3        0.003   0.025   0.000   0.027
    4        0.003   0.025   0.000   0.027
    5       -0.003  -0.021   0.000  -0.024
    6       -0.003  -0.021   0.000  -0.024
--------------------------------------------------
tot         -0.001   0.006  -0.003   0.003
 
 BZINTS: Fermi energy:  2.258339; 54.000000 electrons
         Band energy:-797.192484;  BLOECHL correction:  0.000000

 total amount of memory used by VASP MPI-rank0    43466. kBytes
=======================================================================

   base      :      30000. kBytes
   nonl-proj :       6128. kBytes
   fftplans  :       1718. kBytes
   grid      :       3402. kBytes
   one-center:        186. kBytes
   wavefun   :       2032. kBytes
 
  
  
 General timing and accounting informations for this job:
 ========================================================
  
                  Total CPU time used (sec):       46.525
                            User time (sec):       31.214
                          System time (sec):       15.311
                         Elapsed time (sec):       46.591
  
                   Maximum memory used (kb):       59644.
                   Average memory used (kb):           0.
  
                          Minor page faults:        10206
                          Major page faults:            7
                 Voluntary context switches:          255
