       N       E                     dE             d eps       ncg     rms          rms(c)
DAV:   1     0.676125025302E+03    0.67613E+03   -0.34370E+04  3456   0.188E+03
DAV:   2     0.875287916228E+01   -0.66737E+03   -0.64753E+03  4008   0.508E+02
DAV:   3    -0.394306937902E+02   -0.48184E+02   -0.47981E+02  4020   0.151E+02
DAV:   4    -0.400980429376E+02   -0.66735E+00   -0.66710E+00  3948   0.192E+01
DAV:   5    -0.401090082860E+02   -0.10965E-01   -0.10965E-01  4032   0.239E+00    0.225E+01
DAV:   6    -0.382185887066E+02    0.18904E+01   -0.15682E+01  4368   0.317E+01    0.143E+01
DAV:   7    -0.389386094174E+02   -0.72002E+00   -0.18209E+00  4164   0.108E+01    0.113E+01
DAV:   8    -0.389995519080E+02   -0.60942E-01   -0.41841E-01  4080   0.548E+00    0.522E+00
DAV:   9    -0.391603328171E+02   -0.16078E+00   -0.48286E-02  3624   0.216E+00    0.127E+00
DAV:  10    -0.391616178607E+02   -0.12850E-02   -0.20085E-02  4236   0.125E+00    0.283E-01
DAV:  11    -0.391618694520E+02   -0.25159E-03   -0.28011E-03  3648   0.354E-01    0.135E-01
DAV:  12    -0.391620237521E+02   -0.15430E-03   -0.10182E-04  4044   0.121E-01    0.545E-02
DAV:  13    -0.391620788396E+02   -0.55088E-04   -0.90294E-05  3588   0.548E-02    0.211E-02
DAV:  14    -0.391620875004E+02   -0.86608E-05   -0.83780E-06  4068   0.215E-02    0.895E-03
DAV:  15    -0.391620873103E+02    0.19010E-06   -0.14723E-06  3912   0.741E-03    0.262E-03
DAV:  16    -0.391620875775E+02   -0.26717E-06   -0.21610E-07  3612   0.273E-03    0.181E-03
DAV:  17    -0.391620875375E+02    0.39940E-07   -0.17749E-08  2628   0.107E-03
   1 F= -.39162088E+02 E0= -.39162088E+02  d E =-.391621E+02  mag=     0.0000
