 vasp.5.4.4.18Apr17-6-g9f103f2a35 (build Apr 27 2017 11:13:10) complex          
  
 executed on           IFC91_ompi date 2020.05.13  12:23:09
 running on   12 total cores
 distrk:  each k-point on   12 cores,    1 groups
 distr:  one band on NCORES_PER_BAND=   1 cores,   12 groups


--------------------------------------------------------------------------------------------------------


 INCAR:
 POTCAR:    PAW_PBE Mn_pv 02Aug2007               
 POTCAR:    PAW_PBE F 08Apr2002                   

 ----------------------------------------------------------------------------- 
|                                                                             |
|           W    W    AA    RRRRR   N    N  II  N    N   GGGG   !!!           |
|           W    W   A  A   R    R  NN   N  II  NN   N  G    G  !!!           |
|           W    W  A    A  R    R  N N  N  II  N N  N  G       !!!           |
|           W WW W  AAAAAA  RRRRR   N  N N  II  N  N N  G  GGG   !            |
|           WW  WW  A    A  R   R   N   NN  II  N   NN  G    G                |
|           W    W  A    A  R    R  N    N  II  N    N   GGGG   !!!           |
|                                                                             |
|      For optimal performance we recommend to set                            |
|        NCORE= 4 - approx SQRT( number of cores)                             |
|      NCORE specifies how many cores store one orbital (NPAR=cpu/NCORE).     |
|      This setting can  greatly improve the performance of VASP for DFT.     |
|      The default,   NCORE=1            might be grossly inefficient         |
|      on modern multi-core architectures or massively parallel machines.     |
|      Do your own testing !!!!                                               |
|      Unfortunately you need to use the default for GW and RPA calculations. |
|      (for HF NCORE is supported but not extensively tested yet)             |
|                                                                             |
 ----------------------------------------------------------------------------- 

 POTCAR:    PAW_PBE Mn_pv 02Aug2007               
   VRHFIN =Mn: 3p4s3d                                                           
   LEXCH  = PE                                                                  
   EATOM  =  2025.2664 eV,  148.8529 Ry                                         
                                                                                
   TITEL  = PAW_PBE Mn_pv 02Aug2007                                             
   LULTRA =        F    use ultrasoft PP ?                                      
   IUNSCR =        1    unscreen: 0-lin 1-nonlin 2-no                           
   RPACOR =    2.080    partial core radius                                     
   POMASS =   54.938; ZVAL   =   13.000    mass and valenz                      
   RCORE  =    2.300    outmost cutoff radius                                   
   RWIGS  =    2.500; RWIGS  =    1.323    wigner-seitz radius (au A)           
   ENMAX  =  269.864; ENMIN  =  202.398 eV                                      
   ICORE  =        3    local potential                                         
   LCOR   =        T    correct aug charges                                     
   LPAW   =        T    paw PP                                                  
   EAUG   =  569.085                                                            
   DEXC   =    0.000                                                            
   RMAX   =    2.343    core radius for proj-oper                               
   RAUG   =    1.300    factor for augmentation sphere                          
   RDEP   =    2.338    radius for radial grids                                 
   RDEPT  =    1.798    core radius for aug-charge                              
                                                                                
   Atomic configuration                                                         
    8 entries                                                                   
     n  l   j            E        occ.                                          
     1  0  0.50     -6424.8287   2.0000                                         
     2  0  0.50      -739.1154   2.0000                                         
     2  1  1.50      -625.3949   6.0000                                         
     3  0  0.50       -81.6100   2.0000                                         
     3  1  1.50       -50.4667   6.0000                                         
     3  2  2.50        -3.3745   6.0000                                         
     4  0  0.50        -4.1331   1.0000                                         
     4  3  2.50        -1.3606   0.0000                                         
   Description                                                                  
     l       E           TYP  RCUT    TYP  RCUT                                 
     1    -50.4666628     23  2.000                                             
     1     -1.3605826     23  2.000                                             
     2     -3.3744729     23  2.300                                             
     2     -4.7350555     23  2.300                                             
     0     -4.1331431     23  2.300                                             
     0      7.6656591     23  2.300                                             
     3      9.5240782     23  2.300                                             
  local pseudopotential read in
  partial core-charges read in
  partial kinetic energy density read in
  atomic valenz-charges read in
  non local Contribution for L=           1  read in
    real space projection operators read in
  non local Contribution for L=           1  read in
    real space projection operators read in
  non local Contribution for L=           2  read in
    real space projection operators read in
  non local Contribution for L=           2  read in
    real space projection operators read in
  non local Contribution for L=           0  read in
    real space projection operators read in
  non local Contribution for L=           0  read in
    real space projection operators read in
    PAW grid and wavefunctions read in
 
   number of l-projection  operators is LMAX  =           6
   number of lm-projection operators is LMMAX =          18
 
 POTCAR:    PAW_PBE F 08Apr2002                   
   VRHFIN =F: s2p5                                                              
   LEXCH  = PE                                                                  
   EATOM  =   659.6475 eV,   48.4827 Ry                                         
                                                                                
   TITEL  = PAW_PBE F 08Apr2002                                                 
   LULTRA =        F    use ultrasoft PP ?                                      
   IUNSCR =        1    unscreen: 0-lin 1-nonlin 2-no                           
   RPACOR =    1.200    partial core radius                                     
   POMASS =   18.998; ZVAL   =    7.000    mass and valenz                      
   RCORE  =    1.520    outmost cutoff radius                                   
   RWIGS  =    1.500; RWIGS  =    0.794    wigner-seitz radius (au A)           
   ENMAX  =  400.000; ENMIN  =  300.000 eV                                      
   ICORE  =        2    local potential                                         
   LCOR   =        T    correct aug charges                                     
   LPAW   =        T    paw PP                                                  
   EAUG   =  613.614                                                            
   RMAX   =    1.555    core radius for proj-oper                               
   RAUG   =    1.300    factor for augmentation sphere                          
   RDEP   =    1.539    radius for radial grids                                 
   RDEPT  =    1.299    core radius for aug-charge                              
                                                                                
   Atomic configuration                                                         
    4 entries                                                                   
     n  l   j            E        occ.                                          
     1  0  0.50      -663.3661   2.0000                                         
     2  0  0.50       -29.8995   2.0000                                         
     2  1  0.50       -11.1114   5.0000                                         
     3  2  1.50       -10.8847   0.0000                                         
   Description                                                                  
     l       E           TYP  RCUT    TYP  RCUT                                 
     0    -29.8995018     23  1.200                                             
     0     -9.5240782     23  1.200                                             
     1    -11.1113914     23  1.520                                             
     1      1.3605826     23  1.520                                             
     2    -10.8846608      7  1.500                                             
  local pseudopotential read in
  partial core-charges read in
  partial kinetic energy density read in
  atomic valenz-charges read in
  non local Contribution for L=           0  read in
    real space projection operators read in
  non local Contribution for L=           0  read in
    real space projection operators read in
  non local Contribution for L=           1  read in
    real space projection operators read in
  non local Contribution for L=           1  read in
    real space projection operators read in
    PAW grid and wavefunctions read in
 
   number of l-projection  operators is LMAX  =           4
   number of lm-projection operators is LMMAX =           8
 

 ----------------------------------------------------------------------------- 
|                                                                             |
|  ADVICE TO THIS USER RUNNING 'VASP/VAMP'   (HEAR YOUR MASTER'S VOICE ...):  |
|                                                                             |
|      You enforced a specific xc-type in the INCAR file,                     |
|      a different type was found on the POTCAR file                          |
|          I HOPE YOU KNOW, WHAT YOU ARE  DOING                               |
|                                                                             |
 ----------------------------------------------------------------------------- 

  PAW_PBE Mn_pv 02Aug2007               :
 energy of atom  1       EATOM=-2025.2664
 kinetic energy error for atom=    0.0047 (will be added to EATOM!!)
  PAW_PBE F 08Apr2002                   :
 energy of atom  2       EATOM= -659.6475
 kinetic energy error for atom=    0.0256 (will be added to EATOM!!)
 
 
 POSCAR: Mn  F                                   
  positions in cartesian coordinates
  No initial velocities read in
 exchange correlation table for  LEXCH =       14
   RHO(1)=    0.500       N(1)  =     2000
   RHO(2)=  100.500       N(2)  =     4000
 


--------------------------------------------------------------------------------------------------------


 ion  position               nearest neighbor table
   1  0.500  0.500  0.500-   3 2.10   4 2.10   5 2.13   6 2.13   5 2.13   6 2.13
   2  0.000  0.000  0.000-   5 2.10   6 2.10   3 2.13   4 2.13   3 2.13   4 2.13
   3  0.195  0.805  0.500-   1 2.10   2 2.13   2 2.13
   4  0.805  0.195  0.500-   1 2.10   2 2.13   2 2.13
   5  0.305  0.305  0.000-   2 2.10   1 2.13   1 2.13
   6  0.695  0.695  0.000-   2 2.10   1 2.13   1 2.13
 
  LATTYP: Found a simple tetragonal cell.
 ALAT       =     4.8831441434
 C/A-ratio  =     0.6759574529
  
  Lattice vectors:
  
 A1 = (   4.8831441434,   0.0000000000,   0.0000000000)
 A2 = (   0.0000000000,   4.8831441434,   0.0000000000)
 A3 = (   0.0000000000,   0.0000000000,   3.3007976771)


Analysis of symmetry for initial positions (statically):
=====================================================================
 Subroutine PRICEL returns:
 Original cell was already a primitive cell.
 

 Routine SETGRP: Setting up the symmetry group for a 
 simple tetragonal supercell.


 Subroutine GETGRP returns: Found 16 space group operations
 (whereof  8 operations were pure point group operations)
 out of a pool of 16 trial point group operations.


The static configuration has the point symmetry D_2h.
 The point group associated with its full space group is D_4h.


Analysis of symmetry for dynamics (positions and initial velocities):
=====================================================================
 Subroutine PRICEL returns:
 Original cell was already a primitive cell.
 

 Routine SETGRP: Setting up the symmetry group for a 
 simple tetragonal supercell.


 Subroutine GETGRP returns: Found 16 space group operations
 (whereof  8 operations were pure point group operations)
 out of a pool of 16 trial point group operations.


The dynamic configuration has the point symmetry D_2h.
 The point group associated with its full space group is D_4h.


Analysis of structural, dynamic, and magnetic symmetry:
=====================================================================
 Subroutine PRICEL returns:
 Original cell was already a primitive cell.
 

 Routine SETGRP: Setting up the symmetry group for a 
 simple tetragonal supercell.


 Subroutine GETGRP returns: Found 16 space group operations
 (whereof  8 operations were pure point group operations)
 out of a pool of 16 trial point group operations.


The magnetic configuration has the point symmetry D_2h.
 The point group associated with its full space group is D_4h.


 Subroutine INISYM returns: Found 16 space group operations
 (whereof  8 operations are pure point group operations),
 and found     1 'primitive' translations

 
 
 KPOINTS: KPOINTS created by Atomic Simulation Env

Automatic generation of k-mesh.
Space group operators:
 irot       det(A)        alpha          n_x          n_y          n_z        tau_x        tau_y        tau_z
    1     1.000000     0.000001     1.000000     0.000000     0.000000     0.000000     0.000000     0.000000
    2    -1.000000     0.000001     1.000000     0.000000     0.000000     0.000000     0.000000     0.000000
    3     1.000000   179.999999     0.000000     0.000000     1.000000     0.000000     0.000000     0.000000
    4    -1.000000   179.999999     0.000000     0.000000     1.000000     0.000000     0.000000     0.000000
    5     1.000000   180.000000     0.707107     0.707107     0.000000     0.000000     0.000000     0.000000
    6    -1.000000   180.000000     0.707107     0.707107     0.000000     0.000000     0.000000     0.000000
    7     1.000000   180.000000     0.707107    -0.707107     0.000000     0.000000     0.000000     0.000000
    8    -1.000000   180.000000     0.707107    -0.707107     0.000000     0.000000     0.000000     0.000000
    9     1.000000    90.000000     0.000000     0.000000    -1.000000     0.500000     0.500000     0.500000
   10    -1.000000    90.000000     0.000000     0.000000    -1.000000     0.500000     0.500000     0.500000
   11     1.000000    90.000000     0.000000     0.000000     1.000000     0.500000     0.500000     0.500000
   12    -1.000000    90.000000     0.000000     0.000000     1.000000     0.500000     0.500000     0.500000
   13     1.000000   180.000000     0.000000     1.000000     0.000000     0.500000     0.500000     0.500000
   14    -1.000000   180.000000     0.000000     1.000000     0.000000     0.500000     0.500000     0.500000
   15     1.000000   180.000000     1.000000     0.000000     0.000000     0.500000     0.500000     0.500000
   16    -1.000000   180.000000     1.000000     0.000000     0.000000     0.500000     0.500000     0.500000
 
 Subroutine IBZKPT returns following result:
 ===========================================
 
 Found     24 irreducible k-points:
 
 Following reciprocal coordinates:
            Coordinates               Weight
  0.000000  0.000000  0.062500      2.000000
  0.200000  0.000000  0.062500      8.000000
  0.400000  0.000000  0.062500      8.000000
  0.200000  0.200000  0.062500      8.000000
  0.400000  0.200000  0.062500     16.000000
  0.400000  0.400000  0.062500      8.000000
  0.000000  0.000000  0.187500      2.000000
  0.200000  0.000000  0.187500      8.000000
  0.400000  0.000000  0.187500      8.000000
  0.200000  0.200000  0.187500      8.000000
  0.400000  0.200000  0.187500     16.000000
  0.400000  0.400000  0.187500      8.000000
  0.000000  0.000000  0.312500      2.000000
  0.200000  0.000000  0.312500      8.000000
  0.400000  0.000000  0.312500      8.000000
  0.200000  0.200000  0.312500      8.000000
  0.400000  0.200000  0.312500     16.000000
  0.400000  0.400000  0.312500      8.000000
  0.000000  0.000000  0.437500      2.000000
  0.200000  0.000000  0.437500      8.000000
  0.400000  0.000000  0.437500      8.000000
  0.200000  0.200000  0.437500      8.000000
  0.400000  0.200000  0.437500     16.000000
  0.400000  0.400000  0.437500      8.000000
 
 Following cartesian coordinates:
            Coordinates               Weight
  0.000000  0.000000  0.018935      2.000000
  0.040957  0.000000  0.018935      8.000000
  0.081914  0.000000  0.018935      8.000000
  0.040957  0.040957  0.018935      8.000000
  0.081914  0.040957  0.018935     16.000000
  0.081914  0.081914  0.018935      8.000000
  0.000000  0.000000  0.056804      2.000000
  0.040957  0.000000  0.056804      8.000000
  0.081914  0.000000  0.056804      8.000000
  0.040957  0.040957  0.056804      8.000000
  0.081914  0.040957  0.056804     16.000000
  0.081914  0.081914  0.056804      8.000000
  0.000000  0.000000  0.094674      2.000000
  0.040957  0.000000  0.094674      8.000000
  0.081914  0.000000  0.094674      8.000000
  0.040957  0.040957  0.094674      8.000000
  0.081914  0.040957  0.094674     16.000000
  0.081914  0.081914  0.094674      8.000000
  0.000000  0.000000  0.132544      2.000000
  0.040957  0.000000  0.132544      8.000000
  0.081914  0.000000  0.132544      8.000000
  0.040957  0.040957  0.132544      8.000000
  0.081914  0.040957  0.132544     16.000000
  0.081914  0.081914  0.132544      8.000000
 


--------------------------------------------------------------------------------------------------------




 Dimension of arrays:
   k-points           NKPTS =     24   k-points in BZ     NKDIM =     24   number of bands    NBANDS=     36
   number of dos      NEDOS =    301   number of ions     NIONS =      6
   non local maximal  LDIM  =      6   non local SUM 2l+1 LMDIM =     18
   total plane-waves  NPLWV =  18000
   max r-space proj   IRMAX =      1   max aug-charges    IRDMAX=  55706
   dimension x,y,z NGX =    30 NGY =   30 NGZ =   20
   dimension x,y,z NGXF=    60 NGYF=   60 NGZF=   40
   support grid    NGXF=   120 NGYF=  120 NGZF=   80
   ions per type =               2   4
   NGX,Y,Z   is equivalent  to a cutoff of  10.21, 10.21, 10.07 a.u.
   NGXF,Y,Z  is equivalent  to a cutoff of  20.43, 20.43, 20.15 a.u.

 SYSTEM =  unknown system                          
 POSCAR =  Mn  F                                   

 Startparameter for this run:
   NWRITE =      2    write-flag & timer
   PREC   = normal    normal or accurate (medium, high low for compatibility)
   ISTART =      0    job   : 0-new  1-cont  2-samecut
   ICHARG =      2    charge: 1-file 2-atom 10-const
   ISPIN  =      2    spin polarized calculation?
   LNONCOLLINEAR =      F non collinear calculations
   LSORBIT =      F    spin-orbit coupling
   INIWAV =      1    electr: 0-lowe 1-rand  2-diag
   LASPH  =      T    aspherical Exc in radial PAW
   METAGGA=      F    non-selfconsistent MetaGGA calc.

 Electronic Relaxation 1
   ENCUT  =  600.0 eV  44.10 Ry    6.64 a.u.   9.75  9.75  6.59*2*pi/ulx,y,z
   ENINI  =  600.0     initial cutoff
   ENAUG  =  613.6 eV  augmentation charge cutoff
   NELM   =     60;   NELMIN=  2; NELMDL= -5     # of ELM steps 
   EDIFF  = 0.1E-06   stopping-criterion for ELM
   LREAL  =      F    real-space projection
   NLSPLINE    = F    spline interpolate recip. space projectors
   LCOMPAT=      F    compatible to vasp.4.4
   GGA_COMPAT  = T    GGA compatible to vasp.4.4-vasp.4.6
   LMAXPAW     = -100 max onsite density
   LMAXMIX     =    4 max onsite mixed and CHGCAR
   VOSKOWN=      0    Vosko Wilk Nusair interpolation
   ROPT   =    0.00000   0.00000
 Ionic relaxation
   EDIFFG = -.5E-02   stopping-criterion for IOM
   NSW    =     50    number of steps for IOM
   NBLOCK =      1;   KBLOCK =     50    inner block; outer block 
   IBRION =      2    ionic relax: 0-MD 1-quasi-New 2-CG
   NFREE  =      1    steps in history (QN), initial steepest desc. (CG)
   ISIF   =      3    stress and relaxation
   IWAVPR =     11    prediction:  0-non 1-charg 2-wave 3-comb
   ISYM   =      2    0-nonsym 1-usesym 2-fastsym
   LCORR  =      T    Harris-Foulkes like correction to forces

   POTIM  = 0.5000    time-step for ionic-motion
   TEIN   =    0.0    initial temperature
   TEBEG  =    0.0;   TEEND  =   0.0 temperature during run
   SMASS  =  -3.00    Nose mass-parameter (am)
   estimated Nose-frequenzy (Omega)   =  0.10E-29 period in steps =****** mass=  -0.545E-27a.u.
   SCALEE = 1.0000    scale energy and forces
   NPACO  =    256;   APACO  = 16.0  distance and # of slots for P.C.
   PSTRESS=    0.0 pullay stress

  Mass of Ions in am
   POMASS =  54.94 19.00
  Ionic Valenz
   ZVAL   =  13.00  7.00
  Atomic Wigner-Seitz radii
   RWIGS  =  -1.00 -1.00
  virtual crystal weights 
   VCA    =   1.00  1.00
   NELECT =      54.0000    total number of electrons
   NUPDOWN=      -1.0000    fix difference up-down

 DOS related values:
   EMIN   =  10.00;   EMAX   =-10.00  energy-range for DOS
   EFERMI =   0.00
   ISMEAR =     0;   SIGMA  =   0.01  broadening in eV -4-tet -1-fermi 0-gaus

 Electronic relaxation 2 (details)
   IALGO  =     38    algorithm
   LDIAG  =      T    sub-space diagonalisation (order eigenvalues)
   LSUBROT=      F    optimize rotation matrix (better conditioning)
   TURBO    =      0    0=normal 1=particle mesh
   IRESTART =      0    0=no restart 2=restart with 2 vectors
   NREBOOT  =      0    no. of reboots
   NMIN     =      0    reboot dimension
   EREF     =   0.00    reference energy to select bands
   IMIX   =      4    mixing-type and parameters
     AMIX     =   0.40;   BMIX     =  1.00
     AMIX_MAG =   1.60;   BMIX_MAG =  1.00
     AMIN     =   0.10
     WC   =   100.;   INIMIX=   1;  MIXPRE=   1;  MAXMIX= -45

 Intra band minimization:
   WEIMIN = 0.0010     energy-eigenvalue tresh-hold
   EBREAK =  0.69E-09  absolut break condition
   DEPER  =   0.30     relativ break condition  

   TIME   =   0.40     timestep for ELM

  volume/ion in A,a.u.               =      13.12        88.52
  Fermi-wavevector in a.u.,A,eV,Ry     =   1.443888  2.728552 28.365585  2.084812
  Thomas-Fermi vector in A             =   2.562245
 
 Write flags
   LWAVE        =      F    write WAVECAR
   LDOWNSAMPLE  =      F    k-point downsampling of WAVECAR
   LCHARG       =      F    write CHGCAR
   LVTOT        =      F    write LOCPOT, total local potential
   LVHAR        =      F    write LOCPOT, Hartree potential only
   LELF         =      F    write electronic localiz. function (ELF)
   LORBIT       =     11    0 simple, 1 ext, 2 COOP (PROOUT), +10 PAW based schemes


 Dipole corrections
   LMONO  =      F    monopole corrections only (constant potential shift)
   LDIPOL =      F    correct potential (dipole corrections)
   IDIPOL =      0    1-x, 2-y, 3-z, 4-all directions 
   EPSILON=  1.0000000 bulk dielectric constant

 LDA+U is selected, type is set to LDAUTYPE =  2
   angular momentum for each species LDAUL =     2   -1
   U (eV)           for each species LDAUU =   4.0  0.0
   J (eV)           for each species LDAUJ =   0.0  0.0
 Exchange correlation treatment:
   GGA     =    PS    GGA type
   LEXCH   =    14    internal setting for exchange type
   VOSKOWN=      0    Vosko Wilk Nusair interpolation
   LHFCALC =     F    Hartree Fock is set to
   LHFONE  =     F    Hartree Fock one center treatment
   AEXX    =    0.0000 exact exchange contribution

 Linear response parameters
   LEPSILON=     F    determine dielectric tensor
   LRPA    =     F    only Hartree local field effects (RPA)
   LNABLA  =     F    use nabla operator in PAW spheres
   LVEL    =     F    velocity operator in full k-point grid
   LINTERFAST=   F  fast interpolation
   KINTER  =     0    interpolate to denser k-point grid
   CSHIFT  =0.1000    complex shift for real part using Kramers Kronig
   OMEGAMAX=  -1.0    maximum frequency
   DEG_THRESHOLD= 0.2000000E-02 threshold for treating states as degnerate
   RTIME   =   -0.100 relaxation time in fs
  (WPLASMAI=    0.000 imaginary part of plasma frequency in eV, 0.658/RTIME)
   DFIELD  = 0.0000000 0.0000000 0.0000000 field for delta impulse in time
 
 Orbital magnetization related:
   ORBITALMAG=     F  switch on orbital magnetization
   LCHIMAG   =     F  perturbation theory with respect to B field
   DQ        =  0.001000  dq finite difference perturbation B field
   LLRAUG    =     F  two centre corrections for induced B field



--------------------------------------------------------------------------------------------------------


 conjugate gradient relaxation of ions
 charge density and potential will be updated during run
 spin polarized calculation
 Variant of blocked Davidson
 Davidson routine will perform the subspace rotation
 perform sub-space diagonalisation
    after iterative eigenvector-optimisation
 modified Broyden-mixing scheme, WC =      100.0
 initial mixing is a Kerker type mixing with AMIX =  0.4000 and BMIX =      1.0000
 Hartree-type preconditioning will be used
 using additional bands            9
 reciprocal scheme for non local part
 use partial core corrections
 calculate Harris-corrections to forces 
   (improved forces if not selfconsistent)
 use gradient corrections 
 use of overlap-Matrix (Vanderbilt PP)
 Gauss-broadening in eV      SIGMA  =   0.01


--------------------------------------------------------------------------------------------------------


  energy-cutoff  :      600.00
  volume of cell :       78.71
      direct lattice vectors                 reciprocal lattice vectors
     4.883144143  0.000000000  0.000000000     0.204786091  0.000000000  0.000000000
     0.000000000  4.883144143  0.000000000     0.000000000  0.204786091  0.000000000
     0.000000000  0.000000000  3.300797677     0.000000000  0.000000000  0.302957072

  length of vectors
     4.883144143  4.883144143  3.300797677     0.204786091  0.204786091  0.302957072


 
 k-points in units of 2pi/SCALE and weight: KPOINTS created by Atomic Simulation Env
   0.00000000  0.00000000  0.01893482       0.010
   0.04095722  0.00000000  0.01893482       0.040
   0.08191444  0.00000000  0.01893482       0.040
   0.04095722  0.04095722  0.01893482       0.040
   0.08191444  0.04095722  0.01893482       0.080
   0.08191444  0.08191444  0.01893482       0.040
   0.00000000  0.00000000  0.05680445       0.010
   0.04095722  0.00000000  0.05680445       0.040
   0.08191444  0.00000000  0.05680445       0.040
   0.04095722  0.04095722  0.05680445       0.040
   0.08191444  0.04095722  0.05680445       0.080
   0.08191444  0.08191444  0.05680445       0.040
   0.00000000  0.00000000  0.09467409       0.010
   0.04095722  0.00000000  0.09467409       0.040
   0.08191444  0.00000000  0.09467409       0.040
   0.04095722  0.04095722  0.09467409       0.040
   0.08191444  0.04095722  0.09467409       0.080
   0.08191444  0.08191444  0.09467409       0.040
   0.00000000  0.00000000  0.13254372       0.010
   0.04095722  0.00000000  0.13254372       0.040
   0.08191444  0.00000000  0.13254372       0.040
   0.04095722  0.04095722  0.13254372       0.040
   0.08191444  0.04095722  0.13254372       0.080
   0.08191444  0.08191444  0.13254372       0.040
 
 k-points in reciprocal lattice and weights: KPOINTS created by Atomic Simulation Env
   0.00000000  0.00000000  0.06250000       0.010
   0.20000000  0.00000000  0.06250000       0.040
   0.40000000  0.00000000  0.06250000       0.040
   0.20000000  0.20000000  0.06250000       0.040
   0.40000000  0.20000000  0.06250000       0.080
   0.40000000  0.40000000  0.06250000       0.040
   0.00000000  0.00000000  0.18750000       0.010
   0.20000000  0.00000000  0.18750000       0.040
   0.40000000  0.00000000  0.18750000       0.040
   0.20000000  0.20000000  0.18750000       0.040
   0.40000000  0.20000000  0.18750000       0.080
   0.40000000  0.40000000  0.18750000       0.040
   0.00000000  0.00000000  0.31250000       0.010
   0.20000000  0.00000000  0.31250000       0.040
   0.40000000  0.00000000  0.31250000       0.040
   0.20000000  0.20000000  0.31250000       0.040
   0.40000000  0.20000000  0.31250000       0.080
   0.40000000  0.40000000  0.31250000       0.040
   0.00000000  0.00000000  0.43750000       0.010
   0.20000000  0.00000000  0.43750000       0.040
   0.40000000  0.00000000  0.43750000       0.040
   0.20000000  0.20000000  0.43750000       0.040
   0.40000000  0.20000000  0.43750000       0.080
   0.40000000  0.40000000  0.43750000       0.040
 
 position of ions in fractional coordinates (direct lattice) 
   0.50000000  0.50000000  0.50000000
   0.00000000  0.00000000  0.00000000
   0.19544394  0.80455606  0.50000000
   0.80455606  0.19544394  0.50000000
   0.30455606  0.30455606  0.00000000
   0.69544394  0.69544394  0.00000000
 
 position of ions in cartesian coordinates  (Angst):
   2.44157207  2.44157207  1.65039884
   0.00000000  0.00000000  0.00000000
   0.95438093  3.92876321  1.65039884
   3.92876321  0.95438093  1.65039884
   1.48719114  1.48719114  0.00000000
   3.39595300  3.39595300  0.00000000
 


--------------------------------------------------------------------------------------------------------


 k-point  1 :   0.0000 0.0000 0.0625  plane waves:    2653
 k-point  2 :   0.2000 0.0000 0.0625  plane waves:    2621
 k-point  3 :   0.4000 0.0000 0.0625  plane waves:    2643
 k-point  4 :   0.2000 0.2000 0.0625  plane waves:    2635
 k-point  5 :   0.4000 0.2000 0.0625  plane waves:    2633
 k-point  6 :   0.4000 0.4000 0.0625  plane waves:    2630
 k-point  7 :   0.0000 0.0000 0.1875  plane waves:    2609
 k-point  8 :   0.2000 0.0000 0.1875  plane waves:    2636
 k-point  9 :   0.4000 0.0000 0.1875  plane waves:    2623
 k-point 10 :   0.2000 0.2000 0.1875  plane waves:    2632
 k-point 11 :   0.4000 0.2000 0.1875  plane waves:    2628
 k-point 12 :   0.4000 0.4000 0.1875  plane waves:    2635
 k-point 13 :   0.0000 0.0000 0.3125  plane waves:    2605
 k-point 14 :   0.2000 0.0000 0.3125  plane waves:    2625
 k-point 15 :   0.4000 0.0000 0.3125  plane waves:    2627
 k-point 16 :   0.2000 0.2000 0.3125  plane waves:    2621
 k-point 17 :   0.4000 0.2000 0.3125  plane waves:    2624
 k-point 18 :   0.4000 0.4000 0.3125  plane waves:    2628
 k-point 19 :   0.0000 0.0000 0.4375  plane waves:    2626
 k-point 20 :   0.2000 0.0000 0.4375  plane waves:    2611
 k-point 21 :   0.4000 0.0000 0.4375  plane waves:    2625
 k-point 22 :   0.2000 0.2000 0.4375  plane waves:    2619
 k-point 23 :   0.4000 0.2000 0.4375  plane waves:    2621
 k-point 24 :   0.4000 0.4000 0.4375  plane waves:    2608

 maximum and minimum number of plane-waves per node :      2653     2605

 maximum number of plane-waves:      2653
 maximum index in each direction: 
   IXMAX=    9   IYMAX=    9   IZMAX=    6
   IXMIN=  -10   IYMIN=  -10   IZMIN=   -7


 serial   3D FFT for wavefunctions
 parallel 3D FFT for charge:
    minimum data exchange during FFTs selected (reduces bandwidth)


 total amount of memory used by VASP MPI-rank0    59500. kBytes
=======================================================================

   base      :      30000. kBytes
   nonl-proj :      18669. kBytes
   fftplans  :       1875. kBytes
   grid      :       2467. kBytes
   one-center:        186. kBytes
   wavefun   :       6303. kBytes
 
     INWAV:  cpu time    0.0000: real time    0.0000
 Broyden mixing: mesh for mixing (old mesh)
   NGX = 19   NGY = 19   NGZ = 13
  (NGX  = 60   NGY  = 60   NGZ  = 40)
  gives a total of   4693 points

 initial charge density was supplied:
 charge density of overlapping atoms calculated
 number of electron      54.0000000 magnetization       0.0000000
 keeping initial charge density in first step


--------------------------------------------------------------------------------------------------------


 Maximum index for augmentation-charges         4263 (set IRDMAX)


--------------------------------------------------------------------------------------------------------


 First call to EWALD:  gamma=   0.414
 Maximum number of real-space cells 2x 2x 3
 Maximum number of reciprocal cells 3x 3x 2

    FEWALD:  cpu time    0.0010: real time    0.0010


--------------------------------------- Iteration      1(   1)  ---------------------------------------


    POTLOK:  cpu time    0.0180: real time    0.0180
    SETDIJ:  cpu time    0.3728: real time    0.3728
atom =   1  type =  1  l = 2
 
 onsite density matrix
 
spin component  1
 
  0.2835  0.0000  0.0000  0.0000  0.0000
  0.0000  0.2835  0.0000  0.0000  0.0000
  0.0000  0.0000  0.2835  0.0000  0.0000
  0.0000  0.0000  0.0000  0.2835  0.0000
  0.0000  0.0000  0.0000  0.0000  0.2835
 
spin component  2
 
  0.7694  0.0000  0.0000  0.0000  0.0000
  0.0000  0.7694  0.0000  0.0000  0.0000
  0.0000  0.0000  0.7694  0.0000  0.0000
  0.0000  0.0000  0.0000  0.7694  0.0000
  0.0000  0.0000  0.0000  0.0000  0.7694
 
 occupancies and eigenvectors
 
  o =  0.2835  v =  1.0000  0.0000  0.0000  0.0000  0.0000  0.0000  0.0000  0.0000  0.0000  0.0000      0.0000  0.0000  0.0000  0.0000  0.0000  0.0000  0.0000  0.0000  0.0000  0.0000
  o =  0.2835  v =  0.0000  1.0000  0.0000  0.0000  0.0000  0.0000  0.0000  0.0000  0.0000  0.0000      0.0000  0.0000  0.0000  0.0000  0.0000  0.0000  0.0000  0.0000  0.0000  0.0000
  o =  0.2835  v =  0.0000  0.0000  1.0000  0.0000  0.0000  0.0000  0.0000  0.0000  0.0000  0.0000      0.0000  0.0000  0.0000  0.0000  0.0000  0.0000  0.0000  0.0000  0.0000  0.0000
  o =  0.2835  v =  0.0000  0.0000  0.0000  1.0000  0.0000  0.0000  0.0000  0.0000  0.0000  0.0000      0.0000  0.0000  0.0000  0.0000  0.0000  0.0000  0.0000  0.0000  0.0000  0.0000
  o =  0.2835  v =  0.0000  0.0000  0.0000  0.0000  1.0000  0.0000  0.0000  0.0000  0.0000  0.0000      0.0000  0.0000  0.0000  0.0000  0.0000  0.0000  0.0000  0.0000  0.0000  0.0000
  o =  0.7694  v =  0.0000  0.0000  0.0000  0.0000  0.0000  1.0000  0.0000  0.0000  0.0000  0.0000      0.0000  0.0000  0.0000  0.0000  0.0000  0.0000  0.0000  0.0000  0.0000  0.0000
  o =  0.7694  v =  0.0000  0.0000  0.0000  0.0000  0.0000  0.0000  1.0000  0.0000  0.0000  0.0000      0.0000  0.0000  0.0000  0.0000  0.0000  0.0000  0.0000  0.0000  0.0000  0.0000
  o =  0.7694  v =  0.0000  0.0000  0.0000  0.0000  0.0000  0.0000  0.0000  1.0000  0.0000  0.0000      0.0000  0.0000  0.0000  0.0000  0.0000  0.0000  0.0000  0.0000  0.0000  0.0000
  o =  0.7694  v =  0.0000  0.0000  0.0000  0.0000  0.0000  0.0000  0.0000  0.0000  1.0000  0.0000      0.0000  0.0000  0.0000  0.0000  0.0000  0.0000  0.0000  0.0000  0.0000  0.0000
  o =  0.7694  v =  0.0000  0.0000  0.0000  0.0000  0.0000  0.0000  0.0000  0.0000  0.0000  1.0000      0.0000  0.0000  0.0000  0.0000  0.0000  0.0000  0.0000  0.0000  0.0000  0.0000
atom =   2  type =  1  l = 2
 
 onsite density matrix
 
spin component  1
 
  0.7694  0.0000  0.0000  0.0000  0.0000
  0.0000  0.7694  0.0000  0.0000  0.0000
  0.0000  0.0000  0.7694  0.0000  0.0000
  0.0000  0.0000  0.0000  0.7694  0.0000
  0.0000  0.0000  0.0000  0.0000  0.7694
 
spin component  2
 
  0.2835  0.0000  0.0000  0.0000  0.0000
  0.0000  0.2835  0.0000  0.0000  0.0000
  0.0000  0.0000  0.2835  0.0000  0.0000
  0.0000  0.0000  0.0000  0.2835  0.0000
  0.0000  0.0000  0.0000  0.0000  0.2835
 
 occupancies and eigenvectors
 
  o =  0.2835  v =  0.0000  0.0000  0.0000  0.0000  0.0000  1.0000  0.0000  0.0000  0.0000  0.0000      0.0000  0.0000  0.0000  0.0000  0.0000  0.0000  0.0000  0.0000  0.0000  0.0000
  o =  0.2835  v =  0.0000  0.0000  0.0000  0.0000  0.0000  0.0000  1.0000  0.0000  0.0000  0.0000      0.0000  0.0000  0.0000  0.0000  0.0000  0.0000  0.0000  0.0000  0.0000  0.0000
  o =  0.2835  v =  0.0000  0.0000  0.0000  0.0000  0.0000  0.0000  0.0000  1.0000  0.0000  0.0000      0.0000  0.0000  0.0000  0.0000  0.0000  0.0000  0.0000  0.0000  0.0000  0.0000
  o =  0.2835  v =  0.0000  0.0000  0.0000  0.0000  0.0000  0.0000  0.0000  0.0000  1.0000  0.0000      0.0000  0.0000  0.0000  0.0000  0.0000  0.0000  0.0000  0.0000  0.0000  0.0000
  o =  0.2835  v =  0.0000  0.0000  0.0000  0.0000  0.0000  0.0000  0.0000  0.0000  0.0000  1.0000      0.0000  0.0000  0.0000  0.0000  0.0000  0.0000  0.0000  0.0000  0.0000  0.0000
  o =  0.7694  v =  1.0000  0.0000  0.0000  0.0000  0.0000  0.0000  0.0000  0.0000  0.0000  0.0000      0.0000  0.0000  0.0000  0.0000  0.0000  0.0000  0.0000  0.0000  0.0000  0.0000
  o =  0.7694  v =  0.0000  1.0000  0.0000  0.0000  0.0000  0.0000  0.0000  0.0000  0.0000  0.0000      0.0000  0.0000  0.0000  0.0000  0.0000  0.0000  0.0000  0.0000  0.0000  0.0000
  o =  0.7694  v =  0.0000  0.0000  1.0000  0.0000  0.0000  0.0000  0.0000  0.0000  0.0000  0.0000      0.0000  0.0000  0.0000  0.0000  0.0000  0.0000  0.0000  0.0000  0.0000  0.0000
  o =  0.7694  v =  0.0000  0.0000  0.0000  1.0000  0.0000  0.0000  0.0000  0.0000  0.0000  0.0000      0.0000  0.0000  0.0000  0.0000  0.0000  0.0000  0.0000  0.0000  0.0000  0.0000
  o =  0.7694  v =  0.0000  0.0000  0.0000  0.0000  1.0000  0.0000  0.0000  0.0000  0.0000  0.0000      0.0000  0.0000  0.0000  0.0000  0.0000  0.0000  0.0000  0.0000  0.0000  0.0000
     EDDAV:  cpu time    0.9023: real time    0.9214
       DOS:  cpu time    0.0006: real time    0.0006
    --------------------------------------------
      LOOP:  cpu time    1.2937: real time    1.3129

 eigenvalue-minimisations  :  3456
 total energy-change (2. order) : 0.6761250E+03  (-0.3437001E+04)
 number of electron      54.0000000 magnetization       0.0000000
 augmentation part       54.0000000 magnetization       0.0000000

 Free energy of the ion-electron system (eV)
  ---------------------------------------------------
  alpha Z        PSCENC =       196.13658257
  Ewald energy   TEWEN  =     -4178.31221721
  -Hartree energ DENC   =     -2146.41896641
  -exchange      EXHF   =         0.00000000
  -V(xc)+E(xc)   XCENC  =       293.25934242
  PAW double counting   =      5439.83165491    -5546.16339751
  entropy T*S    EENTRO =        -0.00017891
  eigenvalues    EBANDS =       -59.85634287
  atomic energy  EATOM  =      6677.64854832
  Solvation  Ediel_sol  =         0.00000000
  ---------------------------------------------------
  free energy    TOTEN  =       676.12502530 eV

  energy without entropy =      676.12520421  energy(sigma->0) =      676.12511476


--------------------------------------------------------------------------------------------------------




--------------------------------------- Iteration      1(   2)  ---------------------------------------


     EDDAV:  cpu time    1.0162: real time    1.0162
       DOS:  cpu time    0.0003: real time    0.0003
    --------------------------------------------
      LOOP:  cpu time    1.0165: real time    1.0165

 eigenvalue-minimisations  :  4008
 total energy-change (2. order) :-0.6673721E+03  (-0.6475284E+03)
 number of electron      54.0000000 magnetization       0.0000000
 augmentation part       54.0000000 magnetization       0.0000000

 Free energy of the ion-electron system (eV)
  ---------------------------------------------------
  alpha Z        PSCENC =       196.13658257
  Ewald energy   TEWEN  =     -4178.31221721
  -Hartree energ DENC   =     -2146.41896641
  -exchange      EXHF   =         0.00000000
  -V(xc)+E(xc)   XCENC  =       293.25934242
  PAW double counting   =      5439.83165491    -5546.16339751
  entropy T*S    EENTRO =        -0.00000000
  eigenvalues    EBANDS =      -727.22866792
  atomic energy  EATOM  =      6677.64854832
  Solvation  Ediel_sol  =         0.00000000
  ---------------------------------------------------
  free energy    TOTEN  =         8.75287916 eV

  energy without entropy =        8.75287916  energy(sigma->0) =        8.75287916


--------------------------------------------------------------------------------------------------------




--------------------------------------- Iteration      1(   3)  ---------------------------------------


     EDDAV:  cpu time    1.0275: real time    1.0275
       DOS:  cpu time    0.0003: real time    0.0003
    --------------------------------------------
      LOOP:  cpu time    1.0278: real time    1.0278

 eigenvalue-minimisations  :  4020
 total energy-change (2. order) :-0.4818357E+02  (-0.4798137E+02)
 number of electron      54.0000000 magnetization       0.0000000
 augmentation part       54.0000000 magnetization       0.0000000

 Free energy of the ion-electron system (eV)
  ---------------------------------------------------
  alpha Z        PSCENC =       196.13658257
  Ewald energy   TEWEN  =     -4178.31221721
  -Hartree energ DENC   =     -2146.41896641
  -exchange      EXHF   =         0.00000000
  -V(xc)+E(xc)   XCENC  =       293.25934242
  PAW double counting   =      5439.83165491    -5546.16339751
  entropy T*S    EENTRO =        -0.00000000
  eigenvalues    EBANDS =      -775.41224087
  atomic energy  EATOM  =      6677.64854832
  Solvation  Ediel_sol  =         0.00000000
  ---------------------------------------------------
  free energy    TOTEN  =       -39.43069379 eV

  energy without entropy =      -39.43069379  energy(sigma->0) =      -39.43069379


--------------------------------------------------------------------------------------------------------




--------------------------------------- Iteration      1(   4)  ---------------------------------------


     EDDAV:  cpu time    1.0111: real time    1.0112
       DOS:  cpu time    0.0003: real time    0.0003
    --------------------------------------------
      LOOP:  cpu time    1.0114: real time    1.0114

 eigenvalue-minimisations  :  3948
 total energy-change (2. order) :-0.6673491E+00  (-0.6671047E+00)
 number of electron      54.0000000 magnetization       0.0000000
 augmentation part       54.0000000 magnetization       0.0000000

 Free energy of the ion-electron system (eV)
  ---------------------------------------------------
  alpha Z        PSCENC =       196.13658257
  Ewald energy   TEWEN  =     -4178.31221721
  -Hartree energ DENC   =     -2146.41896641
  -exchange      EXHF   =         0.00000000
  -V(xc)+E(xc)   XCENC  =       293.25934242
  PAW double counting   =      5439.83165491    -5546.16339751
  entropy T*S    EENTRO =        -0.00000000
  eigenvalues    EBANDS =      -776.07959002
  atomic energy  EATOM  =      6677.64854832
  Solvation  Ediel_sol  =         0.00000000
  ---------------------------------------------------
  free energy    TOTEN  =       -40.09804294 eV

  energy without entropy =      -40.09804294  energy(sigma->0) =      -40.09804294


--------------------------------------------------------------------------------------------------------




--------------------------------------- Iteration      1(   5)  ---------------------------------------


     EDDAV:  cpu time    1.0349: real time    1.0349
       DOS:  cpu time    0.0003: real time    0.0003
    CHARGE:  cpu time    0.0597: real time    0.0597
    MIXING:  cpu time    0.0005: real time    0.0005
    --------------------------------------------
      LOOP:  cpu time    1.0954: real time    1.0954

 eigenvalue-minimisations  :  4032
 total energy-change (2. order) :-0.1096535E-01  (-0.1096520E-01)
 number of electron      54.0000010 magnetization      -0.0000000
 augmentation part       20.0573612 magnetization      -0.0000000

 Broyden mixing:
  rms(total) = 0.22532E+01    rms(broyden)= 0.22531E+01
  rms(prec ) = 0.30229E+01
  weight for this iteration     100.00

 Free energy of the ion-electron system (eV)
  ---------------------------------------------------
  alpha Z        PSCENC =       196.13658257
  Ewald energy   TEWEN  =     -4178.31221721
  -Hartree energ DENC   =     -2146.41896641
  -exchange      EXHF   =         0.00000000
  -V(xc)+E(xc)   XCENC  =       293.25934242
  PAW double counting   =      5439.83165491    -5546.16339751
  entropy T*S    EENTRO =        -0.00000000
  eigenvalues    EBANDS =      -776.09055537
  atomic energy  EATOM  =      6677.64854832
  Solvation  Ediel_sol  =         0.00000000
  ---------------------------------------------------
  free energy    TOTEN  =       -40.10900829 eV

  energy without entropy =      -40.10900829  energy(sigma->0) =      -40.10900829


--------------------------------------------------------------------------------------------------------




--------------------------------------- Iteration      1(   6)  ---------------------------------------


    POTLOK:  cpu time    0.0165: real time    0.0165
    SETDIJ:  cpu time    0.3680: real time    0.3680
atom =   1  type =  1  l = 2
 
 onsite density matrix
 
spin component  1
 
 -0.0782  0.0000  0.0027  0.0000  0.0000
  0.0000 -0.0807  0.0000  0.0019  0.0000
  0.0027  0.0000 -0.0785  0.0000  0.0000
  0.0000  0.0019  0.0000 -0.0807  0.0000
  0.0000  0.0000  0.0000  0.0000 -0.0851
 
spin component  2
 
  1.1020  0.0000  0.0138  0.0000  0.0000
  0.0000  1.0997  0.0000  0.0122  0.0000
  0.0138  0.0000  1.0934  0.0000  0.0000
  0.0000  0.0122  0.0000  1.0997  0.0000
  0.0000  0.0000  0.0000  0.0000  1.0894
 
 occupancies and eigenvectors
 
  o = -0.0851  v =  0.0000 -0.0000 -0.0000  0.0000  1.0000  0.0000  0.0000  0.0000  0.0000  0.0000      0.0000  0.0000  0.0000  0.0000  0.0000  0.0000  0.0000  0.0000  0.0000  0.0000
  o = -0.0826  v = -0.0000 -0.7071  0.0000  0.7071 -0.0000  0.0000  0.0000  0.0000  0.0000  0.0000      0.0000  0.0000  0.0000  0.0000  0.0000  0.0000  0.0000  0.0000  0.0000  0.0000
  o = -0.0811  v =  0.6861 -0.0000 -0.7275  0.0000 -0.0000  0.0000  0.0000  0.0000  0.0000  0.0000      0.0000  0.0000  0.0000  0.0000  0.0000  0.0000  0.0000  0.0000  0.0000  0.0000
  o = -0.0788  v = -0.0000  0.7071  0.0000  0.7071  0.0000  0.0000  0.0000  0.0000  0.0000  0.0000      0.0000  0.0000  0.0000  0.0000  0.0000  0.0000  0.0000  0.0000  0.0000  0.0000
  o = -0.0756  v =  0.7275  0.0000  0.6861  0.0000  0.0000  0.0000  0.0000  0.0000  0.0000  0.0000      0.0000  0.0000  0.0000  0.0000  0.0000  0.0000  0.0000  0.0000  0.0000  0.0000
  o =  1.0833  v =  0.0000  0.0000  0.0000  0.0000  0.0000 -0.5926  0.0000  0.8055 -0.0000 -0.0000      0.0000  0.0000  0.0000  0.0000  0.0000  0.0000  0.0000  0.0000  0.0000  0.0000
  o =  1.0874  v =  0.0000  0.0000  0.0000  0.0000  0.0000 -0.0000 -0.7071  0.0000  0.7071 -0.0000      0.0000  0.0000  0.0000  0.0000  0.0000  0.0000  0.0000  0.0000  0.0000  0.0000
  o =  1.0894  v =  0.0000  0.0000  0.0000  0.0000  0.0000 -0.0000 -0.0000  0.0000  0.0000  1.0000      0.0000  0.0000  0.0000  0.0000  0.0000  0.0000  0.0000  0.0000  0.0000  0.0000
  o =  1.1119  v =  0.0000  0.0000  0.0000  0.0000  0.0000 -0.0000 -0.7071 -0.0000 -0.7071  0.0000      0.0000  0.0000  0.0000  0.0000  0.0000  0.0000  0.0000  0.0000  0.0000  0.0000
  o =  1.1121  v =  0.0000  0.0000  0.0000  0.0000  0.0000 -0.8055  0.0000 -0.5926  0.0000 -0.0000      0.0000  0.0000  0.0000  0.0000  0.0000  0.0000  0.0000  0.0000  0.0000  0.0000
atom =   2  type =  1  l = 2
 
 onsite density matrix
 
spin component  1
 
  1.1020  0.0000 -0.0138  0.0000  0.0000
  0.0000  1.0997  0.0000 -0.0122  0.0000
 -0.0138  0.0000  1.0934  0.0000 -0.0000
  0.0000 -0.0122  0.0000  1.0997  0.0000
  0.0000  0.0000 -0.0000  0.0000  1.0894
 
spin component  2
 
 -0.0782  0.0000 -0.0027  0.0000 -0.0000
  0.0000 -0.0807  0.0000 -0.0019  0.0000
 -0.0027  0.0000 -0.0785  0.0000  0.0000
  0.0000 -0.0019  0.0000 -0.0807  0.0000
 -0.0000  0.0000  0.0000  0.0000 -0.0851
 
 occupancies and eigenvectors
 
  o = -0.0851  v =  0.0000  0.0000  0.0000  0.0000  0.0000 -0.0000  0.0000 -0.0000  0.0000  1.0000      0.0000  0.0000  0.0000  0.0000  0.0000  0.0000  0.0000  0.0000  0.0000  0.0000
  o = -0.0826  v =  0.0000  0.0000  0.0000  0.0000  0.0000 -0.0000 -0.7071 -0.0000 -0.7071  0.0000      0.0000  0.0000  0.0000  0.0000  0.0000  0.0000  0.0000  0.0000  0.0000  0.0000
  o = -0.0811  v =  0.0000  0.0000  0.0000  0.0000  0.0000  0.6861 -0.0000  0.7275 -0.0000  0.0000      0.0000  0.0000  0.0000  0.0000  0.0000  0.0000  0.0000  0.0000  0.0000  0.0000
  o = -0.0788  v =  0.0000  0.0000  0.0000  0.0000  0.0000 -0.0000  0.7071 -0.0000 -0.7071 -0.0000      0.0000  0.0000  0.0000  0.0000  0.0000  0.0000  0.0000  0.0000  0.0000  0.0000
  o = -0.0756  v =  0.0000  0.0000  0.0000  0.0000  0.0000  0.7275  0.0000 -0.6861 -0.0000 -0.0000      0.0000  0.0000  0.0000  0.0000  0.0000  0.0000  0.0000  0.0000  0.0000  0.0000
  o =  1.0833  v = -0.5926  0.0000 -0.8055  0.0000 -0.0000  0.0000  0.0000  0.0000  0.0000  0.0000      0.0000  0.0000  0.0000  0.0000  0.0000  0.0000  0.0000  0.0000  0.0000  0.0000
  o =  1.0874  v = -0.0000 -0.7071 -0.0000 -0.7071 -0.0000  0.0000  0.0000  0.0000  0.0000  0.0000      0.0000  0.0000  0.0000  0.0000  0.0000  0.0000  0.0000  0.0000  0.0000  0.0000
  o =  1.0894  v = -0.0000 -0.0000 -0.0000 -0.0000  1.0000  0.0000  0.0000  0.0000  0.0000  0.0000      0.0000  0.0000  0.0000  0.0000  0.0000  0.0000  0.0000  0.0000  0.0000  0.0000
  o =  1.1119  v = -0.0000 -0.7071  0.0000  0.7071 -0.0000  0.0000  0.0000  0.0000  0.0000  0.0000      0.0000  0.0000  0.0000  0.0000  0.0000  0.0000  0.0000  0.0000  0.0000  0.0000
  o =  1.1121  v = -0.8055  0.0000  0.5926 -0.0000 -0.0000  0.0000  0.0000  0.0000  0.0000  0.0000      0.0000  0.0000  0.0000  0.0000  0.0000  0.0000  0.0000  0.0000  0.0000  0.0000
     EDDAV:  cpu time    1.1011: real time    1.1011
       DOS:  cpu time    0.0003: real time    0.0003
    CHARGE:  cpu time    0.0594: real time    0.0594
    MIXING:  cpu time    0.0005: real time    0.0005
    --------------------------------------------
      LOOP:  cpu time    1.5458: real time    1.5458

 eigenvalue-minimisations  :  4368
 total energy-change (2. order) : 0.1890420E+01  (-0.1568172E+01)
 number of electron      54.0000009 magnetization      -0.0000000
 augmentation part       19.9259583 magnetization      -0.0000000

 Broyden mixing:
  rms(total) = 0.14280E+01    rms(broyden)= 0.14279E+01
  rms(prec ) = 0.14920E+01
  weight for this iteration     100.00

 eigenvalues of (default mixing * dielectric matrix)
  average eigenvalue GAMMA=   0.7884
  0.7884

 Free energy of the ion-electron system (eV)
  ---------------------------------------------------
  alpha Z        PSCENC =       196.13658257
  Ewald energy   TEWEN  =     -4178.31221721
  -Hartree energ DENC   =     -2166.71396875
  -exchange      EXHF   =         0.00000000
  -V(xc)+E(xc)   XCENC  =       293.71072973
  PAW double counting   =      5691.30930921    -5788.48577688
  entropy T*S    EENTRO =        -0.00000000
  eigenvalues    EBANDS =      -763.51179570
  atomic energy  EATOM  =      6677.64854832
  Solvation  Ediel_sol  =         0.00000000
  ---------------------------------------------------
  free energy    TOTEN  =       -38.21858871 eV

  energy without entropy =      -38.21858871  energy(sigma->0) =      -38.21858871


--------------------------------------------------------------------------------------------------------




--------------------------------------- Iteration      1(   7)  ---------------------------------------


    POTLOK:  cpu time    0.0157: real time    0.0157
    SETDIJ:  cpu time    0.3703: real time    0.3704
atom =   1  type =  1  l = 2
 
 onsite density matrix
 
spin component  1
 
  0.1156  0.0000  0.0189  0.0000  0.0000
  0.0000  0.1097  0.0000  0.0161  0.0000
  0.0189  0.0000  0.1050  0.0000 -0.0000
  0.0000  0.0161  0.0000  0.1097  0.0000
  0.0000  0.0000 -0.0000  0.0000  0.0927
 
spin component  2
 
  0.9013  0.0000  0.0067  0.0000  0.0000
  0.0000  0.8996  0.0000  0.0059  0.0000
  0.0067  0.0000  0.8978  0.0000  0.0000
  0.0000  0.0059  0.0000  0.8996  0.0000
  0.0000  0.0000  0.0000  0.0000  0.8935
 
 occupancies and eigenvectors
 
  o =  0.0906  v = -0.6044  0.0000  0.7967  0.0000  0.0000  0.0000  0.0000  0.0000  0.0000  0.0000      0.0000  0.0000  0.0000  0.0000  0.0000  0.0000  0.0000  0.0000  0.0000  0.0000
  o =  0.0927  v = -0.0000 -0.0000  0.0000  0.0000 -1.0000  0.0000  0.0000  0.0000  0.0000  0.0000      0.0000  0.0000  0.0000  0.0000  0.0000  0.0000  0.0000  0.0000  0.0000  0.0000
  o =  0.0936  v =  0.0000 -0.7071  0.0000  0.7071  0.0000  0.0000  0.0000  0.0000  0.0000  0.0000      0.0000  0.0000  0.0000  0.0000  0.0000  0.0000  0.0000  0.0000  0.0000  0.0000
  o =  0.1258  v =  0.0000 -0.7071  0.0000 -0.7071  0.0000  0.0000  0.0000  0.0000  0.0000  0.0000      0.0000  0.0000  0.0000  0.0000  0.0000  0.0000  0.0000  0.0000  0.0000  0.0000
  o =  0.1299  v = -0.7967 -0.0000 -0.6044  0.0000  0.0000  0.0000  0.0000  0.0000  0.0000  0.0000      0.0000  0.0000  0.0000  0.0000  0.0000  0.0000  0.0000  0.0000  0.0000  0.0000
  o =  0.8926  v =  0.0000  0.0000  0.0000  0.0000  0.0000 -0.6136  0.0000  0.7896 -0.0000 -0.0000      0.0000  0.0000  0.0000  0.0000  0.0000  0.0000  0.0000  0.0000  0.0000  0.0000
  o =  0.8935  v =  0.0000  0.0000  0.0000  0.0000  0.0000 -0.0000 -0.0000  0.0000  0.0000  1.0000      0.0000  0.0000  0.0000  0.0000  0.0000  0.0000  0.0000  0.0000  0.0000  0.0000
  o =  0.8937  v =  0.0000  0.0000  0.0000  0.0000  0.0000  0.0000  0.7071 -0.0000 -0.7071  0.0000      0.0000  0.0000  0.0000  0.0000  0.0000  0.0000  0.0000  0.0000  0.0000  0.0000
  o =  0.9055  v =  0.0000  0.0000  0.0000  0.0000  0.0000 -0.0000 -0.7071 -0.0000 -0.7071 -0.0000      0.0000  0.0000  0.0000  0.0000  0.0000  0.0000  0.0000  0.0000  0.0000  0.0000
  o =  0.9065  v =  0.0000  0.0000  0.0000  0.0000  0.0000 -0.7896  0.0000 -0.6136  0.0000 -0.0000      0.0000  0.0000  0.0000  0.0000  0.0000  0.0000  0.0000  0.0000  0.0000  0.0000
atom =   2  type =  1  l = 2
 
 onsite density matrix
 
spin component  1
 
  0.9013  0.0000 -0.0067  0.0000  0.0000
  0.0000  0.8996  0.0000 -0.0059  0.0000
 -0.0067  0.0000  0.8978  0.0000 -0.0000
  0.0000 -0.0059  0.0000  0.8996  0.0000
  0.0000  0.0000 -0.0000  0.0000  0.8935
 
spin component  2
 
  0.1156  0.0000 -0.0189  0.0000  0.0000
  0.0000  0.1097  0.0000 -0.0161  0.0000
 -0.0189  0.0000  0.1050  0.0000  0.0000
  0.0000 -0.0161  0.0000  0.1097  0.0000
  0.0000  0.0000  0.0000  0.0000  0.0927
 
 occupancies and eigenvectors
 
  o =  0.0906  v =  0.0000  0.0000  0.0000  0.0000  0.0000 -0.6044 -0.0000 -0.7967  0.0000  0.0000      0.0000  0.0000  0.0000  0.0000  0.0000  0.0000  0.0000  0.0000  0.0000  0.0000
  o =  0.0927  v =  0.0000  0.0000  0.0000  0.0000  0.0000 -0.0000  0.0000 -0.0000  0.0000 -1.0000      0.0000  0.0000  0.0000  0.0000  0.0000  0.0000  0.0000  0.0000  0.0000  0.0000
  o =  0.0936  v =  0.0000  0.0000  0.0000  0.0000  0.0000  0.0000  0.7071 -0.0000  0.7071  0.0000      0.0000  0.0000  0.0000  0.0000  0.0000  0.0000  0.0000  0.0000  0.0000  0.0000
  o =  0.1258  v =  0.0000  0.0000  0.0000  0.0000  0.0000  0.0000  0.7071 -0.0000 -0.7071  0.0000      0.0000  0.0000  0.0000  0.0000  0.0000  0.0000  0.0000  0.0000  0.0000  0.0000
  o =  0.1299  v =  0.0000  0.0000  0.0000  0.0000  0.0000 -0.7967  0.0000  0.6044  0.0000  0.0000      0.0000  0.0000  0.0000  0.0000  0.0000  0.0000  0.0000  0.0000  0.0000  0.0000
  o =  0.8926  v = -0.6136  0.0000 -0.7896  0.0000  0.0000  0.0000  0.0000  0.0000  0.0000  0.0000      0.0000  0.0000  0.0000  0.0000  0.0000  0.0000  0.0000  0.0000  0.0000  0.0000
  o =  0.8935  v =  0.0000 -0.0000  0.0000  0.0000  1.0000  0.0000  0.0000  0.0000  0.0000  0.0000      0.0000  0.0000  0.0000  0.0000  0.0000  0.0000  0.0000  0.0000  0.0000  0.0000
  o =  0.8937  v =  0.0000  0.7071  0.0000  0.7071  0.0000  0.0000  0.0000  0.0000  0.0000  0.0000      0.0000  0.0000  0.0000  0.0000  0.0000  0.0000  0.0000  0.0000  0.0000  0.0000
  o =  0.9055  v =  0.0000  0.7071  0.0000 -0.7071  0.0000  0.0000  0.0000  0.0000  0.0000  0.0000      0.0000  0.0000  0.0000  0.0000  0.0000  0.0000  0.0000  0.0000  0.0000  0.0000
  o =  0.9065  v = -0.7896  0.0000  0.6136  0.0000 -0.0000  0.0000  0.0000  0.0000  0.0000  0.0000      0.0000  0.0000  0.0000  0.0000  0.0000  0.0000  0.0000  0.0000  0.0000  0.0000
     EDDAV:  cpu time    1.0626: real time    1.0626
       DOS:  cpu time    0.0003: real time    0.0003
    CHARGE:  cpu time    0.0595: real time    0.0595
    MIXING:  cpu time    0.0005: real time    0.0005
    --------------------------------------------
      LOOP:  cpu time    1.5091: real time    1.5092

 eigenvalue-minimisations  :  4164
 total energy-change (2. order) :-0.7200207E+00  (-0.1820863E+00)
 number of electron      54.0000009 magnetization       0.0000000
 augmentation part       19.9221272 magnetization       0.0000000

 Broyden mixing:
  rms(total) = 0.11268E+01    rms(broyden)= 0.11268E+01
  rms(prec ) = 0.11607E+01
  weight for this iteration     100.00

 eigenvalues of (default mixing * dielectric matrix)
  average eigenvalue GAMMA=   1.4028
  0.6946  2.1110

 Free energy of the ion-electron system (eV)
  ---------------------------------------------------
  alpha Z        PSCENC =       196.13658257
  Ewald energy   TEWEN  =     -4178.31221721
  -Hartree energ DENC   =     -2162.28675382
  -exchange      EXHF   =         0.00000000
  -V(xc)+E(xc)   XCENC  =       294.26176025
  PAW double counting   =      5912.76621555    -6019.72496488
  entropy T*S    EENTRO =        -0.00000000
  eigenvalues    EBANDS =      -759.42778019
  atomic energy  EATOM  =      6677.64854832
  Solvation  Ediel_sol  =         0.00000000
  ---------------------------------------------------
  free energy    TOTEN  =       -38.93860942 eV

  energy without entropy =      -38.93860942  energy(sigma->0) =      -38.93860942


--------------------------------------------------------------------------------------------------------




--------------------------------------- Iteration      1(   8)  ---------------------------------------


    POTLOK:  cpu time    0.0158: real time    0.0158
    SETDIJ:  cpu time    0.3682: real time    0.3682
atom =   1  type =  1  l = 2
 
 onsite density matrix
 
spin component  1
 
 -0.0145  0.0000  0.0196  0.0000  0.0000
  0.0000 -0.0207  0.0000  0.0160  0.0000
  0.0196  0.0000 -0.0238  0.0000 -0.0000
  0.0000  0.0160  0.0000 -0.0207  0.0000
  0.0000  0.0000 -0.0000  0.0000 -0.0397
 
spin component  2
 
  1.0304  0.0000  0.0172  0.0000 -0.0000
  0.0000  1.0256  0.0000  0.0158  0.0000
  0.0172  0.0000  1.0193  0.0000  0.0000
  0.0000  0.0158  0.0000  1.0256  0.0000
 -0.0000  0.0000  0.0000  0.0000  1.0111
 
 occupancies and eigenvectors
 
  o = -0.0397  v =  0.0000  0.0000 -0.0000  0.0000 -1.0000  0.0000  0.0000  0.0000  0.0000  0.0000      0.0000  0.0000  0.0000  0.0000  0.0000  0.0000  0.0000  0.0000  0.0000  0.0000
  o = -0.0392  v = -0.6198  0.0000  0.7848  0.0000 -0.0000  0.0000  0.0000  0.0000  0.0000  0.0000      0.0000  0.0000  0.0000  0.0000  0.0000  0.0000  0.0000  0.0000  0.0000  0.0000
  o = -0.0367  v =  0.0000  0.7071  0.0000 -0.7071  0.0000  0.0000  0.0000  0.0000  0.0000  0.0000      0.0000  0.0000  0.0000  0.0000  0.0000  0.0000  0.0000  0.0000  0.0000  0.0000
  o = -0.0047  v =  0.0000 -0.7071  0.0000 -0.7071 -0.0000  0.0000  0.0000  0.0000  0.0000  0.0000      0.0000  0.0000  0.0000  0.0000  0.0000  0.0000  0.0000  0.0000  0.0000  0.0000
  o =  0.0010  v =  0.7848  0.0000  0.6198  0.0000 -0.0000  0.0000  0.0000  0.0000  0.0000  0.0000      0.0000  0.0000  0.0000  0.0000  0.0000  0.0000  0.0000  0.0000  0.0000  0.0000
  o =  1.0068  v =  0.0000  0.0000  0.0000  0.0000  0.0000 -0.5879  0.0000  0.8090  0.0000 -0.0000      0.0000  0.0000  0.0000  0.0000  0.0000  0.0000  0.0000  0.0000  0.0000  0.0000
  o =  1.0098  v =  0.0000  0.0000  0.0000  0.0000  0.0000  0.0000  0.7071  0.0000 -0.7071 -0.0000      0.0000  0.0000  0.0000  0.0000  0.0000  0.0000  0.0000  0.0000  0.0000  0.0000
  o =  1.0111  v =  0.0000  0.0000  0.0000  0.0000  0.0000  0.0000  0.0000  0.0000  0.0000  1.0000      0.0000  0.0000  0.0000  0.0000  0.0000  0.0000  0.0000  0.0000  0.0000  0.0000
  o =  1.0413  v =  0.0000  0.0000  0.0000  0.0000  0.0000  0.0000  0.7071  0.0000  0.7071 -0.0000      0.0000  0.0000  0.0000  0.0000  0.0000  0.0000  0.0000  0.0000  0.0000  0.0000
  o =  1.0429  v =  0.0000  0.0000  0.0000  0.0000  0.0000 -0.8090  0.0000 -0.5879  0.0000  0.0000      0.0000  0.0000  0.0000  0.0000  0.0000  0.0000  0.0000  0.0000  0.0000  0.0000
atom =   2  type =  1  l = 2
 
 onsite density matrix
 
spin component  1
 
  1.0304  0.0000 -0.0172  0.0000  0.0000
  0.0000  1.0256  0.0000 -0.0158  0.0000
 -0.0172  0.0000  1.0193  0.0000  0.0000
  0.0000 -0.0158  0.0000  1.0256  0.0000
  0.0000  0.0000  0.0000  0.0000  1.0111
 
spin component  2
 
 -0.0145  0.0000 -0.0196  0.0000 -0.0000
  0.0000 -0.0207  0.0000 -0.0160  0.0000
 -0.0196  0.0000 -0.0238  0.0000 -0.0000
  0.0000 -0.0160  0.0000 -0.0207  0.0000
 -0.0000  0.0000 -0.0000  0.0000 -0.0397
 
 occupancies and eigenvectors
 
  o = -0.0397  v =  0.0000  0.0000  0.0000  0.0000  0.0000  0.0000  0.0000  0.0000  0.0000  1.0000      0.0000  0.0000  0.0000  0.0000  0.0000  0.0000  0.0000  0.0000  0.0000  0.0000
  o = -0.0392  v =  0.0000  0.0000  0.0000  0.0000  0.0000 -0.6198  0.0000 -0.7848  0.0000  0.0000      0.0000  0.0000  0.0000  0.0000  0.0000  0.0000  0.0000  0.0000  0.0000  0.0000
  o = -0.0367  v =  0.0000  0.0000  0.0000  0.0000  0.0000  0.0000 -0.7071  0.0000 -0.7071  0.0000      0.0000  0.0000  0.0000  0.0000  0.0000  0.0000  0.0000  0.0000  0.0000  0.0000
  o = -0.0047  v =  0.0000  0.0000  0.0000  0.0000  0.0000  0.0000 -0.7071  0.0000  0.7071  0.0000      0.0000  0.0000  0.0000  0.0000  0.0000  0.0000  0.0000  0.0000  0.0000  0.0000
  o =  0.0010  v =  0.0000  0.0000  0.0000  0.0000  0.0000  0.7848  0.0000 -0.6198  0.0000  0.0000      0.0000  0.0000  0.0000  0.0000  0.0000  0.0000  0.0000  0.0000  0.0000  0.0000
  o =  1.0068  v = -0.5879 -0.0000 -0.8090  0.0000  0.0000  0.0000  0.0000  0.0000  0.0000  0.0000      0.0000  0.0000  0.0000  0.0000  0.0000  0.0000  0.0000  0.0000  0.0000  0.0000
  o =  1.0098  v =  0.0000  0.7071  0.0000  0.7071  0.0000  0.0000  0.0000  0.0000  0.0000  0.0000      0.0000  0.0000  0.0000  0.0000  0.0000  0.0000  0.0000  0.0000  0.0000  0.0000
  o =  1.0111  v =  0.0000 -0.0000  0.0000 -0.0000  1.0000  0.0000  0.0000  0.0000  0.0000  0.0000      0.0000  0.0000  0.0000  0.0000  0.0000  0.0000  0.0000  0.0000  0.0000  0.0000
  o =  1.0413  v =  0.0000 -0.7071  0.0000  0.7071  0.0000  0.0000  0.0000  0.0000  0.0000  0.0000      0.0000  0.0000  0.0000  0.0000  0.0000  0.0000  0.0000  0.0000  0.0000  0.0000
  o =  1.0429  v = -0.8090 -0.0000  0.5879  0.0000  0.0000  0.0000  0.0000  0.0000  0.0000  0.0000      0.0000  0.0000  0.0000  0.0000  0.0000  0.0000  0.0000  0.0000  0.0000  0.0000
     EDDAV:  cpu time    1.0412: real time    1.0412
       DOS:  cpu time    0.0003: real time    0.0003
    CHARGE:  cpu time    0.0595: real time    0.0595
    MIXING:  cpu time    0.0006: real time    0.0006
    --------------------------------------------
      LOOP:  cpu time    1.4855: real time    1.4855

 eigenvalue-minimisations  :  4080
 total energy-change (2. order) :-0.6094249E-01  (-0.4184085E-01)
 number of electron      54.0000009 magnetization       0.0000000
 augmentation part       19.9538674 magnetization       0.0000000

 Broyden mixing:
  rms(total) = 0.52227E+00    rms(broyden)= 0.52227E+00
  rms(prec ) = 0.54664E+00
  weight for this iteration     100.00

 eigenvalues of (default mixing * dielectric matrix)
  average eigenvalue GAMMA=   1.1917
  2.0905  0.8856  0.5990

 Free energy of the ion-electron system (eV)
  ---------------------------------------------------
  alpha Z        PSCENC =       196.13658257
  Ewald energy   TEWEN  =     -4178.31221721
  -Hartree energ DENC   =     -2157.58745652
  -exchange      EXHF   =         0.00000000
  -V(xc)+E(xc)   XCENC  =       293.76611473
  PAW double counting   =      6124.13320185    -6228.34000402
  entropy T*S    EENTRO =        -0.00000000
  eigenvalues    EBANDS =      -766.44432161
  atomic energy  EATOM  =      6677.64854832
  Solvation  Ediel_sol  =         0.00000000
  ---------------------------------------------------
  free energy    TOTEN  =       -38.99955191 eV

  energy without entropy =      -38.99955191  energy(sigma->0) =      -38.99955191


--------------------------------------------------------------------------------------------------------




--------------------------------------- Iteration      1(   9)  ---------------------------------------


    POTLOK:  cpu time    0.0158: real time    0.0158
    SETDIJ:  cpu time    0.3705: real time    0.3705
atom =   1  type =  1  l = 2
 
 onsite density matrix
 
spin component  1
 
  0.0378  0.0000  0.0233  0.0000 -0.0000
  0.0000  0.0301  0.0000  0.0201  0.0000
  0.0233  0.0000  0.0250  0.0000 -0.0000
  0.0000  0.0201  0.0000  0.0301  0.0000
 -0.0000  0.0000 -0.0000  0.0000  0.0080
 
spin component  2
 
  0.9761  0.0000  0.0213  0.0000  0.0000
  0.0000  0.9701  0.0000  0.0186  0.0000
  0.0213  0.0000  0.9638  0.0000  0.0000
  0.0000  0.0186  0.0000  0.9701  0.0000
  0.0000  0.0000  0.0000  0.0000  0.9515
 
 occupancies and eigenvectors
 
  o =  0.0073  v = -0.6059  0.0000  0.7956 -0.0000  0.0000  0.0000  0.0000  0.0000  0.0000  0.0000      0.0000  0.0000  0.0000  0.0000  0.0000  0.0000  0.0000  0.0000  0.0000  0.0000
  o =  0.0080  v =  0.0000  0.0000 -0.0000 -0.0000  1.0000  0.0000  0.0000  0.0000  0.0000  0.0000      0.0000  0.0000  0.0000  0.0000  0.0000  0.0000  0.0000  0.0000  0.0000  0.0000
  o =  0.0100  v = -0.0000 -0.7071  0.0000  0.7071  0.0000  0.0000  0.0000  0.0000  0.0000  0.0000      0.0000  0.0000  0.0000  0.0000  0.0000  0.0000  0.0000  0.0000  0.0000  0.0000
  o =  0.0502  v =  0.0000  0.7071  0.0000  0.7071 -0.0000  0.0000  0.0000  0.0000  0.0000  0.0000      0.0000  0.0000  0.0000  0.0000  0.0000  0.0000  0.0000  0.0000  0.0000  0.0000
  o =  0.0555  v = -0.7956  0.0000 -0.6059  0.0000  0.0000  0.0000  0.0000  0.0000  0.0000  0.0000      0.0000  0.0000  0.0000  0.0000  0.0000  0.0000  0.0000  0.0000  0.0000  0.0000
  o =  0.9478  v =  0.0000  0.0000  0.0000  0.0000  0.0000 -0.6009  0.0000  0.7993  0.0000 -0.0000      0.0000  0.0000  0.0000  0.0000  0.0000  0.0000  0.0000  0.0000  0.0000  0.0000
  o =  0.9515  v =  0.0000  0.0000  0.0000  0.0000  0.0000 -0.0000 -0.0000  0.0000  0.0000  1.0000      0.0000  0.0000  0.0000  0.0000  0.0000  0.0000  0.0000  0.0000  0.0000  0.0000
  o =  0.9516  v =  0.0000  0.0000  0.0000  0.0000  0.0000  0.0000 -0.7071  0.0000  0.7071 -0.0000      0.0000  0.0000  0.0000  0.0000  0.0000  0.0000  0.0000  0.0000  0.0000  0.0000
  o =  0.9887  v =  0.0000  0.0000  0.0000  0.0000  0.0000 -0.0000  0.7071 -0.0000  0.7071  0.0000      0.0000  0.0000  0.0000  0.0000  0.0000  0.0000  0.0000  0.0000  0.0000  0.0000
  o =  0.9921  v =  0.0000  0.0000  0.0000  0.0000  0.0000 -0.7993 -0.0000 -0.6009  0.0000 -0.0000      0.0000  0.0000  0.0000  0.0000  0.0000  0.0000  0.0000  0.0000  0.0000  0.0000
atom =   2  type =  1  l = 2
 
 onsite density matrix
 
spin component  1
 
  0.9761  0.0000 -0.0213  0.0000 -0.0000
  0.0000  0.9701  0.0000 -0.0186  0.0000
 -0.0213  0.0000  0.9638  0.0000 -0.0000
  0.0000 -0.0186  0.0000  0.9701  0.0000
 -0.0000  0.0000 -0.0000  0.0000  0.9515
 
spin component  2
 
  0.0378  0.0000 -0.0233  0.0000  0.0000
  0.0000  0.0301  0.0000 -0.0201  0.0000
 -0.0233  0.0000  0.0250  0.0000 -0.0000
  0.0000 -0.0201  0.0000  0.0301  0.0000
  0.0000  0.0000 -0.0000  0.0000  0.0080
 
 occupancies and eigenvectors
 
  o =  0.0073  v =  0.0000  0.0000  0.0000  0.0000  0.0000 -0.6059  0.0000 -0.7956  0.0000 -0.0000      0.0000  0.0000  0.0000  0.0000  0.0000  0.0000  0.0000  0.0000  0.0000  0.0000
  o =  0.0080  v =  0.0000  0.0000  0.0000  0.0000  0.0000 -0.0000 -0.0000 -0.0000  0.0000  1.0000      0.0000  0.0000  0.0000  0.0000  0.0000  0.0000  0.0000  0.0000  0.0000  0.0000
  o =  0.0100  v =  0.0000  0.0000  0.0000  0.0000  0.0000  0.0000 -0.7071  0.0000 -0.7071 -0.0000      0.0000  0.0000  0.0000  0.0000  0.0000  0.0000  0.0000  0.0000  0.0000  0.0000
  o =  0.0502  v =  0.0000  0.0000  0.0000  0.0000  0.0000  0.0000  0.7071  0.0000 -0.7071  0.0000      0.0000  0.0000  0.0000  0.0000  0.0000  0.0000  0.0000  0.0000  0.0000  0.0000
  o =  0.0555  v =  0.0000  0.0000  0.0000  0.0000  0.0000 -0.7956  0.0000  0.6059  0.0000 -0.0000      0.0000  0.0000  0.0000  0.0000  0.0000  0.0000  0.0000  0.0000  0.0000  0.0000
  o =  0.9478  v = -0.6009 -0.0000 -0.7993  0.0000 -0.0000  0.0000  0.0000  0.0000  0.0000  0.0000      0.0000  0.0000  0.0000  0.0000  0.0000  0.0000  0.0000  0.0000  0.0000  0.0000
  o =  0.9515  v =  0.0000 -0.0000  0.0000 -0.0000 -1.0000  0.0000  0.0000  0.0000  0.0000  0.0000      0.0000  0.0000  0.0000  0.0000  0.0000  0.0000  0.0000  0.0000  0.0000  0.0000
  o =  0.9516  v =  0.0000  0.7071  0.0000  0.7071 -0.0000  0.0000  0.0000  0.0000  0.0000  0.0000      0.0000  0.0000  0.0000  0.0000  0.0000  0.0000  0.0000  0.0000  0.0000  0.0000
  o =  0.9887  v =  0.0000  0.7071  0.0000 -0.7071 -0.0000  0.0000  0.0000  0.0000  0.0000  0.0000      0.0000  0.0000  0.0000  0.0000  0.0000  0.0000  0.0000  0.0000  0.0000  0.0000
  o =  0.9921  v = -0.7993 -0.0000  0.6009  0.0000 -0.0000  0.0000  0.0000  0.0000  0.0000  0.0000      0.0000  0.0000  0.0000  0.0000  0.0000  0.0000  0.0000  0.0000  0.0000  0.0000
     EDDAV:  cpu time    0.8736: real time    0.8736
       DOS:  cpu time    0.0003: real time    0.0003
    CHARGE:  cpu time    0.0456: real time    0.0456
    MIXING:  cpu time    0.0009: real time    0.0009
    --------------------------------------------
      LOOP:  cpu time    1.3066: real time    1.3066

 eigenvalue-minimisations  :  3624
 total energy-change (2. order) :-0.1607809E+00  (-0.4828609E-02)
 number of electron      54.0000009 magnetization      -0.0000000
 augmentation part       19.9466647 magnetization      -0.0000000

 Broyden mixing:
  rms(total) = 0.12688E+00    rms(broyden)= 0.12688E+00
  rms(prec ) = 0.14234E+00
  weight for this iteration     100.00

 eigenvalues of (default mixing * dielectric matrix)
  average eigenvalue GAMMA=   1.2246
  2.6186  0.8278  0.8278  0.6241

 Free energy of the ion-electron system (eV)
  ---------------------------------------------------
  alpha Z        PSCENC =       196.13658257
  Ewald energy   TEWEN  =     -4178.31221721
  -Hartree energ DENC   =     -2157.24739007
  -exchange      EXHF   =         0.00000000
  -V(xc)+E(xc)   XCENC  =       293.94806948
  PAW double counting   =      6278.60214026    -6386.52984666
  entropy T*S    EENTRO =        -0.00000000
  eigenvalues    EBANDS =      -763.40621951
  atomic energy  EATOM  =      6677.64854832
  Solvation  Ediel_sol  =         0.00000000
  ---------------------------------------------------
  free energy    TOTEN  =       -39.16033282 eV

  energy without entropy =      -39.16033282  energy(sigma->0) =      -39.16033282


--------------------------------------------------------------------------------------------------------




--------------------------------------- Iteration      1(  10)  ---------------------------------------


    POTLOK:  cpu time    0.0155: real time    0.0155
    SETDIJ:  cpu time    0.3680: real time    0.3680
atom =   1  type =  1  l = 2
 
 onsite density matrix
 
spin component  1
 
  0.0462  0.0000  0.0255  0.0000  0.0000
  0.0000  0.0380  0.0000  0.0217  0.0000
  0.0255  0.0000  0.0324  0.0000  0.0000
  0.0000  0.0217  0.0000  0.0380  0.0000
  0.0000  0.0000  0.0000  0.0000  0.0140
 
spin component  2
 
  0.9679  0.0000  0.0190  0.0000 -0.0000
  0.0000  0.9625  0.0000  0.0169  0.0000
  0.0190  0.0000  0.9566  0.0000 -0.0000
  0.0000  0.0169  0.0000  0.9625  0.0000
 -0.0000  0.0000 -0.0000  0.0000  0.9457
 
 occupancies and eigenvectors
 
  o =  0.0128  v = -0.6078  0.0000  0.7941  0.0000 -0.0000  0.0000  0.0000  0.0000  0.0000  0.0000      0.0000  0.0000  0.0000  0.0000  0.0000  0.0000  0.0000  0.0000  0.0000  0.0000
  o =  0.0140  v = -0.0000 -0.0000  0.0000  0.0000  1.0000  0.0000  0.0000  0.0000  0.0000  0.0000      0.0000  0.0000  0.0000  0.0000  0.0000  0.0000  0.0000  0.0000  0.0000  0.0000
  o =  0.0163  v =  0.0000  0.7071  0.0000 -0.7071  0.0000  0.0000  0.0000  0.0000  0.0000  0.0000      0.0000  0.0000  0.0000  0.0000  0.0000  0.0000  0.0000  0.0000  0.0000  0.0000
  o =  0.0597  v =  0.0000 -0.7071  0.0000 -0.7071 -0.0000  0.0000  0.0000  0.0000  0.0000  0.0000      0.0000  0.0000  0.0000  0.0000  0.0000  0.0000  0.0000  0.0000  0.0000  0.0000
  o =  0.0657  v = -0.7941  0.0000 -0.6078  0.0000 -0.0000  0.0000  0.0000  0.0000  0.0000  0.0000      0.0000  0.0000  0.0000  0.0000  0.0000  0.0000  0.0000  0.0000  0.0000  0.0000
  o =  0.9424  v =  0.0000  0.0000  0.0000  0.0000  0.0000 -0.5971  0.0000  0.8021  0.0000  0.0000      0.0000  0.0000  0.0000  0.0000  0.0000  0.0000  0.0000  0.0000  0.0000  0.0000
  o =  0.9455  v =  0.0000  0.0000  0.0000  0.0000  0.0000  0.0000  0.7071  0.0000 -0.7071 -0.0000      0.0000  0.0000  0.0000  0.0000  0.0000  0.0000  0.0000  0.0000  0.0000  0.0000
  o =  0.9457  v =  0.0000  0.0000  0.0000  0.0000  0.0000 -0.0000 -0.0000  0.0000  0.0000 -1.0000      0.0000  0.0000  0.0000  0.0000  0.0000  0.0000  0.0000  0.0000  0.0000  0.0000
  o =  0.9794  v =  0.0000  0.0000  0.0000  0.0000  0.0000  0.0000  0.7071  0.0000  0.7071 -0.0000      0.0000  0.0000  0.0000  0.0000  0.0000  0.0000  0.0000  0.0000  0.0000  0.0000
  o =  0.9821  v =  0.0000  0.0000  0.0000  0.0000  0.0000 -0.8021  0.0000 -0.5971  0.0000  0.0000      0.0000  0.0000  0.0000  0.0000  0.0000  0.0000  0.0000  0.0000  0.0000  0.0000
atom =   2  type =  1  l = 2
 
 onsite density matrix
 
spin component  1
 
  0.9679  0.0000 -0.0190  0.0000 -0.0000
  0.0000  0.9625  0.0000 -0.0169  0.0000
 -0.0190  0.0000  0.9566  0.0000 -0.0000
  0.0000 -0.0169  0.0000  0.9625  0.0000
 -0.0000  0.0000 -0.0000  0.0000  0.9457
 
spin component  2
 
  0.0462  0.0000 -0.0255  0.0000  0.0000
  0.0000  0.0380  0.0000 -0.0217  0.0000
 -0.0255  0.0000  0.0324  0.0000  0.0000
  0.0000 -0.0217  0.0000  0.0380  0.0000
  0.0000  0.0000  0.0000  0.0000  0.0140
 
 occupancies and eigenvectors
 
  o =  0.0128  v =  0.0000  0.0000  0.0000  0.0000  0.0000 -0.6078 -0.0000 -0.7941  0.0000  0.0000      0.0000  0.0000  0.0000  0.0000  0.0000  0.0000  0.0000  0.0000  0.0000  0.0000
  o =  0.0140  v =  0.0000  0.0000  0.0000  0.0000  0.0000 -0.0000  0.0000 -0.0000  0.0000 -1.0000      0.0000  0.0000  0.0000  0.0000  0.0000  0.0000  0.0000  0.0000  0.0000  0.0000
  o =  0.0163  v =  0.0000  0.0000  0.0000  0.0000  0.0000  0.0000 -0.7071  0.0000 -0.7071 -0.0000      0.0000  0.0000  0.0000  0.0000  0.0000  0.0000  0.0000  0.0000  0.0000  0.0000
  o =  0.0597  v =  0.0000  0.0000  0.0000  0.0000  0.0000  0.0000 -0.7071  0.0000  0.7071 -0.0000      0.0000  0.0000  0.0000  0.0000  0.0000  0.0000  0.0000  0.0000  0.0000  0.0000
  o =  0.0657  v =  0.0000  0.0000  0.0000  0.0000  0.0000 -0.7941 -0.0000  0.6078  0.0000  0.0000      0.0000  0.0000  0.0000  0.0000  0.0000  0.0000  0.0000  0.0000  0.0000  0.0000
  o =  0.9424  v = -0.5971  0.0000 -0.8021  0.0000 -0.0000  0.0000  0.0000  0.0000  0.0000  0.0000      0.0000  0.0000  0.0000  0.0000  0.0000  0.0000  0.0000  0.0000  0.0000  0.0000
  o =  0.9455  v =  0.0000 -0.7071  0.0000 -0.7071  0.0000  0.0000  0.0000  0.0000  0.0000  0.0000      0.0000  0.0000  0.0000  0.0000  0.0000  0.0000  0.0000  0.0000  0.0000  0.0000
  o =  0.9457  v =  0.0000  0.0000 -0.0000  0.0000  1.0000  0.0000  0.0000  0.0000  0.0000  0.0000      0.0000  0.0000  0.0000  0.0000  0.0000  0.0000  0.0000  0.0000  0.0000  0.0000
  o =  0.9794  v =  0.0000  0.7071  0.0000 -0.7071 -0.0000  0.0000  0.0000  0.0000  0.0000  0.0000      0.0000  0.0000  0.0000  0.0000  0.0000  0.0000  0.0000  0.0000  0.0000  0.0000
  o =  0.9821  v = -0.8021  0.0000  0.5971  0.0000  0.0000  0.0000  0.0000  0.0000  0.0000  0.0000      0.0000  0.0000  0.0000  0.0000  0.0000  0.0000  0.0000  0.0000  0.0000  0.0000
     EDDAV:  cpu time    0.9793: real time    0.9793
       DOS:  cpu time    0.0003: real time    0.0003
    CHARGE:  cpu time    0.0456: real time    0.0456
    MIXING:  cpu time    0.0009: real time    0.0009
    --------------------------------------------
      LOOP:  cpu time    1.4095: real time    1.4095

 eigenvalue-minimisations  :  4236
 total energy-change (2. order) :-0.1285044E-02  (-0.2008533E-02)
 number of electron      54.0000009 magnetization      -0.0000000
 augmentation part       19.9449569 magnetization      -0.0000000

 Broyden mixing:
  rms(total) = 0.28285E-01    rms(broyden)= 0.28281E-01
  rms(prec ) = 0.31191E-01
  weight for this iteration     100.00

 eigenvalues of (default mixing * dielectric matrix)
  average eigenvalue GAMMA=   1.1573
  2.5210  0.9553  0.9553  0.7438  0.6113

 Free energy of the ion-electron system (eV)
  ---------------------------------------------------
  alpha Z        PSCENC =       196.13658257
  Ewald energy   TEWEN  =     -4178.31221721
  -Hartree energ DENC   =     -2158.03397408
  -exchange      EXHF   =         0.00000000
  -V(xc)+E(xc)   XCENC  =       294.06213109
  PAW double counting   =      6271.00203905    -6379.15155219
  entropy T*S    EENTRO =        -0.00000000
  eigenvalues    EBANDS =      -762.51317542
  atomic energy  EATOM  =      6677.64854832
  Solvation  Ediel_sol  =         0.00000000
  ---------------------------------------------------
  free energy    TOTEN  =       -39.16161786 eV

  energy without entropy =      -39.16161786  energy(sigma->0) =      -39.16161786


--------------------------------------------------------------------------------------------------------




--------------------------------------- Iteration      1(  11)  ---------------------------------------


    POTLOK:  cpu time    0.0155: real time    0.0155
    SETDIJ:  cpu time    0.3680: real time    0.3680
atom =   1  type =  1  l = 2
 
 onsite density matrix
 
spin component  1
 
  0.0445  0.0000  0.0252  0.0000  0.0000
  0.0000  0.0363  0.0000  0.0215  0.0000
  0.0252  0.0000  0.0308  0.0000 -0.0000
  0.0000  0.0215  0.0000  0.0363  0.0000
  0.0000  0.0000 -0.0000  0.0000  0.0127
 
spin component  2
 
  0.9705  0.0000  0.0191  0.0000  0.0000
  0.0000  0.9650  0.0000  0.0170  0.0000
  0.0191  0.0000  0.9591  0.0000  0.0000
  0.0000  0.0170  0.0000  0.9650  0.0000
  0.0000  0.0000  0.0000  0.0000  0.9483
 
 occupancies and eigenvectors
 
  o =  0.0115  v = -0.6069 -0.0000  0.7948  0.0000  0.0000  0.0000  0.0000  0.0000  0.0000  0.0000      0.0000  0.0000  0.0000  0.0000  0.0000  0.0000  0.0000  0.0000  0.0000  0.0000
  o =  0.0127  v = -0.0000  0.0000  0.0000  0.0000 -1.0000  0.0000  0.0000  0.0000  0.0000  0.0000      0.0000  0.0000  0.0000  0.0000  0.0000  0.0000  0.0000  0.0000  0.0000  0.0000
  o =  0.0148  v =  0.0000 -0.7071  0.0000  0.7071 -0.0000  0.0000  0.0000  0.0000  0.0000  0.0000      0.0000  0.0000  0.0000  0.0000  0.0000  0.0000  0.0000  0.0000  0.0000  0.0000
  o =  0.0578  v =  0.0000 -0.7071  0.0000 -0.7071 -0.0000  0.0000  0.0000  0.0000  0.0000  0.0000      0.0000  0.0000  0.0000  0.0000  0.0000  0.0000  0.0000  0.0000  0.0000  0.0000
[...]
     34      10.4069      0.00000
     35      10.8174      0.00000
     36      11.9920      0.00000

 k-point    22 :       0.2000    0.2000    0.4375
  band No.  band energies     occupation 
      1     -46.7069      1.00000
      2     -46.6689      1.00000
      3     -46.6518      1.00000
      4     -41.7259      1.00000
      5     -41.6939      1.00000
      6     -41.6701      1.00000
      7     -20.7778      1.00000
      8     -20.6992      1.00000
      9     -20.6601      1.00000
     10     -20.5590      1.00000
     11      -4.2189      1.00000
     12      -4.0142      1.00000
     13      -3.7002      1.00000
     14      -3.5300      1.00000
     15      -3.4677      1.00000
     16      -3.0048      1.00000
     17      -2.7194      1.00000
     18      -2.4462      1.00000
     19      -2.2943      1.00000
     20      -1.9322      1.00000
     21      -1.7819      1.00000
     22      -1.6788      1.00000
     23      -0.5136      1.00000
     24      -0.2900      1.00000
     25       0.0322      1.00000
     26       0.5383      1.00000
     27       0.9587      1.00000
     28       7.1136      0.00000
     29       7.1543      0.00000
     30       7.3297      0.00000
     31       7.9126      0.00000
     32       8.2844      0.00000
     33       8.8857      0.00000
     34      10.6347      0.00000
     35      11.7613      0.00000
     36      12.2093      0.00000

 k-point    23 :       0.4000    0.2000    0.4375
  band No.  band energies     occupation 
      1     -46.7069      1.00000
      2     -46.6689      1.00000
      3     -46.6518      1.00000
      4     -41.7259      1.00000
      5     -41.6939      1.00000
      6     -41.6701      1.00000
      7     -20.7377      1.00000
      8     -20.7128      1.00000
      9     -20.6645      1.00000
     10     -20.5801      1.00000
     11      -4.1960      1.00000
     12      -4.0149      1.00000
     13      -3.9256      1.00000
     14      -3.6397      1.00000
     15      -3.3677      1.00000
     16      -2.9915      1.00000
     17      -2.7261      1.00000
     18      -2.5997      1.00000
     19      -2.1422      1.00000
     20      -1.8770      1.00000
     21      -1.6497      1.00000
     22      -1.5661      1.00000
     23      -0.5107      1.00000
     24      -0.3384      1.00000
     25      -0.0461      1.00000
     26       0.5401      1.00000
     27       1.1110      1.00000
     28       7.1198      0.00000
     29       7.1538      0.00000
     30       7.4103      0.00000
     31       7.8503      0.00000
     32       8.3320      0.00000
     33       9.4084      0.00000
     34      10.6560      0.00000
     35      10.9769      0.00000
     36      11.9971      0.00000

 k-point    24 :       0.4000    0.4000    0.4375
  band No.  band energies     occupation 
      1     -46.7069      1.00000
      2     -46.6689      1.00000
      3     -46.6518      1.00000
      4     -41.7259      1.00000
      5     -41.6939      1.00000
      6     -41.6701      1.00000
      7     -20.7367      1.00000
      8     -20.7214      1.00000
      9     -20.6598      1.00000
     10     -20.5740      1.00000
     11      -4.3741      1.00000
     12      -4.1379      1.00000
     13      -3.8319      1.00000
     14      -3.8115      1.00000
     15      -3.4465      1.00000
     16      -3.0368      1.00000
     17      -2.6356      1.00000
     18      -2.4254      1.00000
     19      -1.9866      1.00000
     20      -1.7130      1.00000
     21      -1.5894      1.00000
     22      -1.5329      1.00000
     23      -0.5113      1.00000
     24      -0.3367      1.00000
     25      -0.0816      1.00000
     26       0.5948      1.00000
     27       1.0862      1.00000
     28       7.1284      0.00000
     29       7.1735      0.00000
     30       7.4336      0.00000
     31       7.8254      0.00000
     32       8.2018      0.00000
     33       9.7588      0.00000
     34      11.1521      0.00000
     35      11.1794      0.00000
     36      11.2591      0.00000


--------------------------------------------------------------------------------------------------------


 soft charge-density along one line, spin component           1
         0         1         2         3         4         5         6         7         8         9
 total charge-density along one line
 
 soft charge-density along one line, spin component           2
         0         1         2         3         4         5         6         7         8         9
 total charge-density along one line
 
 pseudopotential strength for first ion, spin component:           1
-42.471  -0.000  -0.028   7.857   0.000   0.012   0.000   0.000
 -0.000 -42.443  -0.000   0.000   7.845   0.000  -0.000   0.000
 -0.028  -0.000 -42.471   0.012   0.000   7.857   0.000  -0.000
  7.857   0.000   0.012   5.260  -0.000  -0.002  -0.000  -0.000
  0.000   7.845   0.000  -0.000   5.262  -0.000   0.000  -0.000
  0.012   0.000   7.857  -0.002  -0.000   5.260  -0.000   0.000
  0.000  -0.000   0.000  -0.000   0.000  -0.000  -1.444  -0.000
  0.000   0.000  -0.000  -0.000  -0.000   0.000  -0.000  -1.403
 -0.000   0.000  -0.000   0.000  -0.000   0.000  -0.065   0.000
 -0.000   0.000   0.000   0.000  -0.000  -0.000  -0.000  -0.082
 -0.000   0.000   0.000   0.000  -0.000  -0.000  -0.000   0.000
  0.000  -0.000   0.000  -0.000   0.000  -0.000  -1.886  -0.000
  0.000   0.000  -0.000  -0.000  -0.000   0.000  -0.000  -1.844
 -0.000   0.000  -0.000   0.000  -0.000   0.000  -0.069   0.000
 -0.000   0.000   0.000   0.000  -0.000  -0.000  -0.000  -0.085
 -0.000   0.000   0.000   0.000  -0.000  -0.000  -0.000   0.000
 -0.000  -0.000  -0.000  -0.000  -0.000  -0.000   0.007   0.000
 -0.000  -0.000  -0.000  -0.000  -0.000  -0.000   0.013   0.000
 pseudopotential strength for first ion, spin component:           2
-45.812  -0.000  -0.020   9.388   0.000   0.007   0.000   0.000
 -0.000 -45.792  -0.000   0.000   9.382   0.000  -0.000   0.000
 -0.020  -0.000 -45.812   0.007   0.000   9.388   0.000  -0.000
  9.388   0.000   0.007   4.745  -0.000  -0.001  -0.000  -0.000
  0.000   9.382   0.000  -0.000   4.746  -0.000   0.000  -0.000
  0.007   0.000   9.388  -0.001  -0.000   4.745  -0.000   0.000
  0.000  -0.000   0.000  -0.000   0.000  -0.000  -7.736  -0.000
  0.000   0.000  -0.000  -0.000  -0.000   0.000  -0.000  -7.708
 -0.000   0.000  -0.000   0.000  -0.000   0.000  -0.045   0.000
 -0.000   0.000   0.000   0.000  -0.000  -0.000  -0.000  -0.065
 -0.000   0.000   0.000   0.000  -0.000  -0.000   0.000   0.000
  0.000  -0.000   0.000  -0.000   0.000  -0.000  -8.233  -0.000
  0.000   0.000  -0.000  -0.000  -0.000   0.000  -0.000  -8.203
 -0.000   0.000  -0.000   0.000  -0.000   0.000  -0.047   0.000
 -0.000   0.000   0.000   0.000  -0.000  -0.000  -0.000  -0.067
 -0.000   0.000   0.000   0.000  -0.000  -0.000   0.000   0.000
 -0.000  -0.000  -0.000  -0.000  -0.000  -0.000   0.003   0.000
 -0.000  -0.000  -0.000  -0.000  -0.000  -0.000   0.005   0.000
 total augmentation occupancy for first ion, spin component:           1
  1.998   0.000   0.000  -0.013   0.000   0.000   0.000   0.000   0.000   0.000   0.000   0.000   0.000   0.000   0.000   0.000
  0.000   1.998   0.000   0.000  -0.013   0.000   0.000   0.000   0.000   0.000   0.000   0.000   0.000   0.000   0.000   0.000
  0.000   0.000   1.998   0.000   0.000  -0.013   0.000   0.000   0.000   0.000   0.000   0.000   0.000   0.000   0.000   0.000
 -0.013   0.000   0.000   0.086   0.000  -0.008   0.000   0.000   0.000   0.000   0.000   0.000   0.000   0.000   0.000   0.000
  0.000  -0.013   0.000   0.000   0.098   0.000   0.000   0.000   0.000   0.000   0.000   0.000   0.000   0.000   0.000   0.000
  0.000   0.000  -0.013  -0.008   0.000   0.086   0.000   0.000   0.000   0.000   0.000   0.000   0.000   0.000   0.000   0.000
  0.000   0.000   0.000   0.000   0.000   0.000   7.616   0.000   2.906   0.000   0.000  -5.668   0.000  -2.744   0.000   0.000
  0.000   0.000   0.000   0.000   0.000   0.000   0.000   6.518   0.000   2.558   0.000   0.000  -4.624   0.000  -2.410   0.000
  0.000   0.000   0.000   0.000   0.000   0.000   2.906   0.000   5.894   0.000  -0.000  -2.745   0.000  -4.059   0.000  -0.000
  0.000   0.000   0.000   0.000   0.000   0.000   0.000   2.558   0.000   6.518   0.000   0.000  -2.410   0.000  -4.624   0.000
  0.000   0.000   0.000   0.000   0.000   0.000   0.000   0.000   0.000   0.000   3.843   0.000   0.000   0.000   0.000  -2.081
  0.000   0.000   0.000   0.000   0.000   0.000  -5.668   0.000  -2.745   0.000   0.000   4.889   0.000   2.623   0.000   0.000
  0.000   0.000   0.000   0.000   0.000   0.000   0.000  -4.624   0.000  -2.410   0.000   0.000   3.888   0.000   2.296   0.000
  0.000   0.000   0.000   0.000   0.000   0.000  -2.744   0.000  -4.059   0.000   0.000   2.623   0.000   3.369   0.000  -0.000
  0.000   0.000   0.000   0.000   0.000   0.000   0.000  -2.410   0.000  -4.624   0.000   0.000   2.296   0.000   3.888   0.000
  0.000   0.000   0.000   0.000   0.000   0.000  -0.000   0.000   0.000   0.000  -2.081   0.000   0.000   0.000   0.000   1.442
  0.000   0.000   0.000   0.000   0.000   0.000   0.200   0.000  -0.214   0.000   0.000  -0.231   0.000   0.230   0.000  -0.000
  0.000   0.000   0.000   0.000   0.000   0.000   0.003   0.000   0.015   0.000  -0.000   0.022   0.000  -0.030   0.000   0.000
 total augmentation occupancy for first ion, spin component:           2
  0.003   0.000  -0.000   0.011   0.000  -0.000   0.000   0.000   0.000   0.000   0.000   0.000   0.000   0.000   0.000   0.000
  0.000   0.003   0.000   0.000   0.012   0.000   0.000   0.000   0.000   0.000   0.000   0.000   0.000   0.000   0.000   0.000
 -0.000   0.000   0.003  -0.000   0.000   0.011   0.000   0.000   0.000   0.000   0.000   0.000   0.000   0.000   0.000   0.000
  0.011   0.000  -0.000  -0.011   0.000  -0.000   0.000   0.000   0.000   0.000   0.000   0.000   0.000   0.000   0.000   0.000
  0.000   0.012   0.000   0.000  -0.011   0.000   0.000   0.000   0.000   0.000   0.000   0.000   0.000   0.000   0.000   0.000
 -0.000   0.000   0.011  -0.000   0.000  -0.011   0.000   0.000   0.000   0.000   0.000   0.000   0.000   0.000   0.000   0.000
  0.000   0.000   0.000   0.000   0.000   0.000  -5.376   0.000  -1.636   0.000  -0.000   3.087   0.000   1.287   0.000  -0.000
  0.000   0.000   0.000   0.000   0.000   0.000   0.000  -4.765   0.000  -1.455   0.000   0.000   2.594   0.000   1.146   0.000
  0.000   0.000   0.000   0.000   0.000   0.000  -1.636   0.000  -4.332   0.000   0.000   1.288   0.000   2.259   0.000  -0.000
  0.000   0.000   0.000   0.000   0.000   0.000   0.000  -1.455   0.000  -4.765   0.000   0.000   1.146   0.000   2.594   0.000
  0.000   0.000   0.000   0.000   0.000   0.000   0.000   0.000   0.000   0.000  -3.300   0.000   0.000   0.000   0.000   1.438
  0.000   0.000   0.000   0.000   0.000   0.000   3.087   0.000   1.288   0.000  -0.000  -1.908   0.000  -0.945   0.000  -0.000
  0.000   0.000   0.000   0.000   0.000   0.000   0.000   2.594   0.000   1.146   0.000   0.000  -1.530   0.000  -0.843   0.000
  0.000   0.000   0.000   0.000   0.000   0.000   1.287   0.000   2.259   0.000   0.000  -0.945   0.000  -1.291   0.000   0.000
  0.000   0.000   0.000   0.000   0.000   0.000   0.000   1.146   0.000   2.594   0.000   0.000  -0.843   0.000  -1.530   0.000
  0.000   0.000   0.000   0.000   0.000   0.000  -0.000   0.000   0.000   0.000   1.438   0.000   0.000  -0.000   0.000  -0.680
  0.000   0.000   0.000   0.000   0.000   0.000   0.024   0.000   0.008   0.000   0.000  -0.025   0.000   0.004   0.000  -0.000
  0.000   0.000   0.000   0.000   0.000   0.000  -0.048   0.000   0.025   0.000   0.000   0.029   0.000  -0.014   0.000   0.000


------------------------ aborting loop because EDIFF is reached ----------------------------------------


 


 total charge     
 
# of ion       s       p       d       tot
------------------------------------------
    1        0.165   6.152   4.951  11.268
    2        0.168   6.149   4.956  11.272
    3        1.726   4.366   0.000   6.092
    4        1.726   4.366   0.000   6.092
    5        1.726   4.363   0.000   6.089
    6        1.726   4.363   0.000   6.089
--------------------------------------------------
tot          7.238  29.758   9.907  46.902
 


 magnetization (x)
 
# of ion       s       p       d       tot
------------------------------------------
    1       -0.018  -0.019  -4.629  -4.666
    2        0.018   0.018   4.627   4.664
    3        0.002   0.016   0.000   0.018
    4        0.002   0.016   0.000   0.018
    5       -0.002  -0.014   0.000  -0.016
    6       -0.002  -0.014   0.000  -0.016
--------------------------------------------------
tot         -0.001   0.005  -0.002   0.002
 
    CHARGE:  cpu time    0.0465: real time    0.0465
    FORLOC:  cpu time    0.0011: real time    0.0011
    FORNL :  cpu time    0.3173: real time    0.3173
    STRESS:  cpu time    0.8924: real time    0.8924
    FORCOR:  cpu time    0.0151: real time    0.0151
    FORHAR:  cpu time    0.0021: real time    0.0021
    MIXING:  cpu time    0.0008: real time    0.0008
    OFIELD:  cpu time    0.0000: real time    0.0000

  FORCE on cell =-STRESS in cart. coord.  units (eV):
  Direction    XX          YY          ZZ          XY          YZ          ZX
  --------------------------------------------------------------------------------------
  Alpha Z   196.13658   196.13658   196.13658
  Ewald   -1582.29950 -1582.29950 -1013.71634    -0.00000     0.00000     0.00000
  Hartree   591.40473   591.40473   975.80974    -0.00000    -0.00000    -0.00000
  E(xc)    -314.10155  -314.10155  -313.88206    -0.00000    -0.00000    -0.00000
  Local     161.05068   161.05068  -784.98814     0.00000    -0.00000     0.00000
  n-local  -242.36559  -242.73212  -241.50418     0.01673     0.08872     0.11444
  augment   265.56135   265.56135   265.04599     0.00000     0.00000     0.00000
  Kinetic   924.35013   925.25646   917.09933    -0.35105    -0.65119    -0.88731
  Fock        0.00000     0.00000     0.00000     0.00000     0.00000     0.00000
  -------------------------------------------------------------------------------------
  Total       0.00674     0.00674     0.00091     0.00000     0.00000     0.00000
  in kB       0.13711     0.13711     0.01853     0.00000     0.00000     0.00000
  external pressure =        0.10 kB  Pullay stress =        0.00 kB


 VOLUME and BASIS-vectors are now :
 -----------------------------------------------------------------------------
  energy-cutoff  :      600.00
  volume of cell :       78.71
      direct lattice vectors                 reciprocal lattice vectors
     4.883144143  0.000000000  0.000000000     0.204786091  0.000000000  0.000000000
     0.000000000  4.883144143  0.000000000     0.000000000  0.204786091  0.000000000
     0.000000000  0.000000000  3.300797677     0.000000000  0.000000000  0.302957072

  length of vectors
     4.883144143  4.883144143  3.300797677     0.204786091  0.204786091  0.302957072


 FORCES acting on ions
    electron-ion (+dipol)            ewald-force                    non-local-force                 convergence-correction
 -----------------------------------------------------------------------------------------------
   -.176E-11 0.657E-11 -.259E-13   0.853E-13 -.568E-13 0.114E-13   0.000E+00 0.000E+00 0.000E+00   0.314E-13 0.262E-13 0.393E-13
   -.354E-13 -.398E-13 0.393E-13   -.568E-13 -.142E-12 0.117E-13   0.000E+00 0.000E+00 0.000E+00   0.989E-14 -.970E-14 -.871E-13
   -.344E+02 0.344E+02 -.169E-11   0.358E+02 -.358E+02 -.818E-14   -.140E+01 0.140E+01 0.434E-18   0.104E-03 -.104E-03 -.203E-13
   0.344E+02 -.344E+02 0.928E-11   -.358E+02 0.358E+02 -.834E-14   0.140E+01 -.140E+01 -.434E-18   -.104E-03 0.104E-03 0.810E-13
   0.344E+02 0.344E+02 0.277E-07   -.358E+02 -.358E+02 -.565E-14   0.140E+01 0.140E+01 -.217E-18   -.104E-03 -.104E-03 -.768E-11
   -.344E+02 -.344E+02 -.277E-07   0.358E+02 0.358E+02 -.594E-14   -.140E+01 -.140E+01 0.217E-18   0.104E-03 0.104E-03 0.761E-11
 -----------------------------------------------------------------------------------------------
   -.192E-12 0.566E-11 0.325E-11   0.000E+00 -.711E-14 -.497E-14   0.000E+00 0.222E-15 0.000E+00   0.960E-13 0.516E-13 -.590E-13
 
 
 POSITION                                       TOTAL-FORCE (eV/Angst)
 -----------------------------------------------------------------------------------
      2.44157      2.44157      1.65040        -0.000000      0.000000      0.000000
      0.00000      0.00000      0.00000        -0.000000      0.000000      0.000000
      0.95438      3.92876      1.65040        -0.001935      0.001935     -0.000000
      3.92876      0.95438      1.65040         0.001935     -0.001935      0.000000
      1.48719      1.48719      0.00000         0.001935      0.001935     -0.000000
      3.39595      3.39595      0.00000        -0.001935     -0.001935      0.000000
 -----------------------------------------------------------------------------------
    total drift:                               -0.000000      0.000000      0.000000


--------------------------------------------------------------------------------------------------------



  FREE ENERGIE OF THE ION-ELECTRON SYSTEM (eV)
  ---------------------------------------------------
  free  energy   TOTEN  =       -39.16208754 eV

  energy  without entropy=      -39.16208754  energy(sigma->0) =      -39.16208754
 


--------------------------------------------------------------------------------------------------------


    POTLOK:  cpu time    0.3832: real time    0.3832


--------------------------------------------------------------------------------------------------------




--------------------------------------------------------------------------------------------------------


  
 reached required accuracy - stopping structural energy minimisation
     LOOP+:  cpu time   23.9807: real time   24.0003
    4ORBIT:  cpu time    0.0000: real time    0.0000
 


 total charge     
 
# of ion       s       p       d       tot
------------------------------------------
    1        0.165   6.152   4.951  11.268
    2        0.168   6.149   4.956  11.272
    3        1.726   4.366   0.000   6.092
    4        1.726   4.366   0.000   6.092
    5        1.726   4.363   0.000   6.089
    6        1.726   4.363   0.000   6.089
--------------------------------------------------
tot          7.238  29.758   9.907  46.902
 


 magnetization (x)
 
# of ion       s       p       d       tot
------------------------------------------
    1       -0.018  -0.019  -4.629  -4.666
    2        0.018   0.018   4.627   4.664
    3        0.002   0.016   0.000   0.018
    4        0.002   0.016   0.000   0.018
    5       -0.002  -0.014   0.000  -0.016
    6       -0.002  -0.014   0.000  -0.016
--------------------------------------------------
tot         -0.001   0.005  -0.002   0.002
 

 total amount of memory used by VASP MPI-rank0    59500. kBytes
=======================================================================

   base      :      30000. kBytes
   nonl-proj :      18669. kBytes
   fftplans  :       1875. kBytes
   grid      :       2467. kBytes
   one-center:        186. kBytes
   wavefun   :       6303. kBytes
 
  
  
 General timing and accounting informations for this job:
 ========================================================
  
                  Total CPU time used (sec):       25.302
                            User time (sec):       20.352
                          System time (sec):        4.950
                         Elapsed time (sec):       25.366
  
                   Maximum memory used (kb):       73156.
                   Average memory used (kb):           0.
  
                          Minor page faults:        13022
                          Major page faults:            8
                 Voluntary context switches:          302
