 vasp.5.4.4.18Apr17-6-g9f103f2a35 (build Apr 27 2017 11:13:10) complex          
  
 executed on           IFC91_ompi date 2020.05.13  12:07:20
 running on   12 total cores
 distrk:  each k-point on   12 cores,    1 groups
 distr:  one band on NCORES_PER_BAND=   1 cores,   12 groups


--------------------------------------------------------------------------------------------------------


 INCAR:
 POTCAR:    PAW_PBE Mn_pv 02Aug2007               
 POTCAR:    PAW_PBE F 08Apr2002                   

 ----------------------------------------------------------------------------- 
|                                                                             |
|           W    W    AA    RRRRR   N    N  II  N    N   GGGG   !!!           |
|           W    W   A  A   R    R  NN   N  II  NN   N  G    G  !!!           |
|           W    W  A    A  R    R  N N  N  II  N N  N  G       !!!           |
|           W WW W  AAAAAA  RRRRR   N  N N  II  N  N N  G  GGG   !            |
|           WW  WW  A    A  R   R   N   NN  II  N   NN  G    G                |
|           W    W  A    A  R    R  N    N  II  N    N   GGGG   !!!           |
|                                                                             |
|      For optimal performance we recommend to set                            |
|        NCORE= 4 - approx SQRT( number of cores)                             |
|      NCORE specifies how many cores store one orbital (NPAR=cpu/NCORE).     |
|      This setting can  greatly improve the performance of VASP for DFT.     |
|      The default,   NCORE=1            might be grossly inefficient         |
|      on modern multi-core architectures or massively parallel machines.     |
|      Do your own testing !!!!                                               |
|      Unfortunately you need to use the default for GW and RPA calculations. |
|      (for HF NCORE is supported but not extensively tested yet)             |
|                                                                             |
 ----------------------------------------------------------------------------- 

 POTCAR:    PAW_PBE Mn_pv 02Aug2007               
   VRHFIN =Mn: 3p4s3d                                                           
   LEXCH  = PE                                                                  
   EATOM  =  2025.2664 eV,  148.8529 Ry                                         
                                                                                
   TITEL  = PAW_PBE Mn_pv 02Aug2007                                             
   LULTRA =        F    use ultrasoft PP ?                                      
   IUNSCR =        1    unscreen: 0-lin 1-nonlin 2-no                           
   RPACOR =    2.080    partial core radius                                     
   POMASS =   54.938; ZVAL   =   13.000    mass and valenz                      
   RCORE  =    2.300    outmost cutoff radius                                   
   RWIGS  =    2.500; RWIGS  =    1.323    wigner-seitz radius (au A)           
   ENMAX  =  269.864; ENMIN  =  202.398 eV                                      
   ICORE  =        3    local potential                                         
   LCOR   =        T    correct aug charges                                     
   LPAW   =        T    paw PP                                                  
   EAUG   =  569.085                                                            
   DEXC   =    0.000                                                            
   RMAX   =    2.343    core radius for proj-oper                               
   RAUG   =    1.300    factor for augmentation sphere                          
   RDEP   =    2.338    radius for radial grids                                 
   RDEPT  =    1.798    core radius for aug-charge                              
                                                                                
   Atomic configuration                                                         
    8 entries                                                                   
     n  l   j            E        occ.                                          
     1  0  0.50     -6424.8287   2.0000                                         
     2  0  0.50      -739.1154   2.0000                                         
     2  1  1.50      -625.3949   6.0000                                         
     3  0  0.50       -81.6100   2.0000                                         
     3  1  1.50       -50.4667   6.0000                                         
     3  2  2.50        -3.3745   6.0000                                         
     4  0  0.50        -4.1331   1.0000                                         
     4  3  2.50        -1.3606   0.0000                                         
   Description                                                                  
     l       E           TYP  RCUT    TYP  RCUT                                 
     1    -50.4666628     23  2.000                                             
     1     -1.3605826     23  2.000                                             
     2     -3.3744729     23  2.300                                             
     2     -4.7350555     23  2.300                                             
     0     -4.1331431     23  2.300                                             
     0      7.6656591     23  2.300                                             
     3      9.5240782     23  2.300                                             
  local pseudopotential read in
  partial core-charges read in
  partial kinetic energy density read in
  atomic valenz-charges read in
  non local Contribution for L=           1  read in
    real space projection operators read in
  non local Contribution for L=           1  read in
    real space projection operators read in
  non local Contribution for L=           2  read in
    real space projection operators read in
  non local Contribution for L=           2  read in
    real space projection operators read in
  non local Contribution for L=           0  read in
    real space projection operators read in
  non local Contribution for L=           0  read in
    real space projection operators read in
    PAW grid and wavefunctions read in
 
   number of l-projection  operators is LMAX  =           6
   number of lm-projection operators is LMMAX =          18
 
 POTCAR:    PAW_PBE F 08Apr2002                   
   VRHFIN =F: s2p5                                                              
   LEXCH  = PE                                                                  
   EATOM  =   659.6475 eV,   48.4827 Ry                                         
                                                                                
   TITEL  = PAW_PBE F 08Apr2002                                                 
   LULTRA =        F    use ultrasoft PP ?                                      
   IUNSCR =        1    unscreen: 0-lin 1-nonlin 2-no                           
   RPACOR =    1.200    partial core radius                                     
   POMASS =   18.998; ZVAL   =    7.000    mass and valenz                      
   RCORE  =    1.520    outmost cutoff radius                                   
   RWIGS  =    1.500; RWIGS  =    0.794    wigner-seitz radius (au A)           
   ENMAX  =  400.000; ENMIN  =  300.000 eV                                      
   ICORE  =        2    local potential                                         
   LCOR   =        T    correct aug charges                                     
   LPAW   =        T    paw PP                                                  
   EAUG   =  613.614                                                            
   RMAX   =    1.555    core radius for proj-oper                               
   RAUG   =    1.300    factor for augmentation sphere                          
   RDEP   =    1.539    radius for radial grids                                 
   RDEPT  =    1.299    core radius for aug-charge                              
                                                                                
   Atomic configuration                                                         
    4 entries                                                                   
     n  l   j            E        occ.                                          
     1  0  0.50      -663.3661   2.0000                                         
     2  0  0.50       -29.8995   2.0000                                         
     2  1  0.50       -11.1114   5.0000                                         
     3  2  1.50       -10.8847   0.0000                                         
   Description                                                                  
     l       E           TYP  RCUT    TYP  RCUT                                 
     0    -29.8995018     23  1.200                                             
     0     -9.5240782     23  1.200                                             
     1    -11.1113914     23  1.520                                             
     1      1.3605826     23  1.520                                             
     2    -10.8846608      7  1.500                                             
  local pseudopotential read in
  partial core-charges read in
  partial kinetic energy density read in
  atomic valenz-charges read in
  non local Contribution for L=           0  read in
    real space projection operators read in
  non local Contribution for L=           0  read in
    real space projection operators read in
  non local Contribution for L=           1  read in
    real space projection operators read in
  non local Contribution for L=           1  read in
    real space projection operators read in
    PAW grid and wavefunctions read in
 
   number of l-projection  operators is LMAX  =           4
   number of lm-projection operators is LMMAX =           8
 
  PAW_PBE Mn_pv 02Aug2007               :
 energy of atom  1       EATOM=-2025.2664
 kinetic energy error for atom=    0.0009 (will be added to EATOM!!)
  PAW_PBE F 08Apr2002                   :
 energy of atom  2       EATOM= -659.6475
 kinetic energy error for atom=    0.0038 (will be added to EATOM!!)
 
 
 POSCAR: Mn  F                                   
  positions in cartesian coordinates
  No initial velocities read in

 METAGGA = SCAN     LMAXTAU =  6    LMIXTAU =  F

 exchange correlation table for  LEXCH =        8
   RHO(1)=    0.500       N(1)  =     2000
   RHO(2)=  100.500       N(2)  =     4000
 


--------------------------------------------------------------------------------------------------------


 ion  position               nearest neighbor table
   1  0.500  0.500  0.500-   3 2.09   4 2.09   5 2.13   6 2.13   5 2.13   6 2.13
   2  0.000  0.000  0.000-   5 2.09   6 2.09   3 2.13   4 2.13   3 2.13   4 2.13
   3  0.196  0.804  0.500-   1 2.09   2 2.13   2 2.13
   4  0.804  0.196  0.500-   1 2.09   2 2.13   2 2.13
   5  0.304  0.304  0.000-   2 2.09   1 2.13   1 2.13
   6  0.696  0.696  0.000-   2 2.09   1 2.13   1 2.13
 
  LATTYP: Found a simple tetragonal cell.
 ALAT       =     4.8551232424
 C/A-ratio  =     0.6775285449
  
  Lattice vectors:
  
 A1 = (   4.8551232424,   0.0000000000,   0.0000000000)
 A2 = (   0.0000000000,   4.8551232424,   0.0000000000)
 A3 = (   0.0000000000,   0.0000000000,   3.2894845857)


Analysis of symmetry for initial positions (statically):
=====================================================================
 Subroutine PRICEL returns:
 Original cell was already a primitive cell.
 

 Routine SETGRP: Setting up the symmetry group for a 
 simple tetragonal supercell.


 Subroutine GETGRP returns: Found 16 space group operations
 (whereof  8 operations were pure point group operations)
 out of a pool of 16 trial point group operations.


The static configuration has the point symmetry D_2h.
 The point group associated with its full space group is D_4h.


Analysis of symmetry for dynamics (positions and initial velocities):
=====================================================================
 Subroutine PRICEL returns:
 Original cell was already a primitive cell.
 

 Routine SETGRP: Setting up the symmetry group for a 
 simple tetragonal supercell.


 Subroutine GETGRP returns: Found 16 space group operations
 (whereof  8 operations were pure point group operations)
 out of a pool of 16 trial point group operations.


The dynamic configuration has the point symmetry D_2h.
 The point group associated with its full space group is D_4h.


Analysis of structural, dynamic, and magnetic symmetry:
=====================================================================
 Subroutine PRICEL returns:
 Original cell was already a primitive cell.
 

 Routine SETGRP: Setting up the symmetry group for a 
 simple tetragonal supercell.


 Subroutine GETGRP returns: Found 16 space group operations
 (whereof  8 operations were pure point group operations)
 out of a pool of 16 trial point group operations.


The magnetic configuration has the point symmetry D_2h.
 The point group associated with its full space group is D_4h.


 Subroutine INISYM returns: Found 16 space group operations
 (whereof  8 operations are pure point group operations),
 and found     1 'primitive' translations

 
 
 KPOINTS: KPOINTS created by Atomic Simulation Env

Automatic generation of k-mesh.
Space group operators:
 irot       det(A)        alpha          n_x          n_y          n_z        tau_x        tau_y        tau_z
    1     1.000000     0.000000     1.000000     0.000000     0.000000     0.000000     0.000000     0.000000
    2    -1.000000     0.000000     1.000000     0.000000     0.000000     0.000000     0.000000     0.000000
    3     1.000000   180.000000     0.000000     0.000000     1.000000     0.000000     0.000000     0.000000
    4    -1.000000   180.000000     0.000000     0.000000     1.000000     0.000000     0.000000     0.000000
    5     1.000000   180.000000     0.707107     0.707107     0.000000     0.000000     0.000000     0.000000
    6    -1.000000   180.000000     0.707107     0.707107     0.000000     0.000000     0.000000     0.000000
    7     1.000000   180.000000     0.707107    -0.707107     0.000000     0.000000     0.000000     0.000000
    8    -1.000000   180.000000     0.707107    -0.707107     0.000000     0.000000     0.000000     0.000000
    9     1.000000    90.000000     0.000000     0.000000    -1.000000     0.500000     0.500000     0.500000
   10    -1.000000    90.000000     0.000000     0.000000    -1.000000     0.500000     0.500000     0.500000
   11     1.000000    90.000000     0.000000     0.000000     1.000000     0.500000     0.500000     0.500000
   12    -1.000000    90.000000     0.000000     0.000000     1.000000     0.500000     0.500000     0.500000
   13     1.000000   180.000000     0.000000     1.000000     0.000000     0.500000     0.500000     0.500000
   14    -1.000000   180.000000     0.000000     1.000000     0.000000     0.500000     0.500000     0.500000
   15     1.000000   180.000000     1.000000     0.000000     0.000000     0.500000     0.500000     0.500000
   16    -1.000000   180.000000     1.000000     0.000000     0.000000     0.500000     0.500000     0.500000
 
 Subroutine IBZKPT returns following result:
 ===========================================
 
 Found      9 irreducible k-points:
 
 Following reciprocal coordinates:
            Coordinates               Weight
  0.125000  0.125000  0.083333      8.000000
  0.375000  0.125000  0.083333     16.000000
  0.375000  0.375000  0.083333      8.000000
  0.125000  0.125000  0.250000      8.000000
  0.375000  0.125000  0.250000     16.000000
  0.375000  0.375000  0.250000      8.000000
  0.125000  0.125000  0.416667      8.000000
  0.375000  0.125000  0.416667     16.000000
  0.375000  0.375000  0.416667      8.000000
 
 Following cartesian coordinates:
            Coordinates               Weight
  0.025746  0.025746  0.025333      8.000000
  0.077238  0.025746  0.025333     16.000000
  0.077238  0.077238  0.025333      8.000000
  0.025746  0.025746  0.076000      8.000000
  0.077238  0.025746  0.076000     16.000000
  0.077238  0.077238  0.076000      8.000000
  0.025746  0.025746  0.126666      8.000000
  0.077238  0.025746  0.126666     16.000000
  0.077238  0.077238  0.126666      8.000000
 
 TETIRR: Found    106 inequivalent tetrahedra from      576


--------------------------------------------------------------------------------------------------------




 Dimension of arrays:
   k-points           NKPTS =      9   k-points in BZ     NKDIM =      9   number of bands    NBANDS=     36
   number of dos      NEDOS =    301   number of ions     NIONS =      6
   non local maximal  LDIM  =      6   non local SUM 2l+1 LMDIM =     18
   total plane-waves  NPLWV =  31104
   max r-space proj   IRMAX =      1   max aug-charges    IRDMAX=  97559
   dimension x,y,z NGX =    36 NGY =   36 NGZ =   24
   dimension x,y,z NGXF=    72 NGYF=   72 NGZF=   48
   support grid    NGXF=   144 NGYF=  144 NGZF=   96
   ions per type =               2   4
   NGX,Y,Z   is equivalent  to a cutoff of  12.33, 12.33, 12.13 a.u.
   NGXF,Y,Z  is equivalent  to a cutoff of  24.65, 24.65, 24.26 a.u.

 SYSTEM =  unknown system                          
 POSCAR =  Mn  F                                   

 Startparameter for this run:
   NWRITE =      2    write-flag & timer
   PREC   = normal    normal or accurate (medium, high low for compatibility)
   ISTART =      0    job   : 0-new  1-cont  2-samecut
   ICHARG =      2    charge: 1-file 2-atom 10-const
   ISPIN  =      2    spin polarized calculation?
   LNONCOLLINEAR =      F non collinear calculations
   LSORBIT =      F    spin-orbit coupling
   INIWAV =      1    electr: 0-lowe 1-rand  2-diag
   LASPH  =      T    aspherical Exc in radial PAW
   METAGGA=      F    non-selfconsistent MetaGGA calc.

 Electronic Relaxation 1
   ENCUT  =  900.0 eV  66.15 Ry    8.13 a.u.  11.88 11.88  8.05*2*pi/ulx,y,z
   ENINI  =  900.0     initial cutoff
   ENAUG  =  613.6 eV  augmentation charge cutoff
   NELM   =     60;   NELMIN=  2; NELMDL= -5     # of ELM steps 
   EDIFF  = 0.1E-05   stopping-criterion for ELM
   LREAL  =      F    real-space projection
   NLSPLINE    = F    spline interpolate recip. space projectors
   LCOMPAT=      F    compatible to vasp.4.4
   GGA_COMPAT  = T    GGA compatible to vasp.4.4-vasp.4.6
   LMAXPAW     = -100 max onsite density
   LMAXMIX     =    4 max onsite mixed and CHGCAR
   VOSKOWN=      0    Vosko Wilk Nusair interpolation
   ROPT   =    0.00000   0.00000
 Ionic relaxation
   EDIFFG = 0.1E-04   stopping-criterion for IOM
   NSW    =      0    number of steps for IOM
   NBLOCK =      1;   KBLOCK =      1    inner block; outer block 
   IBRION =     -1    ionic relax: 0-MD 1-quasi-New 2-CG
   NFREE  =      0    steps in history (QN), initial steepest desc. (CG)
   ISIF   =      2    stress and relaxation
   IWAVPR =     10    prediction:  0-non 1-charg 2-wave 3-comb
   ISYM   =      2    0-nonsym 1-usesym 2-fastsym
   LCORR  =      T    Harris-Foulkes like correction to forces

   POTIM  = 0.5000    time-step for ionic-motion
   TEIN   =    0.0    initial temperature
   TEBEG  =    0.0;   TEEND  =   0.0 temperature during run
   SMASS  =  -3.00    Nose mass-parameter (am)
   estimated Nose-frequenzy (Omega)   =  0.10E-29 period in steps =****** mass=  -0.539E-27a.u.
   SCALEE = 1.0000    scale energy and forces
   NPACO  =    256;   APACO  = 16.0  distance and # of slots for P.C.
   PSTRESS=    0.0 pullay stress

  Mass of Ions in am
   POMASS =  54.94 19.00
  Ionic Valenz
   ZVAL   =  13.00  7.00
  Atomic Wigner-Seitz radii
   RWIGS  =  -1.00 -1.00
  virtual crystal weights 
   VCA    =   1.00  1.00
   NELECT =      54.0000    total number of electrons
   NUPDOWN=      -1.0000    fix difference up-down

 DOS related values:
   EMIN   =  10.00;   EMAX   =-10.00  energy-range for DOS
   EFERMI =   0.00
   ISMEAR =    -5;   SIGMA  =   0.20  broadening in eV -4-tet -1-fermi 0-gaus

 Electronic relaxation 2 (details)
   IALGO  =     38    algorithm
   LDIAG  =      T    sub-space diagonalisation (order eigenvalues)
   LSUBROT=      F    optimize rotation matrix (better conditioning)
   TURBO    =      0    0=normal 1=particle mesh
   IRESTART =      0    0=no restart 2=restart with 2 vectors
   NREBOOT  =      0    no. of reboots
   NMIN     =      0    reboot dimension
   EREF     =   0.00    reference energy to select bands
   IMIX   =      4    mixing-type and parameters
     AMIX     =   0.40;   BMIX     =  1.00
     AMIX_MAG =   1.60;   BMIX_MAG =  1.00
     AMIN     =   0.10
     WC   =   100.;   INIMIX=   1;  MIXPRE=   1;  MAXMIX= -45

 Intra band minimization:
   WEIMIN = 0.0000     energy-eigenvalue tresh-hold
   EBREAK =  0.69E-08  absolut break condition
   DEPER  =   0.30     relativ break condition  

   TIME   =   0.40     timestep for ELM

  volume/ion in A,a.u.               =      12.92        87.21
  Fermi-wavevector in a.u.,A,eV,Ry     =   1.451098  2.742177 28.649574  2.105684
  Thomas-Fermi vector in A             =   2.568634
 
 Write flags
   LWAVE        =      T    write WAVECAR
   LDOWNSAMPLE  =      F    k-point downsampling of WAVECAR
   LCHARG       =      T    write CHGCAR
   LVTOT        =      F    write LOCPOT, total local potential
   LVHAR        =      F    write LOCPOT, Hartree potential only
   LELF         =      F    write electronic localiz. function (ELF)
   LORBIT       =     11    0 simple, 1 ext, 2 COOP (PROOUT), +10 PAW based schemes


 Dipole corrections
   LMONO  =      F    monopole corrections only (constant potential shift)
   LDIPOL =      F    correct potential (dipole corrections)
   IDIPOL =      0    1-x, 2-y, 3-z, 4-all directions 
   EPSILON=  1.0000000 bulk dielectric constant

 LDA+U is selected, type is set to LDAUTYPE =  2
   angular momentum for each species LDAUL =     2   -1
   U (eV)           for each species LDAUU =   0.0  0.0
   J (eV)           for each species LDAUJ =   0.0  0.0
 Exchange correlation treatment:
   GGA     =    --    GGA type
   LEXCH   =     8    internal setting for exchange type
   VOSKOWN=      0    Vosko Wilk Nusair interpolation
   LHFCALC =     F    Hartree Fock is set to
   LHFONE  =     F    Hartree Fock one center treatment
   AEXX    =    0.0000 exact exchange contribution

 Linear response parameters
   LEPSILON=     F    determine dielectric tensor
   LRPA    =     F    only Hartree local field effects (RPA)
   LNABLA  =     F    use nabla operator in PAW spheres
   LVEL    =     F    velocity operator in full k-point grid
   LINTERFAST=   F  fast interpolation
   KINTER  =     0    interpolate to denser k-point grid
   CSHIFT  =0.1000    complex shift for real part using Kramers Kronig
   OMEGAMAX=  -1.0    maximum frequency
   DEG_THRESHOLD= 0.2000000E-02 threshold for treating states as degnerate
   RTIME   =   -0.100 relaxation time in fs
  (WPLASMAI=    0.000 imaginary part of plasma frequency in eV, 0.658/RTIME)
   DFIELD  = 0.0000000 0.0000000 0.0000000 field for delta impulse in time
 
 Orbital magnetization related:
   ORBITALMAG=     F  switch on orbital magnetization
   LCHIMAG   =     F  perturbation theory with respect to B field
   DQ        =  0.001000  dq finite difference perturbation B field
   LLRAUG    =     F  two centre corrections for induced B field



--------------------------------------------------------------------------------------------------------


 Static calculation
 charge density and potential will be updated during run
 spin polarized calculation
 Variant of blocked Davidson
 Davidson routine will perform the subspace rotation
 perform sub-space diagonalisation
    after iterative eigenvector-optimisation
 modified Broyden-mixing scheme, WC =      100.0
 initial mixing is a Kerker type mixing with AMIX =  0.4000 and BMIX =      1.0000
 Hartree-type preconditioning will be used
 using additional bands            9
 reciprocal scheme for non local part
 use partial core corrections
 calculate Harris-corrections to forces 
   (improved forces if not selfconsistent)
 use gradient corrections 
 use of overlap-Matrix (Vanderbilt PP)
 Fermi weights with tetrahedron method with Bloechl corrections


--------------------------------------------------------------------------------------------------------


  energy-cutoff  :      900.00
  volume of cell :       77.54
      direct lattice vectors                 reciprocal lattice vectors
     4.855123242  0.000000000  0.000000000     0.205967995  0.000000000  0.000000000
     0.000000000  4.855123242  0.000000000     0.000000000  0.205967995  0.000000000
     0.000000000  0.000000000  3.289484586     0.000000000  0.000000000  0.303998993

  length of vectors
     4.855123242  4.855123242  3.289484586     0.205967995  0.205967995  0.303998993


 
 k-points in units of 2pi/SCALE and weight: KPOINTS created by Atomic Simulation Env
   0.02574600  0.02574600  0.02533325       0.083
   0.07723800  0.02574600  0.02533325       0.167
   0.07723800  0.07723800  0.02533325       0.083
   0.02574600  0.02574600  0.07599975       0.083
   0.07723800  0.02574600  0.07599975       0.167
   0.07723800  0.07723800  0.07599975       0.083
   0.02574600  0.02574600  0.12666625       0.083
   0.07723800  0.02574600  0.12666625       0.167
   0.07723800  0.07723800  0.12666625       0.083
 
 k-points in reciprocal lattice and weights: KPOINTS created by Atomic Simulation Env
   0.12500000  0.12500000  0.08333333       0.083
   0.37500000  0.12500000  0.08333333       0.167
   0.37500000  0.37500000  0.08333333       0.083
   0.12500000  0.12500000  0.25000000       0.083
   0.37500000  0.12500000  0.25000000       0.167
   0.37500000  0.37500000  0.25000000       0.083
   0.12500000  0.12500000  0.41666667       0.083
   0.37500000  0.12500000  0.41666667       0.167
   0.37500000  0.37500000  0.41666667       0.083
 
 position of ions in fractional coordinates (direct lattice) 
   0.50000000  0.50000000  0.50000000
   0.00000000  0.00000000  0.00000000
   0.19610338  0.80389662  0.50000000
   0.80389662  0.19610338  0.50000000
   0.30389662  0.30389662  0.00000000
   0.69610338  0.69610338  0.00000000
 
 position of ions in cartesian coordinates  (Angst):
   2.42756162  2.42756162  1.64474229
   0.00000000  0.00000000  0.00000000
   0.95210608  3.90301716  1.64474229
   3.90301716  0.95210608  1.64474229
   1.47545554  1.47545554  0.00000000
   3.37966770  3.37966770  0.00000000
 


--------------------------------------------------------------------------------------------------------


 k-point  1 :   0.1250 0.1250 0.0833  plane waves:    4734
 k-point  2 :   0.3750 0.1250 0.0833  plane waves:    4741
 k-point  3 :   0.3750 0.3750 0.0833  plane waves:    4744
 k-point  4 :   0.1250 0.1250 0.2500  plane waves:    4752
 k-point  5 :   0.3750 0.1250 0.2500  plane waves:    4762
 k-point  6 :   0.3750 0.3750 0.2500  plane waves:    4753
 k-point  7 :   0.1250 0.1250 0.4167  plane waves:    4744
 k-point  8 :   0.3750 0.1250 0.4167  plane waves:    4763
 k-point  9 :   0.3750 0.3750 0.4167  plane waves:    4778

 maximum and minimum number of plane-waves per node :      4778     4734

 maximum number of plane-waves:      4778
 maximum index in each direction: 
   IXMAX=   11   IYMAX=   11   IZMAX=    7
   IXMIN=  -12   IYMIN=  -12   IZMIN=   -8


 serial   3D FFT for wavefunctions
 parallel 3D FFT for charge:
    minimum data exchange during FFTs selected (reduces bandwidth)


 total amount of memory used by VASP MPI-rank0    57054. kBytes
=======================================================================

   base      :      30000. kBytes
   nonl-proj :      12870. kBytes
   fftplans  :       3220. kBytes
   grid      :       6579. kBytes
   one-center:        186. kBytes
   wavefun   :       4199. kBytes
 
     INWAV:  cpu time    0.0000: real time    0.0000
 Broyden mixing: mesh for mixing (old mesh)
   NGX = 23   NGY = 23   NGZ = 17
  (NGX  = 72   NGY  = 72   NGZ  = 48)
  gives a total of   8993 points

 initial charge density was supplied:
 charge density of overlapping atoms calculated
 number of electron      54.0000000 magnetization       0.0000000
 keeping initial charge density in first step


--------------------------------------------------------------------------------------------------------


 Maximum index for augmentation-charges         8031 (set IRDMAX)


--------------------------------------------------------------------------------------------------------


 First call to EWALD:  gamma=   0.416
 Maximum number of real-space cells 2x 2x 3
 Maximum number of reciprocal cells 3x 3x 2

    FEWALD:  cpu time    0.0010: real time    0.0010


--------------------------------------- Iteration      1(   1)  ---------------------------------------


    POTLOK:  cpu time    0.0604: real time    0.0604
    SETDIJ:  cpu time    0.7956: real time    0.7956
atom =   1  type =  1  l = 2
 
 onsite density matrix
 
spin component  1
 
  0.2835  0.0000  0.0000  0.0000  0.0000
  0.0000  0.2835  0.0000  0.0000  0.0000
  0.0000  0.0000  0.2835  0.0000  0.0000
  0.0000  0.0000  0.0000  0.2835  0.0000
  0.0000  0.0000  0.0000  0.0000  0.2835
 
spin component  2
 
  0.7694  0.0000  0.0000  0.0000  0.0000
  0.0000  0.7694  0.0000  0.0000  0.0000
  0.0000  0.0000  0.7694  0.0000  0.0000
  0.0000  0.0000  0.0000  0.7694  0.0000
  0.0000  0.0000  0.0000  0.0000  0.7694
 
 occupancies and eigenvectors
 
  o =  0.2835  v =  1.0000  0.0000  0.0000  0.0000  0.0000  0.0000  0.0000  0.0000  0.0000  0.0000      0.0000  0.0000  0.0000  0.0000  0.0000  0.0000  0.0000  0.0000  0.0000  0.0000
  o =  0.2835  v =  0.0000  1.0000  0.0000  0.0000  0.0000  0.0000  0.0000  0.0000  0.0000  0.0000      0.0000  0.0000  0.0000  0.0000  0.0000  0.0000  0.0000  0.0000  0.0000  0.0000
  o =  0.2835  v =  0.0000  0.0000  1.0000  0.0000  0.0000  0.0000  0.0000  0.0000  0.0000  0.0000      0.0000  0.0000  0.0000  0.0000  0.0000  0.0000  0.0000  0.0000  0.0000  0.0000
  o =  0.2835  v =  0.0000  0.0000  0.0000  1.0000  0.0000  0.0000  0.0000  0.0000  0.0000  0.0000      0.0000  0.0000  0.0000  0.0000  0.0000  0.0000  0.0000  0.0000  0.0000  0.0000
  o =  0.2835  v =  0.0000  0.0000  0.0000  0.0000  1.0000  0.0000  0.0000  0.0000  0.0000  0.0000      0.0000  0.0000  0.0000  0.0000  0.0000  0.0000  0.0000  0.0000  0.0000  0.0000
  o =  0.7694  v =  0.0000  0.0000  0.0000  0.0000  0.0000  1.0000  0.0000  0.0000  0.0000  0.0000      0.0000  0.0000  0.0000  0.0000  0.0000  0.0000  0.0000  0.0000  0.0000  0.0000
  o =  0.7694  v =  0.0000  0.0000  0.0000  0.0000  0.0000  0.0000  1.0000  0.0000  0.0000  0.0000      0.0000  0.0000  0.0000  0.0000  0.0000  0.0000  0.0000  0.0000  0.0000  0.0000
  o =  0.7694  v =  0.0000  0.0000  0.0000  0.0000  0.0000  0.0000  0.0000  1.0000  0.0000  0.0000      0.0000  0.0000  0.0000  0.0000  0.0000  0.0000  0.0000  0.0000  0.0000  0.0000
  o =  0.7694  v =  0.0000  0.0000  0.0000  0.0000  0.0000  0.0000  0.0000  0.0000  1.0000  0.0000      0.0000  0.0000  0.0000  0.0000  0.0000  0.0000  0.0000  0.0000  0.0000  0.0000
  o =  0.7694  v =  0.0000  0.0000  0.0000  0.0000  0.0000  0.0000  0.0000  0.0000  0.0000  1.0000      0.0000  0.0000  0.0000  0.0000  0.0000  0.0000  0.0000  0.0000  0.0000  0.0000
atom =   2  type =  1  l = 2
 
 onsite density matrix
 
spin component  1
 
  0.7694  0.0000  0.0000  0.0000  0.0000
  0.0000  0.7694  0.0000  0.0000  0.0000
  0.0000  0.0000  0.7694  0.0000  0.0000
  0.0000  0.0000  0.0000  0.7694  0.0000
  0.0000  0.0000  0.0000  0.0000  0.7694
 
spin component  2
 
  0.2835  0.0000  0.0000  0.0000  0.0000
  0.0000  0.2835  0.0000  0.0000  0.0000
  0.0000  0.0000  0.2835  0.0000  0.0000
  0.0000  0.0000  0.0000  0.2835  0.0000
  0.0000  0.0000  0.0000  0.0000  0.2835
 
 occupancies and eigenvectors
 
  o =  0.2835  v =  0.0000  0.0000  0.0000  0.0000  0.0000  1.0000  0.0000  0.0000  0.0000  0.0000      0.0000  0.0000  0.0000  0.0000  0.0000  0.0000  0.0000  0.0000  0.0000  0.0000
  o =  0.2835  v =  0.0000  0.0000  0.0000  0.0000  0.0000  0.0000  1.0000  0.0000  0.0000  0.0000      0.0000  0.0000  0.0000  0.0000  0.0000  0.0000  0.0000  0.0000  0.0000  0.0000
  o =  0.2835  v =  0.0000  0.0000  0.0000  0.0000  0.0000  0.0000  0.0000  1.0000  0.0000  0.0000      0.0000  0.0000  0.0000  0.0000  0.0000  0.0000  0.0000  0.0000  0.0000  0.0000
  o =  0.2835  v =  0.0000  0.0000  0.0000  0.0000  0.0000  0.0000  0.0000  0.0000  1.0000  0.0000      0.0000  0.0000  0.0000  0.0000  0.0000  0.0000  0.0000  0.0000  0.0000  0.0000
  o =  0.2835  v =  0.0000  0.0000  0.0000  0.0000  0.0000  0.0000  0.0000  0.0000  0.0000  1.0000      0.0000  0.0000  0.0000  0.0000  0.0000  0.0000  0.0000  0.0000  0.0000  0.0000
  o =  0.7694  v =  1.0000  0.0000  0.0000  0.0000  0.0000  0.0000  0.0000  0.0000  0.0000  0.0000      0.0000  0.0000  0.0000  0.0000  0.0000  0.0000  0.0000  0.0000  0.0000  0.0000
  o =  0.7694  v =  0.0000  1.0000  0.0000  0.0000  0.0000  0.0000  0.0000  0.0000  0.0000  0.0000      0.0000  0.0000  0.0000  0.0000  0.0000  0.0000  0.0000  0.0000  0.0000  0.0000
  o =  0.7694  v =  0.0000  0.0000  1.0000  0.0000  0.0000  0.0000  0.0000  0.0000  0.0000  0.0000      0.0000  0.0000  0.0000  0.0000  0.0000  0.0000  0.0000  0.0000  0.0000  0.0000
  o =  0.7694  v =  0.0000  0.0000  0.0000  1.0000  0.0000  0.0000  0.0000  0.0000  0.0000  0.0000      0.0000  0.0000  0.0000  0.0000  0.0000  0.0000  0.0000  0.0000  0.0000  0.0000
  o =  0.7694  v =  0.0000  0.0000  0.0000  0.0000  1.0000  0.0000  0.0000  0.0000  0.0000  0.0000      0.0000  0.0000  0.0000  0.0000  0.0000  0.0000  0.0000  0.0000  0.0000  0.0000
     EDDAV:  cpu time    1.3353: real time    1.3558
 BZINTS: Fermi energy: 28.430292; 54.000000 electrons
         Band energy: 491.024667;  BLOECHL correction: -0.246893
       DOS:  cpu time    0.0106: real time    0.0106
    --------------------------------------------
      LOOP:  cpu time    2.2020: real time    2.2224

 eigenvalue-minimisations  :  1296
 total energy-change (2. order) : 0.1080691E+04  (-0.4644767E+04)
 number of electron      54.0000000 magnetization      -0.0000000
 augmentation part       54.0000000 magnetization      -0.0000000

 Free energy of the ion-electron system (eV)
  ---------------------------------------------------
  alpha Z        PSCENC =       199.08943989
  Ewald energy   TEWEN  =     -4200.94255172
  -Hartree energ DENC   =     -2131.93094458
  -exchange      EXHF   =         0.00000000
  -V(xc)+E(xc)   XCENC  =        -3.96116415
  PAW double counting   =      5566.43601843    -5528.13058630
  entropy T*S    EENTRO =         0.00000000
  eigenvalues    EBANDS =       491.02466729
  atomic energy  EATOM  =      6689.10585665
  Solvation  Ediel_sol  =         0.00000000
  ---------------------------------------------------
  free energy    TOTEN  =      1080.69073551 eV

  energy without entropy =     1080.69073551  energy(sigma->0) =     1080.69073551


--------------------------------------------------------------------------------------------------------




--------------------------------------- Iteration      1(   2)  ---------------------------------------


     EDDAV:  cpu time    1.4636: real time    1.4637
 BZINTS: Fermi energy: 12.070691; 54.000000 electrons
         Band energy:-165.277134;  BLOECHL correction: -0.008446
       DOS:  cpu time    0.0101: real time    0.0101
    --------------------------------------------
      LOOP:  cpu time    1.4737: real time    1.4737

 eigenvalue-minimisations  :  1512
 total energy-change (2. order) :-0.6563018E+03  (-0.6293207E+03)
 number of electron      54.0000000 magnetization      -0.0000000
 augmentation part       54.0000000 magnetization      -0.0000000

 Free energy of the ion-electron system (eV)
  ---------------------------------------------------
  alpha Z        PSCENC =       199.08943989
  Ewald energy   TEWEN  =     -4200.94255172
  -Hartree energ DENC   =     -2131.93094458
  -exchange      EXHF   =         0.00000000
  -V(xc)+E(xc)   XCENC  =        -3.96116415
  PAW double counting   =      5566.43601843    -5528.13058630
  entropy T*S    EENTRO =         0.00000000
  eigenvalues    EBANDS =      -165.27713395
  atomic energy  EATOM  =      6689.10585665
  Solvation  Ediel_sol  =         0.00000000
  ---------------------------------------------------
  free energy    TOTEN  =       424.38893427 eV

  energy without entropy =      424.38893427  energy(sigma->0) =      424.38893427


--------------------------------------------------------------------------------------------------------




--------------------------------------- Iteration      1(   3)  ---------------------------------------


     EDDAV:  cpu time    1.4504: real time    1.4504
 BZINTS: Fermi energy: 10.297091; 54.000000 electrons
         Band energy:-207.868053;  BLOECHL correction:  0.000000
       DOS:  cpu time    0.0020: real time    0.0020
    --------------------------------------------
      LOOP:  cpu time    1.4523: real time    1.4524

 eigenvalue-minimisations  :  1488
 total energy-change (2. order) :-0.4259092E+02  (-0.4212978E+02)
 number of electron      54.0000000 magnetization      -0.0000000
 augmentation part       54.0000000 magnetization      -0.0000000

 Free energy of the ion-electron system (eV)
  ---------------------------------------------------
  alpha Z        PSCENC =       199.08943989
  Ewald energy   TEWEN  =     -4200.94255172
  -Hartree energ DENC   =     -2131.93094458
  -exchange      EXHF   =         0.00000000
  -V(xc)+E(xc)   XCENC  =        -3.96116415
  PAW double counting   =      5566.43601843    -5528.13058630
  entropy T*S    EENTRO =         0.00000000
  eigenvalues    EBANDS =      -207.86805329
  atomic energy  EATOM  =      6689.10585665
  Solvation  Ediel_sol  =         0.00000000
  ---------------------------------------------------
  free energy    TOTEN  =       381.79801493 eV

  energy without entropy =      381.79801493  energy(sigma->0) =      381.79801493


--------------------------------------------------------------------------------------------------------




--------------------------------------- Iteration      1(   4)  ---------------------------------------


     EDDAV:  cpu time    1.4967: real time    1.4967
 BZINTS: Fermi energy: 10.212931; 54.000000 electrons
         Band energy:-208.485363;  BLOECHL correction:  0.000000
       DOS:  cpu time    0.0017: real time    0.0017
    --------------------------------------------
      LOOP:  cpu time    1.4984: real time    1.4984

 eigenvalue-minimisations  :  1524
 total energy-change (2. order) :-0.6173101E+00  (-0.6166822E+00)
 number of electron      54.0000000 magnetization      -0.0000000
 augmentation part       54.0000000 magnetization      -0.0000000

 Free energy of the ion-electron system (eV)
  ---------------------------------------------------
  alpha Z        PSCENC =       199.08943989
  Ewald energy   TEWEN  =     -4200.94255172
  -Hartree energ DENC   =     -2131.93094458
  -exchange      EXHF   =         0.00000000
  -V(xc)+E(xc)   XCENC  =        -3.96116415
  PAW double counting   =      5566.43601843    -5528.13058630
  entropy T*S    EENTRO =         0.00000000
  eigenvalues    EBANDS =      -208.48536339
  atomic energy  EATOM  =      6689.10585665
  Solvation  Ediel_sol  =         0.00000000
  ---------------------------------------------------
  free energy    TOTEN  =       381.18070483 eV

  energy without entropy =      381.18070483  energy(sigma->0) =      381.18070483


--------------------------------------------------------------------------------------------------------




--------------------------------------- Iteration      1(   5)  ---------------------------------------


     EDDAV:  cpu time    1.4245: real time    1.4245
 BZINTS: Fermi energy: 10.239672; 54.000000 electrons
         Band energy:-208.495627;  BLOECHL correction:  0.000000
       DOS:  cpu time    0.0011: real time    0.0011
    CHARGE:  cpu time    0.2710: real time    0.2710
    MIXING:  cpu time    0.0009: real time    0.0009
    --------------------------------------------
      LOOP:  cpu time    1.6975: real time    1.6976

 eigenvalue-minimisations  :  1476
 total energy-change (2. order) :-0.1026378E-01  (-0.1026278E-01)
 number of electron      54.0000001 magnetization      -0.0000000
 augmentation part       22.8826623 magnetization      -0.0000000

 Broyden mixing:
  rms(total) = 0.59285E+01    rms(broyden)= 0.59284E+01
  rms(prec ) = 0.62185E+01
  weight for this iteration     100.00

 Free energy of the ion-electron system (eV)
  ---------------------------------------------------
  alpha Z        PSCENC =       199.08943989
  Ewald energy   TEWEN  =     -4200.94255172
  -Hartree energ DENC   =     -2131.93094458
  -exchange      EXHF   =         0.00000000
  -V(xc)+E(xc)   XCENC  =        -3.96116415
  PAW double counting   =      5566.43601843    -5528.13058630
  entropy T*S    EENTRO =         0.00000000
  eigenvalues    EBANDS =      -208.49562717
  atomic energy  EATOM  =      6689.10585665
  Solvation  Ediel_sol  =         0.00000000
  ---------------------------------------------------
  free energy    TOTEN  =       381.17044105 eV

  energy without entropy =      381.17044105  energy(sigma->0) =      381.17044105


--------------------------------------------------------------------------------------------------------




--------------------------------------- Iteration      1(   6)  ---------------------------------------


    POTLOK:  cpu time    0.0567: real time    0.0567
    SETDIJ:  cpu time    1.3944: real time    1.3944
atom =   1  type =  1  l = 2
 
 onsite density matrix
 
spin component  1
 
  0.0456  0.0000  0.0721  0.0000 -0.0000
  0.0000  0.0153  0.0000  0.0669  0.0000
  0.0721  0.0000  0.0026  0.0000 -0.0000
  0.0000  0.0669  0.0000  0.0153  0.0000
 -0.0000  0.0000 -0.0000  0.0000 -0.0747
 
spin component  2
 
  1.0508  0.0000 -0.0360  0.0000  0.0000
  0.0000  1.0669  0.0000 -0.0336  0.0000
 -0.0360  0.0000  1.0723  0.0000 -0.0000
  0.0000 -0.0336  0.0000  1.0669  0.0000
  0.0000  0.0000 -0.0000  0.0000  1.1135
 
 occupancies and eigenvectors
 
  o = -0.0747  v =  0.0000 -0.0000 -0.0000  0.0000 -1.0000  0.0000  0.0000  0.0000  0.0000  0.0000      0.0000  0.0000  0.0000  0.0000  0.0000  0.0000  0.0000  0.0000  0.0000  0.0000
  o = -0.0516  v =  0.0000  0.7071 -0.0000 -0.7071 -0.0000  0.0000  0.0000  0.0000  0.0000  0.0000      0.0000  0.0000  0.0000  0.0000  0.0000  0.0000  0.0000  0.0000  0.0000  0.0000
  o = -0.0511  v = -0.5974 -0.0000  0.8019  0.0000 -0.0000  0.0000  0.0000  0.0000  0.0000  0.0000      0.0000  0.0000  0.0000  0.0000  0.0000  0.0000  0.0000  0.0000  0.0000  0.0000
  o =  0.0822  v =  0.0000  0.7071 -0.0000  0.7071 -0.0000  0.0000  0.0000  0.0000  0.0000  0.0000      0.0000  0.0000  0.0000  0.0000  0.0000  0.0000  0.0000  0.0000  0.0000  0.0000
  o =  0.0994  v =  0.8019 -0.0000  0.5974  0.0000 -0.0000  0.0000  0.0000  0.0000  0.0000  0.0000      0.0000  0.0000  0.0000  0.0000  0.0000  0.0000  0.0000  0.0000  0.0000  0.0000
  o =  1.0239  v =  0.0000  0.0000  0.0000  0.0000  0.0000  0.8018 -0.0000  0.5977  0.0000  0.0000      0.0000  0.0000  0.0000  0.0000  0.0000  0.0000  0.0000  0.0000  0.0000  0.0000
  o =  1.0333  v =  0.0000  0.0000  0.0000  0.0000  0.0000  0.0000 -0.7071  0.0000 -0.7071 -0.0000      0.0000  0.0000  0.0000  0.0000  0.0000  0.0000  0.0000  0.0000  0.0000  0.0000
  o =  1.0991  v =  0.0000  0.0000  0.0000  0.0000  0.0000 -0.5977 -0.0000  0.8018  0.0000  0.0000      0.0000  0.0000  0.0000  0.0000  0.0000  0.0000  0.0000  0.0000  0.0000  0.0000
  o =  1.1004  v =  0.0000  0.0000  0.0000  0.0000  0.0000  0.0000  0.7071  0.0000 -0.7071  0.0000      0.0000  0.0000  0.0000  0.0000  0.0000  0.0000  0.0000  0.0000  0.0000  0.0000
  o =  1.1135  v =  0.0000  0.0000  0.0000  0.0000  0.0000  0.0000 -0.0000 -0.0000  0.0000  1.0000      0.0000  0.0000  0.0000  0.0000  0.0000  0.0000  0.0000  0.0000  0.0000  0.0000
atom =   2  type =  1  l = 2
 
 onsite density matrix
 
spin component  1
 
  1.0508  0.0000  0.0360  0.0000 -0.0000
  0.0000  1.0669  0.0000  0.0336  0.0000
  0.0360  0.0000  1.0723  0.0000  0.0000
  0.0000  0.0336  0.0000  1.0669  0.0000
 -0.0000  0.0000  0.0000  0.0000  1.1135
 
spin component  2
 
  0.0456  0.0000 -0.0721  0.0000 -0.0000
  0.0000  0.0153  0.0000 -0.0669  0.0000
 -0.0721  0.0000  0.0026  0.0000  0.0000
  0.0000 -0.0669  0.0000  0.0153  0.0000
 -0.0000  0.0000  0.0000  0.0000 -0.0747
 
 occupancies and eigenvectors
 
  o = -0.0747  v =  0.0000  0.0000  0.0000  0.0000  0.0000  0.0000  0.0000  0.0000  0.0000 -1.0000      0.0000  0.0000  0.0000  0.0000  0.0000  0.0000  0.0000  0.0000  0.0000  0.0000
  o = -0.0516  v =  0.0000  0.0000  0.0000  0.0000  0.0000  0.0000 -0.7071  0.0000 -0.7071 -0.0000      0.0000  0.0000  0.0000  0.0000  0.0000  0.0000  0.0000  0.0000  0.0000  0.0000
  o = -0.0511  v =  0.0000  0.0000  0.0000  0.0000  0.0000 -0.5974 -0.0000 -0.8019 -0.0000 -0.0000      0.0000  0.0000  0.0000  0.0000  0.0000  0.0000  0.0000  0.0000  0.0000  0.0000
  o =  0.0822  v =  0.0000  0.0000  0.0000  0.0000  0.0000  0.0000  0.7071 -0.0000 -0.7071 -0.0000      0.0000  0.0000  0.0000  0.0000  0.0000  0.0000  0.0000  0.0000  0.0000  0.0000
  o =  0.0994  v =  0.0000  0.0000  0.0000  0.0000  0.0000 -0.8019  0.0000  0.5974 -0.0000  0.0000      0.0000  0.0000  0.0000  0.0000  0.0000  0.0000  0.0000  0.0000  0.0000  0.0000
  o =  1.0239  v = -0.8018  0.0000  0.5977  0.0000 -0.0000  0.0000  0.0000  0.0000  0.0000  0.0000      0.0000  0.0000  0.0000  0.0000  0.0000  0.0000  0.0000  0.0000  0.0000  0.0000
  o =  1.0333  v =  0.0000 -0.7071 -0.0000  0.7071 -0.0000  0.0000  0.0000  0.0000  0.0000  0.0000      0.0000  0.0000  0.0000  0.0000  0.0000  0.0000  0.0000  0.0000  0.0000  0.0000
  o =  1.0991  v = -0.5977  0.0000 -0.8018  0.0000  0.0000  0.0000  0.0000  0.0000  0.0000  0.0000      0.0000  0.0000  0.0000  0.0000  0.0000  0.0000  0.0000  0.0000  0.0000  0.0000
  o =  1.1004  v =  0.0000 -0.7071 -0.0000 -0.7071 -0.0000  0.0000  0.0000  0.0000  0.0000  0.0000      0.0000  0.0000  0.0000  0.0000  0.0000  0.0000  0.0000  0.0000  0.0000  0.0000
  o =  1.1135  v =  0.0000  0.0000 -0.0000  0.0000 -1.0000  0.0000  0.0000  0.0000  0.0000  0.0000      0.0000  0.0000  0.0000  0.0000  0.0000  0.0000  0.0000  0.0000  0.0000  0.0000
     EDDAV:  cpu time    1.4906: real time    1.4907
 BZINTS: Fermi energy:  7.236977; 54.000000 electrons
         Band energy:-715.801821;  BLOECHL correction: -0.013316
       DOS:  cpu time    0.0066: real time    0.0066
    CHARGE:  cpu time    0.2826: real time    0.2826
    MIXING:  cpu time    0.0010: real time    0.0010
    --------------------------------------------
      LOOP:  cpu time    3.2318: real time    3.2319

 eigenvalue-minimisations  :  1596
 total energy-change (2. order) :-0.4495568E+03  (-0.3149517E+02)
 number of electron      54.0000001 magnetization      -0.0000000
 augmentation part       19.6007527 magnetization      -0.0000000

 Broyden mixing:
  rms(total) = 0.63510E+01    rms(broyden)= 0.63510E+01
  rms(prec ) = 0.68103E+01
  weight for this iteration     100.00

 eigenvalues of (default mixing * dielectric matrix)
  average eigenvalue GAMMA=   0.4164
  0.4164

 Free energy of the ion-electron system (eV)
  ---------------------------------------------------
  alpha Z        PSCENC =       199.08943989
  Ewald energy   TEWEN  =     -4200.94255172
  -Hartree energ DENC   =     -2218.93596415
  -exchange      EXHF   =         0.00000000
  -V(xc)+E(xc)   XCENC  =       145.35210373
  PAW double counting   =      6452.48514740    -6418.73852766
  entropy T*S    EENTRO =         0.00000000
  eigenvalues    EBANDS =      -715.80182109
  atomic energy  EATOM  =      6689.10585665
  Solvation  Ediel_sol  =         0.00000000
  ---------------------------------------------------
  free energy    TOTEN  =       -68.38631694 eV

  energy without entropy =      -68.38631694  energy(sigma->0) =      -68.38631694


--------------------------------------------------------------------------------------------------------




--------------------------------------- Iteration      1(   7)  ---------------------------------------


    POTLOK:  cpu time    0.0563: real time    0.0563
    SETDIJ:  cpu time    1.3766: real time    1.3766
atom =   1  type =  1  l = 2
 
 onsite density matrix
 
spin component  1
 
  0.0890  0.0000  0.0381  0.0000 -0.0000
  0.0000  0.0591  0.0000  0.0255  0.0000
  0.0381  0.0000  0.0633  0.0000 -0.0000
  0.0000  0.0255  0.0000  0.0591  0.0000
 -0.0000  0.0000 -0.0000  0.0000  0.0201
 
spin component  2
 
  0.9738  0.0000 -0.0067  0.0000  0.0000
  0.0000  1.0011  0.0000  0.0093  0.0000
 -0.0067  0.0000  0.9846  0.0000 -0.0000
  0.0000  0.0093  0.0000  1.0011  0.0000
  0.0000  0.0000 -0.0000  0.0000  0.9976
 
 occupancies and eigenvectors
 
  o =  0.0201  v =  0.0000  0.0000 -0.0000 -0.0000 -1.0000  0.0000  0.0000  0.0000  0.0000  0.0000      0.0000  0.0000  0.0000  0.0000  0.0000  0.0000  0.0000  0.0000  0.0000  0.0000
  o =  0.0335  v =  0.0000 -0.7071 -0.0000  0.7071 -0.0000  0.0000  0.0000  0.0000  0.0000  0.0000      0.0000  0.0000  0.0000  0.0000  0.0000  0.0000  0.0000  0.0000  0.0000  0.0000
  o =  0.0359  v = -0.5833 -0.0000  0.8123  0.0000 -0.0000  0.0000  0.0000  0.0000  0.0000  0.0000      0.0000  0.0000  0.0000  0.0000  0.0000  0.0000  0.0000  0.0000  0.0000  0.0000
  o =  0.0846  v =  0.0000  0.7071 -0.0000  0.7071  0.0000  0.0000  0.0000  0.0000  0.0000  0.0000      0.0000  0.0000  0.0000  0.0000  0.0000  0.0000  0.0000  0.0000  0.0000  0.0000
  o =  0.1164  v = -0.8123  0.0000 -0.5833  0.0000  0.0000  0.0000  0.0000  0.0000  0.0000  0.0000      0.0000  0.0000  0.0000  0.0000  0.0000  0.0000  0.0000  0.0000  0.0000  0.0000
  o =  0.9706  v =  0.0000  0.0000  0.0000  0.0000  0.0000  0.9023 -0.0000  0.4312  0.0000  0.0000      0.0000  0.0000  0.0000  0.0000  0.0000  0.0000  0.0000  0.0000  0.0000  0.0000
  o =  0.9878  v =  0.0000  0.0000  0.0000  0.0000  0.0000 -0.4312 -0.0000  0.9023  0.0000  0.0000      0.0000  0.0000  0.0000  0.0000  0.0000  0.0000  0.0000  0.0000  0.0000  0.0000
  o =  0.9917  v =  0.0000  0.0000  0.0000  0.0000  0.0000  0.0000 -0.7071 -0.0000  0.7071 -0.0000      0.0000  0.0000  0.0000  0.0000  0.0000  0.0000  0.0000  0.0000  0.0000  0.0000
  o =  0.9976  v =  0.0000  0.0000  0.0000  0.0000  0.0000 -0.0000  0.0000  0.0000 -0.0000 -1.0000      0.0000  0.0000  0.0000  0.0000  0.0000  0.0000  0.0000  0.0000  0.0000  0.0000
  o =  1.0104  v =  0.0000  0.0000  0.0000  0.0000  0.0000 -0.0000  0.7071  0.0000  0.7071  0.0000      0.0000  0.0000  0.0000  0.0000  0.0000  0.0000  0.0000  0.0000  0.0000  0.0000
atom =   2  type =  1  l = 2
 
 onsite density matrix
 
spin component  1
 
  0.9738  0.0000  0.0067  0.0000  0.0000
  0.0000  1.0011  0.0000 -0.0093  0.0000
  0.0067  0.0000  0.9846  0.0000  0.0000
  0.0000 -0.0093  0.0000  1.0011  0.0000
  0.0000  0.0000  0.0000  0.0000  0.9976
 
spin component  2
 
  0.0890  0.0000 -0.0381  0.0000 -0.0000
  0.0000  0.0591  0.0000 -0.0255  0.0000
 -0.0381  0.0000  0.0633  0.0000  0.0000
  0.0000 -0.0255  0.0000  0.0591  0.0000
 -0.0000  0.0000  0.0000  0.0000  0.0201
 
 occupancies and eigenvectors
 
  o =  0.0201  v =  0.0000  0.0000  0.0000  0.0000  0.0000  0.0000 -0.0000  0.0000  0.0000 -1.0000      0.0000  0.0000  0.0000  0.0000  0.0000  0.0000  0.0000  0.0000  0.0000  0.0000
  o =  0.0335  v =  0.0000  0.0000  0.0000  0.0000  0.0000  0.0000  0.7071  0.0000  0.7071 -0.0000      0.0000  0.0000  0.0000  0.0000  0.0000  0.0000  0.0000  0.0000  0.0000  0.0000
  o =  0.0359  v =  0.0000  0.0000  0.0000  0.0000  0.0000 -0.5833 -0.0000 -0.8123  0.0000 -0.0000      0.0000  0.0000  0.0000  0.0000  0.0000  0.0000  0.0000  0.0000  0.0000  0.0000
  o =  0.0846  v =  0.0000  0.0000  0.0000  0.0000  0.0000  0.0000 -0.7071  0.0000  0.7071  0.0000      0.0000  0.0000  0.0000  0.0000  0.0000  0.0000  0.0000  0.0000  0.0000  0.0000
  o =  0.1164  v =  0.0000  0.0000  0.0000  0.0000  0.0000 -0.8123  0.0000  0.5833  0.0000  0.0000      0.0000  0.0000  0.0000  0.0000  0.0000  0.0000  0.0000  0.0000  0.0000  0.0000
  o =  0.9706  v =  0.9023 -0.0000 -0.4312 -0.0000  0.0000  0.0000  0.0000  0.0000  0.0000  0.0000      0.0000  0.0000  0.0000  0.0000  0.0000  0.0000  0.0000  0.0000  0.0000  0.0000
  o =  0.9878  v = -0.4312 -0.0000 -0.9023 -0.0000  0.0000  0.0000  0.0000  0.0000  0.0000  0.0000      0.0000  0.0000  0.0000  0.0000  0.0000  0.0000  0.0000  0.0000  0.0000  0.0000
  o =  0.9917  v = -0.0000  0.7071 -0.0000  0.7071  0.0000  0.0000  0.0000  0.0000  0.0000  0.0000      0.0000  0.0000  0.0000  0.0000  0.0000  0.0000  0.0000  0.0000  0.0000  0.0000
  o =  0.9976  v =  0.0000  0.0000  0.0000 -0.0000  1.0000  0.0000  0.0000  0.0000  0.0000  0.0000      0.0000  0.0000  0.0000  0.0000  0.0000  0.0000  0.0000  0.0000  0.0000  0.0000
  o =  1.0104  v = -0.0000  0.7071 -0.0000 -0.7071 -0.0000  0.0000  0.0000  0.0000  0.0000  0.0000      0.0000  0.0000  0.0000  0.0000  0.0000  0.0000  0.0000  0.0000  0.0000  0.0000
     EDDAV:  cpu time    1.3669: real time    1.3670
 BZINTS: Fermi energy:  5.125748; 54.000000 electrons
         Band energy:-765.271584;  BLOECHL correction:  0.000000
       DOS:  cpu time    0.0013: real time    0.0013
    CHARGE:  cpu time    0.2625: real time    0.2625
    MIXING:  cpu time    0.0010: real time    0.0010
    --------------------------------------------
      LOOP:  cpu time    3.0647: real time    3.0647

 eigenvalue-minimisations  :  1380
 total energy-change (2. order) :-0.2798603E+01  (-0.5026053E+01)
 number of electron      54.0000001 magnetization      -0.0000000
 augmentation part       19.5782142 magnetization      -0.0000000

 Broyden mixing:
  rms(total) = 0.16925E+01    rms(broyden)= 0.16925E+01
  rms(prec ) = 0.24141E+01
  weight for this iteration     100.00

 eigenvalues of (default mixing * dielectric matrix)
  average eigenvalue GAMMA=   0.7006
  0.7006  0.7006

 Free energy of the ion-electron system (eV)
  ---------------------------------------------------
  alpha Z        PSCENC =       199.08943989
  Ewald energy   TEWEN  =     -4200.94255172
  -Hartree energ DENC   =     -2194.22964191
  -exchange      EXHF   =         0.00000000
  -V(xc)+E(xc)   XCENC  =       167.64978447
  PAW double counting   =      6501.72295840    -6468.30918127
  entropy T*S    EENTRO =         0.00000000
  eigenvalues    EBANDS =      -765.27158416
  atomic energy  EATOM  =      6689.10585665
  Solvation  Ediel_sol  =         0.00000000
  ---------------------------------------------------
  free energy    TOTEN  =       -71.18491966 eV

  energy without entropy =      -71.18491966  energy(sigma->0) =      -71.18491966


--------------------------------------------------------------------------------------------------------




--------------------------------------- Iteration      1(   8)  ---------------------------------------


    POTLOK:  cpu time    0.0568: real time    0.0568
    SETDIJ:  cpu time    0.8094: real time    0.8094
atom =   1  type =  1  l = 2
 
 onsite density matrix
 
spin component  1
 
  0.0493  0.0000  0.0141  0.0000  0.0000
  0.0000  0.0535  0.0000  0.0235  0.0000
  0.0141  0.0000  0.0431  0.0000 -0.0000
  0.0000  0.0235  0.0000  0.0535  0.0000
  0.0000  0.0000 -0.0000  0.0000  0.0252
 
spin component  2
 
  0.9899  0.0000  0.0245  0.0000 -0.0000
  0.0000  0.9787  0.0000  0.0118  0.0000
  0.0245  0.0000  0.9785  0.0000 -0.0000
  0.0000  0.0118  0.0000  0.9787  0.0000
 -0.0000  0.0000 -0.0000  0.0000  0.9655
 
 occupancies and eigenvectors
 
  o =  0.0252  v =  0.0000  0.0000 -0.0000  0.0000 -1.0000  0.0000  0.0000  0.0000  0.0000  0.0000      0.0000  0.0000  0.0000  0.0000  0.0000  0.0000  0.0000  0.0000  0.0000  0.0000
  o =  0.0300  v =  0.0000 -0.7071  0.0000  0.7071 -0.0000  0.0000  0.0000  0.0000  0.0000  0.0000      0.0000  0.0000  0.0000  0.0000  0.0000  0.0000  0.0000  0.0000  0.0000  0.0000
  o =  0.0317  v = -0.6265  0.0000  0.7794  0.0000 -0.0000  0.0000  0.0000  0.0000  0.0000  0.0000      0.0000  0.0000  0.0000  0.0000  0.0000  0.0000  0.0000  0.0000  0.0000  0.0000
  o =  0.0607  v = -0.7794 -0.0000 -0.6265  0.0000  0.0000  0.0000  0.0000  0.0000  0.0000  0.0000      0.0000  0.0000  0.0000  0.0000  0.0000  0.0000  0.0000  0.0000  0.0000  0.0000
  o =  0.0769  v =  0.0000  0.7071  0.0000  0.7071  0.0000  0.0000  0.0000  0.0000  0.0000  0.0000      0.0000  0.0000  0.0000  0.0000  0.0000  0.0000  0.0000  0.0000  0.0000  0.0000
  o =  0.9590  v =  0.0000  0.0000  0.0000  0.0000  0.0000 -0.6221  0.0000  0.7830 -0.0000  0.0000      0.0000  0.0000  0.0000  0.0000  0.0000  0.0000  0.0000  0.0000  0.0000  0.0000
  o =  0.9655  v =  0.0000  0.0000  0.0000  0.0000  0.0000  0.0000 -0.0000 -0.0000  0.0000  1.0000      0.0000  0.0000  0.0000  0.0000  0.0000  0.0000  0.0000  0.0000  0.0000  0.0000
  o =  0.9669  v =  0.0000  0.0000  0.0000  0.0000  0.0000  0.0000  0.7071 -0.0000 -0.7071  0.0000      0.0000  0.0000  0.0000  0.0000  0.0000  0.0000  0.0000  0.0000  0.0000  0.0000
  o =  0.9905  v =  0.0000  0.0000  0.0000  0.0000  0.0000  0.0000  0.7071  0.0000  0.7071  0.0000      0.0000  0.0000  0.0000  0.0000  0.0000  0.0000  0.0000  0.0000  0.0000  0.0000
  o =  1.0093  v =  0.0000  0.0000  0.0000  0.0000  0.0000 -0.7830  0.0000 -0.6221  0.0000  0.0000      0.0000  0.0000  0.0000  0.0000  0.0000  0.0000  0.0000  0.0000  0.0000  0.0000
atom =   2  type =  1  l = 2
 
 onsite density matrix
 
spin component  1
 
  0.9899  0.0000 -0.0245  0.0000 -0.0000
  0.0000  0.9787  0.0000 -0.0118  0.0000
 -0.0245  0.0000  0.9785  0.0000  0.0000
  0.0000 -0.0118  0.0000  0.9787  0.0000
 -0.0000  0.0000  0.0000  0.0000  0.9655
 
spin component  2
 
  0.0493  0.0000 -0.0141  0.0000  0.0000
  0.0000  0.0535  0.0000 -0.0235  0.0000
 -0.0141  0.0000  0.0431  0.0000  0.0000
  0.0000 -0.0235  0.0000  0.0535  0.0000
  0.0000  0.0000  0.0000  0.0000  0.0252
 
 occupancies and eigenvectors
 
  o =  0.0252  v =  0.0000  0.0000  0.0000  0.0000  0.0000  0.0000  0.0000  0.0000  0.0000 -1.0000      0.0000  0.0000  0.0000  0.0000  0.0000  0.0000  0.0000  0.0000  0.0000  0.0000
  o =  0.0300  v =  0.0000  0.0000  0.0000  0.0000  0.0000  0.0000 -0.7071  0.0000 -0.7071 -0.0000      0.0000  0.0000  0.0000  0.0000  0.0000  0.0000  0.0000  0.0000  0.0000  0.0000
  o =  0.0317  v =  0.0000  0.0000  0.0000  0.0000  0.0000 -0.6265  0.0000 -0.7794  0.0000 -0.0000      0.0000  0.0000  0.0000  0.0000  0.0000  0.0000  0.0000  0.0000  0.0000  0.0000
  o =  0.0607  v =  0.0000  0.0000  0.0000  0.0000  0.0000 -0.7794 -0.0000  0.6265  0.0000  0.0000      0.0000  0.0000  0.0000  0.0000  0.0000  0.0000  0.0000  0.0000  0.0000  0.0000
  o =  0.0769  v =  0.0000  0.0000  0.0000  0.0000  0.0000  0.0000 -0.7071  0.0000  0.7071 -0.0000      0.0000  0.0000  0.0000  0.0000  0.0000  0.0000  0.0000  0.0000  0.0000  0.0000
  o =  0.9590  v = -0.6221  0.0000 -0.7830  0.0000  0.0000  0.0000  0.0000  0.0000  0.0000  0.0000      0.0000  0.0000  0.0000  0.0000  0.0000  0.0000  0.0000  0.0000  0.0000  0.0000
  o =  0.9655  v =  0.0000 -0.0000  0.0000 -0.0000  1.0000  0.0000  0.0000  0.0000  0.0000  0.0000      0.0000  0.0000  0.0000  0.0000  0.0000  0.0000  0.0000  0.0000  0.0000  0.0000
  o =  0.9669  v = -0.0000 -0.7071 -0.0000 -0.7071 -0.0000  0.0000  0.0000  0.0000  0.0000  0.0000      0.0000  0.0000  0.0000  0.0000  0.0000  0.0000  0.0000  0.0000  0.0000  0.0000
  o =  0.9905  v = -0.0000 -0.7071  0.0000  0.7071 -0.0000  0.0000  0.0000  0.0000  0.0000  0.0000      0.0000  0.0000  0.0000  0.0000  0.0000  0.0000  0.0000  0.0000  0.0000  0.0000
  o =  1.0093  v = -0.7830  0.0000  0.6221 -0.0000  0.0000  0.0000  0.0000  0.0000  0.0000  0.0000      0.0000  0.0000  0.0000  0.0000  0.0000  0.0000  0.0000  0.0000  0.0000  0.0000
     EDDAV:  cpu time    1.4355: real time    1.4356
 BZINTS: Fermi energy:  3.325144; 54.000000 electrons
         Band energy:-785.928248;  BLOECHL correction:  0.000000
       DOS:  cpu time    0.0013: real time    0.0013
    CHARGE:  cpu time    0.2609: real time    0.2610
    MIXING:  cpu time    0.0011: real time    0.0011
    --------------------------------------------
      LOOP:  cpu time    2.5650: real time    2.5650

 eigenvalue-minimisations  :  1512
 total energy-change (2. order) : 0.2551258E+01  (-0.7341163E+00)
 number of electron      54.0000001 magnetization      -0.0000000
 augmentation part       19.8194342 magnetization      -0.0000000

 Broyden mixing:
  rms(total) = 0.60891E+00    rms(broyden)= 0.60890E+00
  rms(prec ) = 0.89514E+00
  weight for this iteration     100.00

 eigenvalues of (default mixing * dielectric matrix)
  average eigenvalue GAMMA=   0.7370
  0.9122  0.6493  0.6493

 Free energy of the ion-electron system (eV)
  ---------------------------------------------------
  alpha Z        PSCENC =       199.08943989
  Ewald energy   TEWEN  =     -4200.94255172
  -Hartree energ DENC   =     -2175.40406668
  -exchange      EXHF   =         0.00000000
  -V(xc)+E(xc)   XCENC  =       170.23421710
  PAW double counting   =      6423.47112792    -6388.25943687
  entropy T*S    EENTRO =         0.00000000
  eigenvalues    EBANDS =      -785.92824832
  atomic energy  EATOM  =      6689.10585665
  Solvation  Ediel_sol  =         0.00000000
  ---------------------------------------------------
  free energy    TOTEN  =       -68.63366204 eV

  energy without entropy =      -68.63366204  energy(sigma->0) =      -68.63366204


--------------------------------------------------------------------------------------------------------




--------------------------------------- Iteration      1(   9)  ---------------------------------------


    POTLOK:  cpu time    0.0562: real time    0.0563
    SETDIJ:  cpu time    0.7996: real time    0.7996
atom =   1  type =  1  l = 2
 
 onsite density matrix
 
spin component  1
 
  0.0682  0.0000  0.0371  0.0000 -0.0000
  0.0000  0.0473  0.0000  0.0186  0.0000
  0.0371  0.0000  0.0504  0.0000  0.0000
  0.0000  0.0186  0.0000  0.0473  0.0000
 -0.0000  0.0000  0.0000  0.0000  0.0236
 
spin component  2
 
  0.9505  0.0000  0.0072  0.0000  0.0000
  0.0000  0.9599  0.0000  0.0182  0.0000
  0.0072  0.0000  0.9462  0.0000 -0.0000
  0.0000  0.0182  0.0000  0.9599  0.0000
  0.0000  0.0000 -0.0000  0.0000  0.9424
 
 occupancies and eigenvectors
 
  o =  0.0211  v = -0.6190 -0.0000  0.7854  0.0000 -0.0000  0.0000  0.0000  0.0000  0.0000  0.0000      0.0000  0.0000  0.0000  0.0000  0.0000  0.0000  0.0000  0.0000  0.0000  0.0000
  o =  0.0236  v = -0.0000  0.0000  0.0000  0.0000  1.0000  0.0000  0.0000  0.0000  0.0000  0.0000      0.0000  0.0000  0.0000  0.0000  0.0000  0.0000  0.0000  0.0000  0.0000  0.0000
  o =  0.0286  v =  0.0000  0.7071  0.0000 -0.7071 -0.0000  0.0000  0.0000  0.0000  0.0000  0.0000      0.0000  0.0000  0.0000  0.0000  0.0000  0.0000  0.0000  0.0000  0.0000  0.0000
  o =  0.0659  v =  0.0000 -0.7071  0.0000 -0.7071  0.0000  0.0000  0.0000  0.0000  0.0000  0.0000      0.0000  0.0000  0.0000  0.0000  0.0000  0.0000  0.0000  0.0000  0.0000  0.0000
  o =  0.0975  v = -0.7854 -0.0000 -0.6190  0.0000 -0.0000  0.0000  0.0000  0.0000  0.0000  0.0000      0.0000  0.0000  0.0000  0.0000  0.0000  0.0000  0.0000  0.0000  0.0000  0.0000
  o =  0.9408  v =  0.0000  0.0000  0.0000  0.0000  0.0000 -0.5967  0.0000  0.8025  0.0000  0.0000      0.0000  0.0000  0.0000  0.0000  0.0000  0.0000  0.0000  0.0000  0.0000  0.0000
  o =  0.9417  v =  0.0000  0.0000  0.0000  0.0000  0.0000  0.0000 -0.7071 -0.0000  0.7071  0.0000      0.0000  0.0000  0.0000  0.0000  0.0000  0.0000  0.0000  0.0000  0.0000  0.0000
  o =  0.9424  v =  0.0000  0.0000  0.0000  0.0000  0.0000  0.0000 -0.0000  0.0000  0.0000 -1.0000      0.0000  0.0000  0.0000  0.0000  0.0000  0.0000  0.0000  0.0000  0.0000  0.0000
  o =  0.9559  v =  0.0000  0.0000  0.0000  0.0000  0.0000 -0.8025  0.0000 -0.5967  0.0000 -0.0000      0.0000  0.0000  0.0000  0.0000  0.0000  0.0000  0.0000  0.0000  0.0000  0.0000
  o =  0.9782  v =  0.0000  0.0000  0.0000  0.0000  0.0000  0.0000  0.7071 -0.0000  0.7071  0.0000      0.0000  0.0000  0.0000  0.0000  0.0000  0.0000  0.0000  0.0000  0.0000  0.0000
atom =   2  type =  1  l = 2
 
 onsite density matrix
 
spin component  1
 
  0.9505  0.0000 -0.0072  0.0000 -0.0000
  0.0000  0.9599  0.0000 -0.0182  0.0000
 -0.0072  0.0000  0.9462  0.0000 -0.0000
  0.0000 -0.0182  0.0000  0.9599  0.0000
 -0.0000  0.0000 -0.0000  0.0000  0.9424
 
spin component  2
 
  0.0682  0.0000 -0.0371  0.0000  0.0000
  0.0000  0.0473  0.0000 -0.0186  0.0000
 -0.0371  0.0000  0.0504  0.0000  0.0000
  0.0000 -0.0186  0.0000  0.0473  0.0000
  0.0000  0.0000  0.0000  0.0000  0.0236
 
 occupancies and eigenvectors
 
  o =  0.0211  v =  0.0000  0.0000  0.0000  0.0000  0.0000 -0.6190 -0.0000 -0.7854  0.0000  0.0000      0.0000  0.0000  0.0000  0.0000  0.0000  0.0000  0.0000  0.0000  0.0000  0.0000
  o =  0.0236  v =  0.0000  0.0000  0.0000  0.0000  0.0000 -0.0000  0.0000 -0.0000  0.0000 -1.0000      0.0000  0.0000  0.0000  0.0000  0.0000  0.0000  0.0000  0.0000  0.0000  0.0000
  o =  0.0286  v =  0.0000  0.0000  0.0000  0.0000  0.0000  0.0000 -0.7071  0.0000 -0.7071 -0.0000      0.0000  0.0000  0.0000  0.0000  0.0000  0.0000  0.0000  0.0000  0.0000  0.0000
  o =  0.0659  v =  0.0000  0.0000  0.0000  0.0000  0.0000  0.0000 -0.7071  0.0000  0.7071 -0.0000      0.0000  0.0000  0.0000  0.0000  0.0000  0.0000  0.0000  0.0000  0.0000  0.0000
  o =  0.0975  v =  0.0000  0.0000  0.0000  0.0000  0.0000 -0.7854 -0.0000  0.6190  0.0000  0.0000      0.0000  0.0000  0.0000  0.0000  0.0000  0.0000  0.0000  0.0000  0.0000  0.0000
  o =  0.9408  v = -0.5967  0.0000 -0.8025  0.0000 -0.0000  0.0000  0.0000  0.0000  0.0000  0.0000      0.0000  0.0000  0.0000  0.0000  0.0000  0.0000  0.0000  0.0000  0.0000  0.0000
  o =  0.9417  v =  0.0000  0.7071  0.0000  0.7071 -0.0000  0.0000  0.0000  0.0000  0.0000  0.0000      0.0000  0.0000  0.0000  0.0000  0.0000  0.0000  0.0000  0.0000  0.0000  0.0000
  o =  0.9424  v =  0.0000  0.0000 -0.0000  0.0000  1.0000  0.0000  0.0000  0.0000  0.0000  0.0000      0.0000  0.0000  0.0000  0.0000  0.0000  0.0000  0.0000  0.0000  0.0000  0.0000
  o =  0.9559  v = -0.8025  0.0000  0.5967  0.0000  0.0000  0.0000  0.0000  0.0000  0.0000  0.0000      0.0000  0.0000  0.0000  0.0000  0.0000  0.0000  0.0000  0.0000  0.0000  0.0000
  o =  0.9782  v =  0.0000  0.7071  0.0000 -0.7071 -0.0000  0.0000  0.0000  0.0000  0.0000  0.0000      0.0000  0.0000  0.0000  0.0000  0.0000  0.0000  0.0000  0.0000  0.0000  0.0000
     EDDAV:  cpu time    1.3576: real time    1.3576
 BZINTS: Fermi energy:  2.185782; 54.000000 electrons
         Band energy:-799.781897;  BLOECHL correction:  0.000000
       DOS:  cpu time    0.0013: real time    0.0013
    CHARGE:  cpu time    0.2638: real time    0.2638
    MIXING:  cpu time    0.0011: real time    0.0011
    --------------------------------------------
      LOOP:  cpu time    2.4797: real time    2.4798

 eigenvalue-minimisations  :  1392
 total energy-change (2. order) : 0.4694192E+00  (-0.3628574E+00)
 number of electron      54.0000001 magnetization       0.0000000
 augmentation part       20.0100089 magnetization       0.0000000

 Broyden mixing:
  rms(total) = 0.77473E+00    rms(broyden)= 0.77473E+00
  rms(prec ) = 0.81903E+00
  weight for this iteration     100.00

 eigenvalues of (default mixing * dielectric matrix)
  average eigenvalue GAMMA=   0.9784
  1.8273  0.7545  0.7545  0.5771

 Free energy of the ion-electron system (eV)
  ---------------------------------------------------
  alpha Z        PSCENC =       199.08943989
  Ewald energy   TEWEN  =     -4200.94255172
  -Hartree energ DENC   =     -2160.10285572
  -exchange      EXHF   =         0.00000000
  -V(xc)+E(xc)   XCENC  =       168.30611480
  PAW double counting   =      6442.00693213    -6405.84528180
  entropy T*S    EENTRO =         0.00000000
  eigenvalues    EBANDS =      -799.78189707
  atomic energy  EATOM  =      6689.10585665
  Solvation  Ediel_sol  =         0.00000000
  ---------------------------------------------------
  free energy    TOTEN  =       -68.16424284 eV

  energy without entropy =      -68.16424284  energy(sigma->0) =      -68.16424284


--------------------------------------------------------------------------------------------------------




--------------------------------------- Iteration      1(  10)  ---------------------------------------


    POTLOK:  cpu time    0.0560: real time    0.0561
    SETDIJ:  cpu time    0.7979: real time    0.7979
atom =   1  type =  1  l = 2
 
 onsite density matrix
 
spin component  1
 
  0.0436  0.0000  0.0132  0.0000 -0.0000
  0.0000  0.0500  0.0000  0.0221  0.0000
  0.0132  0.0000  0.0370  0.0000 -0.0000
  0.0000  0.0221  0.0000  0.0500  0.0000
 -0.0000  0.0000 -0.0000  0.0000  0.0277
 
spin component  2
 
  0.9697  0.0000  0.0330  0.0000  0.0000
  0.0000  0.9516  0.0000  0.0165  0.0000
  0.0330  0.0000  0.9530  0.0000  0.0000
  0.0000  0.0165  0.0000  0.9516  0.0000
  0.0000  0.0000  0.0000  0.0000  0.9319
 
 occupancies and eigenvectors
 
  o =  0.0267  v = -0.6146  0.0000  0.7888  0.0000  0.0000  0.0000  0.0000  0.0000  0.0000  0.0000      0.0000  0.0000  0.0000  0.0000  0.0000  0.0000  0.0000  0.0000  0.0000  0.0000
  o =  0.0277  v = -0.0000 -0.0000  0.0000  0.0000 -1.0000  0.0000  0.0000  0.0000  0.0000  0.0000      0.0000  0.0000  0.0000  0.0000  0.0000  0.0000  0.0000  0.0000  0.0000  0.0000
  o =  0.0280  v =  0.0000  0.7071  0.0000 -0.7071 -0.0000  0.0000  0.0000  0.0000  0.0000  0.0000      0.0000  0.0000  0.0000  0.0000  0.0000  0.0000  0.0000  0.0000  0.0000  0.0000
  o =  0.0539  v = -0.7888  0.0000 -0.6146  0.0000  0.0000  0.0000  0.0000  0.0000  0.0000  0.0000      0.0000  0.0000  0.0000  0.0000  0.0000  0.0000  0.0000  0.0000  0.0000  0.0000
  o =  0.0721  v =  0.0000  0.7071  0.0000  0.7071 -0.0000  0.0000  0.0000  0.0000  0.0000  0.0000      0.0000  0.0000  0.0000  0.0000  0.0000  0.0000  0.0000  0.0000  0.0000  0.0000
  o =  0.9273  v =  0.0000  0.0000  0.0000  0.0000  0.0000 -0.6142  0.0000  0.7891  0.0000  0.0000      0.0000  0.0000  0.0000  0.0000  0.0000  0.0000  0.0000  0.0000  0.0000  0.0000
  o =  0.9319  v =  0.0000  0.0000  0.0000  0.0000  0.0000  0.0000 -0.0000 -0.0000  0.0000  1.0000      0.0000  0.0000  0.0000  0.0000  0.0000  0.0000  0.0000  0.0000  0.0000  0.0000
  o =  0.9351  v =  0.0000  0.0000  0.0000  0.0000  0.0000  0.0000  0.7071 -0.0000 -0.7071  0.0000      0.0000  0.0000  0.0000  0.0000  0.0000  0.0000  0.0000  0.0000  0.0000  0.0000
  o =  0.9681  v =  0.0000  0.0000  0.0000  0.0000  0.0000  0.0000  0.7071 -0.0000  0.7071  0.0000      0.0000  0.0000  0.0000  0.0000  0.0000  0.0000  0.0000  0.0000  0.0000  0.0000
  o =  0.9953  v =  0.0000  0.0000  0.0000  0.0000  0.0000 -0.7891  0.0000 -0.6142  0.0000 -0.0000      0.0000  0.0000  0.0000  0.0000  0.0000  0.0000  0.0000  0.0000  0.0000  0.0000
atom =   2  type =  1  l = 2
 
 onsite density matrix
 
spin component  1
 
  0.9697  0.0000 -0.0330  0.0000  0.0000
  0.0000  0.9516  0.0000 -0.0165  0.0000
 -0.0330  0.0000  0.9530  0.0000  0.0000
  0.0000 -0.0165  0.0000  0.9516  0.0000
  0.0000  0.0000  0.0000  0.0000  0.9319
 
spin component  2
 
  0.0436  0.0000 -0.0132  0.0000 -0.0000
  0.0000  0.0500  0.0000 -0.0221  0.0000
 -0.0132  0.0000  0.0370  0.0000  0.0000
  0.0000 -0.0221  0.0000  0.0500  0.0000
 -0.0000  0.0000  0.0000  0.0000  0.0277
 
 occupancies and eigenvectors
 
  o =  0.0267  v =  0.0000  0.0000  0.0000  0.0000  0.0000 -0.6146  0.0000 -0.7888  0.0000  0.0000      0.0000  0.0000  0.0000  0.0000  0.0000  0.0000  0.0000  0.0000  0.0000  0.0000
  o =  0.0277  v =  0.0000  0.0000  0.0000  0.0000  0.0000 -0.0000  0.0000 -0.0000  0.0000 -1.0000      0.0000  0.0000  0.0000  0.0000  0.0000  0.0000  0.0000  0.0000  0.0000  0.0000
  o =  0.0280  v =  0.0000  0.0000  0.0000  0.0000  0.0000 -0.0000 -0.7071 -0.0000 -0.7071 -0.0000      0.0000  0.0000  0.0000  0.0000  0.0000  0.0000  0.0000  0.0000  0.0000  0.0000
  o =  0.0539  v =  0.0000  0.0000  0.0000  0.0000  0.0000 -0.7888 -0.0000  0.6146  0.0000  0.0000      0.0000  0.0000  0.0000  0.0000  0.0000  0.0000  0.0000  0.0000  0.0000  0.0000
  o =  0.0721  v =  0.0000  0.0000  0.0000  0.0000  0.0000  0.0000 -0.7071 -0.0000  0.7071 -0.0000      0.0000  0.0000  0.0000  0.0000  0.0000  0.0000  0.0000  0.0000  0.0000  0.0000
  o =  0.9273  v = -0.6142  0.0000 -0.7891  0.0000  0.0000  0.0000  0.0000  0.0000  0.0000  0.0000      0.0000  0.0000  0.0000  0.0000  0.0000  0.0000  0.0000  0.0000  0.0000  0.0000
  o =  0.9319  v =  0.0000  0.0000 -0.0000  0.0000 -1.0000  0.0000  0.0000  0.0000  0.0000  0.0000      0.0000  0.0000  0.0000  0.0000  0.0000  0.0000  0.0000  0.0000  0.0000  0.0000
  o =  0.9351  v =  0.0000  0.7071  0.0000  0.7071  0.0000  0.0000  0.0000  0.0000  0.0000  0.0000      0.0000  0.0000  0.0000  0.0000  0.0000  0.0000  0.0000  0.0000  0.0000  0.0000
  o =  0.9681  v =  0.0000  0.7071  0.0000 -0.7071  0.0000  0.0000  0.0000  0.0000  0.0000  0.0000      0.0000  0.0000  0.0000  0.0000  0.0000  0.0000  0.0000  0.0000  0.0000  0.0000
  o =  0.9953  v = -0.7891  0.0000  0.6142  0.0000 -0.0000  0.0000  0.0000  0.0000  0.0000  0.0000      0.0000  0.0000  0.0000  0.0000  0.0000  0.0000  0.0000  0.0000  0.0000  0.0000
     EDDAV:  cpu time    1.3970: real time    1.3970
 BZINTS: Fermi energy:  1.978921; 54.000000 electrons
         Band energy:-801.723439;  BLOECHL correction:  0.000000
       DOS:  cpu time    0.0011: real time    0.0011
    CHARGE:  cpu time    0.2635: real time    0.2635
    MIXING:  cpu time    0.0012: real time    0.0012
    --------------------------------------------
      LOOP:  cpu time    2.5168: real time    2.5168

 eigenvalue-minimisations  :  1452
 total energy-change (2. order) : 0.3598738E-01  (-0.3212906E-01)
 number of electron      54.0000001 magnetization      -0.0000000
 augmentation part       20.0243905 magnetization      -0.0000000

 Broyden mixing:
  rms(total) = 0.53931E+00    rms(broyden)= 0.53931E+00
  rms(prec ) = 0.59036E+00
  weight for this iteration     100.00

 eigenvalues of (default mixing * dielectric matrix)
  average eigenvalue GAMMA=   1.2231
  2.9437  0.9750  0.9750  0.6108  0.6108

 Free energy of the ion-electron system (eV)
  ---------------------------------------------------
  alpha Z        PSCENC =       199.08943989
  Ewald energy   TEWEN  =     -4200.94255172
  -Hartree energ DENC   =     -2154.68568046
  -exchange      EXHF   =         0.00000000
  -V(xc)+E(xc)   XCENC  =       166.11201455
  PAW double counting   =      6515.51361659    -6480.59751196
  entropy T*S    EENTRO =         0.00000000
  eigenvalues    EBANDS =      -801.72343901
  atomic energy  EATOM  =      6689.10585665
  Solvation  Ediel_sol  =         0.00000000
  ---------------------------------------------------
  free energy    TOTEN  =       -68.12825547 eV

  energy without entropy =      -68.12825547  energy(sigma->0) =      -68.12825547


--------------------------------------------------------------------------------------------------------




--------------------------------------- Iteration      1(  11)  ---------------------------------------


    POTLOK:  cpu time    0.0560: real time    0.0560
    SETDIJ:  cpu time    0.7970: real time    0.7970
atom =   1  type =  1  l = 2
 
 onsite density matrix
 
spin component  1
 
  0.0518  0.0000  0.0307  0.0000  0.0000
  0.0000  0.0434  0.0000  0.0253  0.0000
  0.0307  0.0000  0.0369  0.0000 -0.0000
  0.0000  0.0253  0.0000  0.0434  0.0000
  0.0000  0.0000 -0.0000  0.0000  0.0145
 
spin component  2
 
  0.9618  0.0000  0.0179  0.0000 -0.0000
  0.0000  0.9582  0.0000  0.0163  0.0000
  0.0179  0.0000  0.9511  0.0000  0.0000
  0.0000  0.0163  0.0000  0.9582  0.0000
 -0.0000  0.0000  0.0000  0.0000  0.9429
 
 occupancies and eigenvectors
 
  o =  0.0128  v = -0.6182  0.0000  0.7860 -0.0000  0.0000  0.0000  0.0000  0.0000  0.0000  0.0000      0.0000  0.0000  0.0000  0.0000  0.0000  0.0000  0.0000  0.0000  0.0000  0.0000
  o =  0.0145  v =  0.0000  0.0000 -0.0000 -0.0000  1.0000  0.0000  0.0000  0.0000  0.0000  0.0000      0.0000  0.0000  0.0000  0.0000  0.0000  0.0000  0.0000  0.0000  0.0000  0.0000
  o =  0.0181  v = -0.0000 -0.7071  0.0000  0.7071  0.0000  0.0000  0.0000  0.0000  0.0000  0.0000      0.0000  0.0000  0.0000  0.0000  0.0000  0.0000  0.0000  0.0000  0.0000  0.0000
  o =  0.0686  v =  0.0000  0.7071  0.0000  0.7071 -0.0000  0.0000  0.0000  0.0000  0.0000  0.0000      0.0000  0.0000  0.0000  0.0000  0.0000  0.0000  0.0000  0.0000  0.0000  0.0000
  o =  0.0759  v = -0.7860  0.0000 -0.6182  0.0000  0.0000  0.0000  0.0000  0.0000  0.0000  0.0000      0.0000  0.0000  0.0000  0.0000  0.0000  0.0000  0.0000  0.0000  0.0000  0.0000
  o =  0.9378  v =  0.0000  0.0000  0.0000  0.0000  0.0000 -0.5972  0.0000  0.8021 -0.0000 -0.0000      0.0000  0.0000  0.0000  0.0000  0.0000  0.0000  0.0000  0.0000  0.0000  0.0000
  o =  0.9419  v =  0.0000  0.0000  0.0000  0.0000  0.0000 -0.0000 -0.7071  0.0000  0.7071 -0.0000      0.0000  0.0000  0.0000  0.0000  0.0000  0.0000  0.0000  0.0000  0.0000  0.0000
  o =  0.9429  v =  0.0000  0.0000  0.0000  0.0000  0.0000 -0.0000 -0.0000  0.0000  0.0000  1.0000      0.0000  0.0000  0.0000  0.0000  0.0000  0.0000  0.0000  0.0000  0.0000  0.0000
  o =  0.9745  v =  0.0000  0.0000  0.0000  0.0000  0.0000 -0.0000 -0.7071 -0.0000 -0.7071 -0.0000      0.0000  0.0000  0.0000  0.0000  0.0000  0.0000  0.0000  0.0000  0.0000  0.0000
  o =  0.9751  v =  0.0000  0.0000  0.0000  0.0000  0.0000 -0.8021  0.0000 -0.5972  0.0000 -0.0000      0.0000  0.0000  0.0000  0.0000  0.0000  0.0000  0.0000  0.0000  0.0000  0.0000
atom =   2  type =  1  l = 2
 
 onsite density matrix
 
spin component  1
 
  0.9618  0.0000 -0.0179  0.0000 -0.0000
  0.0000  0.9582  0.0000 -0.0163  0.0000
 -0.0179  0.0000  0.9511  0.0000 -0.0000
  0.0000 -0.0163  0.0000  0.9582  0.0000
 -0.0000  0.0000 -0.0000  0.0000  0.9429
 
spin component  2
 
  0.0518  0.0000 -0.0307  0.0000  0.0000
  0.0000  0.0434  0.0000 -0.0253  0.0000
 -0.0307  0.0000  0.0369  0.0000 -0.0000
  0.0000 -0.0253  0.0000  0.0434  0.0000
  0.0000  0.0000 -0.0000  0.0000  0.0145
 
 occupancies and eigenvectors
 
  o =  0.0128  v =  0.0000  0.0000  0.0000  0.0000  0.0000 -0.6182  0.0000 -0.7860  0.0000  0.0000      0.0000  0.0000  0.0000  0.0000  0.0000  0.0000  0.0000  0.0000  0.0000  0.0000
  o =  0.0145  v =  0.0000  0.0000  0.0000  0.0000  0.0000  0.0000  0.0000 -0.0000  0.0000 -1.0000      0.0000  0.0000  0.0000  0.0000  0.0000  0.0000  0.0000  0.0000  0.0000  0.0000
  o =  0.0181  v =  0.0000  0.0000  0.0000  0.0000  0.0000  0.0000  0.7071  0.0000  0.7071  0.0000      0.0000  0.0000  0.0000  0.0000  0.0000  0.0000  0.0000  0.0000  0.0000  0.0000
  o =  0.0686  v =  0.0000  0.0000  0.0000  0.0000  0.0000  0.0000  0.7071  0.0000 -0.7071  0.0000      0.0000  0.0000  0.0000  0.0000  0.0000  0.0000  0.0000  0.0000  0.0000  0.0000
  o =  0.0759  v =  0.0000  0.0000  0.0000  0.0000  0.0000 -0.7860  0.0000  0.6182  0.0000 -0.0000      0.0000  0.0000  0.0000  0.0000  0.0000  0.0000  0.0000  0.0000  0.0000  0.0000
  o =  0.9378  v = -0.5972  0.0000 -0.8021  0.0000 -0.0000  0.0000  0.0000  0.0000  0.0000  0.0000      0.0000  0.0000  0.0000  0.0000  0.0000  0.0000  0.0000  0.0000  0.0000  0.0000
  o =  0.9419  v =  0.0000  0.7071  0.0000  0.7071 -0.0000  0.0000  0.0000  0.0000  0.0000  0.0000      0.0000  0.0000  0.0000  0.0000  0.0000  0.0000  0.0000  0.0000  0.0000  0.0000
  o =  0.9429  v =  0.0000  0.0000 -0.0000  0.0000  1.0000  0.0000  0.0000  0.0000  0.0000  0.0000      0.0000  0.0000  0.0000  0.0000  0.0000  0.0000  0.0000  0.0000  0.0000  0.0000
[...]
     33       8.9486      0.00000
     34      10.3828      0.00000
     35      10.6396      0.00000
     36      11.9501      0.00000

 k-point     7 :       0.1250    0.1250    0.4167
  band No.  band energies     occupation 
      1     -49.2667      1.00000
      2     -49.2262      1.00000
      3     -49.2061      1.00000
      4     -42.7565      1.00000
      5     -42.7126      1.00000
      6     -42.6828      1.00000
      7     -22.6861      1.00000
      8     -22.5525      1.00000
      9     -22.5127      1.00000
     10     -22.4313      1.00000
     11      -4.4739      1.00000
     12      -4.2246      1.00000
     13      -4.0376      1.00000
     14      -3.8562      1.00000
     15      -3.6956      1.00000
     16      -3.5030      1.00000
     17      -3.1227      1.00000
     18      -2.9449      1.00000
     19      -2.8100      1.00000
     20      -2.4056      1.00000
     21      -2.3169      1.00000
     22      -2.2579      1.00000
     23       0.7659      1.00000
     24       0.8094      1.00000
     25       1.0526      1.00000
     26       1.6766      1.00000
     27       2.0244      1.00000
     28       6.3741      0.00000
     29       6.4026      0.00000
     30       6.5065      0.00000
     31       7.3543      0.00000
     32       7.6452      0.00000
     33       8.9529      0.00000
     34      11.2454      0.00000
     35      12.7088      0.00000
     36      13.0738      0.00000

 k-point     8 :       0.3750    0.1250    0.4167
  band No.  band energies     occupation 
      1     -49.2667      1.00000
      2     -49.2262      1.00000
      3     -49.2062      1.00000
      4     -42.7566      1.00000
      5     -42.7126      1.00000
      6     -42.6828      1.00000
      7     -22.6298      1.00000
      8     -22.5734      1.00000
      9     -22.5238      1.00000
     10     -22.4552      1.00000
     11      -4.5131      1.00000
     12      -4.2572      1.00000
     13      -4.1746      1.00000
     14      -3.9970      1.00000
     15      -3.6288      1.00000
     16      -3.3925      1.00000
     17      -3.2197      1.00000
     18      -3.1148      1.00000
     19      -2.5464      1.00000
     20      -2.3873      1.00000
     21      -2.2085      1.00000
     22      -2.1064      1.00000
     23       0.7533      1.00000
     24       0.7820      1.00000
     25       0.9921      1.00000
     26       1.6336      1.00000
     27       2.1528      1.00000
     28       6.3623      0.00000
     29       6.3957      0.00000
     30       6.5623      0.00000
     31       7.3090      0.00000
     32       7.8259      0.00000
     33       9.5776      0.00000
     34      11.1060      0.00000
     35      11.6224      0.00000
     36      12.9327      0.00000

 k-point     9 :       0.3750    0.3750    0.4167
  band No.  band energies     occupation 
      1     -49.2667      1.00000
      2     -49.2262      1.00000
      3     -49.2062      1.00000
      4     -42.7566      1.00000
      5     -42.7126      1.00000
      6     -42.6828      1.00000
      7     -22.6229      1.00000
      8     -22.5823      1.00000
      9     -22.5244      1.00000
     10     -22.4497      1.00000
     11      -4.7481      1.00000
     12      -4.5386      1.00000
     13      -4.1690      1.00000
     14      -4.1076      1.00000
     15      -3.6028      1.00000
     16      -3.3268      1.00000
     17      -3.1557      1.00000
     18      -2.9252      1.00000
     19      -2.3366      1.00000
     20      -2.2425      1.00000
     21      -2.1314      1.00000
     22      -2.0547      1.00000
     23       0.7511      1.00000
     24       0.7745      1.00000
     25       0.9778      1.00000
     26       1.6677      1.00000
     27       2.1284      1.00000
     28       6.3690      0.00000
     29       6.3932      0.00000
     30       6.5801      0.00000
     31       7.2853      0.00000
     32       7.7300      0.00000
     33      10.0701      0.00000
     34      11.6634      0.00000
     35      11.6875      0.00000
     36      11.9244      0.00000


--------------------------------------------------------------------------------------------------------


 soft charge-density along one line, spin component           1
         0         1         2         3         4         5         6         7         8         9
 total charge-density along one line
 
 soft charge-density along one line, spin component           2
         0         1         2         3         4         5         6         7         8         9
 total charge-density along one line
 
 pseudopotential strength for first ion, spin component:           1
-45.240  -0.000  -0.038   7.804   0.000   0.016  -0.000   0.000
 -0.000 -45.207  -0.000   0.000   7.790   0.000  -0.000   0.000
 -0.038  -0.000 -45.240   0.016   0.000   7.804   0.000  -0.000
  7.804   0.000   0.016   5.589  -0.000   0.005  -0.000  -0.000
  0.000   7.790   0.000  -0.000   5.583  -0.000   0.000   0.000
  0.016   0.000   7.804   0.005  -0.000   5.589   0.000   0.000
 -0.000  -0.000   0.000  -0.000   0.000   0.000  -2.996  -0.000
  0.000   0.000  -0.000  -0.000   0.000   0.000  -0.000  -2.978
 -0.000   0.000   0.000   0.000  -0.000   0.000   0.020  -0.000
 -0.000   0.000   0.000   0.000   0.000  -0.000  -0.000  -0.018
  0.000  -0.000  -0.000  -0.000   0.000  -0.000  -0.000   0.000
 -0.000  -0.000   0.000  -0.000   0.000  -0.000  -3.511  -0.000
  0.000   0.000  -0.000  -0.000   0.000   0.000  -0.000  -3.493
 -0.000   0.000   0.000   0.000  -0.000   0.000   0.018  -0.000
 -0.000   0.000   0.000   0.000   0.000  -0.000  -0.000  -0.018
  0.000  -0.000  -0.000  -0.000   0.000  -0.000  -0.000   0.000
  0.000  -0.000   0.000   0.000  -0.000  -0.000   0.011   0.000
  0.000  -0.000   0.000   0.000  -0.000  -0.000   0.022   0.000
 pseudopotential strength for first ion, spin component:           2
-50.994  -0.000  -0.005   9.804   0.000   0.016   0.000   0.000
 -0.000 -50.995  -0.000   0.000   9.789   0.000  -0.000   0.000
 -0.005  -0.000 -50.994   0.016   0.000   9.804  -0.000  -0.000
  9.804   0.000   0.016   4.705  -0.000   0.001  -0.000  -0.000
  0.000   9.789   0.000  -0.000   4.704  -0.000   0.000  -0.000
  0.016   0.000   9.804   0.001  -0.000   4.705  -0.000   0.000
  0.000  -0.000  -0.000  -0.000   0.000  -0.000  -7.349  -0.000
  0.000   0.000  -0.000  -0.000  -0.000   0.000  -0.000  -7.339
  0.000   0.000  -0.000  -0.000  -0.000   0.000  -0.008  -0.000
 -0.000  -0.000   0.000   0.000   0.000  -0.000  -0.000  -0.027
 -0.000  -0.000   0.000  -0.000   0.000  -0.000   0.000   0.000
  0.000  -0.000  -0.000  -0.000   0.000  -0.000  -7.819  -0.000
  0.000   0.000  -0.000  -0.000  -0.000   0.000  -0.000  -7.810
  0.000   0.000  -0.000  -0.000  -0.000   0.000  -0.008  -0.000
 -0.000  -0.000   0.000   0.000   0.000  -0.000  -0.000  -0.027
 -0.000  -0.000   0.000  -0.000   0.000  -0.000   0.000   0.000
  0.000  -0.000  -0.000  -0.000  -0.000   0.000   0.011   0.000
  0.000  -0.000  -0.000  -0.000  -0.000   0.000   0.023   0.000
 total augmentation occupancy for first ion, spin component:           1
  2.001   0.000   0.000  -0.013   0.000   0.001   0.000   0.000   0.000   0.000   0.000   0.000   0.000   0.000   0.000   0.000
  0.000   2.001   0.000   0.000  -0.013   0.000   0.000   0.000   0.000   0.000   0.000   0.000   0.000   0.000   0.000   0.000
  0.000   0.000   2.001   0.001   0.000  -0.013   0.000   0.000   0.000   0.000   0.000   0.000   0.000   0.000   0.000   0.000
 -0.013   0.000   0.001   0.080   0.000  -0.009   0.000   0.000   0.000   0.000   0.000   0.000   0.000   0.000   0.000   0.000
  0.000  -0.013   0.000   0.000   0.090   0.000   0.000   0.000   0.000   0.000   0.000   0.000   0.000   0.000   0.000   0.000
  0.001   0.000  -0.013  -0.009   0.000   0.080   0.000   0.000   0.000   0.000   0.000   0.000   0.000   0.000   0.000   0.000
  0.000   0.000   0.000   0.000   0.000   0.000   7.736   0.000   2.982   0.000  -0.000  -5.763   0.000  -2.805   0.000  -0.000
  0.000   0.000   0.000   0.000   0.000   0.000   0.000   6.551   0.000   2.524   0.000   0.000  -4.623   0.000  -2.371   0.000
  0.000   0.000   0.000   0.000   0.000   0.000   2.982   0.000   5.943   0.000  -0.000  -2.806   0.000  -4.083   0.000  -0.000
  0.000   0.000   0.000   0.000   0.000   0.000   0.000   2.524   0.000   6.551   0.000   0.000  -2.371   0.000  -4.623   0.000
  0.000   0.000   0.000   0.000   0.000   0.000   0.000   0.000   0.000   0.000   3.891   0.000   0.000   0.000   0.000  -2.109
  0.000   0.000   0.000   0.000   0.000   0.000  -5.763   0.000  -2.806   0.000   0.000   4.964   0.000   2.672   0.000   0.000
  0.000   0.000   0.000   0.000   0.000   0.000   0.000  -4.623   0.000  -2.371   0.000   0.000   3.858   0.000   2.255   0.000
  0.000   0.000   0.000   0.000   0.000   0.000  -2.805   0.000  -4.083   0.000   0.000   2.672   0.000   3.372   0.000   0.000
  0.000   0.000   0.000   0.000   0.000   0.000   0.000  -2.371   0.000  -4.623   0.000   0.000   2.255   0.000   3.858   0.000
  0.000   0.000   0.000   0.000   0.000   0.000   0.000   0.000  -0.000   0.000  -2.109   0.000   0.000   0.000   0.000   1.452
  0.000   0.000   0.000   0.000   0.000   0.000   0.437   0.000  -0.297   0.000   0.000  -0.415   0.000   0.276   0.000   0.000
  0.000   0.000   0.000   0.000   0.000   0.000  -0.091   0.000   0.068   0.000  -0.000   0.096   0.000  -0.068   0.000  -0.000
 total augmentation occupancy for first ion, spin component:           2
  0.004   0.000  -0.000   0.017   0.000  -0.001   0.000   0.000   0.000   0.000   0.000   0.000   0.000   0.000   0.000   0.000
  0.000   0.004   0.000   0.000   0.018   0.000   0.000   0.000   0.000   0.000   0.000   0.000   0.000   0.000   0.000   0.000
 -0.000   0.000   0.004  -0.001   0.000   0.017   0.000   0.000   0.000   0.000   0.000   0.000   0.000   0.000   0.000   0.000
  0.017   0.000  -0.001  -0.011   0.000  -0.000   0.000   0.000   0.000   0.000   0.000   0.000   0.000   0.000   0.000   0.000
  0.000   0.018   0.000   0.000  -0.010   0.000   0.000   0.000   0.000   0.000   0.000   0.000   0.000   0.000   0.000   0.000
 -0.001   0.000   0.017  -0.000   0.000  -0.011   0.000   0.000   0.000   0.000   0.000   0.000   0.000   0.000   0.000   0.000
  0.000   0.000   0.000   0.000   0.000   0.000  -5.092   0.000  -1.486   0.000   0.000   2.719   0.000   1.091   0.000  -0.000
  0.000   0.000   0.000   0.000   0.000   0.000   0.000  -4.543   0.000  -1.268   0.000   0.000   2.295   0.000   0.932   0.000
  0.000   0.000   0.000   0.000   0.000   0.000  -1.486   0.000  -4.144   0.000  -0.000   1.091   0.000   2.008   0.000   0.000
  0.000   0.000   0.000   0.000   0.000   0.000   0.000  -1.268   0.000  -4.543   0.000   0.000   0.932   0.000   2.295   0.000
  0.000   0.000   0.000   0.000   0.000   0.000   0.000   0.000   0.000   0.000  -3.256  -0.000   0.000   0.000   0.000   1.356
  0.000   0.000   0.000   0.000   0.000   0.000   2.719   0.000   1.091   0.000   0.000  -1.450   0.000  -0.701   0.000   0.000
  0.000   0.000   0.000   0.000   0.000   0.000   0.000   2.295   0.000   0.932   0.000   0.000  -1.152   0.000  -0.602   0.000
  0.000   0.000   0.000   0.000   0.000   0.000   1.091   0.000   2.008   0.000   0.000  -0.701   0.000  -0.971   0.000   0.000
  0.000   0.000   0.000   0.000   0.000   0.000   0.000   0.932   0.000   2.295   0.000   0.000  -0.602   0.000  -1.152   0.000
  0.000   0.000   0.000   0.000   0.000   0.000  -0.000   0.000   0.000   0.000   1.356   0.000   0.000   0.000   0.000  -0.556
  0.000   0.000   0.000   0.000   0.000   0.000  -0.097   0.000   0.056   0.000  -0.000   0.022   0.000   0.001   0.000   0.000
  0.000   0.000   0.000   0.000   0.000   0.000  -0.000   0.000  -0.006   0.000   0.000   0.009   0.000  -0.003   0.000   0.000


------------------------ aborting loop because EDIFF is reached ----------------------------------------


 


 total charge     
 
# of ion       s       p       d       tot
------------------------------------------
    1        0.167   6.148   4.964  11.280
    2        0.172   6.144   4.970  11.286
    3        1.734   4.403   0.000   6.137
    4        1.734   4.403   0.000   6.137
    5        1.734   4.399   0.000   6.133
    6        1.734   4.399   0.000   6.133
--------------------------------------------------
tot          7.274  29.896   9.934  47.105
 


 magnetization (x)
 
# of ion       s       p       d       tot
------------------------------------------
    1       -0.022  -0.018  -4.582  -4.622
    2        0.023   0.016   4.579   4.618
    3        0.003   0.025   0.000   0.027
    4        0.003   0.025   0.000   0.027
    5       -0.003  -0.021   0.000  -0.024
    6       -0.003  -0.021   0.000  -0.024
--------------------------------------------------
tot         -0.001   0.006  -0.003   0.003
 
    CHARGE:  cpu time    0.0701: real time    0.0701
    FORLOC:  cpu time    0.0021: real time    0.0021
    FORNL :  cpu time    0.3546: real time    0.3546
    STRESS:  cpu time    4.1291: real time    4.1291
    FORCOR:  cpu time    0.0511: real time    0.0511
    FORHAR:  cpu time    0.0036: real time    0.0036
    MIXING:  cpu time    0.0022: real time    0.0022
    OFIELD:  cpu time    0.0000: real time    0.0000

  FORCE on cell =-STRESS in cart. coord.  units (eV):
  Direction    XX          YY          ZZ          XY          YZ          ZX
  --------------------------------------------------------------------------------------
  Alpha Z   199.08944   199.08944   199.08944
  Ewald   -1585.30830 -1585.30830 -1030.32910    -0.00000    -0.00000    -0.00000
  Hartree   594.53056   594.53056   969.78611     0.00000    -0.00000    -0.00000
  E(xc)    -150.58862  -150.56510  -150.70135    -0.01642    -0.02608    -0.02786
  Local     162.64845   162.64845  -760.71812    -0.00000    -0.00000     0.00000
  n-local  -310.24618  -310.52406  -309.47706     0.01886     0.11113     0.11153
  augment   158.56593   158.56593   158.07590    -0.00000     0.00000     0.00000
  Kinetic   931.13892   931.71245   924.24143    -0.43785    -0.80974    -0.84577
  Fock        0.00000     0.00000     0.00000     0.00000     0.00000     0.00000
  -------------------------------------------------------------------------------------
  Total      -0.01022    -0.01022    -0.03276     0.00000     0.00000     0.00000
  in kB      -0.21109    -0.21109    -0.67685     0.00000     0.00000     0.00000
  external pressure =       -0.37 kB  Pullay stress =        0.00 kB


 VOLUME and BASIS-vectors are now :
 -----------------------------------------------------------------------------
  energy-cutoff  :      900.00
  volume of cell :       77.54
      direct lattice vectors                 reciprocal lattice vectors
     4.855123242  0.000000000  0.000000000     0.205967995  0.000000000  0.000000000
     0.000000000  4.855123242  0.000000000     0.000000000  0.205967995  0.000000000
     0.000000000  0.000000000  3.289484586     0.000000000  0.000000000  0.303998993

  length of vectors
     4.855123242  4.855123242  3.289484586     0.205967995  0.205967995  0.303998993


 FORCES acting on ions
    electron-ion (+dipol)            ewald-force                    non-local-force                 convergence-correction
 -----------------------------------------------------------------------------------------------
   0.210E-11 0.514E-11 0.445E-11   0.114E-12 0.284E-13 -.236E-13   0.000E+00 0.000E+00 0.000E+00   -.137E-12 -.143E-12 -.105E-12
   -.939E-14 -.571E-13 -.138E-13   -.853E-13 -.568E-13 -.260E-13   0.000E+00 0.000E+00 0.000E+00   -.611E-13 -.524E-14 0.524E-13
   -.325E+02 0.325E+02 0.323E-11   0.337E+02 -.337E+02 0.110E-13   -.120E+01 0.120E+01 0.000E+00   -.120E-04 0.120E-04 -.286E-13
   0.325E+02 -.325E+02 0.518E-11   -.337E+02 0.337E+02 0.112E-13   0.120E+01 -.120E+01 0.000E+00   0.120E-04 -.120E-04 -.414E-13
   0.325E+02 0.325E+02 -.247E-07   -.337E+02 -.337E+02 0.676E-14   0.120E+01 0.120E+01 0.271E-19   0.120E-04 0.120E-04 -.568E-12
   -.325E+02 -.325E+02 0.247E-07   0.337E+02 0.337E+02 0.708E-14   -.120E+01 -.120E+01 -.271E-19   -.120E-04 -.120E-04 0.571E-12
 -----------------------------------------------------------------------------------------------
   0.234E-11 0.109E-10 0.115E-10   0.000E+00 0.000E+00 -.136E-13   -.222E-15 0.444E-15 0.000E+00   -.386E-12 -.355E-12 -.120E-12
 
 
 POSITION                                       TOTAL-FORCE (eV/Angst)
 -----------------------------------------------------------------------------------
      2.42756      2.42756      1.64474         0.000000      0.000000      0.000000
      0.00000      0.00000      0.00000         0.000000      0.000000      0.000000
      0.95211      3.90302      1.64474        -0.000883      0.000883      0.000000
      3.90302      0.95211      1.64474         0.000883     -0.000883      0.000000
      1.47546      1.47546      0.00000         0.000883      0.000883      0.000000
      3.37967      3.37967      0.00000        -0.000883     -0.000883      0.000000
 -----------------------------------------------------------------------------------
    total drift:                                0.000000      0.000000      0.000000


--------------------------------------------------------------------------------------------------------



  FREE ENERGIE OF THE ION-ELECTRON SYSTEM (eV)
  ---------------------------------------------------
  free  energy   TOTEN  =       -68.06101103 eV

  energy  without entropy=      -68.06101103  energy(sigma->0) =      -68.06101103
 


--------------------------------------------------------------------------------------------------------


    POTLOK:  cpu time    1.5504: real time    1.5504


--------------------------------------------------------------------------------------------------------


 writing wavefunctions
     LOOP+:  cpu time   66.7894: real time   66.8108
    4ORBIT:  cpu time    0.0000: real time    0.0000
 


 total charge     
 
# of ion       s       p       d       tot
------------------------------------------
    1        0.167   6.148   4.964  11.280
    2        0.172   6.144   4.970  11.286
    3        1.734   4.403   0.000   6.137
    4        1.734   4.403   0.000   6.137
    5        1.734   4.399   0.000   6.133
    6        1.734   4.399   0.000   6.133
--------------------------------------------------
tot          7.274  29.896   9.934  47.105
 


 magnetization (x)
 
# of ion       s       p       d       tot
------------------------------------------
    1       -0.022  -0.018  -4.582  -4.622
    2        0.023   0.016   4.579   4.618
    3        0.003   0.025   0.000   0.027
    4        0.003   0.025   0.000   0.027
    5       -0.003  -0.021   0.000  -0.024
    6       -0.003  -0.021   0.000  -0.024
--------------------------------------------------
tot         -0.001   0.006  -0.003   0.003
 
 BZINTS: Fermi energy:  2.262449; 54.000000 electrons
         Band energy:-797.131643;  BLOECHL correction:  0.000000

 total amount of memory used by VASP MPI-rank0    57054. kBytes
=======================================================================

   base      :      30000. kBytes
   nonl-proj :      12870. kBytes
   fftplans  :       3220. kBytes
   grid      :       6579. kBytes
   one-center:        186. kBytes
   wavefun   :       4199. kBytes
 
  
  
 General timing and accounting informations for this job:
 ========================================================
  
                  Total CPU time used (sec):       68.574
                            User time (sec):       49.992
                          System time (sec):       18.582
                         Elapsed time (sec):       68.652
  
                   Maximum memory used (kb):       88136.
                   Average memory used (kb):           0.
  
                          Minor page faults:        18519
                          Major page faults:            7
                 Voluntary context switches:          315
