 vasp.5.4.4.18Apr17-6-g9f103f2a35 (build Apr 27 2017 11:13:10) complex          
  
 executed on           IFC91_ompi date 2021.06.08  16:37:35
 running on   12 total cores
 distrk:  each k-point on   12 cores,    1 groups
 distr:  one band on NCORES_PER_BAND=   1 cores,   12 groups


--------------------------------------------------------------------------------------------------------


 INCAR:
 POTCAR:    PAW_PBE Mn_pv 02Aug2007               
 POTCAR:    PAW_PBE F 08Apr2002                   

 ----------------------------------------------------------------------------- 
|                                                                             |
|           W    W    AA    RRRRR   N    N  II  N    N   GGGG   !!!           |
|           W    W   A  A   R    R  NN   N  II  NN   N  G    G  !!!           |
|           W    W  A    A  R    R  N N  N  II  N N  N  G       !!!           |
|           W WW W  AAAAAA  RRRRR   N  N N  II  N  N N  G  GGG   !            |
|           WW  WW  A    A  R   R   N   NN  II  N   NN  G    G                |
|           W    W  A    A  R    R  N    N  II  N    N   GGGG   !!!           |
|                                                                             |
|      For optimal performance we recommend to set                            |
|        NCORE= 4 - approx SQRT( number of cores)                             |
|      NCORE specifies how many cores store one orbital (NPAR=cpu/NCORE).     |
|      This setting can  greatly improve the performance of VASP for DFT.     |
|      The default,   NCORE=1            might be grossly inefficient         |
|      on modern multi-core architectures or massively parallel machines.     |
|      Do your own testing !!!!                                               |
|      Unfortunately you need to use the default for GW and RPA calculations. |
|      (for HF NCORE is supported but not extensively tested yet)             |
|                                                                             |
 ----------------------------------------------------------------------------- 

 POTCAR:    PAW_PBE Mn_pv 02Aug2007               
   VRHFIN =Mn: 3p4s3d                                                           
   LEXCH  = PE                                                                  
   EATOM  =  2025.2664 eV,  148.8529 Ry                                         
                                                                                
   TITEL  = PAW_PBE Mn_pv 02Aug2007                                             
   LULTRA =        F    use ultrasoft PP ?                                      
   IUNSCR =        1    unscreen: 0-lin 1-nonlin 2-no                           
   RPACOR =    2.080    partial core radius                                     
   POMASS =   54.938; ZVAL   =   13.000    mass and valenz                      
   RCORE  =    2.300    outmost cutoff radius                                   
   RWIGS  =    2.500; RWIGS  =    1.323    wigner-seitz radius (au A)           
   ENMAX  =  269.864; ENMIN  =  202.398 eV                                      
   ICORE  =        3    local potential                                         
   LCOR   =        T    correct aug charges                                     
   LPAW   =        T    paw PP                                                  
   EAUG   =  569.085                                                            
   DEXC   =    0.000                                                            
   RMAX   =    2.343    core radius for proj-oper                               
   RAUG   =    1.300    factor for augmentation sphere                          
   RDEP   =    2.338    radius for radial grids                                 
   RDEPT  =    1.798    core radius for aug-charge                              
                                                                                
   Atomic configuration                                                         
    8 entries                                                                   
     n  l   j            E        occ.                                          
     1  0  0.50     -6424.8287   2.0000                                         
     2  0  0.50      -739.1154   2.0000                                         
     2  1  1.50      -625.3949   6.0000                                         
     3  0  0.50       -81.6100   2.0000                                         
     3  1  1.50       -50.4667   6.0000                                         
     3  2  2.50        -3.3745   6.0000                                         
     4  0  0.50        -4.1331   1.0000                                         
     4  3  2.50        -1.3606   0.0000                                         
   Description                                                                  
     l       E           TYP  RCUT    TYP  RCUT                                 
     1    -50.4666628     23  2.000                                             
     1     -1.3605826     23  2.000                                             
     2     -3.3744729     23  2.300                                             
     2     -4.7350555     23  2.300                                             
     0     -4.1331431     23  2.300                                             
     0      7.6656591     23  2.300                                             
     3      9.5240782     23  2.300                                             
  local pseudopotential read in
  partial core-charges read in
  partial kinetic energy density read in
  atomic valenz-charges read in
  non local Contribution for L=           1  read in
    real space projection operators read in
  non local Contribution for L=           1  read in
    real space projection operators read in
  non local Contribution for L=           2  read in
    real space projection operators read in
  non local Contribution for L=           2  read in
    real space projection operators read in
  non local Contribution for L=           0  read in
    real space projection operators read in
  non local Contribution for L=           0  read in
    real space projection operators read in
    PAW grid and wavefunctions read in
 
   number of l-projection  operators is LMAX  =           6
   number of lm-projection operators is LMMAX =          18
 
 POTCAR:    PAW_PBE F 08Apr2002                   
   VRHFIN =F: s2p5                                                              
   LEXCH  = PE                                                                  
   EATOM  =   659.6475 eV,   48.4827 Ry                                         
                                                                                
   TITEL  = PAW_PBE F 08Apr2002                                                 
   LULTRA =        F    use ultrasoft PP ?                                      
   IUNSCR =        1    unscreen: 0-lin 1-nonlin 2-no                           
   RPACOR =    1.200    partial core radius                                     
   POMASS =   18.998; ZVAL   =    7.000    mass and valenz                      
   RCORE  =    1.520    outmost cutoff radius                                   
   RWIGS  =    1.500; RWIGS  =    0.794    wigner-seitz radius (au A)           
   ENMAX  =  400.000; ENMIN  =  300.000 eV                                      
   ICORE  =        2    local potential                                         
   LCOR   =        T    correct aug charges                                     
   LPAW   =        T    paw PP                                                  
   EAUG   =  613.614                                                            
   RMAX   =    1.555    core radius for proj-oper                               
   RAUG   =    1.300    factor for augmentation sphere                          
   RDEP   =    1.539    radius for radial grids                                 
   RDEPT  =    1.299    core radius for aug-charge                              
                                                                                
   Atomic configuration                                                         
    4 entries                                                                   
     n  l   j            E        occ.                                          
     1  0  0.50      -663.3661   2.0000                                         
     2  0  0.50       -29.8995   2.0000                                         
     2  1  0.50       -11.1114   5.0000                                         
     3  2  1.50       -10.8847   0.0000                                         
   Description                                                                  
     l       E           TYP  RCUT    TYP  RCUT                                 
     0    -29.8995018     23  1.200                                             
     0     -9.5240782     23  1.200                                             
     1    -11.1113914     23  1.520                                             
     1      1.3605826     23  1.520                                             
     2    -10.8846608      7  1.500                                             
  local pseudopotential read in
  partial core-charges read in
  partial kinetic energy density read in
  atomic valenz-charges read in
  non local Contribution for L=           0  read in
    real space projection operators read in
  non local Contribution for L=           0  read in
    real space projection operators read in
  non local Contribution for L=           1  read in
    real space projection operators read in
  non local Contribution for L=           1  read in
    real space projection operators read in
    PAW grid and wavefunctions read in
 
   number of l-projection  operators is LMAX  =           4
   number of lm-projection operators is LMMAX =           8
 
  PAW_PBE Mn_pv 02Aug2007               :
 energy of atom  1       EATOM=-2025.2664
 kinetic energy error for atom=    0.0047 (will be added to EATOM!!)
  PAW_PBE F 08Apr2002                   :
 energy of atom  2       EATOM= -659.6475
 kinetic energy error for atom=    0.0256 (will be added to EATOM!!)
 
 
 POSCAR: Mn  F                                   
  positions in cartesian coordinates
  No initial velocities read in

 METAGGA = SCAN     LMAXTAU =  6    LMIXTAU =  F

 exchange correlation table for  LEXCH =        8
   RHO(1)=    0.500       N(1)  =     2000
   RHO(2)=  100.500       N(2)  =     4000
 


--------------------------------------------------------------------------------------------------------


 ion  position               nearest neighbor table
   1  0.500  0.500  0.500-   3 2.09   4 2.09   5 2.12   6 2.12   5 2.12   6 2.12
   2  0.000  0.000  0.000-   5 2.09   6 2.09   3 2.12   4 2.12   3 2.12   4 2.12
   3  0.196  0.804  0.500-   1 2.09   2 2.12   2 2.12
   4  0.804  0.196  0.500-   1 2.09   2 2.12   2 2.12
   5  0.304  0.304  0.000-   2 2.09   1 2.12   1 2.12
   6  0.696  0.696  0.000-   2 2.09   1 2.12   1 2.12
 

IMPORTANT INFORMATION: All symmetrisations will be switched off!
NOSYMM: (Re-)initialisation of all symmetry stuff for point group C_1.

 
 
 KPOINTS: KPOINTS created by Atomic Simulation Env

Automatic generation of k-mesh.
Space group operators:
 irot       det(A)        alpha          n_x          n_y          n_z        tau_x        tau_y        tau_z
    1     1.000000     0.000000     1.000000     0.000000     0.000000     0.000000     0.000000     0.000000
 
 Subroutine IBZKPT returns following result:
 ===========================================
 
 Found     48 irreducible k-points:
 
 Following reciprocal coordinates:
            Coordinates               Weight
  0.125000  0.125000  0.083333      2.000000
  0.375000  0.125000  0.083333      2.000000
 -0.375000  0.125000  0.083333      2.000000
 -0.125000  0.125000  0.083333      2.000000
  0.125000  0.375000  0.083333      2.000000
  0.375000  0.375000  0.083333      2.000000
 -0.375000  0.375000  0.083333      2.000000
 -0.125000  0.375000  0.083333      2.000000
  0.125000 -0.375000  0.083333      2.000000
  0.375000 -0.375000  0.083333      2.000000
 -0.375000 -0.375000  0.083333      2.000000
 -0.125000 -0.375000  0.083333      2.000000
  0.125000 -0.125000  0.083333      2.000000
  0.375000 -0.125000  0.083333      2.000000
 -0.375000 -0.125000  0.083333      2.000000
 -0.125000 -0.125000  0.083333      2.000000
  0.125000  0.125000  0.250000      2.000000
  0.375000  0.125000  0.250000      2.000000
 -0.375000  0.125000  0.250000      2.000000
 -0.125000  0.125000  0.250000      2.000000
  0.125000  0.375000  0.250000      2.000000
  0.375000  0.375000  0.250000      2.000000
 -0.375000  0.375000  0.250000      2.000000
 -0.125000  0.375000  0.250000      2.000000
  0.125000 -0.375000  0.250000      2.000000
  0.375000 -0.375000  0.250000      2.000000
 -0.375000 -0.375000  0.250000      2.000000
 -0.125000 -0.375000  0.250000      2.000000
  0.125000 -0.125000  0.250000      2.000000
  0.375000 -0.125000  0.250000      2.000000
 -0.375000 -0.125000  0.250000      2.000000
 -0.125000 -0.125000  0.250000      2.000000
  0.125000  0.125000  0.416667      2.000000
  0.375000  0.125000  0.416667      2.000000
 -0.375000  0.125000  0.416667      2.000000
 -0.125000  0.125000  0.416667      2.000000
  0.125000  0.375000  0.416667      2.000000
  0.375000  0.375000  0.416667      2.000000
 -0.375000  0.375000  0.416667      2.000000
 -0.125000  0.375000  0.416667      2.000000
  0.125000 -0.375000  0.416667      2.000000
  0.375000 -0.375000  0.416667      2.000000
 -0.375000 -0.375000  0.416667      2.000000
 -0.125000 -0.375000  0.416667      2.000000
  0.125000 -0.125000  0.416667      2.000000
  0.375000 -0.125000  0.416667      2.000000
 -0.375000 -0.125000  0.416667      2.000000
 -0.125000 -0.125000  0.416667      2.000000
 
 Following cartesian coordinates:
            Coordinates               Weight
  0.025760  0.025760  0.025345      2.000000
  0.077279  0.025760  0.025345      2.000000
 -0.077279  0.025760  0.025345      2.000000
 -0.025760  0.025760  0.025345      2.000000
  0.025760  0.077279  0.025345      2.000000
  0.077279  0.077279  0.025345      2.000000
 -0.077279  0.077279  0.025345      2.000000
 -0.025760  0.077279  0.025345      2.000000
  0.025760 -0.077279  0.025345      2.000000
  0.077279 -0.077279  0.025345      2.000000
 -0.077279 -0.077279  0.025345      2.000000
 -0.025760 -0.077279  0.025345      2.000000
  0.025760 -0.025760  0.025345      2.000000
  0.077279 -0.025760  0.025345      2.000000
 -0.077279 -0.025760  0.025345      2.000000
 -0.025760 -0.025760  0.025345      2.000000
  0.025760  0.025760  0.076034      2.000000
  0.077279  0.025760  0.076034      2.000000
 -0.077279  0.025760  0.076034      2.000000
 -0.025760  0.025760  0.076034      2.000000
  0.025760  0.077279  0.076034      2.000000
  0.077279  0.077279  0.076034      2.000000
 -0.077279  0.077279  0.076034      2.000000
 -0.025760  0.077279  0.076034      2.000000
  0.025760 -0.077279  0.076034      2.000000
  0.077279 -0.077279  0.076034      2.000000
 -0.077279 -0.077279  0.076034      2.000000
 -0.025760 -0.077279  0.076034      2.000000
  0.025760 -0.025760  0.076034      2.000000
  0.077279 -0.025760  0.076034      2.000000
 -0.077279 -0.025760  0.076034      2.000000
 -0.025760 -0.025760  0.076034      2.000000
  0.025760  0.025760  0.126723      2.000000
  0.077279  0.025760  0.126723      2.000000
 -0.077279  0.025760  0.126723      2.000000
 -0.025760  0.025760  0.126723      2.000000
  0.025760  0.077279  0.126723      2.000000
  0.077279  0.077279  0.126723      2.000000
 -0.077279  0.077279  0.126723      2.000000
 -0.025760  0.077279  0.126723      2.000000
  0.025760 -0.077279  0.126723      2.000000
  0.077279 -0.077279  0.126723      2.000000
 -0.077279 -0.077279  0.126723      2.000000
 -0.025760 -0.077279  0.126723      2.000000
  0.025760 -0.025760  0.126723      2.000000
  0.077279 -0.025760  0.126723      2.000000
 -0.077279 -0.025760  0.126723      2.000000
 -0.025760 -0.025760  0.126723      2.000000
 
 TETIRR: Found    288 inequivalent tetrahedra from      576


--------------------------------------------------------------------------------------------------------




 Dimension of arrays:
   k-points           NKPTS =     48   k-points in BZ     NKDIM =     48   number of bands    NBANDS=     36
   number of dos      NEDOS =    301   number of ions     NIONS =      6
   non local maximal  LDIM  =      6   non local SUM 2l+1 LMDIM =     18
   total plane-waves  NPLWV =  18000
   max r-space proj   IRMAX =      1   max aug-charges    IRDMAX=  56627
   dimension x,y,z NGX =    30 NGY =   30 NGZ =   20
   dimension x,y,z NGXF=    60 NGYF=   60 NGZF=   40
   support grid    NGXF=   120 NGYF=  120 NGZF=   80
   ions per type =               2   4
   NGX,Y,Z   is equivalent  to a cutoff of  10.28, 10.28, 10.11 a.u.
   NGXF,Y,Z  is equivalent  to a cutoff of  20.56, 20.56, 20.22 a.u.

 SYSTEM =  unknown system                          
 POSCAR =  Mn  F                                   

 Startparameter for this run:
   NWRITE =      2    write-flag & timer
   PREC   = normal    normal or accurate (medium, high low for compatibility)
   ISTART =      1    job   : 0-new  1-cont  2-samecut
   ICHARG =      0    charge: 1-file 2-atom 10-const
   ISPIN  =      2    spin polarized calculation?
   LNONCOLLINEAR =      F non collinear calculations
   LSORBIT =      F    spin-orbit coupling
   INIWAV =      1    electr: 0-lowe 1-rand  2-diag
   LASPH  =      T    aspherical Exc in radial PAW
   METAGGA=      F    non-selfconsistent MetaGGA calc.

 Electronic Relaxation 1
   ENCUT  =  600.0 eV  44.10 Ry    6.64 a.u.   9.69  9.69  6.57*2*pi/ulx,y,z
   ENINI  =  600.0     initial cutoff
   ENAUG  =  613.6 eV  augmentation charge cutoff
   NELM   =     60;   NELMIN=  2; NELMDL=  0     # of ELM steps 
   EDIFF  = 0.1E-07   stopping-criterion for ELM
   LREAL  =      F    real-space projection
   NLSPLINE    = F    spline interpolate recip. space projectors
   LCOMPAT=      F    compatible to vasp.4.4
   GGA_COMPAT  = T    GGA compatible to vasp.4.4-vasp.4.6
   LMAXPAW     = -100 max onsite density
   LMAXMIX     =    4 max onsite mixed and CHGCAR
   VOSKOWN=      0    Vosko Wilk Nusair interpolation
   ROPT   =    0.00000   0.00000
 Ionic relaxation
   EDIFFG = 0.1E-06   stopping-criterion for IOM
   NSW    =      0    number of steps for IOM
   NBLOCK =      1;   KBLOCK =      1    inner block; outer block 
   IBRION =     -1    ionic relax: 0-MD 1-quasi-New 2-CG
   NFREE  =      0    steps in history (QN), initial steepest desc. (CG)
   ISIF   =      2    stress and relaxation
   IWAVPR =     10    prediction:  0-non 1-charg 2-wave 3-comb
   ISYM   =      0    0-nonsym 1-usesym 2-fastsym
   LCORR  =      T    Harris-Foulkes like correction to forces

   POTIM  = 0.5000    time-step for ionic-motion
   TEIN   =    0.0    initial temperature
   TEBEG  =    0.0;   TEEND  =   0.0 temperature during run
   SMASS  =  -3.00    Nose mass-parameter (am)
   estimated Nose-frequenzy (Omega)   =  0.10E-29 period in steps =****** mass=  -0.538E-27a.u.
   SCALEE = 1.0000    scale energy and forces
   NPACO  =    256;   APACO  = 16.0  distance and # of slots for P.C.
   PSTRESS=    0.0 pullay stress

  Mass of Ions in am
   POMASS =  54.94 19.00
  Ionic Valenz
   ZVAL   =  13.00  7.00
  Atomic Wigner-Seitz radii
   RWIGS  =  -1.00 -1.00
  virtual crystal weights 
   VCA    =   1.00  1.00
   NELECT =      54.0000    total number of electrons
   NUPDOWN=      -1.0000    fix difference up-down

 DOS related values:
   EMIN   =  10.00;   EMAX   =-10.00  energy-range for DOS
   EFERMI =   0.00
   ISMEAR =    -5;   SIGMA  =   0.20  broadening in eV -4-tet -1-fermi 0-gaus

 Electronic relaxation 2 (details)
   IALGO  =     38    algorithm
   LDIAG  =      T    sub-space diagonalisation (order eigenvalues)
   LSUBROT=      F    optimize rotation matrix (better conditioning)
   TURBO    =      0    0=normal 1=particle mesh
   IRESTART =      0    0=no restart 2=restart with 2 vectors
   NREBOOT  =      0    no. of reboots
   NMIN     =      0    reboot dimension
   EREF     =   0.00    reference energy to select bands
   IMIX   =      4    mixing-type and parameters
     AMIX     =   0.40;   BMIX     =  1.00
     AMIX_MAG =   1.60;   BMIX_MAG =  1.00
     AMIN     =   0.10
     WC   =   100.;   INIMIX=   1;  MIXPRE=   1;  MAXMIX= -45

 Intra band minimization:
   WEIMIN = 0.0000     energy-eigenvalue tresh-hold
   EBREAK =  0.69E-10  absolut break condition
   DEPER  =   0.30     relativ break condition  

   TIME   =   0.40     timestep for ELM

  volume/ion in A,a.u.               =      12.90        87.08
  Fermi-wavevector in a.u.,A,eV,Ry     =   1.451824  2.743549 28.678246  2.107792
  Thomas-Fermi vector in A             =   2.569276
 
 Write flags
   LWAVE        =      T    write WAVECAR
   LDOWNSAMPLE  =      F    k-point downsampling of WAVECAR
   LCHARG       =      T    write CHGCAR
   LVTOT        =      F    write LOCPOT, total local potential
   LVHAR        =      F    write LOCPOT, Hartree potential only
   LELF         =      F    write electronic localiz. function (ELF)
   LORBIT       =     11    0 simple, 1 ext, 2 COOP (PROOUT), +10 PAW based schemes


 Dipole corrections
   LMONO  =      F    monopole corrections only (constant potential shift)
   LDIPOL =      F    correct potential (dipole corrections)
   IDIPOL =      0    1-x, 2-y, 3-z, 4-all directions 
   EPSILON=  1.0000000 bulk dielectric constant

 LDA+U is selected, type is set to LDAUTYPE =  2
   angular momentum for each species LDAUL =     2   -1
   U (eV)           for each species LDAUU =   0.0  0.0
   J (eV)           for each species LDAUJ =   0.0  0.0
 Exchange correlation treatment:
   GGA     =    --    GGA type
   LEXCH   =     8    internal setting for exchange type
   VOSKOWN=      0    Vosko Wilk Nusair interpolation
   LHFCALC =     F    Hartree Fock is set to
   LHFONE  =     F    Hartree Fock one center treatment
   AEXX    =    0.0000 exact exchange contribution

 Linear response parameters
   LEPSILON=     F    determine dielectric tensor
   LRPA    =     F    only Hartree local field effects (RPA)
   LNABLA  =     F    use nabla operator in PAW spheres
   LVEL    =     F    velocity operator in full k-point grid
   LINTERFAST=   F  fast interpolation
   KINTER  =     0    interpolate to denser k-point grid
   CSHIFT  =0.1000    complex shift for real part using Kramers Kronig
   OMEGAMAX=  -1.0    maximum frequency
   DEG_THRESHOLD= 0.2000000E-02 threshold for treating states as degnerate
   RTIME   =   -0.100 relaxation time in fs
  (WPLASMAI=    0.000 imaginary part of plasma frequency in eV, 0.658/RTIME)
   DFIELD  = 0.0000000 0.0000000 0.0000000 field for delta impulse in time
 
 Orbital magnetization related:
   ORBITALMAG=     F  switch on orbital magnetization
   LCHIMAG   =     F  perturbation theory with respect to B field
   DQ        =  0.001000  dq finite difference perturbation B field
   LLRAUG    =     F  two centre corrections for induced B field



--------------------------------------------------------------------------------------------------------


 Static calculation
 charge density and potential will be updated during run
 spin polarized calculation
 Variant of blocked Davidson
 Davidson routine will perform the subspace rotation
 perform sub-space diagonalisation
    after iterative eigenvector-optimisation
 modified Broyden-mixing scheme, WC =      100.0
 initial mixing is a Kerker type mixing with AMIX =  0.4000 and BMIX =      1.0000
 Hartree-type preconditioning will be used
 using additional bands            9
 reciprocal scheme for non local part
 use partial core corrections
 calculate Harris-corrections to forces 
   (improved forces if not selfconsistent)
 use gradient corrections 
 use of overlap-Matrix (Vanderbilt PP)
 Fermi weights with tetrahedron method with Bloechl corrections


--------------------------------------------------------------------------------------------------------


  energy-cutoff  :      600.00
  volume of cell :       77.42
      direct lattice vectors                 reciprocal lattice vectors
     4.852568500  0.000000000  0.000000000     0.206076431  0.000000000  0.000000000
     0.000000000  4.852568500  0.000000000     0.000000000  0.206076431  0.000000000
     0.000000000  0.000000000  3.288011935     0.000000000  0.000000000  0.304135149

  length of vectors
     4.852568500  4.852568500  3.288011935     0.206076431  0.206076431  0.304135149


 
 old parameters found on file WAVECAR:
  energy-cutoff  :      600.00
  volume of cell :       77.42
      direct lattice vectors                 reciprocal lattice vectors
     4.852568500  0.000000000  0.000000000     0.206076431  0.000000000  0.000000000
     0.000000000  4.852568500  0.000000000     0.000000000  0.206076431  0.000000000
     0.000000000  0.000000000  3.288011935     0.000000000  0.000000000  0.304135149

  length of vectors

 
 k-points in units of 2pi/SCALE and weight: KPOINTS created by Atomic Simulation Env
   0.02575955  0.02575955  0.02534460       0.021
   0.07727866  0.02575955  0.02534460       0.021
  -0.07727866  0.02575955  0.02534460       0.021
  -0.02575955  0.02575955  0.02534460       0.021
   0.02575955  0.07727866  0.02534460       0.021
   0.07727866  0.07727866  0.02534460       0.021
  -0.07727866  0.07727866  0.02534460       0.021
  -0.02575955  0.07727866  0.02534460       0.021
   0.02575955 -0.07727866  0.02534460       0.021
   0.07727866 -0.07727866  0.02534460       0.021
  -0.07727866 -0.07727866  0.02534460       0.021
  -0.02575955 -0.07727866  0.02534460       0.021
   0.02575955 -0.02575955  0.02534460       0.021
   0.07727866 -0.02575955  0.02534460       0.021
  -0.07727866 -0.02575955  0.02534460       0.021
  -0.02575955 -0.02575955  0.02534460       0.021
   0.02575955  0.02575955  0.07603379       0.021
   0.07727866  0.02575955  0.07603379       0.021
  -0.07727866  0.02575955  0.07603379       0.021
  -0.02575955  0.02575955  0.07603379       0.021
   0.02575955  0.07727866  0.07603379       0.021
   0.07727866  0.07727866  0.07603379       0.021
  -0.07727866  0.07727866  0.07603379       0.021
  -0.02575955  0.07727866  0.07603379       0.021
   0.02575955 -0.07727866  0.07603379       0.021
   0.07727866 -0.07727866  0.07603379       0.021
  -0.07727866 -0.07727866  0.07603379       0.021
  -0.02575955 -0.07727866  0.07603379       0.021
   0.02575955 -0.02575955  0.07603379       0.021
   0.07727866 -0.02575955  0.07603379       0.021
  -0.07727866 -0.02575955  0.07603379       0.021
  -0.02575955 -0.02575955  0.07603379       0.021
   0.02575955  0.02575955  0.12672298       0.021
   0.07727866  0.02575955  0.12672298       0.021
  -0.07727866  0.02575955  0.12672298       0.021
  -0.02575955  0.02575955  0.12672298       0.021
   0.02575955  0.07727866  0.12672298       0.021
   0.07727866  0.07727866  0.12672298       0.021
  -0.07727866  0.07727866  0.12672298       0.021
  -0.02575955  0.07727866  0.12672298       0.021
   0.02575955 -0.07727866  0.12672298       0.021
   0.07727866 -0.07727866  0.12672298       0.021
  -0.07727866 -0.07727866  0.12672298       0.021
  -0.02575955 -0.07727866  0.12672298       0.021
   0.02575955 -0.02575955  0.12672298       0.021
   0.07727866 -0.02575955  0.12672298       0.021
  -0.07727866 -0.02575955  0.12672298       0.021
  -0.02575955 -0.02575955  0.12672298       0.021
 
 k-points in reciprocal lattice and weights: KPOINTS created by Atomic Simulation Env
   0.12500000  0.12500000  0.08333333       0.021
   0.37500000  0.12500000  0.08333333       0.021
  -0.37500000  0.12500000  0.08333333       0.021
  -0.12500000  0.12500000  0.08333333       0.021
   0.12500000  0.37500000  0.08333333       0.021
   0.37500000  0.37500000  0.08333333       0.021
  -0.37500000  0.37500000  0.08333333       0.021
  -0.12500000  0.37500000  0.08333333       0.021
   0.12500000 -0.37500000  0.08333333       0.021
   0.37500000 -0.37500000  0.08333333       0.021
  -0.37500000 -0.37500000  0.08333333       0.021
  -0.12500000 -0.37500000  0.08333333       0.021
   0.12500000 -0.12500000  0.08333333       0.021
   0.37500000 -0.12500000  0.08333333       0.021
  -0.37500000 -0.12500000  0.08333333       0.021
  -0.12500000 -0.12500000  0.08333333       0.021
   0.12500000  0.12500000  0.25000000       0.021
   0.37500000  0.12500000  0.25000000       0.021
  -0.37500000  0.12500000  0.25000000       0.021
  -0.12500000  0.12500000  0.25000000       0.021
   0.12500000  0.37500000  0.25000000       0.021
   0.37500000  0.37500000  0.25000000       0.021
  -0.37500000  0.37500000  0.25000000       0.021
  -0.12500000  0.37500000  0.25000000       0.021
   0.12500000 -0.37500000  0.25000000       0.021
   0.37500000 -0.37500000  0.25000000       0.021
  -0.37500000 -0.37500000  0.25000000       0.021
  -0.12500000 -0.37500000  0.25000000       0.021
   0.12500000 -0.12500000  0.25000000       0.021
   0.37500000 -0.12500000  0.25000000       0.021
  -0.37500000 -0.12500000  0.25000000       0.021
  -0.12500000 -0.12500000  0.25000000       0.021
   0.12500000  0.12500000  0.41666667       0.021
   0.37500000  0.12500000  0.41666667       0.021
  -0.37500000  0.12500000  0.41666667       0.021
  -0.12500000  0.12500000  0.41666667       0.021
   0.12500000  0.37500000  0.41666667       0.021
   0.37500000  0.37500000  0.41666667       0.021
  -0.37500000  0.37500000  0.41666667       0.021
  -0.12500000  0.37500000  0.41666667       0.021
   0.12500000 -0.37500000  0.41666667       0.021
   0.37500000 -0.37500000  0.41666667       0.021
  -0.37500000 -0.37500000  0.41666667       0.021
  -0.12500000 -0.37500000  0.41666667       0.021
   0.12500000 -0.12500000  0.41666667       0.021
   0.37500000 -0.12500000  0.41666667       0.021
  -0.37500000 -0.12500000  0.41666667       0.021
  -0.12500000 -0.12500000  0.41666667       0.021
 
 position of ions in fractional coordinates (direct lattice) 
   0.50000000  0.50000000  0.50000000
   0.00000000  0.00000000  0.00000000
   0.19609954  0.80390046  0.50000000
   0.80390046  0.19609954  0.50000000
   0.30390046  0.30390046  0.00000000
   0.69609954  0.69609954  0.00000000
 
 position of ions in cartesian coordinates  (Angst):
   2.42628425  2.42628425  1.64400597
   0.00000000  0.00000000  0.00000000
   0.95158645  3.90098205  1.64400597
   3.90098205  0.95158645  1.64400597
   1.47469780  1.47469780  0.00000000
   3.37787070  3.37787070  0.00000000
 


--------------------------------------------------------------------------------------------------------


 k-point  1 :   0.1250 0.1250 0.0833  plane waves:    2587
 k-point  2 :   0.3750 0.1250 0.0833  plane waves:    2596
 k-point  3 :  -0.3750 0.1250 0.0833  plane waves:    2596
 k-point  4 :  -0.1250 0.1250 0.0833  plane waves:    2587
 k-point  5 :   0.1250 0.3750 0.0833  plane waves:    2596
 k-point  6 :   0.3750 0.3750 0.0833  plane waves:    2581
 k-point  7 :  -0.3750 0.3750 0.0833  plane waves:    2581
 k-point  8 :  -0.1250 0.3750 0.0833  plane waves:    2596
 k-point  9 :   0.1250-0.3750 0.0833  plane waves:    2596
 k-point 10 :   0.3750-0.3750 0.0833  plane waves:    2581
 k-point 11 :  -0.3750-0.3750 0.0833  plane waves:    2581
 k-point 12 :  -0.1250-0.3750 0.0833  plane waves:    2596
 k-point 13 :   0.1250-0.1250 0.0833  plane waves:    2587
 k-point 14 :   0.3750-0.1250 0.0833  plane waves:    2596
 k-point 15 :  -0.3750-0.1250 0.0833  plane waves:    2596
 k-point 16 :  -0.1250-0.1250 0.0833  plane waves:    2587
 k-point 17 :   0.1250 0.1250 0.2500  plane waves:    2588
 k-point 18 :   0.3750 0.1250 0.2500  plane waves:    2582
 k-point 19 :  -0.3750 0.1250 0.2500  plane waves:    2582
 k-point 20 :  -0.1250 0.1250 0.2500  plane waves:    2588
 k-point 21 :   0.1250 0.3750 0.2500  plane waves:    2582
 k-point 22 :   0.3750 0.3750 0.2500  plane waves:    2594
 k-point 23 :  -0.3750 0.3750 0.2500  plane waves:    2594
 k-point 24 :  -0.1250 0.3750 0.2500  plane waves:    2582
 k-point 25 :   0.1250-0.3750 0.2500  plane waves:    2582
 k-point 26 :   0.3750-0.3750 0.2500  plane waves:    2594
 k-point 27 :  -0.3750-0.3750 0.2500  plane waves:    2594
 k-point 28 :  -0.1250-0.3750 0.2500  plane waves:    2582
 k-point 29 :   0.1250-0.1250 0.2500  plane waves:    2588
 k-point 30 :   0.3750-0.1250 0.2500  plane waves:    2582
 k-point 31 :  -0.3750-0.1250 0.2500  plane waves:    2582
 k-point 32 :  -0.1250-0.1250 0.2500  plane waves:    2588
 k-point 33 :   0.1250 0.1250 0.4167  plane waves:    2575
 k-point 34 :   0.3750 0.1250 0.4167  plane waves:    2574
 k-point 35 :  -0.3750 0.1250 0.4167  plane waves:    2574
 k-point 36 :  -0.1250 0.1250 0.4167  plane waves:    2575
 k-point 37 :   0.1250 0.3750 0.4167  plane waves:    2574
 k-point 38 :   0.3750 0.3750 0.4167  plane waves:    2576
 k-point 39 :  -0.3750 0.3750 0.4167  plane waves:    2576
 k-point 40 :  -0.1250 0.3750 0.4167  plane waves:    2574
 k-point 41 :   0.1250-0.3750 0.4167  plane waves:    2574
 k-point 42 :   0.3750-0.3750 0.4167  plane waves:    2576
 k-point 43 :  -0.3750-0.3750 0.4167  plane waves:    2576
 k-point 44 :  -0.1250-0.3750 0.4167  plane waves:    2574
 k-point 45 :   0.1250-0.1250 0.4167  plane waves:    2575
 k-point 46 :   0.3750-0.1250 0.4167  plane waves:    2574
 k-point 47 :  -0.3750-0.1250 0.4167  plane waves:    2574
 k-point 48 :  -0.1250-0.1250 0.4167  plane waves:    2575

 maximum and minimum number of plane-waves per node :      2596     2574

 maximum number of plane-waves:      2596
 maximum index in each direction: 
   IXMAX=   10   IYMAX=   10   IZMAX=    6
   IXMIN=  -10   IYMIN=  -10   IZMIN=   -6


 serial   3D FFT for wavefunctions
 parallel 3D FFT for charge:
    minimum data exchange during FFTs selected (reduces bandwidth)


 total amount of memory used by VASP MPI-rank0    84459. kBytes
=======================================================================

   base      :      30000. kBytes
   nonl-proj :      36247. kBytes
   fftplans  :       1875. kBytes
   grid      :       3820. kBytes
   one-center:        186. kBytes
   wavefun   :      12331. kBytes
 
     INWAV:  cpu time    0.4604: real time    0.4604
 Broyden mixing: mesh for mixing (old mesh)
   NGX = 19   NGY = 19   NGZ = 13
  (NGX  = 60   NGY  = 60   NGZ  = 40)
  gives a total of   4693 points

 charge density for first step will be calculated from the start-wavefunctions


--------------------------------------------------------------------------------------------------------


 Maximum index for augmentation-charges         4323 (set IRDMAX)


--------------------------------------------------------------------------------------------------------


 initial charge from wavefunction
 First call to EWALD:  gamma=   0.416
 Maximum number of real-space cells 2x 2x 3
 Maximum number of reciprocal cells 3x 3x 2

    FEWALD:  cpu time    0.0011: real time    0.0011


--------------------------------------- Iteration      1(   1)  ---------------------------------------


    POTLOK:  cpu time    0.0347: real time    0.0347
    SETDIJ:  cpu time    5.0736: real time    5.0737
atom =   1  type =  1  l = 2
 
 onsite density matrix
 
spin component  1
 
  0.1331  0.0113 -0.0031  0.0115  0.0000
  0.0113  0.0934  0.0090  0.0396 -0.0140
 -0.0031  0.0090  0.0710  0.0089  0.0013
  0.0115  0.0396  0.0089  0.0919  0.0144
  0.0000 -0.0140  0.0013  0.0144  0.0950
 
spin component  2
 
  0.9188 -0.0045  0.0268 -0.0046 -0.0001
 -0.0045  0.9111 -0.0034  0.0110  0.0052
  0.0268 -0.0034  0.9207 -0.0033 -0.0005
 -0.0046  0.0110 -0.0033  0.9117 -0.0054
 -0.0001  0.0052 -0.0005 -0.0054  0.8848
 
 occupancies and eigenvectors
 
  o =  0.0450  v =  0.0020  0.6509 -0.0168 -0.6607  0.3735  0.0000  0.0000  0.0000  0.0000  0.0000      0.0000  0.0000  0.0000  0.0000  0.0000  0.0000  0.0000  0.0000  0.0000  0.0000
  o =  0.0678  v = -0.1000  0.1341 -0.9706  0.1711  0.0260  0.0000  0.0000  0.0000  0.0000  0.0000      0.0000  0.0000  0.0000  0.0000  0.0000  0.0000  0.0000  0.0000  0.0000  0.0000
  o =  0.1032  v =  0.0101 -0.2763  0.0299  0.2512  0.9271  0.0000  0.0000  0.0000  0.0000  0.0000      0.0000  0.0000  0.0000  0.0000  0.0000  0.0000  0.0000  0.0000  0.0000  0.0000
  o =  0.1190  v = -0.7148  0.4721  0.2214  0.4658  0.0152  0.0000  0.0000  0.0000  0.0000  0.0000      0.0000  0.0000  0.0000  0.0000  0.0000  0.0000  0.0000  0.0000  0.0000  0.0000
  o =  0.1494  v = -0.6921 -0.5091 -0.0880 -0.5041 -0.0047  0.0000  0.0000  0.0000  0.0000  0.0000      0.0000  0.0000  0.0000  0.0000  0.0000  0.0000  0.0000  0.0000  0.0000  0.0000
  o =  0.8819  v =  0.0000  0.0000  0.0000  0.0000  0.0000 -0.0078 -0.2629  0.0154  0.2645  0.9277      0.0000  0.0000  0.0000  0.0000  0.0000  0.0000  0.0000  0.0000  0.0000  0.0000
  o =  0.8928  v =  0.0000  0.0000  0.0000  0.0000  0.0000 -0.7237 -0.0197  0.6881 -0.0481 -0.0094      0.0000  0.0000  0.0000  0.0000  0.0000  0.0000  0.0000  0.0000  0.0000  0.0000
  o =  0.9033  v =  0.0000  0.0000  0.0000  0.0000  0.0000 -0.0157 -0.6699  0.0041  0.6417 -0.3730      0.0000  0.0000  0.0000  0.0000  0.0000  0.0000  0.0000  0.0000  0.0000  0.0000
  o =  0.9202  v =  0.0000  0.0000  0.0000  0.0000  0.0000 -0.1639 -0.6639 -0.2395 -0.6892  0.0110      0.0000  0.0000  0.0000  0.0000  0.0000  0.0000  0.0000  0.0000  0.0000  0.0000
  o =  0.9489  v =  0.0000  0.0000  0.0000  0.0000  0.0000 -0.6702  0.2024 -0.6847  0.2024  0.0054      0.0000  0.0000  0.0000  0.0000  0.0000  0.0000  0.0000  0.0000  0.0000  0.0000
atom =   2  type =  1  l = 2
 
 onsite density matrix
 
spin component  1
 
  0.9211 -0.0039 -0.0096 -0.0041  0.0001
 -0.0039  0.9110 -0.0026 -0.0280  0.0051
 -0.0096 -0.0026  0.9222 -0.0025 -0.0005
 -0.0041 -0.0280 -0.0025  0.9115 -0.0052
  0.0001  0.0051 -0.0005 -0.0052  0.8845
 
spin component  2
 
  0.1369  0.0131 -0.0527  0.0134  0.0001
  0.0131  0.0923  0.0093  0.0086 -0.0142
 -0.0527  0.0093  0.0713  0.0091  0.0013
  0.0134  0.0086  0.0091  0.0908  0.0145
  0.0001 -0.0142  0.0013  0.0145  0.0957
 
 occupancies and eigenvectors
 
  o =  0.0354  v =  0.0000  0.0000  0.0000  0.0000  0.0000 -0.4827  0.2184 -0.8209  0.2122  0.0189      0.0000  0.0000  0.0000  0.0000  0.0000  0.0000  0.0000  0.0000  0.0000  0.0000
  o =  0.0680  v =  0.0000  0.0000  0.0000  0.0000  0.0000  0.0104  0.5497  0.0012 -0.5902  0.5911      0.0000  0.0000  0.0000  0.0000  0.0000  0.0000  0.0000  0.0000  0.0000  0.0000
  o =  0.1051  v =  0.0000  0.0000  0.0000  0.0000  0.0000  0.0122  0.6836  0.3415  0.6449  0.0073      0.0000  0.0000  0.0000  0.0000  0.0000  0.0000  0.0000  0.0000  0.0000  0.0000
  o =  0.1106  v =  0.0000  0.0000  0.0000  0.0000  0.0000  0.0113 -0.4133  0.0112  0.4228  0.8063      0.0000  0.0000  0.0000  0.0000  0.0000  0.0000  0.0000  0.0000  0.0000  0.0000
  o =  0.1678  v =  0.0000  0.0000  0.0000  0.0000  0.0000 -0.8755 -0.1097  0.4575 -0.1095  0.0071      0.0000  0.0000  0.0000  0.0000  0.0000  0.0000  0.0000  0.0000  0.0000  0.0000
  o =  0.8818  v = -0.1725 -0.6852 -0.1287 -0.6920 -0.0730  0.0000  0.0000  0.0000  0.0000  0.0000      0.0000  0.0000  0.0000  0.0000  0.0000  0.0000  0.0000  0.0000  0.0000  0.0000
  o =  0.8836  v = -0.0119 -0.1433  0.0018  0.0402  0.9888  0.0000  0.0000  0.0000  0.0000  0.0000      0.0000  0.0000  0.0000  0.0000  0.0000  0.0000  0.0000  0.0000  0.0000  0.0000
  o =  0.9135  v = -0.7004  0.1514 -0.6810  0.1505  0.0086  0.0000  0.0000  0.0000  0.0000  0.0000      0.0000  0.0000  0.0000  0.0000  0.0000  0.0000  0.0000  0.0000  0.0000  0.0000
  o =  0.9313  v =  0.6922 -0.0375 -0.7207 -0.0018  0.0042  0.0000  0.0000  0.0000  0.0000  0.0000      0.0000  0.0000  0.0000  0.0000  0.0000  0.0000  0.0000  0.0000  0.0000  0.0000
  o =  0.9402  v =  0.0174  0.6969 -0.0171 -0.7049  0.1298  0.0000  0.0000  0.0000  0.0000  0.0000      0.0000  0.0000  0.0000  0.0000  0.0000  0.0000  0.0000  0.0000  0.0000  0.0000
     EDDAV:  cpu time    4.4669: real time    4.4867
 BZINTS: Fermi energy:  4.756118; 54.000000 electrons
         Band energy:-800.239005;  BLOECHL correction:  0.000000
       DOS:  cpu time    0.0079: real time    0.0079
    CHARGE:  cpu time    0.5575: real time    0.5575
    MIXING:  cpu time    0.0005: real time    0.0005
    --------------------------------------------
      LOOP:  cpu time   10.1413: real time   10.5325

 eigenvalue-minimisations  :  8700
 total energy-change (2. order) :-0.4849917E+02  (-0.1102728E+03)
 number of electron      54.0000007 magnetization       0.0000000
 augmentation part       20.6183490 magnetization      -0.0010871

 Broyden mixing:
  rms(total) = 0.20485E+01    rms(broyden)= 0.20485E+01
  rms(prec ) = 0.22001E+01
  weight for this iteration     100.00

 Free energy of the ion-electron system (eV)
  ---------------------------------------------------
  alpha Z        PSCENC =       199.38838823
  Ewald energy   TEWEN  =     -4203.06823030
  -Hartree energ DENC   =     -2124.67457201
  -exchange      EXHF   =         0.00000000
  -V(xc)+E(xc)   XCENC  =       166.37153565
  PAW double counting   =      7662.47610696    -7637.76414721
  entropy T*S    EENTRO =         0.00000000
  eigenvalues    EBANDS =      -800.23900498
  atomic energy  EATOM  =      6689.01075358
  Solvation  Ediel_sol  =         0.00000000
  ---------------------------------------------------
  free energy    TOTEN  =       -48.49917008 eV

  energy without entropy =      -48.49917008  energy(sigma->0) =      -48.49917008


--------------------------------------------------------------------------------------------------------




--------------------------------------- Iteration      1(   2)  ---------------------------------------


    POTLOK:  cpu time    0.0341: real time    0.4055
    SETDIJ:  cpu time    5.6369: real time    5.6369
atom =   1  type =  1  l = 2
 
 onsite density matrix
 
spin component  1
 
  0.0339 -0.0016  0.0350 -0.0017 -0.0001
 -0.0016  0.0226 -0.0007  0.0240  0.0017
  0.0350 -0.0007  0.0240 -0.0008 -0.0002
 -0.0017  0.0240 -0.0008  0.0225 -0.0024
 -0.0001  0.0017 -0.0002 -0.0024 -0.0197
 
spin component  2
 
  1.0040  0.0051 -0.0020  0.0054  0.0001
  0.0051  0.9835  0.0047  0.0229 -0.0062
 -0.0020  0.0047  0.9704  0.0048  0.0006
  0.0054  0.0229  0.0048  0.9832  0.0072
  0.0001 -0.0062  0.0006  0.0072  0.9944
 
 occupancies and eigenvectors
 
  o = -0.0202  v =  0.0032  0.1031 -0.0075 -0.1133 -0.9882  0.0000  0.0000  0.0000  0.0000  0.0000      0.0000  0.0000  0.0000  0.0000  0.0000  0.0000  0.0000  0.0000  0.0000  0.0000
  o = -0.0064  v =  0.6561  0.0083 -0.7545  0.0106  0.0075  0.0000  0.0000  0.0000  0.0000  0.0000      0.0000  0.0000  0.0000  0.0000  0.0000  0.0000  0.0000  0.0000  0.0000  0.0000
  o = -0.0009  v = -0.0004  0.6994 -0.0010 -0.6982  0.1530  0.0000  0.0000  0.0000  0.0000  0.0000      0.0000  0.0000  0.0000  0.0000  0.0000  0.0000  0.0000  0.0000  0.0000  0.0000
  o =  0.0462  v =  0.0946  0.7007  0.0998  0.7001 -0.0076  0.0000  0.0000  0.0000  0.0000  0.0000      0.0000  0.0000  0.0000  0.0000  0.0000  0.0000  0.0000  0.0000  0.0000  0.0000
  o =  0.0647  v = -0.7487  0.0959 -0.6486  0.0977  0.0013  0.0000  0.0000  0.0000  0.0000  0.0000      0.0000  0.0000  0.0000  0.0000  0.0000  0.0000  0.0000  0.0000  0.0000  0.0000
  o =  0.9579  v =  0.0000  0.0000  0.0000  0.0000  0.0000 -0.0053 -0.6793  0.0030  0.6890 -0.2526      0.0000  0.0000  0.0000  0.0000  0.0000  0.0000  0.0000  0.0000  0.0000  0.0000
  o =  0.9689  v =  0.0000  0.0000  0.0000  0.0000  0.0000 -0.0955  0.1334 -0.9762  0.1411  0.0167      0.0000  0.0000  0.0000  0.0000  0.0000  0.0000  0.0000  0.0000  0.0000  0.0000
  o =  0.9968  v =  0.0000  0.0000  0.0000  0.0000  0.0000  0.1151 -0.2740 -0.0209  0.0795  0.9513      0.0000  0.0000  0.0000  0.0000  0.0000  0.0000  0.0000  0.0000  0.0000  0.0000
  o =  0.9988  v =  0.0000  0.0000  0.0000  0.0000  0.0000  0.7712 -0.3850 -0.1939 -0.4358 -0.1720      0.0000  0.0000  0.0000  0.0000  0.0000  0.0000  0.0000  0.0000  0.0000  0.0000
  o =  1.0130  v =  0.0000  0.0000  0.0000  0.0000  0.0000 -0.6188 -0.5455 -0.0950 -0.5560 -0.0378      0.0000  0.0000  0.0000  0.0000  0.0000  0.0000  0.0000  0.0000  0.0000  0.0000
atom =   2  type =  1  l = 2
 
 onsite density matrix
 
spin component  1
 
  1.0037  0.0070 -0.0264  0.0072 -0.0001
  0.0070  0.9852  0.0068  0.0029 -0.0087
 -0.0264  0.0068  0.9713  0.0067  0.0008
  0.0072  0.0029  0.0067  0.9840  0.0092
 -0.0001 -0.0087  0.0008  0.0092  0.9902
 
spin component  2
 
  0.0375 -0.0027 -0.0284 -0.0026  0.0002
 -0.0027  0.0197 -0.0009 -0.0303  0.0032
 -0.0284 -0.0009  0.0245 -0.0010 -0.0004
 -0.0026 -0.0303 -0.0010  0.0204 -0.0038
  0.0002  0.0032 -0.0004 -0.0038 -0.0171
 
 occupancies and eigenvectors
 
  o = -0.0175  v =  0.0000  0.0000  0.0000  0.0000  0.0000  0.0092 -0.0095  0.0169  0.0926  0.9955      0.0000  0.0000  0.0000  0.0000  0.0000  0.0000  0.0000  0.0000  0.0000  0.0000
  o = -0.0112  v =  0.0000  0.0000  0.0000  0.0000  0.0000  0.1781  0.6903  0.1781  0.6755 -0.0609      0.0000  0.0000  0.0000  0.0000  0.0000  0.0000  0.0000  0.0000  0.0000  0.0000
  o =  0.0027  v =  0.0000  0.0000  0.0000  0.0000  0.0000  0.5963 -0.1790  0.7626 -0.1756 -0.0039      0.0000  0.0000  0.0000  0.0000  0.0000  0.0000  0.0000  0.0000  0.0000  0.0000
  o =  0.0507  v =  0.0000  0.0000  0.0000  0.0000  0.0000 -0.0043 -0.7005  0.0020  0.7099 -0.0727      0.0000  0.0000  0.0000  0.0000  0.0000  0.0000  0.0000  0.0000  0.0000  0.0000
  o =  0.0602  v =  0.0000  0.0000  0.0000  0.0000  0.0000 -0.7827  0.0244  0.6217  0.0171 -0.0047      0.0000  0.0000  0.0000  0.0000  0.0000  0.0000  0.0000  0.0000  0.0000  0.0000
  o =  0.9516  v = -0.4766  0.2431 -0.8075  0.2482  0.0111  0.0000  0.0000  0.0000  0.0000  0.0000      0.0000  0.0000  0.0000  0.0000  0.0000  0.0000  0.0000  0.0000  0.0000  0.0000
  o =  0.9726  v =  0.0047  0.5459 -0.0155 -0.6018  0.5827  0.0000  0.0000  0.0000  0.0000  0.0000      0.0000  0.0000  0.0000  0.0000  0.0000  0.0000  0.0000  0.0000  0.0000  0.0000
  o =  0.9918  v = -0.0467 -0.6895 -0.3708 -0.6204 -0.0042  0.0000  0.0000  0.0000  0.0000  0.0000      0.0000  0.0000  0.0000  0.0000  0.0000  0.0000  0.0000  0.0000  0.0000  0.0000
  o =  0.9993  v = -0.0184  0.3966 -0.0121 -0.4267 -0.8125  0.0000  0.0000  0.0000  0.0000  0.0000      0.0000  0.0000  0.0000  0.0000  0.0000  0.0000  0.0000  0.0000  0.0000  0.0000
  o =  1.0191  v = -0.8777 -0.1007  0.4584 -0.0961  0.0143  0.0000  0.0000  0.0000  0.0000  0.0000      0.0000  0.0000  0.0000  0.0000  0.0000  0.0000  0.0000  0.0000  0.0000  0.0000
     EDDAV:  cpu time    4.0167: real time    4.0167
 BZINTS: Fermi energy:  2.924061; 54.000000 electrons
         Band energy:-786.346766;  BLOECHL correction:  0.000000
       DOS:  cpu time    0.0047: real time    0.0047
    CHARGE:  cpu time    0.5528: real time    0.5528
    MIXING:  cpu time    0.0008: real time    0.0008
    --------------------------------------------
      LOOP:  cpu time   10.2458: real time   10.2459

 eigenvalue-minimisations  :  7464
 total energy-change (2. order) :-0.1918470E+02  (-0.1988586E+02)
 number of electron      54.0000007 magnetization       0.0000000
 augmentation part       20.0004208 magnetization       0.0003316

 Broyden mixing:
  rms(total) = 0.19205E+01    rms(broyden)= 0.19205E+01
  rms(prec ) = 0.19440E+01
  weight for this iteration     100.00

 eigenvalues of (default mixing * dielectric matrix)
  average eigenvalue GAMMA=   0.4035
  0.4035

 Free energy of the ion-electron system (eV)
  ---------------------------------------------------
  alpha Z        PSCENC =       199.38838823
  Ewald energy   TEWEN  =     -4203.06823030
  -Hartree energ DENC   =     -2154.89509496
  -exchange      EXHF   =         0.00000000
  -V(xc)+E(xc)   XCENC  =       161.82943189
  PAW double counting   =      7503.27564615    -7476.87799574
  entropy T*S    EENTRO =         0.00000000
  eigenvalues    EBANDS =      -786.34676619
  atomic energy  EATOM  =      6689.01075358
  Solvation  Ediel_sol  =         0.00000000
  ---------------------------------------------------
  free energy    TOTEN  =       -67.68386733 eV

  energy without entropy =      -67.68386733  energy(sigma->0) =      -67.68386733


--------------------------------------------------------------------------------------------------------




--------------------------------------- Iteration      1(   3)  ---------------------------------------


    POTLOK:  cpu time    0.0357: real time    0.0357
    SETDIJ:  cpu time    5.0856: real time    5.0856
atom =   1  type =  1  l = 2
 
 onsite density matrix
 
spin component  1
 
  0.0622  0.0015  0.0196  0.0016  0.0000
  0.0015  0.0451  0.0018  0.0249 -0.0023
  0.0196  0.0018  0.0399  0.0018  0.0002
  0.0016  0.0249  0.0018  0.0450  0.0026
  0.0000 -0.0023  0.0002  0.0026  0.0273
 
spin component  2
 
  0.9688  0.0009  0.0178  0.0010 -0.0000
  0.0009  0.9591  0.0009  0.0199 -0.0007
  0.0178  0.0009  0.9526  0.0009  0.0000
  0.0010  0.0199  0.0009  0.9590  0.0007
 -0.0000 -0.0007  0.0000  0.0007  0.9420
 
 occupancies and eigenvectors
 
  o =  0.0187  v = -0.0050 -0.6545  0.0080  0.6577 -0.3726  0.0000  0.0000  0.0000  0.0000  0.0000      0.0000  0.0000  0.0000  0.0000  0.0000  0.0000  0.0000  0.0000  0.0000  0.0000
  o =  0.0284  v =  0.4358 -0.1195 -0.7553  0.1489  0.4506  0.0000  0.0000  0.0000  0.0000  0.0000      0.0000  0.0000  0.0000  0.0000  0.0000  0.0000  0.0000  0.0000  0.0000  0.0000
  o =  0.0288  v = -0.2474 -0.2375  0.4214  0.2163  0.8112  0.0000  0.0000  0.0000  0.0000  0.0000      0.0000  0.0000  0.0000  0.0000  0.0000  0.0000  0.0000  0.0000  0.0000  0.0000
  o =  0.0681  v = -0.4505  0.6102 -0.2357  0.6076  0.0017  0.0000  0.0000  0.0000  0.0000  0.0000      0.0000  0.0000  0.0000  0.0000  0.0000  0.0000  0.0000  0.0000  0.0000  0.0000
  o =  0.0755  v = -0.7388 -0.3586 -0.4430 -0.3595 -0.0044  0.0000  0.0000  0.0000  0.0000  0.0000      0.0000  0.0000  0.0000  0.0000  0.0000  0.0000  0.0000  0.0000  0.0000  0.0000
  o =  0.9388  v =  0.0000  0.0000  0.0000  0.0000  0.0000  0.0135  0.6748 -0.0193 -0.6757  0.2960      0.0000  0.0000  0.0000  0.0000  0.0000  0.0000  0.0000  0.0000  0.0000  0.0000
  o =  0.9411  v =  0.0000  0.0000  0.0000  0.0000  0.0000 -0.5411  0.0135  0.8404 -0.0261 -0.0108      0.0000  0.0000  0.0000  0.0000  0.0000  0.0000  0.0000  0.0000  0.0000  0.0000
  o =  0.9423  v =  0.0000  0.0000  0.0000  0.0000  0.0000 -0.0109 -0.2080  0.0152  0.2100  0.9551      0.0000  0.0000  0.0000  0.0000  0.0000  0.0000  0.0000  0.0000  0.0000  0.0000
  o =  0.9776  v =  0.0000  0.0000  0.0000  0.0000  0.0000  0.4856 -0.5808  0.3041 -0.5783  0.0014      0.0000  0.0000  0.0000  0.0000  0.0000  0.0000  0.0000  0.0000  0.0000  0.0000
  o =  0.9815  v =  0.0000  0.0000  0.0000  0.0000  0.0000 -0.6864 -0.4050 -0.4480 -0.4052  0.0003      0.0000  0.0000  0.0000  0.0000  0.0000  0.0000  0.0000  0.0000  0.0000  0.0000
atom =   2  type =  1  l = 2
 
 onsite density matrix
 
spin component  1
 
  0.9697  0.0004 -0.0225  0.0005  0.0000
  0.0004  0.9579  0.0015 -0.0157 -0.0011
 -0.0225  0.0015  0.9536  0.0015  0.0000
  0.0005 -0.0157  0.0015  0.9579  0.0010
  0.0000 -0.0011  0.0000  0.0010  0.9419
 
spin component  2
 
  0.0631  0.0025 -0.0300  0.0026  0.0000
  0.0025  0.0452  0.0026 -0.0155 -0.0028
 -0.0300  0.0026  0.0399  0.0026  0.0002
  0.0026 -0.0155  0.0026  0.0449  0.0028
  0.0000 -0.0028  0.0002  0.0028  0.0263
 
 occupancies and eigenvectors
 
  o =  0.0172  v =  0.0000  0.0000  0.0000  0.0000  0.0000 -0.5273  0.2687 -0.7600  0.2678  0.0210      0.0000  0.0000  0.0000  0.0000  0.0000  0.0000  0.0000  0.0000  0.0000  0.0000
  o =  0.0258  v =  0.0000  0.0000  0.0000  0.0000  0.0000  0.0078  0.0585  0.0068 -0.1018  0.9930      0.0000  0.0000  0.0000  0.0000  0.0000  0.0000  0.0000  0.0000  0.0000  0.0000
  o =  0.0316  v =  0.0000  0.0000  0.0000  0.0000  0.0000 -0.2028 -0.6525 -0.3216 -0.6551 -0.0249      0.0000  0.0000  0.0000  0.0000  0.0000  0.0000  0.0000  0.0000  0.0000  0.0000
  o =  0.0610  v =  0.0000  0.0000  0.0000  0.0000  0.0000  0.0027  0.7061 -0.0017 -0.6990 -0.1133      0.0000  0.0000  0.0000  0.0000  0.0000  0.0000  0.0000  0.0000  0.0000  0.0000
  o =  0.0837  v =  0.0000  0.0000  0.0000  0.0000  0.0000 -0.8251 -0.0085  0.5648 -0.0134  0.0018      0.0000  0.0000  0.0000  0.0000  0.0000  0.0000  0.0000  0.0000  0.0000  0.0000
  o =  0.9369  v =  0.5310 -0.2624  0.7617 -0.2621 -0.0158  0.0000  0.0000  0.0000  0.0000  0.0000      0.0000  0.0000  0.0000  0.0000  0.0000  0.0000  0.0000  0.0000  0.0000  0.0000
  o =  0.9419  v =  0.0145  0.0474  0.0206 -0.0185  0.9984  0.0000  0.0000  0.0000  0.0000  0.0000      0.0000  0.0000  0.0000  0.0000  0.0000  0.0000  0.0000  0.0000  0.0000  0.0000
  o =  0.9431  v =  0.2255  0.6559  0.2942  0.6570 -0.0283  0.0000  0.0000  0.0000  0.0000  0.0000      0.0000  0.0000  0.0000  0.0000  0.0000  0.0000  0.0000  0.0000  0.0000  0.0000
  o =  0.9737  v =  0.0047  0.7060 -0.0041 -0.7067 -0.0466  0.0000  0.0000  0.0000  0.0000  0.0000      0.0000  0.0000  0.0000  0.0000  0.0000  0.0000  0.0000  0.0000  0.0000  0.0000
  o =  0.9856  v = -0.8167  0.0154  0.5769  0.0067 -0.0006  0.0000  0.0000  0.0000  0.0000  0.0000      0.0000  0.0000  0.0000  0.0000  0.0000  0.0000  0.0000  0.0000  0.0000  0.0000
     EDDAV:  cpu time    4.0835: real time    4.0836
 BZINTS: Fermi energy:  2.581007; 54.000000 electrons
         Band energy:-792.134873;  BLOECHL correction:  0.000000
       DOS:  cpu time    0.0037: real time    0.0037
    CHARGE:  cpu time    0.5219: real time    0.5219
    MIXING:  cpu time    0.0006: real time    0.0006
    --------------------------------------------
      LOOP:  cpu time    9.7310: real time    9.7311

 eigenvalue-minimisations  :  8280
 total energy-change (2. order) :-0.4167334E+00  (-0.3050825E+00)
 number of electron      54.0000007 magnetization      -0.0000000
 augmentation part       19.9476805 magnetization       0.0019912

 Broyden mixing:
  rms(total) = 0.14221E+01    rms(broyden)= 0.14221E+01
  rms(prec ) = 0.14371E+01
  weight for this iteration     100.00

 eigenvalues of (default mixing * dielectric matrix)
  average eigenvalue GAMMA=   1.2865
  1.9994  0.5737

 Free energy of the ion-electron system (eV)
  ---------------------------------------------------
  alpha Z        PSCENC =       199.38838823
  Ewald energy   TEWEN  =     -4203.06823030
  -Hartree energ DENC   =     -2156.07009728
  -exchange      EXHF   =         0.00000000
  -V(xc)+E(xc)   XCENC  =       166.73015270
  PAW double counting   =      7234.56156101    -7206.51825576
  entropy T*S    EENTRO =         0.00000000
  eigenvalues    EBANDS =      -792.13487288
  atomic energy  EATOM  =      6689.01075358
  Solvation  Ediel_sol  =         0.00000000
  ---------------------------------------------------
  free energy    TOTEN  =       -68.10060071 eV

  energy without entropy =      -68.10060071  energy(sigma->0) =      -68.10060071


--------------------------------------------------------------------------------------------------------




--------------------------------------- Iteration      1(   4)  ---------------------------------------


    POTLOK:  cpu time    0.0326: real time    0.0326
    SETDIJ:  cpu time    2.5563: real time    2.5563
atom =   1  type =  1  l = 2
 
 onsite density matrix
 
spin component  1
 
  0.0478 -0.0005  0.0353 -0.0005 -0.0000
 -0.0005  0.0390 -0.0007  0.0252  0.0013
  0.0353 -0.0007  0.0347 -0.0007 -0.0002
 -0.0005  0.0252 -0.0007  0.0391 -0.0016
 -0.0000  0.0013 -0.0002 -0.0016  0.0030
 
spin component  2
 
  0.9722  0.0011  0.0097  0.0011  0.0000
  0.0011  0.9634  0.0014  0.0161 -0.0021
  0.0097  0.0014  0.9559  0.0014  0.0002
  0.0011  0.0161  0.0014  0.9633  0.0024
  0.0000 -0.0021  0.0002  0.0024  0.9585
 
 occupancies and eigenvectors
 
  o =  0.0026  v =  0.0258  0.1258 -0.0339 -0.1309 -0.9825  0.0000  0.0000  0.0000  0.0000  0.0000      0.0000  0.0000  0.0000  0.0000  0.0000  0.0000  0.0000  0.0000  0.0000  0.0000
  o =  0.0054  v =  0.6387 -0.0093 -0.7683  0.0017  0.0418  0.0000  0.0000  0.0000  0.0000  0.0000      0.0000  0.0000  0.0000  0.0000  0.0000  0.0000  0.0000  0.0000  0.0000  0.0000
  o =  0.0142  v =  0.0001  0.6962  0.0000 -0.6945  0.1817  0.0000  0.0000  0.0000  0.0000  0.0000      0.0000  0.0000  0.0000  0.0000  0.0000  0.0000  0.0000  0.0000  0.0000  0.0000
  o =  0.0641  v =  0.0734  0.7038  0.0539  0.7045 -0.0037  0.0000  0.0000  0.0000  0.0000  0.0000      0.0000  0.0000  0.0000  0.0000  0.0000  0.0000  0.0000  0.0000  0.0000  0.0000
  o =  0.0773  v = -0.7655  0.0641 -0.6369  0.0645  0.0015  0.0000  0.0000  0.0000  0.0000  0.0000      0.0000  0.0000  0.0000  0.0000  0.0000  0.0000  0.0000  0.0000  0.0000  0.0000
  o =  0.9464  v =  0.0000  0.0000  0.0000  0.0000  0.0000 -0.0037 -0.6813  0.0065  0.6857 -0.2561      0.0000  0.0000  0.0000  0.0000  0.0000  0.0000  0.0000  0.0000  0.0000  0.0000
  o =  0.9514  v =  0.0000  0.0000  0.0000  0.0000  0.0000  0.4182  0.0183 -0.9071  0.0372  0.0218      0.0000  0.0000  0.0000  0.0000  0.0000  0.0000  0.0000  0.0000  0.0000  0.0000
  o =  0.9593  v =  0.0000  0.0000  0.0000  0.0000  0.0000 -0.0158 -0.1893  0.0192  0.1726  0.9663      0.0000  0.0000  0.0000  0.0000  0.0000  0.0000  0.0000  0.0000  0.0000  0.0000
  o =  0.9754  v =  0.0000  0.0000  0.0000  0.0000  0.0000 -0.7995  0.3481 -0.3474  0.3450  0.0004      0.0000  0.0000  0.0000  0.0000  0.0000  0.0000  0.0000  0.0000  0.0000  0.0000
  o =  0.9807  v =  0.0000  0.0000  0.0000  0.0000  0.0000 -0.4309 -0.6152 -0.2367 -0.6161 -0.0128      0.0000  0.0000  0.0000  0.0000  0.0000  0.0000  0.0000  0.0000  0.0000  0.0000
atom =   2  type =  1  l = 2
 
 onsite density matrix
 
spin component  1
 
  0.9721  0.0025 -0.0181  0.0026 -0.0000
  0.0025  0.9648  0.0018 -0.0085 -0.0024
 -0.0181  0.0018  0.9553  0.0018  0.0003
  0.0026 -0.0085  0.0018  0.9644  0.0026
 -0.0000 -0.0024  0.0003  0.0026  0.9574
 
spin component  2
 
  0.0483 -0.0018 -0.0309 -0.0018  0.0000
 -0.0018  0.0371 -0.0007 -0.0290  0.0014
 -0.0309 -0.0007  0.0354 -0.0007 -0.0002
 -0.0018 -0.0290 -0.0007  0.0375 -0.0016
  0.0000  0.0014 -0.0002 -0.0016  0.0039
 
 occupancies and eigenvectors
 
  o =  0.0038  v =  0.0000  0.0000  0.0000  0.0000  0.0000 -0.0218 -0.0090 -0.0287 -0.0554 -0.9978      0.0000  0.0000  0.0000  0.0000  0.0000  0.0000  0.0000  0.0000  0.0000  0.0000
  o =  0.0067  v =  0.0000  0.0000  0.0000  0.0000  0.0000  0.3587  0.5932  0.4147  0.5867 -0.0577      0.0000  0.0000  0.0000  0.0000  0.0000  0.0000  0.0000  0.0000  0.0000  0.0000
  o =  0.0118  v =  0.0000  0.0000  0.0000  0.0000  0.0000 -0.5179  0.3892 -0.6559  0.3873  0.0052      0.0000  0.0000  0.0000  0.0000  0.0000  0.0000  0.0000  0.0000  0.0000  0.0000
  o =  0.0664  v =  0.0000  0.0000  0.0000  0.0000  0.0000 -0.0010  0.7045  0.0006 -0.7089  0.0330      0.0000  0.0000  0.0000  0.0000  0.0000  0.0000  0.0000  0.0000  0.0000  0.0000
  o =  0.0734  v =  0.0000  0.0000  0.0000  0.0000  0.0000  0.7763 -0.0138 -0.6301 -0.0152  0.0021      0.0000  0.0000  0.0000  0.0000  0.0000  0.0000  0.0000  0.0000  0.0000  0.0000
  o =  0.9426  v =  0.5250 -0.2045  0.8003 -0.2048 -0.0115  0.0000  0.0000  0.0000  0.0000  0.0000      0.0000  0.0000  0.0000  0.0000  0.0000  0.0000  0.0000  0.0000  0.0000  0.0000
  o =  0.9565  v =  0.0212  0.0574  0.0760  0.3466 -0.9329  0.0000  0.0000  0.0000  0.0000  0.0000      0.0000  0.0000  0.0000  0.0000  0.0000  0.0000  0.0000  0.0000  0.0000  0.0000
  o =  0.9574  v = -0.1034 -0.6821 -0.2660 -0.6069 -0.2915  0.0000  0.0000  0.0000  0.0000  0.0000      0.0000  0.0000  0.0000  0.0000  0.0000  0.0000  0.0000  0.0000  0.0000  0.0000
  o =  0.9739  v =  0.0002 -0.6985 -0.0005  0.6838  0.2110  0.0000  0.0000  0.0000  0.0000  0.0000      0.0000  0.0000  0.0000  0.0000  0.0000  0.0000  0.0000  0.0000  0.0000  0.0000
  o =  0.9837  v =  0.8446  0.0423 -0.5319  0.0442 -0.0051  0.0000  0.0000  0.0000  0.0000  0.0000      0.0000  0.0000  0.0000  0.0000  0.0000  0.0000  0.0000  0.0000  0.0000  0.0000
     EDDAV:  cpu time    3.9653: real time    3.9653
 BZINTS: Fermi energy:  2.177354; 54.000000 electrons
         Band energy:-798.010301;  BLOECHL correction:  0.000000
       DOS:  cpu time    0.0037: real time    0.0037
    CHARGE:  cpu time    0.5261: real time    0.5261
    MIXING:  cpu time    0.0006: real time    0.0006
    --------------------------------------------
      LOOP:  cpu time    7.0846: real time    7.0847

 eigenvalue-minimisations  :  7980
 total energy-change (2. order) : 0.3897819E-01  (-0.8370903E-01)
 number of electron      54.0000007 magnetization       0.0000000
 augmentation part       20.0087933 magnetization       0.0006736

 Broyden mixing:
  rms(total) = 0.32480E+00    rms(broyden)= 0.32478E+00
  rms(prec ) = 0.38087E+00
  weight for this iteration     100.00

 eigenvalues of (default mixing * dielectric matrix)
  average eigenvalue GAMMA=   1.2205
  1.9543  0.8536  0.8536

 Free energy of the ion-electron system (eV)
  ---------------------------------------------------
  alpha Z        PSCENC =       199.38838823
  Ewald energy   TEWEN  =     -4203.06823030
  -Hartree energ DENC   =     -2155.67719644
  -exchange      EXHF   =         0.00000000
  -V(xc)+E(xc)   XCENC  =       167.07549377
  PAW double counting   =      6718.62452563    -6685.40505602
  entropy T*S    EENTRO =         0.00000000
  eigenvalues    EBANDS =      -798.01030098
  atomic energy  EATOM  =      6689.01075358
  Solvation  Ediel_sol  =         0.00000000
  ---------------------------------------------------
  free energy    TOTEN  =       -68.06162252 eV

  energy without entropy =      -68.06162252  energy(sigma->0) =      -68.06162252


--------------------------------------------------------------------------------------------------------




--------------------------------------- Iteration      1(   5)  ---------------------------------------


    POTLOK:  cpu time    0.0326: real time    0.0326
    SETDIJ:  cpu time    2.5328: real time    2.5328
atom =   1  type =  1  l = 2
 
 onsite density matrix
 
spin component  1
 
  0.0685  0.0014  0.0227  0.0015  0.0000
  0.0014  0.0536  0.0014  0.0260 -0.0023
  0.0227  0.0014  0.0451  0.0015  0.0003
  0.0015  0.0260  0.0015  0.0535  0.0027
  0.0000 -0.0023  0.0003  0.0027  0.0370
 
spin component  2
 
  0.9517 -0.0013  0.0254 -0.0014 -0.0000
 -0.0013  0.9514 -0.0014  0.0148  0.0022
  0.0254 -0.0014  0.9477 -0.0014 -0.0002
 -0.0014  0.0148 -0.0014  0.9515 -0.0026
 -0.0000  0.0022 -0.0002 -0.0026  0.9245
 
 occupancies and eigenvectors
 
  o =  0.0264  v = -0.0058 -0.6698  0.0090  0.6732 -0.3132  0.0000  0.0000  0.0000  0.0000  0.0000      0.0000  0.0000  0.0000  0.0000  0.0000  0.0000  0.0000  0.0000  0.0000  0.0000
  o =  0.0313  v =  0.5198 -0.0034 -0.8537  0.0228  0.0221  0.0000  0.0000  0.0000  0.0000  0.0000      0.0000  0.0000  0.0000  0.0000  0.0000  0.0000  0.0000  0.0000  0.0000  0.0000
  o =  0.0382  v = -0.0169 -0.2260  0.0210  0.2164  0.9494  0.0000  0.0000  0.0000  0.0000  0.0000      0.0000  0.0000  0.0000  0.0000  0.0000  0.0000  0.0000  0.0000  0.0000  0.0000
  o =  0.0778  v = -0.4529  0.6033 -0.2620  0.6019  0.0042  0.0000  0.0000  0.0000  0.0000  0.0000      0.0000  0.0000  0.0000  0.0000  0.0000  0.0000  0.0000  0.0000  0.0000  0.0000
  o =  0.0840  v = -0.7241 -0.3692 -0.4495 -0.3705 -0.0064  0.0000  0.0000  0.0000  0.0000  0.0000      0.0000  0.0000  0.0000  0.0000  0.0000  0.0000  0.0000  0.0000  0.0000  0.0000
  o =  0.9235  v =  0.0000  0.0000  0.0000  0.0000  0.0000  0.1466  0.1691 -0.1648 -0.1796 -0.9437      0.0000  0.0000  0.0000  0.0000  0.0000  0.0000  0.0000  0.0000  0.0000  0.0000
  o =  0.9242  v =  0.0000  0.0000  0.0000  0.0000  0.0000  0.6627 -0.0428 -0.7157  0.0403  0.2126      0.0000  0.0000  0.0000  0.0000  0.0000  0.0000  0.0000  0.0000  0.0000  0.0000
  o =  0.9376  v =  0.0000  0.0000  0.0000  0.0000  0.0000  0.0023  0.6868 -0.0020 -0.6812  0.2534      0.0000  0.0000  0.0000  0.0000  0.0000  0.0000  0.0000  0.0000  0.0000  0.0000
  o =  0.9655  v =  0.0000  0.0000  0.0000  0.0000  0.0000  0.2009  0.6794  0.1813  0.6820 -0.0085      0.0000  0.0000  0.0000  0.0000  0.0000  0.0000  0.0000  0.0000  0.0000  0.0000
  o =  0.9760  v =  0.0000  0.0000  0.0000  0.0000  0.0000 -0.7064  0.1904 -0.6540  0.1923  0.0020      0.0000  0.0000  0.0000  0.0000  0.0000  0.0000  0.0000  0.0000  0.0000  0.0000
atom =   2  type =  1  l = 2
 
 onsite density matrix
 
spin component  1
 
  0.9525 -0.0028 -0.0169 -0.0028  0.0000
 -0.0028  0.9493 -0.0018 -0.0224  0.0027
 -0.0169 -0.0018  0.9482 -0.0017 -0.0003
 -0.0028 -0.0224 -0.0017  0.9498 -0.0030
  0.0000  0.0027 -0.0003 -0.0030  0.9260
 
spin component  2
 
  0.0675  0.0028 -0.0317  0.0028 -0.0000
  0.0028  0.0556  0.0020 -0.0179 -0.0029
 -0.0317  0.0020  0.0446  0.0019  0.0003
  0.0028 -0.0179  0.0019  0.0551  0.0031
 -0.0000 -0.0029  0.0003  0.0031  0.0355
 
 occupancies and eigenvectors
 
  o =  0.0211  v =  0.0000  0.0000  0.0000  0.0000  0.0000 -0.5585  0.1897 -0.7847  0.1901  0.0120      0.0000  0.0000  0.0000  0.0000  0.0000  0.0000  0.0000  0.0000  0.0000  0.0000
  o =  0.0350  v =  0.0000  0.0000  0.0000  0.0000  0.0000  0.0003  0.0262 -0.0104 -0.1309  0.9910      0.0000  0.0000  0.0000  0.0000  0.0000  0.0000  0.0000  0.0000  0.0000  0.0000
  o =  0.0386  v =  0.0000  0.0000  0.0000  0.0000  0.0000 -0.1284 -0.6801 -0.2382 -0.6774 -0.0740      0.0000  0.0000  0.0000  0.0000  0.0000  0.0000  0.0000  0.0000  0.0000  0.0000
  o =  0.0737  v =  0.0000  0.0000  0.0000  0.0000  0.0000 -0.0002  0.7073  0.0003 -0.6981 -0.1109      0.0000  0.0000  0.0000  0.0000  0.0000  0.0000  0.0000  0.0000  0.0000  0.0000
  o =  0.0897  v =  0.0000  0.0000  0.0000  0.0000  0.0000 -0.8195 -0.0229  0.5722 -0.0233  0.0038      0.0000  0.0000  0.0000  0.0000  0.0000  0.0000  0.0000  0.0000  0.0000  0.0000
  o =  0.9248  v = -0.3170 -0.5942 -0.3216 -0.6174 -0.2486  0.0000  0.0000  0.0000  0.0000  0.0000      0.0000  0.0000  0.0000  0.0000  0.0000  0.0000  0.0000  0.0000  0.0000  0.0000
  o =  0.9257  v = -0.0796 -0.2194 -0.0714 -0.0993  0.9647  0.0000  0.0000  0.0000  0.0000  0.0000      0.0000  0.0000  0.0000  0.0000  0.0000  0.0000  0.0000  0.0000  0.0000  0.0000
  o =  0.9357  v =  0.5720 -0.3286  0.6771 -0.3258 -0.0110  0.0000  0.0000  0.0000  0.0000  0.0000      0.0000  0.0000  0.0000  0.0000  0.0000  0.0000  0.0000  0.0000  0.0000  0.0000
  o =  0.9674  v = -0.7522  0.0304  0.6580  0.0162 -0.0048  0.0000  0.0000  0.0000  0.0000  0.0000      0.0000  0.0000  0.0000  0.0000  0.0000  0.0000  0.0000  0.0000  0.0000  0.0000
  o =  0.9723  v =  0.0072  0.6999 -0.0061 -0.7089  0.0864  0.0000  0.0000  0.0000  0.0000  0.0000      0.0000  0.0000  0.0000  0.0000  0.0000  0.0000  0.0000  0.0000  0.0000  0.0000
     EDDAV:  cpu time    4.0662: real time    4.0662
 BZINTS: Fermi energy:  2.263545; 54.000000 electrons
         Band energy:-797.004977;  BLOECHL correction:  0.000000
       DOS:  cpu time    0.0031: real time    0.0031
    CHARGE:  cpu time    0.5266: real time    0.5266
    MIXING:  cpu time    0.0006: real time    0.0006
    --------------------------------------------
      LOOP:  cpu time    7.1620: real time    7.1621

 eigenvalue-minimisations  :  8304
 total energy-change (2. order) : 0.3005688E-01  (-0.9792918E-02)
 number of electron      54.0000007 magnetization      -0.0000000
 augmentation part       20.0029331 magnetization      -0.0007703

 Broyden mixing:
  rms(total) = 0.13945E+00    rms(broyden)= 0.13945E+00
  rms(prec ) = 0.16052E+00
  weight for this iteration     100.00

 eigenvalues of (default mixing * dielectric matrix)
  average eigenvalue GAMMA=   1.1521
  2.3672  0.8164  0.8164  0.6083

 Free energy of the ion-electron system (eV)
  ---------------------------------------------------
  alpha Z        PSCENC =       199.38838823
  Ewald energy   TEWEN  =     -4203.06823030
  -Hartree energ DENC   =     -2156.18331821
  -exchange      EXHF   =         0.00000000
  -V(xc)+E(xc)   XCENC  =       165.98941439
  PAW double counting   =      6610.94497557    -6577.10857202
  entropy T*S    EENTRO =         0.00000000
  eigenvalues    EBANDS =      -797.00497688
  atomic energy  EATOM  =      6689.01075358
  Solvation  Ediel_sol  =         0.00000000
  ---------------------------------------------------
  free energy    TOTEN  =       -68.03156564 eV

  energy without entropy =      -68.03156564  energy(sigma->0) =      -68.03156564


--------------------------------------------------------------------------------------------------------




--------------------------------------- Iteration      1(   6)  ---------------------------------------


    POTLOK:  cpu time    0.0324: real time    0.0324
    SETDIJ:  cpu time    2.5332: real time    2.5333
atom =   1  type =  1  l = 2
 
 onsite density matrix
 
spin component  1
 
  0.0539 -0.0001  0.0308 -0.0001 -0.0000
 -0.0001  0.0440 -0.0002  0.0245  0.0002
  0.0308 -0.0002  0.0383 -0.0002 -0.0000
 -0.0001  0.0245 -0.0002  0.0440 -0.0003
 -0.0000  0.0002 -0.0000 -0.0003  0.0148
 
spin component  2
 
  0.9665  0.0001  0.0179  0.0001  0.0000
  0.0001  0.9616  0.0001  0.0163 -0.0002
  0.0179  0.0001  0.9549  0.0001  0.0000
  0.0001  0.0163  0.0001  0.9616  0.0002
  0.0000 -0.0002  0.0000  0.0002  0.9468
 
 occupancies and eigenvectors
 
  o =  0.0144  v =  0.6137  0.0017 -0.7880 -0.0044 -0.0488  0.0000  0.0000  0.0000  0.0000  0.0000      0.0000  0.0000  0.0000  0.0000  0.0000  0.0000  0.0000  0.0000  0.0000  0.0000
  o =  0.0148  v = -0.0303  0.0560  0.0384 -0.0566 -0.9956  0.0000  0.0000  0.0000  0.0000  0.0000      0.0000  0.0000  0.0000  0.0000  0.0000  0.0000  0.0000  0.0000  0.0000  0.0000
  o =  0.0195  v = -0.0002  0.7050  0.0004 -0.7047  0.0797  0.0000  0.0000  0.0000  0.0000  0.0000      0.0000  0.0000  0.0000  0.0000  0.0000  0.0000  0.0000  0.0000  0.0000  0.0000
  o =  0.0685  v =  0.0205  0.7068  0.0135  0.7070 -0.0005  0.0000  0.0000  0.0000  0.0000  0.0000      0.0000  0.0000  0.0000  0.0000  0.0000  0.0000  0.0000  0.0000  0.0000  0.0000
  o =  0.0779  v = -0.7887  0.0173 -0.6143  0.0173  0.0003  0.0000  0.0000  0.0000  0.0000  0.0000      0.0000  0.0000  0.0000  0.0000  0.0000  0.0000  0.0000  0.0000  0.0000  0.0000
  o =  0.9419  v =  0.0000  0.0000  0.0000  0.0000  0.0000 -0.5878 -0.0007  0.8090 -0.0021 -0.0034      0.0000  0.0000  0.0000  0.0000  0.0000  0.0000  0.0000  0.0000  0.0000  0.0000
  o =  0.9452  v =  0.0000  0.0000  0.0000  0.0000  0.0000  0.0002  0.6937 -0.0003 -0.6940  0.1928      0.0000  0.0000  0.0000  0.0000  0.0000  0.0000  0.0000  0.0000  0.0000  0.0000
  o =  0.9469  v =  0.0000  0.0000  0.0000  0.0000  0.0000  0.0025  0.1368 -0.0026 -0.1358 -0.9812      0.0000  0.0000  0.0000  0.0000  0.0000  0.0000  0.0000  0.0000  0.0000  0.0000
  o =  0.9778  v =  0.0000  0.0000  0.0000  0.0000  0.0000  0.0946 -0.7025  0.0662 -0.7023 -0.0007      0.0000  0.0000  0.0000  0.0000  0.0000  0.0000  0.0000  0.0000  0.0000  0.0000
  o =  0.9796  v =  0.0000  0.0000  0.0000  0.0000  0.0000 -0.8035 -0.0816 -0.5841 -0.0817 -0.0005      0.0000  0.0000  0.0000  0.0000  0.0000  0.0000  0.0000  0.0000  0.0000  0.0000
atom =   2  type =  1  l = 2
 
 onsite density matrix
 
spin component  1
 
  0.9665  0.0003 -0.0186  0.0003 -0.0000
  0.0003  0.9618  0.0002 -0.0156 -0.0002
 -0.0186  0.0002  0.9547  0.0002  0.0000
  0.0003 -0.0156  0.0002  0.9618  0.0003
 -0.0000 -0.0002  0.0000  0.0003  0.9467
 
spin component  2
 
  0.0538 -0.0003 -0.0299 -0.0003  0.0000
 -0.0003  0.0437 -0.0001 -0.0252  0.0002
 -0.0299 -0.0001  0.0385 -0.0001 -0.0000
 -0.0003 -0.0252 -0.0001  0.0438 -0.0002
  0.0000  0.0002 -0.0000 -0.0002  0.0149
 
 occupancies and eigenvectors
 
  o =  0.0149  v =  0.0000  0.0000  0.0000  0.0000  0.0000 -0.0602 -0.0072 -0.0779 -0.0146 -0.9950      0.0000  0.0000  0.0000  0.0000  0.0000  0.0000  0.0000  0.0000  0.0000  0.0000
  o =  0.0152  v =  0.0000  0.0000  0.0000  0.0000  0.0000  0.6061  0.0876  0.7795  0.0867 -0.0996      0.0000  0.0000  0.0000  0.0000  0.0000  0.0000  0.0000  0.0000  0.0000  0.0000
  o =  0.0186  v =  0.0000  0.0000  0.0000  0.0000  0.0000 -0.0730  0.7020 -0.1005  0.7013 -0.0031      0.0000  0.0000  0.0000  0.0000  0.0000  0.0000  0.0000  0.0000  0.0000  0.0000
  o =  0.0690  v =  0.0000  0.0000  0.0000  0.0000  0.0000 -0.0001  0.7067  0.0000 -0.7075  0.0053      0.0000  0.0000  0.0000  0.0000  0.0000  0.0000  0.0000  0.0000  0.0000  0.0000
  o =  0.0770  v =  0.0000  0.0000  0.0000  0.0000  0.0000  0.7898 -0.0027 -0.6134 -0.0029  0.0003      0.0000  0.0000  0.0000  0.0000  0.0000  0.0000  0.0000  0.0000  0.0000  0.0000
  o =  0.9410  v = -0.5898  0.0605 -0.8030  0.0604  0.0032  0.0000  0.0000  0.0000  0.0000  0.0000      0.0000  0.0000  0.0000  0.0000  0.0000  0.0000  0.0000  0.0000  0.0000  0.0000
  o =  0.9462  v = -0.0463 -0.7030 -0.0718 -0.7047  0.0427  0.0000  0.0000  0.0000  0.0000  0.0000      0.0000  0.0000  0.0000  0.0000  0.0000  0.0000  0.0000  0.0000  0.0000  0.0000
  o =  0.9467  v =  0.0043  0.0383  0.0053  0.0215  0.9990  0.0000  0.0000  0.0000  0.0000  0.0000      0.0000  0.0000  0.0000  0.0000  0.0000  0.0000  0.0000  0.0000  0.0000  0.0000
  o =  0.9774  v = -0.0014 -0.7076  0.0009  0.7065  0.0119  0.0000  0.0000  0.0000  0.0000  0.0000      0.0000  0.0000  0.0000  0.0000  0.0000  0.0000  0.0000  0.0000  0.0000  0.0000
  o =  0.9801  v = -0.8062 -0.0025  0.5916 -0.0048  0.0005  0.0000  0.0000  0.0000  0.0000  0.0000      0.0000  0.0000  0.0000  0.0000  0.0000  0.0000  0.0000  0.0000  0.0000  0.0000
     EDDAV:  cpu time    3.9020: real time    3.9021
 BZINTS: Fermi energy:  2.273825; 54.000000 electrons
         Band energy:-797.469327;  BLOECHL correction:  0.000000
       DOS:  cpu time    0.0046: real time    0.0046
    CHARGE:  cpu time    0.5416: real time    0.5416
    MIXING:  cpu time    0.0007: real time    0.0007
    --------------------------------------------
      LOOP:  cpu time    7.0146: real time    7.0146

 eigenvalue-minimisations  :  7452
 total energy-change (2. order) : 0.8651700E-02  (-0.3101934E-02)
 number of electron      54.0000007 magnetization       0.0000000
 augmentation part       20.0103345 magnetization      -0.0001822

 Broyden mixing:
  rms(total) = 0.46656E-01    rms(broyden)= 0.46647E-01
  rms(prec ) = 0.51875E-01
  weight for this iteration     100.00

 eigenvalues of (default mixing * dielectric matrix)
  average eigenvalue GAMMA=   1.1391
  2.4318  0.9159  0.9159  0.8153  0.6164

 Free energy of the ion-electron system (eV)
  ---------------------------------------------------
  alpha Z        PSCENC =       199.38838823
  Ewald energy   TEWEN  =     -4203.06823030
  -Hartree energ DENC   =     -2156.18433761
  -exchange      EXHF   =         0.00000000
  -V(xc)+E(xc)   XCENC  =       166.10060412
  PAW double counting   =      6593.58084162    -6559.38160659
  entropy T*S    EENTRO =         0.00000000
  eigenvalues    EBANDS =      -797.46932699
  atomic energy  EATOM  =      6689.01075358
  Solvation  Ediel_sol  =         0.00000000
  ---------------------------------------------------
  free energy    TOTEN  =       -68.02291394 eV

  energy without entropy =      -68.02291394  energy(sigma->0) =      -68.02291394


--------------------------------------------------------------------------------------------------------




--------------------------------------- Iteration      1(   7)  ---------------------------------------


    POTLOK:  cpu time    0.0336: real time    0.0336
    SETDIJ:  cpu time    2.5305: real time    2.5306
atom =   1  type =  1  l = 2
 
 onsite density matrix
 
spin component  1
 
  0.0546 -0.0000  0.0298 -0.0000 -0.0000
 -0.0000  0.0444 -0.0000  0.0244  0.0000
  0.0298 -0.0000  0.0387 -0.0000 -0.0000
 -0.0000  0.0244 -0.0000  0.0444 -0.0000
 -0.0000  0.0000 -0.0000 -0.0000  0.0166
 
spin component  2
 
  0.9661  0.0000  0.0189  0.0000  0.0000
  0.0000  0.9614  0.0000  0.0165 -0.0000
  0.0189  0.0000  0.9547  0.0000  0.0000
  0.0000  0.0165  0.0000  0.9614  0.0000
  0.0000 -0.0000  0.0000  0.0000  0.9452
 
 occupancies and eigenvectors
 
  o =  0.0158  v =  0.6093 -0.0002 -0.7930 -0.0003 -0.0047  0.0000  0.0000  0.0000  0.0000  0.0000      0.0000  0.0000  0.0000  0.0000  0.0000  0.0000  0.0000  0.0000  0.0000  0.0000
  o =  0.0166  v =  0.0029 -0.0116 -0.0036  0.0117  0.9999  0.0000  0.0000  0.0000  0.0000  0.0000      0.0000  0.0000  0.0000  0.0000  0.0000  0.0000  0.0000  0.0000  0.0000  0.0000
  o =  0.0200  v = -0.0000 -0.7070  0.0000  0.7070 -0.0165  0.0000  0.0000  0.0000  0.0000  0.0000      0.0000  0.0000  0.0000  0.0000  0.0000  0.0000  0.0000  0.0000  0.0000  0.0000
  o =  0.0688  v =  0.0029  0.7071  0.0018  0.7071 -0.0001  0.0000  0.0000  0.0000  0.0000  0.0000      0.0000  0.0000  0.0000  0.0000  0.0000  0.0000  0.0000  0.0000  0.0000  0.0000
  o =  0.0775  v = -0.7930  0.0024 -0.6093  0.0024  0.0001  0.0000  0.0000  0.0000  0.0000  0.0000      0.0000  0.0000  0.0000  0.0000  0.0000  0.0000  0.0000  0.0000  0.0000  0.0000
  o =  0.9407  v =  0.0000  0.0000  0.0000  0.0000  0.0000 -0.5966  0.0003  0.8025 -0.0001 -0.0001      0.0000  0.0000  0.0000  0.0000  0.0000  0.0000  0.0000  0.0000  0.0000  0.0000
  o =  0.9449  v =  0.0000  0.0000  0.0000  0.0000  0.0000  0.0002  0.7058 -0.0001 -0.7058  0.0604      0.0000  0.0000  0.0000  0.0000  0.0000  0.0000  0.0000  0.0000  0.0000  0.0000
  o =  0.9452  v =  0.0000  0.0000  0.0000  0.0000  0.0000 -0.0001 -0.0428  0.0001  0.0427  0.9982      0.0000  0.0000  0.0000  0.0000  0.0000  0.0000  0.0000  0.0000  0.0000  0.0000
  o =  0.9779  v =  0.0000  0.0000  0.0000  0.0000  0.0000  0.0093 -0.7071  0.0071 -0.7071 -0.0001      0.0000  0.0000  0.0000  0.0000  0.0000  0.0000  0.0000  0.0000  0.0000  0.0000
  o =  0.9802  v =  0.0000  0.0000  0.0000  0.0000  0.0000 -0.8025 -0.0083 -0.5966 -0.0083 -0.0000      0.0000  0.0000  0.0000  0.0000  0.0000  0.0000  0.0000  0.0000  0.0000  0.0000
atom =   2  type =  1  l = 2
 
 onsite density matrix
 
spin component  1
 
  0.9660  0.0000 -0.0190  0.0000 -0.0000
  0.0000  0.9614  0.0000 -0.0165 -0.0001
 -0.0190  0.0000  0.9547  0.0000  0.0000
  0.0000 -0.0165  0.0000  0.9614  0.0001
 -0.0000 -0.0001  0.0000  0.0001  0.9452
 
spin component  2
 
  0.0546 -0.0000 -0.0297 -0.0000  0.0000
 -0.0000  0.0444 -0.0000 -0.0245  0.0000
 -0.0297 -0.0000  0.0387 -0.0000 -0.0000
 -0.0000 -0.0245 -0.0000  0.0444 -0.0000
  0.0000  0.0000 -0.0000 -0.0000  0.0166
 
 occupancies and eigenvectors
 
  o =  0.0159  v =  0.0000  0.0000  0.0000  0.0000  0.0000 -0.6089 -0.0077 -0.7931 -0.0077 -0.0056      0.0000  0.0000  0.0000  0.0000  0.0000  0.0000  0.0000  0.0000  0.0000  0.0000
  o =  0.0166  v =  0.0000  0.0000  0.0000  0.0000  0.0000 -0.0035 -0.0002 -0.0044  0.0005  1.0000      0.0000  0.0000  0.0000  0.0000  0.0000  0.0000  0.0000  0.0000  0.0000  0.0000
  o =  0.0199  v =  0.0000  0.0000  0.0000  0.0000  0.0000  0.0061 -0.7071  0.0090 -0.7070  0.0003      0.0000  0.0000  0.0000  0.0000  0.0000  0.0000  0.0000  0.0000  0.0000  0.0000
  o =  0.0688  v =  0.0000  0.0000  0.0000  0.0000  0.0000  0.0000  0.7070 -0.0000 -0.7072  0.0006      0.0000  0.0000  0.0000  0.0000  0.0000  0.0000  0.0000  0.0000  0.0000  0.0000
  o =  0.0774  v =  0.0000  0.0000  0.0000  0.0000  0.0000  0.7932 -0.0005 -0.6090 -0.0005  0.0001      0.0000  0.0000  0.0000  0.0000  0.0000  0.0000  0.0000  0.0000  0.0000  0.0000
  o =  0.9406  v = -0.5977  0.0094 -0.8016  0.0094  0.0004  0.0000  0.0000  0.0000  0.0000  0.0000      0.0000  0.0000  0.0000  0.0000  0.0000  0.0000  0.0000  0.0000  0.0000  0.0000
  o =  0.9450  v = -0.0080 -0.7069 -0.0106 -0.7071  0.0117  0.0000  0.0000  0.0000  0.0000  0.0000      0.0000  0.0000  0.0000  0.0000  0.0000  0.0000  0.0000  0.0000  0.0000  0.0000
[...]
     18      -3.1035      1.00000
     19      -2.5352      1.00000
     20      -2.3751      1.00000
     21      -2.1965      1.00000
     22      -2.0940      1.00000
     23       0.7733      1.00000
     24       0.8024      1.00000
     25       1.0127      1.00000
     26       1.6563      1.00000
     27       2.1772      1.00000
     28       6.3813      0.00000
     29       6.4157      0.00000
     30       6.5818      0.00000
     31       7.3314      0.00000
     32       7.8499      0.00000
     33       9.6069      0.00000
     34      11.1346      0.00000
     35      11.6526      0.00000
     36      12.9637      0.00000

 k-point    48 :      -0.1250   -0.1250    0.4167
  band No.  band energies     occupation 
      1     -49.2460      1.00000
      2     -49.2050      1.00000
      3     -49.1850      1.00000
      4     -42.7372      1.00000
      5     -42.6927      1.00000
      6     -42.6626      1.00000
      7     -22.6770      1.00000
      8     -22.5425      1.00000
      9     -22.5031      1.00000
     10     -22.4205      1.00000
     11      -4.4652      1.00000
     12      -4.2159      1.00000
     13      -4.0278      1.00000
     14      -3.8461      1.00000
     15      -3.6867      1.00000
     16      -3.4928      1.00000
     17      -3.1111      1.00000
     18      -2.9328      1.00000
     19      -2.8001      1.00000
     20      -2.3933      1.00000
     21      -2.3051      1.00000
     22      -2.2463      1.00000
     23       0.7863      1.00000
     24       0.8296      1.00000
     25       1.0736      1.00000
     26       1.6994      1.00000
     27       2.0485      1.00000
     28       6.3933      0.00000
     29       6.4227      0.00000
     30       6.5259      0.00000
     31       7.3766      0.00000
     32       7.6688      0.00000
     33       8.9818      0.00000
     34      11.2751      0.00000
     35      12.7397      0.00000
     36      13.1028      0.00000


--------------------------------------------------------------------------------------------------------


 soft charge-density along one line, spin component           1
         0         1         2         3         4         5         6         7         8         9
 total charge-density along one line
 
 soft charge-density along one line, spin component           2
         0         1         2         3         4         5         6         7         8         9
 total charge-density along one line
 
 pseudopotential strength for first ion, spin component:           1
-45.227  -0.000  -0.038   7.798   0.000   0.016  -0.000   0.000
 -0.000 -45.193  -0.000   0.000   7.784   0.000  -0.000   0.000
 -0.038  -0.000 -45.227   0.016   0.000   7.798   0.000  -0.000
  7.798   0.000   0.016   5.590  -0.000   0.004  -0.000  -0.000
  0.000   7.784   0.000  -0.000   5.585  -0.000  -0.000   0.000
  0.016   0.000   7.798   0.004  -0.000   5.590  -0.000  -0.000
 -0.000  -0.000   0.000  -0.000  -0.000  -0.000  -2.984  -0.000
  0.000   0.000  -0.000  -0.000   0.000  -0.000  -0.000  -2.966
 -0.000   0.000   0.000   0.000   0.000   0.000   0.020  -0.000
 -0.000   0.000  -0.000  -0.000   0.000  -0.000  -0.000  -0.018
  0.000  -0.000  -0.000  -0.000  -0.000  -0.000  -0.000   0.000
 -0.000  -0.000   0.000  -0.000  -0.000  -0.000  -3.499  -0.000
  0.000   0.000  -0.000  -0.000   0.000  -0.000  -0.000  -3.482
 -0.000   0.000   0.000   0.000   0.000   0.000   0.018  -0.000
 -0.000   0.000  -0.000  -0.000   0.000  -0.000  -0.000  -0.018
  0.000  -0.000  -0.000  -0.000  -0.000  -0.000  -0.000   0.000
  0.000  -0.000   0.000   0.000   0.000  -0.000   0.011   0.000
  0.000  -0.000   0.000   0.000   0.000  -0.000   0.022   0.000
 pseudopotential strength for first ion, spin component:           2
-50.980   0.000  -0.005   9.797   0.000   0.016   0.000   0.000
  0.000 -50.980   0.000   0.000   9.783   0.000   0.000   0.000
 -0.005   0.000 -50.980   0.016   0.000   9.797  -0.000   0.000
  9.797   0.000   0.016   4.707   0.000   0.001  -0.000   0.000
  0.000   9.783   0.000   0.000   4.706   0.000  -0.000  -0.000
  0.016   0.000   9.797   0.001   0.000   4.707  -0.000  -0.000
  0.000   0.000  -0.000  -0.000  -0.000  -0.000  -7.337  -0.000
  0.000   0.000   0.000   0.000  -0.000  -0.000  -0.000  -7.327
  0.000  -0.000  -0.000  -0.000   0.000   0.000  -0.009   0.000
  0.000  -0.000  -0.000  -0.000   0.000  -0.000  -0.000  -0.027
 -0.000  -0.000   0.000  -0.000  -0.000  -0.000   0.000  -0.000
  0.000   0.000  -0.000  -0.000  -0.000  -0.000  -7.808  -0.000
  0.000   0.000   0.000   0.000  -0.000  -0.000  -0.000  -7.799
  0.000  -0.000  -0.000  -0.000   0.000   0.000  -0.008   0.000
  0.000  -0.000  -0.000  -0.000   0.000  -0.000  -0.000  -0.027
 -0.000  -0.000   0.000  -0.000  -0.000  -0.000   0.000  -0.000
  0.000   0.000  -0.000  -0.000  -0.000   0.000   0.011   0.000
  0.000   0.000  -0.000  -0.000  -0.000   0.000   0.023   0.000
 total augmentation occupancy for first ion, spin component:           1
  2.001   0.000   0.000  -0.013  -0.000   0.001  -0.000  -0.000  -0.000  -0.000  -0.000   0.000   0.000   0.000   0.000   0.000
  0.000   2.001   0.000  -0.000  -0.013  -0.000  -0.000   0.000   0.000   0.000  -0.000   0.000  -0.000  -0.000  -0.000   0.000
  0.000   0.000   2.001   0.001  -0.000  -0.013  -0.000  -0.000   0.000  -0.000  -0.000   0.000   0.000  -0.000   0.000   0.000
 -0.013  -0.000   0.001   0.081  -0.000  -0.009   0.000  -0.000   0.000   0.000   0.000  -0.000   0.000  -0.000   0.000  -0.000
 -0.000  -0.013  -0.000  -0.000   0.090  -0.000   0.000   0.000   0.000  -0.000  -0.000  -0.000  -0.000  -0.000   0.000   0.000
  0.001  -0.000  -0.013  -0.009  -0.000   0.081   0.000  -0.000  -0.000  -0.000   0.000   0.000   0.000   0.000   0.000   0.000
 -0.000  -0.000  -0.000   0.000   0.000   0.000   7.757   0.000   2.996   0.000   0.000  -5.784  -0.000  -2.817  -0.000  -0.000
 -0.000   0.000  -0.000  -0.000   0.000  -0.000   0.000   6.564   0.000   2.534   0.000  -0.000  -4.636  -0.000  -2.380  -0.000
 -0.000   0.000   0.000   0.000   0.000  -0.000   2.996   0.000   5.955   0.000   0.000  -2.818  -0.000  -4.096  -0.000  -0.000
 -0.000   0.000  -0.000   0.000  -0.000  -0.000   0.000   2.534   0.000   6.564  -0.000  -0.000  -2.380  -0.000  -4.636   0.000
 -0.000  -0.000  -0.000   0.000  -0.000   0.000   0.000   0.000   0.000  -0.000   3.894  -0.000  -0.000  -0.000   0.000  -2.113
  0.000   0.000   0.000  -0.000  -0.000   0.000  -5.784  -0.000  -2.818  -0.000  -0.000   4.984  -0.000   2.683  -0.000   0.000
  0.000  -0.000   0.000   0.000  -0.000   0.000  -0.000  -4.636  -0.000  -2.380  -0.000  -0.000   3.871   0.000   2.263   0.000
  0.000  -0.000  -0.000  -0.000  -0.000   0.000  -2.817  -0.000  -4.096  -0.000  -0.000   2.683   0.000   3.385   0.000   0.000
  0.000  -0.000   0.000   0.000   0.000   0.000  -0.000  -2.380  -0.000  -4.636   0.000  -0.000   2.263   0.000   3.871  -0.000
  0.000   0.000   0.000  -0.000   0.000   0.000  -0.000  -0.000  -0.000   0.000  -2.113   0.000   0.000   0.000  -0.000   1.456
 -0.000   0.000   0.000   0.000  -0.000  -0.000   0.440   0.000  -0.297   0.000   0.000  -0.417  -0.000   0.276  -0.000  -0.000
  0.000  -0.000  -0.000  -0.000   0.000   0.000  -0.091  -0.000   0.068  -0.000  -0.000   0.097   0.000  -0.068   0.000   0.000
 total augmentation occupancy for first ion, spin component:           2
  0.004   0.000  -0.000   0.017  -0.000  -0.001   0.000  -0.000  -0.000  -0.000  -0.000  -0.000   0.000   0.000   0.000   0.000
  0.000   0.004   0.000  -0.000   0.018  -0.000  -0.000   0.000   0.000   0.000  -0.000   0.000  -0.000  -0.000  -0.000   0.000
 -0.000   0.000   0.004  -0.001  -0.000   0.017   0.000  -0.000   0.000  -0.000   0.000  -0.000   0.000  -0.000   0.000  -0.000
  0.017  -0.000  -0.001  -0.011   0.000  -0.000  -0.000   0.000   0.000  -0.000  -0.000   0.000  -0.000  -0.000   0.000   0.000
 -0.000   0.018  -0.000   0.000  -0.010   0.000  -0.000   0.000   0.000  -0.000  -0.000   0.000  -0.000  -0.000   0.000   0.000
 -0.001  -0.000   0.017  -0.000   0.000  -0.011  -0.000  -0.000   0.000  -0.000  -0.000   0.000   0.000   0.000   0.000   0.000
  0.000  -0.000   0.000  -0.000  -0.000  -0.000  -5.102  -0.000  -1.493  -0.000   0.000   2.727   0.000   1.097   0.000  -0.000
 -0.000   0.000  -0.000   0.000   0.000  -0.000  -0.000  -4.548   0.000  -1.273  -0.000   0.000   2.299  -0.000   0.936   0.000
 -0.000   0.000   0.000   0.000   0.000   0.000  -1.493   0.000  -4.149   0.000   0.000   1.097  -0.000   2.012  -0.000  -0.000
 -0.000   0.000  -0.000  -0.000  -0.000  -0.000  -0.000  -1.273   0.000  -4.548   0.000   0.000   0.936  -0.000   2.299  -0.000
 -0.000  -0.000   0.000  -0.000  -0.000  -0.000   0.000  -0.000   0.000   0.000  -3.256  -0.000   0.000  -0.000  -0.000   1.355
 -0.000   0.000  -0.000   0.000   0.000   0.000   2.727   0.000   1.097   0.000  -0.000  -1.455  -0.000  -0.706  -0.000   0.000
  0.000  -0.000   0.000  -0.000  -0.000   0.000   0.000   2.299  -0.000   0.936   0.000  -0.000  -1.155   0.000  -0.606  -0.000
  0.000  -0.000  -0.000  -0.000  -0.000   0.000   1.097  -0.000   2.012  -0.000  -0.000  -0.706   0.000  -0.974   0.000   0.000
  0.000  -0.000   0.000   0.000   0.000   0.000   0.000   0.936  -0.000   2.299  -0.000  -0.000  -0.606   0.000  -1.155   0.000
  0.000   0.000  -0.000   0.000   0.000   0.000  -0.000   0.000  -0.000  -0.000   1.355   0.000  -0.000   0.000   0.000  -0.556
 -0.000  -0.000   0.000   0.000  -0.000   0.000  -0.098  -0.000   0.055  -0.000   0.000   0.022  -0.000   0.001  -0.000  -0.000
  0.000   0.000  -0.000  -0.000   0.000   0.000  -0.000   0.000  -0.006   0.000  -0.000   0.009  -0.000  -0.004  -0.000   0.000


------------------------ aborting loop because EDIFF is reached ----------------------------------------


 


 total charge     
 
# of ion       s       p       d       tot
------------------------------------------
    1        0.170   6.147   4.968  11.285
    2        0.170   6.147   4.968  11.285
    3        1.731   4.400   0.000   6.130
    4        1.731   4.400   0.000   6.130
    5        1.731   4.400   0.000   6.130
    6        1.731   4.400   0.000   6.130
--------------------------------------------------
tot          7.262  29.891   9.936  47.090
 


 magnetization (x)
 
# of ion       s       p       d       tot
------------------------------------------
    1       -0.023  -0.017  -4.580  -4.619
    2        0.023   0.017   4.580   4.619
    3        0.003   0.023   0.000   0.026
    4        0.003   0.023   0.000   0.026
    5       -0.003  -0.023   0.000  -0.026
    6       -0.003  -0.023   0.000  -0.026
--------------------------------------------------
tot          0.000   0.000   0.000   0.000
 
    CHARGE:  cpu time    0.0945: real time    0.0945
    FORLOC:  cpu time    0.0008: real time    0.0008
    FORNL :  cpu time    0.5411: real time    0.5413
    STRESS:  cpu time   10.3297: real time   10.3313
    FORCOR:  cpu time    0.0294: real time    0.0294
    FORHAR:  cpu time    0.0022: real time    0.0022
    MIXING:  cpu time    0.0015: real time    0.0015
    OFIELD:  cpu time    0.0000: real time    0.0000

  FORCE on cell =-STRESS in cart. coord.  units (eV):
  Direction    XX          YY          ZZ          XY          YZ          ZX
  --------------------------------------------------------------------------------------
  Alpha Z   199.38839   199.38839   199.38839
  Ewald   -1586.09778 -1586.09778 -1030.87583    -0.00000     0.00000     0.00000
  Hartree   594.08493   594.08493   969.39628    -0.00002     0.00008     0.00008
  E(xc)    -150.53608  -150.53608  -150.66008     0.00000    -0.00003    -0.00003
  Local     163.67421   163.67421  -759.97187     0.00003    -0.00001    -0.00001
  n-local  -310.16903  -310.16903  -309.26866     0.00000     0.00002     0.00002
  augment   158.51930   158.51930   158.02708    -0.00000    -0.00004    -0.00004
  Kinetic   931.14126   931.14126   923.95840    -0.00000    -0.00006    -0.00006
  Fock        0.00000     0.00000     0.00000     0.00000     0.00000     0.00000
  -------------------------------------------------------------------------------------
  Total       0.00519     0.00519    -0.00628     0.00000    -0.00003    -0.00003
  in kB       0.10744     0.10744    -0.12997     0.00007    -0.00052    -0.00052
  external pressure =        0.03 kB  Pullay stress =        0.00 kB


 VOLUME and BASIS-vectors are now :
 -----------------------------------------------------------------------------
  energy-cutoff  :      600.00
  volume of cell :       77.42
      direct lattice vectors                 reciprocal lattice vectors
     4.852568500  0.000000000  0.000000000     0.206076431  0.000000000  0.000000000
     0.000000000  4.852568500  0.000000000     0.000000000  0.206076431  0.000000000
     0.000000000  0.000000000  3.288011935     0.000000000  0.000000000  0.304135149

  length of vectors
     4.852568500  4.852568500  3.288011935     0.206076431  0.206076431  0.304135149


 FORCES acting on ions
    electron-ion (+dipol)            ewald-force                    non-local-force                 convergence-correction
 -----------------------------------------------------------------------------------------------
   0.420E-05 -.126E-05 -.137E-08   -.568E-13 -.568E-13 -.305E-14   -.443E-05 0.130E-05 0.345E-08   0.243E-09 -.188E-08 -.371E-09
   0.420E-05 0.126E-05 -.325E-09   0.171E-12 0.171E-12 -.494E-14   -.443E-05 -.130E-05 0.357E-09   0.134E-08 -.120E-09 -.167E-10
   -.325E+02 0.325E+02 -.287E-08   0.337E+02 -.337E+02 0.930E-15   -.120E+01 0.120E+01 0.383E-08   -.117E-06 0.151E-06 0.622E-09
   0.325E+02 -.325E+02 0.456E-09   -.337E+02 0.337E+02 0.116E-14   0.120E+01 -.120E+01 0.110E-08   0.117E-06 -.151E-06 -.860E-09
   0.325E+02 0.325E+02 -.106E-03   -.337E+02 -.337E+02 -.175E-14   0.120E+01 0.120E+01 0.198E-03   0.197E-05 0.196E-05 -.129E-05
   -.325E+02 -.325E+02 0.106E-03   0.337E+02 0.337E+02 -.154E-14   -.120E+01 -.120E+01 -.198E-03   -.197E-05 -.196E-05 0.129E-05
 -----------------------------------------------------------------------------------------------
   0.382E-05 0.154E-08 -.548E-08   0.000E+00 0.000E+00 -.918E-14   -.369E-05 -.310E-08 0.979E-08   0.117E-08 -.177E-08 -.288E-09
 
 
 POSITION                                       TOTAL-FORCE (eV/Angst)
 -----------------------------------------------------------------------------------
      2.42628      2.42628      1.64401        -0.000000      0.000000      0.000000
      0.00000      0.00000      0.00000        -0.000000     -0.000000     -0.000000
      0.95159      3.90098      1.64401         0.001590     -0.001590      0.000000
      3.90098      0.95159      1.64401        -0.001590      0.001590      0.000000
      1.47470      1.47470      0.00000        -0.001590     -0.001590      0.000091
      3.37787      3.37787      0.00000         0.001590      0.001590     -0.000091
 -----------------------------------------------------------------------------------
    total drift:                                0.000000     -0.000000      0.000000


--------------------------------------------------------------------------------------------------------



  FREE ENERGIE OF THE ION-ELECTRON SYSTEM (eV)
  ---------------------------------------------------
  free  energy   TOTEN  =       -68.02428188 eV

  energy  without entropy=      -68.02428188  energy(sigma->0) =      -68.02428188
 


--------------------------------------------------------------------------------------------------------


    POTLOK:  cpu time    2.5598: real time    2.5601

 Total magnetic moment S=     1.0000000

 Fermi contact (isotropic) hyperfine coupling parameter (MHz) 
 -------------------------------------------------------------
  ion      A_pw      A_1PS     A_1AE     A_1c      A_tot
 -------------------------------------------------------------
   1   -1286.988 -1287.118  -376.423  1206.375  -376.293
   2    1286.988  1287.118   376.423 -1206.376   376.293
   3      49.745    49.897   315.137   -35.468   314.984
   4      49.745    49.897   315.135   -35.468   314.983
   5     -49.745   -49.897  -315.136    35.468  -314.984
   6     -49.745   -49.897  -315.138    35.468  -314.986
 -------------------------------------------------------------


 Dipolar hyperfine coupling parameters (MHz)
 ---------------------------------------------------------------------
  ion      A_xx      A_yy      A_zz      A_xy      A_xz      A_yz
 ---------------------------------------------------------------------
   1       7.651     7.651   -15.302     5.316     0.002     0.002
   2      -7.651    -7.651    15.302     5.316     0.001     0.001
   3     -68.275   -68.270   136.545    11.857    -0.002    -0.002
   4     -68.270   -68.275   136.546    11.861    -0.002    -0.002
   5      68.270    68.275  -136.546    11.861    -0.005    -0.005
   6      68.275    68.270  -136.545    11.857    -0.005    -0.005
 ---------------------------------------------------------------------


 Total hyperfine coupling parameters after diagonalization (MHz)
 (convention: |A_zz| > |A_xx| > |A_yy|)
 ----------------------------------------------------------------------
  ion      A_xx      A_yy      A_zz     asymmetry (A_yy - A_xx)/ A_zz 
 ----------------------------------------------------------------------
   1    -373.958  -363.326  -391.596      -0.027
   2     373.958   363.326   391.596      -0.027
   3     258.569   234.855   451.530      -0.053
   4     258.571   234.849   451.528      -0.053
   5    -258.572  -234.850  -451.530      -0.053
   6    -258.570  -234.856  -451.531      -0.053
 ---------------------------------------------------------------------



--------------------------------------------------------------------------------------------------------


 writing wavefunctions
     LOOP+:  cpu time  178.9805: real time  179.4112
    4ORBIT:  cpu time    0.0000: real time    0.0000
 


 total charge     
 
# of ion       s       p       d       tot
------------------------------------------
    1        0.170   6.147   4.968  11.285
    2        0.170   6.147   4.968  11.285
    3        1.731   4.400   0.000   6.130
    4        1.731   4.400   0.000   6.130
    5        1.731   4.400   0.000   6.130
    6        1.731   4.400   0.000   6.130
--------------------------------------------------
tot          7.262  29.891   9.936  47.090
 


 magnetization (x)
 
# of ion       s       p       d       tot
------------------------------------------
    1       -0.023  -0.017  -4.580  -4.619
    2        0.023   0.017   4.580   4.619
    3        0.003   0.023   0.000   0.026
    4        0.003   0.023   0.000   0.026
    5       -0.003  -0.023   0.000  -0.026
    6       -0.003  -0.023   0.000  -0.026
--------------------------------------------------
tot          0.000   0.000   0.000   0.000
 
 BZINTS: Fermi energy:  2.290706; 54.000000 electrons
         Band energy:-796.337766;  BLOECHL correction:  0.000000

 total amount of memory used by VASP MPI-rank0    84459. kBytes
=======================================================================

   base      :      30000. kBytes
   nonl-proj :      36247. kBytes
   fftplans  :       1875. kBytes
   grid      :       3820. kBytes
   one-center:        186. kBytes
   wavefun   :      12331. kBytes
 
  
  
 General timing and accounting informations for this job:
 ========================================================
  
                  Total CPU time used (sec):      181.685
                            User time (sec):      136.842
                          System time (sec):       44.842
                         Elapsed time (sec):      182.162
  
                   Maximum memory used (kb):       95868.
                   Average memory used (kb):           0.
  
                          Minor page faults:        25706
                          Major page faults:            7
                 Voluntary context switches:          313
