 vasp.5.4.4.18Apr17-6-g9f103f2a35 (build Apr 27 2017 11:13:10) complex          
  
 executed on           IFC91_ompi date 2020.05.13  10:08:33
 running on   12 total cores
 distrk:  each k-point on   12 cores,    1 groups
 distr:  one band on NCORES_PER_BAND=   1 cores,   12 groups


--------------------------------------------------------------------------------------------------------


 INCAR:
 POTCAR:    PAW Mn_pv 02Aug2007                   
 POTCAR:    PAW F 31May2000                       

 ----------------------------------------------------------------------------- 
|                                                                             |
|           W    W    AA    RRRRR   N    N  II  N    N   GGGG   !!!           |
|           W    W   A  A   R    R  NN   N  II  NN   N  G    G  !!!           |
|           W    W  A    A  R    R  N N  N  II  N N  N  G       !!!           |
|           W WW W  AAAAAA  RRRRR   N  N N  II  N  N N  G  GGG   !            |
|           WW  WW  A    A  R   R   N   NN  II  N   NN  G    G                |
|           W    W  A    A  R    R  N    N  II  N    N   GGGG   !!!           |
|                                                                             |
|      For optimal performance we recommend to set                            |
|        NCORE= 4 - approx SQRT( number of cores)                             |
|      NCORE specifies how many cores store one orbital (NPAR=cpu/NCORE).     |
|      This setting can  greatly improve the performance of VASP for DFT.     |
|      The default,   NCORE=1            might be grossly inefficient         |
|      on modern multi-core architectures or massively parallel machines.     |
|      Do your own testing !!!!                                               |
|      Unfortunately you need to use the default for GW and RPA calculations. |
|      (for HF NCORE is supported but not extensively tested yet)             |
|                                                                             |
 ----------------------------------------------------------------------------- 

 POTCAR:    PAW Mn_pv 02Aug2007                   
   VRHFIN =Mn: 3p4s3d                                                           
   LEXCH  = CA                                                                  
   EATOM  =  2028.0466 eV,  149.0572 Ry                                         
                                                                                
   TITEL  = PAW Mn_pv 02Aug2007                                                 
   LULTRA =        F    use ultrasoft PP ?                                      
   IUNSCR =        1    unscreen: 0-lin 1-nonlin 2-no                           
   RPACOR =    2.080    partial core radius                                     
   POMASS =   54.938; ZVAL   =   13.000    mass and valenz                      
   RCORE  =    2.300    outmost cutoff radius                                   
   RWIGS  =    2.500; RWIGS  =    1.323    wigner-seitz radius (au A)           
   ENMAX  =  269.944; ENMIN  =  202.458 eV                                      
   ICORE  =        3    local potential                                         
   LCOR   =        T    correct aug charges                                     
   LPAW   =        T    paw PP                                                  
   EAUG   =  569.085                                                            
   DEXC   =    0.000                                                            
   RMAX   =    2.343    core radius for proj-oper                               
   RAUG   =    1.300    factor for augmentation sphere                          
   RDEP   =    2.338    radius for radial grids                                 
   RDEPT  =    1.798    core radius for aug-charge                              
                                                                                
   Atomic configuration                                                         
    8 entries                                                                   
     n  l   j            E        occ.                                          
     1  0  0.50     -6393.6057   2.0000                                         
     2  0  0.50      -735.9993   2.0000                                         
     2  1  1.50      -624.3417   6.0000                                         
     3  0  0.50       -80.9782   2.0000                                         
     3  1  1.50       -50.3144   6.0000                                         
     3  2  2.50        -3.6171   6.0000                                         
     4  0  0.50        -4.3304   1.0000                                         
     4  3  2.50        -1.3606   0.0000                                         
   Description                                                                  
     l       E           TYP  RCUT    TYP  RCUT                                 
     1    -50.3143634     23  2.000                                             
     1     -1.3605826     23  2.000                                             
     2     -3.6171470     23  2.300                                             
     2     -4.9777296     23  2.300                                             
     0     -4.3303688     23  2.300                                             
     0      7.3408788     23  2.300                                             
     3      9.5240782     23  2.300                                             
  local pseudopotential read in
  partial core-charges read in
  partial kinetic energy density read in
  atomic valenz-charges read in
  non local Contribution for L=           1  read in
    real space projection operators read in
  non local Contribution for L=           1  read in
    real space projection operators read in
  non local Contribution for L=           2  read in
    real space projection operators read in
  non local Contribution for L=           2  read in
    real space projection operators read in
  non local Contribution for L=           0  read in
    real space projection operators read in
  non local Contribution for L=           0  read in
    real space projection operators read in
    PAW grid and wavefunctions read in
 
   number of l-projection  operators is LMAX  =           6
   number of lm-projection operators is LMMAX =          18
 
 POTCAR:    PAW F 31May2000                       
   VRHFIN =F: s2p5                                                              
   LEXCH  = CA                                                                  
   EATOM  =   658.3685 eV,   48.3887 Ry                                         
                                                                                
   TITEL  = PAW F 31May2000                                                     
   LULTRA =        F    use ultrasoft PP ?                                      
   IUNSCR =        1    unscreen: 0-lin 1-nonlin 2-no                           
   RPACOR =    1.200    partial core radius                                     
   POMASS =   18.998; ZVAL   =    7.000    mass and valenz                      
   RCORE  =    1.520    outmost cutoff radius                                   
   RWIGS  =    1.500; RWIGS  =    0.794    wigner-seitz radius (au A)           
   ENMAX  =  400.000; ENMIN  =  300.000 eV                                      
   ICORE  =        2    local potential                                         
   LCOR   =        T    correct aug charges                                     
   LPAW   =        T    paw PP                                                  
   EAUG   =  613.614                                                            
   DEXC   =    0.000                                                            
   RMAX   =    1.555    core radius for proj-oper                               
   RAUG   =    1.300    factor for augmentation sphere                          
   RDEP   =    1.539    radius for radial grids                                 
   RDEPT  =    1.299    core radius for aug-charge                              
                                                                                
   Atomic configuration                                                         
    4 entries                                                                   
     n  l   j            E        occ.                                          
     1  0  0.50      -658.3386   2.0000                                         
     2  0  0.50       -29.6221   2.0000                                         
     2  1  0.50       -11.2952   5.0000                                         
     3  2  1.50       -12.2452   0.0000                                         
   Description                                                                  
     l       E           TYP  RCUT    TYP  RCUT                                 
     0    -29.6221019     23  1.200                                             
     0     -9.5240782     23  1.200                                             
     1    -11.2951545     23  1.520                                             
     1      1.3605826     23  1.520                                             
     2    -12.2452434      7  1.500                                             
  local pseudopotential read in
  partial core-charges read in
  partial kinetic energy density read in
  kinetic energy density of atom read in
  atomic valenz-charges read in
  non local Contribution for L=           0  read in
    real space projection operators read in
  non local Contribution for L=           0  read in
    real space projection operators read in
  non local Contribution for L=           1  read in
    real space projection operators read in
  non local Contribution for L=           1  read in
    real space projection operators read in
    PAW grid and wavefunctions read in
 
   number of l-projection  operators is LMAX  =           4
   number of lm-projection operators is LMMAX =           8
 
  PAW Mn_pv 02Aug2007                   :
 energy of atom  1       EATOM=-2028.0466
 kinetic energy error for atom=    0.0047 (will be added to EATOM!!)
  PAW F 31May2000                       :
 energy of atom  2       EATOM= -658.3685
 kinetic energy error for atom=    0.0252 (will be added to EATOM!!)
 
 
 POSCAR: Mn  F                                   
  positions in cartesian coordinates
  No initial velocities read in
 exchange correlation table for  LEXCH =        2
   RHO(1)=    0.500       N(1)  =     2000
   RHO(2)=  100.500       N(2)  =     4000
 


--------------------------------------------------------------------------------------------------------


 ion  position               nearest neighbor table
   1  0.500  0.500  0.500-   3 2.07   4 2.07   5 2.10   6 2.10   5 2.10   6 2.10
   2  0.000  0.000  0.000-   5 2.07   6 2.07   3 2.10   4 2.10   3 2.10   4 2.10
   3  0.195  0.805  0.500-   1 2.07   2 2.10   2 2.10
   4  0.805  0.195  0.500-   1 2.07   2 2.10   2 2.10
   5  0.305  0.305  0.000-   2 2.07   1 2.10   1 2.10
   6  0.695  0.695  0.000-   2 2.07   1 2.10   1 2.10
 
  LATTYP: Found a simple tetragonal cell.
 ALAT       =     4.8116313048
 C/A-ratio  =     0.6781221747
  
  Lattice vectors:
  
 A1 = (   4.8116313048,   0.0000000000,   0.0000000000)
 A2 = (   0.0000000000,   4.8116313048,   0.0000000000)
 A3 = (   0.0000000000,   0.0000000000,   3.2628738844)


Analysis of symmetry for initial positions (statically):
=====================================================================
 Subroutine PRICEL returns:
 Original cell was already a primitive cell.
 

 Routine SETGRP: Setting up the symmetry group for a 
 simple tetragonal supercell.


 Subroutine GETGRP returns: Found 16 space group operations
 (whereof  8 operations were pure point group operations)
 out of a pool of 16 trial point group operations.


The static configuration has the point symmetry D_2h.
 The point group associated with its full space group is D_4h.


Analysis of symmetry for dynamics (positions and initial velocities):
=====================================================================
 Subroutine PRICEL returns:
 Original cell was already a primitive cell.
 

 Routine SETGRP: Setting up the symmetry group for a 
 simple tetragonal supercell.


 Subroutine GETGRP returns: Found 16 space group operations
 (whereof  8 operations were pure point group operations)
 out of a pool of 16 trial point group operations.


The dynamic configuration has the point symmetry D_2h.
 The point group associated with its full space group is D_4h.


Analysis of structural, dynamic, and magnetic symmetry:
=====================================================================
 Subroutine PRICEL returns:
 Original cell was already a primitive cell.
 

 Routine SETGRP: Setting up the symmetry group for a 
 simple tetragonal supercell.


 Subroutine GETGRP returns: Found 16 space group operations
 (whereof  8 operations were pure point group operations)
 out of a pool of 16 trial point group operations.


The magnetic configuration has the point symmetry D_2h.
 The point group associated with its full space group is D_4h.


 Subroutine INISYM returns: Found 16 space group operations
 (whereof  8 operations are pure point group operations),
 and found     1 'primitive' translations

 
 
 KPOINTS: KPOINTS created by Atomic Simulation Env

Automatic generation of k-mesh.
Space group operators:
 irot       det(A)        alpha          n_x          n_y          n_z        tau_x        tau_y        tau_z
    1     1.000000     0.000000     1.000000     0.000000     0.000000     0.000000     0.000000     0.000000
    2    -1.000000     0.000000     1.000000     0.000000     0.000000     0.000000     0.000000     0.000000
    3     1.000000   180.000000     0.000000     0.000000     1.000000     0.000000     0.000000     0.000000
    4    -1.000000   180.000000     0.000000     0.000000     1.000000     0.000000     0.000000     0.000000
    5     1.000000   180.000000     0.707107     0.707107     0.000000     0.000000     0.000000     0.000000
    6    -1.000000   180.000000     0.707107     0.707107     0.000000     0.000000     0.000000     0.000000
    7     1.000000   180.000000     0.707107    -0.707107     0.000000     0.000000     0.000000     0.000000
    8    -1.000000   180.000000     0.707107    -0.707107     0.000000     0.000000     0.000000     0.000000
    9     1.000000    90.000000     0.000000     0.000000    -1.000000     0.500000     0.500000     0.500000
   10    -1.000000    90.000000     0.000000     0.000000    -1.000000     0.500000     0.500000     0.500000
   11     1.000000    90.000000     0.000000     0.000000     1.000000     0.500000     0.500000     0.500000
   12    -1.000000    90.000000     0.000000     0.000000     1.000000     0.500000     0.500000     0.500000
   13     1.000000   180.000000     0.000000     1.000000     0.000000     0.500000     0.500000     0.500000
   14    -1.000000   180.000000     0.000000     1.000000     0.000000     0.500000     0.500000     0.500000
   15     1.000000   180.000000     1.000000     0.000000     0.000000     0.500000     0.500000     0.500000
   16    -1.000000   180.000000     1.000000     0.000000     0.000000     0.500000     0.500000     0.500000
 
 Subroutine IBZKPT returns following result:
 ===========================================
 
 Found      9 irreducible k-points:
 
 Following reciprocal coordinates:
            Coordinates               Weight
  0.125000  0.125000  0.083333      8.000000
  0.375000  0.125000  0.083333     16.000000
  0.375000  0.375000  0.083333      8.000000
  0.125000  0.125000  0.250000      8.000000
  0.375000  0.125000  0.250000     16.000000
  0.375000  0.375000  0.250000      8.000000
  0.125000  0.125000  0.416667      8.000000
  0.375000  0.125000  0.416667     16.000000
  0.375000  0.375000  0.416667      8.000000
 
 Following cartesian coordinates:
            Coordinates               Weight
  0.025979  0.025979  0.025540      8.000000
  0.077936  0.025979  0.025540     16.000000
  0.077936  0.077936  0.025540      8.000000
  0.025979  0.025979  0.076620      8.000000
  0.077936  0.025979  0.076620     16.000000
  0.077936  0.077936  0.076620      8.000000
  0.025979  0.025979  0.127699      8.000000
  0.077936  0.025979  0.127699     16.000000
  0.077936  0.077936  0.127699      8.000000
 
 TETIRR: Found    106 inequivalent tetrahedra from      576


--------------------------------------------------------------------------------------------------------




 Dimension of arrays:
   k-points           NKPTS =      9   k-points in BZ     NKDIM =      9   number of bands    NBANDS=     36
   number of dos      NEDOS =    301   number of ions     NIONS =      6
   non local maximal  LDIM  =      6   non local SUM 2l+1 LMDIM =     18
   total plane-waves  NPLWV =  18000
   max r-space proj   IRMAX =      1   max aug-charges    IRDMAX=  58033
   dimension x,y,z NGX =    30 NGY =   30 NGZ =   20
   dimension x,y,z NGXF=    60 NGYF=   60 NGZF=   40
   support grid    NGXF=   120 NGYF=  120 NGZF=   80
   ions per type =               2   4
   NGX,Y,Z   is equivalent  to a cutoff of  10.37, 10.37, 10.19 a.u.
   NGXF,Y,Z  is equivalent  to a cutoff of  20.73, 20.73, 20.38 a.u.

 SYSTEM =  unknown system                          
 POSCAR =  Mn  F                                   

 Startparameter for this run:
   NWRITE =      2    write-flag & timer
   PREC   = normal    normal or accurate (medium, high low for compatibility)
   ISTART =      0    job   : 0-new  1-cont  2-samecut
   ICHARG =      2    charge: 1-file 2-atom 10-const
   ISPIN  =      2    spin polarized calculation?
   LNONCOLLINEAR =      F non collinear calculations
   LSORBIT =      F    spin-orbit coupling
   INIWAV =      1    electr: 0-lowe 1-rand  2-diag
   LASPH  =      T    aspherical Exc in radial PAW
   METAGGA=      F    non-selfconsistent MetaGGA calc.

 Electronic Relaxation 1
   ENCUT  =  600.0 eV  44.10 Ry    6.64 a.u.   9.61  9.61  6.52*2*pi/ulx,y,z
   ENINI  =  600.0     initial cutoff
   ENAUG  =  613.6 eV  augmentation charge cutoff
   NELM   =     60;   NELMIN=  2; NELMDL= -5     # of ELM steps 
   EDIFF  = 0.1E-05   stopping-criterion for ELM
   LREAL  =      F    real-space projection
   NLSPLINE    = F    spline interpolate recip. space projectors
   LCOMPAT=      F    compatible to vasp.4.4
   GGA_COMPAT  = T    GGA compatible to vasp.4.4-vasp.4.6
   LMAXPAW     = -100 max onsite density
   LMAXMIX     =    4 max onsite mixed and CHGCAR
   VOSKOWN=      0    Vosko Wilk Nusair interpolation
   ROPT   =    0.00000   0.00000
 Ionic relaxation
   EDIFFG = 0.1E-04   stopping-criterion for IOM
   NSW    =      0    number of steps for IOM
   NBLOCK =      1;   KBLOCK =      1    inner block; outer block 
   IBRION =     -1    ionic relax: 0-MD 1-quasi-New 2-CG
   NFREE  =      0    steps in history (QN), initial steepest desc. (CG)
   ISIF   =      2    stress and relaxation
   IWAVPR =     10    prediction:  0-non 1-charg 2-wave 3-comb
   ISYM   =      2    0-nonsym 1-usesym 2-fastsym
   LCORR  =      T    Harris-Foulkes like correction to forces

   POTIM  = 0.5000    time-step for ionic-motion
   TEIN   =    0.0    initial temperature
   TEBEG  =    0.0;   TEEND  =   0.0 temperature during run
   SMASS  =  -3.00    Nose mass-parameter (am)
   estimated Nose-frequenzy (Omega)   =  0.10E-29 period in steps =****** mass=  -0.529E-27a.u.
   SCALEE = 1.0000    scale energy and forces
   NPACO  =    256;   APACO  = 16.0  distance and # of slots for P.C.
   PSTRESS=    0.0 pullay stress

  Mass of Ions in am
   POMASS =  54.94 19.00
  Ionic Valenz
   ZVAL   =  13.00  7.00
  Atomic Wigner-Seitz radii
   RWIGS  =  -1.00 -1.00
  virtual crystal weights 
   VCA    =   1.00  1.00
   NELECT =      54.0000    total number of electrons
   NUPDOWN=      -1.0000    fix difference up-down

 DOS related values:
   EMIN   =  10.00;   EMAX   =-10.00  energy-range for DOS
   EFERMI =   0.00
   ISMEAR =    -5;   SIGMA  =   0.20  broadening in eV -4-tet -1-fermi 0-gaus

 Electronic relaxation 2 (details)
   IALGO  =     38    algorithm
   LDIAG  =      T    sub-space diagonalisation (order eigenvalues)
   LSUBROT=      F    optimize rotation matrix (better conditioning)
   TURBO    =      0    0=normal 1=particle mesh
   IRESTART =      0    0=no restart 2=restart with 2 vectors
   NREBOOT  =      0    no. of reboots
   NMIN     =      0    reboot dimension
   EREF     =   0.00    reference energy to select bands
   IMIX   =      4    mixing-type and parameters
     AMIX     =   0.40;   BMIX     =  1.00
     AMIX_MAG =   1.60;   BMIX_MAG =  1.00
     AMIN     =   0.10
     WC   =   100.;   INIMIX=   1;  MIXPRE=   1;  MAXMIX= -45

 Intra band minimization:
   WEIMIN = 0.0000     energy-eigenvalue tresh-hold
   EBREAK =  0.69E-08  absolut break condition
   DEPER  =   0.30     relativ break condition  

   TIME   =   0.40     timestep for ELM

  volume/ion in A,a.u.               =      12.59        84.96
  Fermi-wavevector in a.u.,A,eV,Ry     =   1.463787  2.766156 29.152811  2.142671
  Thomas-Fermi vector in A             =   2.579840
 
 Write flags
   LWAVE        =      T    write WAVECAR
   LDOWNSAMPLE  =      F    k-point downsampling of WAVECAR
   LCHARG       =      T    write CHGCAR
   LVTOT        =      F    write LOCPOT, total local potential
   LVHAR        =      F    write LOCPOT, Hartree potential only
   LELF         =      F    write electronic localiz. function (ELF)
   LORBIT       =     11    0 simple, 1 ext, 2 COOP (PROOUT), +10 PAW based schemes


 Dipole corrections
   LMONO  =      F    monopole corrections only (constant potential shift)
   LDIPOL =      F    correct potential (dipole corrections)
   IDIPOL =      0    1-x, 2-y, 3-z, 4-all directions 
   EPSILON=  1.0000000 bulk dielectric constant

 LDA+U is selected, type is set to LDAUTYPE =  2
   angular momentum for each species LDAUL =     2   -1
   U (eV)           for each species LDAUU =   8.0  0.0
   J (eV)           for each species LDAUJ =   0.0  0.0
 Exchange correlation treatment:
   GGA     =    --    GGA type
   LEXCH   =     2    internal setting for exchange type
   VOSKOWN=      0    Vosko Wilk Nusair interpolation
   LHFCALC =     F    Hartree Fock is set to
   LHFONE  =     F    Hartree Fock one center treatment
   AEXX    =    0.0000 exact exchange contribution

 Linear response parameters
   LEPSILON=     F    determine dielectric tensor
   LRPA    =     F    only Hartree local field effects (RPA)
   LNABLA  =     F    use nabla operator in PAW spheres
   LVEL    =     F    velocity operator in full k-point grid
   LINTERFAST=   F  fast interpolation
   KINTER  =     0    interpolate to denser k-point grid
   CSHIFT  =0.1000    complex shift for real part using Kramers Kronig
   OMEGAMAX=  -1.0    maximum frequency
   DEG_THRESHOLD= 0.2000000E-02 threshold for treating states as degnerate
   RTIME   =   -0.100 relaxation time in fs
  (WPLASMAI=    0.000 imaginary part of plasma frequency in eV, 0.658/RTIME)
   DFIELD  = 0.0000000 0.0000000 0.0000000 field for delta impulse in time
 
 Orbital magnetization related:
   ORBITALMAG=     F  switch on orbital magnetization
   LCHIMAG   =     F  perturbation theory with respect to B field
   DQ        =  0.001000  dq finite difference perturbation B field
   LLRAUG    =     F  two centre corrections for induced B field



--------------------------------------------------------------------------------------------------------


 Static calculation
 charge density and potential will be updated during run
 spin polarized calculation
 Variant of blocked Davidson
 Davidson routine will perform the subspace rotation
 perform sub-space diagonalisation
    after iterative eigenvector-optimisation
 modified Broyden-mixing scheme, WC =      100.0
 initial mixing is a Kerker type mixing with AMIX =  0.4000 and BMIX =      1.0000
 Hartree-type preconditioning will be used
 using additional bands            9
 reciprocal scheme for non local part
 use partial core corrections
 calculate Harris-corrections to forces 
   (improved forces if not selfconsistent)
 use of overlap-Matrix (Vanderbilt PP)
 Fermi weights with tetrahedron method with Bloechl corrections


--------------------------------------------------------------------------------------------------------


  energy-cutoff  :      600.00
  volume of cell :       75.54
      direct lattice vectors                 reciprocal lattice vectors
     4.811631305  0.000000000  0.000000000     0.207829723  0.000000000  0.000000000
     0.000000000  4.811631305  0.000000000     0.000000000  0.207829723  0.000000000
     0.000000000  0.000000000  3.262873884     0.000000000  0.000000000  0.306478287

  length of vectors
     4.811631305  4.811631305  3.262873884     0.207829723  0.207829723  0.306478287


 
 k-points in units of 2pi/SCALE and weight: KPOINTS created by Atomic Simulation Env
   0.02597872  0.02597872  0.02553986       0.083
   0.07793615  0.02597872  0.02553986       0.167
   0.07793615  0.07793615  0.02553986       0.083
   0.02597872  0.02597872  0.07661957       0.083
   0.07793615  0.02597872  0.07661957       0.167
   0.07793615  0.07793615  0.07661957       0.083
   0.02597872  0.02597872  0.12769929       0.083
   0.07793615  0.02597872  0.12769929       0.167
   0.07793615  0.07793615  0.12769929       0.083
 
 k-points in reciprocal lattice and weights: KPOINTS created by Atomic Simulation Env
   0.12500000  0.12500000  0.08333333       0.083
   0.37500000  0.12500000  0.08333333       0.167
   0.37500000  0.37500000  0.08333333       0.083
   0.12500000  0.12500000  0.25000000       0.083
   0.37500000  0.12500000  0.25000000       0.167
   0.37500000  0.37500000  0.25000000       0.083
   0.12500000  0.12500000  0.41666667       0.083
   0.37500000  0.12500000  0.41666667       0.167
   0.37500000  0.37500000  0.41666667       0.083
 
 position of ions in fractional coordinates (direct lattice) 
   0.50000000  0.50000000  0.50000000
   0.00000000  0.00000000  0.00000000
   0.19532645  0.80467355  0.50000000
   0.80467355  0.19532645  0.50000000
   0.30467355  0.30467355  0.00000000
   0.69532645  0.69532645  0.00000000
 
 position of ions in cartesian coordinates  (Angst):
   2.40581565  2.40581565  1.63143694
   0.00000000  0.00000000  0.00000000
   0.93983886  3.87179245  1.63143694
   3.87179245  0.93983886  1.63143694
   1.46597679  1.46597679  0.00000000
   3.34565451  3.34565451  0.00000000
 


--------------------------------------------------------------------------------------------------------


 k-point  1 :   0.1250 0.1250 0.0833  plane waves:    2537
 k-point  2 :   0.3750 0.1250 0.0833  plane waves:    2532
 k-point  3 :   0.3750 0.3750 0.0833  plane waves:    2517
 k-point  4 :   0.1250 0.1250 0.2500  plane waves:    2532
 k-point  5 :   0.3750 0.1250 0.2500  plane waves:    2523
 k-point  6 :   0.3750 0.3750 0.2500  plane waves:    2521
 k-point  7 :   0.1250 0.1250 0.4167  plane waves:    2514
 k-point  8 :   0.3750 0.1250 0.4167  plane waves:    2513
 k-point  9 :   0.3750 0.3750 0.4167  plane waves:    2518

 maximum and minimum number of plane-waves per node :      2537     2513

 maximum number of plane-waves:      2537
 maximum index in each direction: 
   IXMAX=    9   IYMAX=    9   IZMAX=    6
   IXMIN=   -9   IYMIN=   -9   IZMIN=   -6


 serial   3D FFT for wavefunctions
 parallel 3D FFT for charge:
    minimum data exchange during FFTs selected (reduces bandwidth)


 total amount of memory used by VASP MPI-rank0    43626. kBytes
=======================================================================

   base      :      30000. kBytes
   nonl-proj :       6838. kBytes
   fftplans  :       1875. kBytes
   grid      :       2467. kBytes
   one-center:        186. kBytes
   wavefun   :       2260. kBytes
 
     INWAV:  cpu time    0.0000: real time    0.0000
 Broyden mixing: mesh for mixing (old mesh)
   NGX = 19   NGY = 19   NGZ = 13
  (NGX  = 60   NGY  = 60   NGZ  = 40)
  gives a total of   4693 points

 initial charge density was supplied:
 charge density of overlapping atoms calculated
 number of electron      54.0000000 magnetization       0.0000000
 keeping initial charge density in first step


--------------------------------------------------------------------------------------------------------


 Maximum index for augmentation-charges         4391 (set IRDMAX)


--------------------------------------------------------------------------------------------------------


 First call to EWALD:  gamma=   0.419
 Maximum number of real-space cells 2x 2x 3
 Maximum number of reciprocal cells 3x 3x 2

    FEWALD:  cpu time    0.0010: real time    0.0010


--------------------------------------- Iteration      1(   1)  ---------------------------------------


    POTLOK:  cpu time    0.0060: real time    0.0060
    SETDIJ:  cpu time    0.2300: real time    0.2301
atom =   1  type =  1  l = 2
 
 onsite density matrix
 
spin component  1
 
  0.2837  0.0000  0.0000  0.0000  0.0000
  0.0000  0.2837  0.0000  0.0000  0.0000
  0.0000  0.0000  0.2837  0.0000  0.0000
  0.0000  0.0000  0.0000  0.2837  0.0000
  0.0000  0.0000  0.0000  0.0000  0.2837
 
spin component  2
 
  0.7701  0.0000  0.0000  0.0000  0.0000
  0.0000  0.7701  0.0000  0.0000  0.0000
  0.0000  0.0000  0.7701  0.0000  0.0000
  0.0000  0.0000  0.0000  0.7701  0.0000
  0.0000  0.0000  0.0000  0.0000  0.7701
 
 occupancies and eigenvectors
 
  o =  0.2837  v =  1.0000  0.0000  0.0000  0.0000  0.0000  0.0000  0.0000  0.0000  0.0000  0.0000      0.0000  0.0000  0.0000  0.0000  0.0000  0.0000  0.0000  0.0000  0.0000  0.0000
  o =  0.2837  v =  0.0000  1.0000  0.0000  0.0000  0.0000  0.0000  0.0000  0.0000  0.0000  0.0000      0.0000  0.0000  0.0000  0.0000  0.0000  0.0000  0.0000  0.0000  0.0000  0.0000
  o =  0.2837  v =  0.0000  0.0000  1.0000  0.0000  0.0000  0.0000  0.0000  0.0000  0.0000  0.0000      0.0000  0.0000  0.0000  0.0000  0.0000  0.0000  0.0000  0.0000  0.0000  0.0000
  o =  0.2837  v =  0.0000  0.0000  0.0000  1.0000  0.0000  0.0000  0.0000  0.0000  0.0000  0.0000      0.0000  0.0000  0.0000  0.0000  0.0000  0.0000  0.0000  0.0000  0.0000  0.0000
  o =  0.2837  v =  0.0000  0.0000  0.0000  0.0000  1.0000  0.0000  0.0000  0.0000  0.0000  0.0000      0.0000  0.0000  0.0000  0.0000  0.0000  0.0000  0.0000  0.0000  0.0000  0.0000
  o =  0.7701  v =  0.0000  0.0000  0.0000  0.0000  0.0000  1.0000  0.0000  0.0000  0.0000  0.0000      0.0000  0.0000  0.0000  0.0000  0.0000  0.0000  0.0000  0.0000  0.0000  0.0000
  o =  0.7701  v =  0.0000  0.0000  0.0000  0.0000  0.0000  0.0000  1.0000  0.0000  0.0000  0.0000      0.0000  0.0000  0.0000  0.0000  0.0000  0.0000  0.0000  0.0000  0.0000  0.0000
  o =  0.7701  v =  0.0000  0.0000  0.0000  0.0000  0.0000  0.0000  0.0000  1.0000  0.0000  0.0000      0.0000  0.0000  0.0000  0.0000  0.0000  0.0000  0.0000  0.0000  0.0000  0.0000
  o =  0.7701  v =  0.0000  0.0000  0.0000  0.0000  0.0000  0.0000  0.0000  0.0000  1.0000  0.0000      0.0000  0.0000  0.0000  0.0000  0.0000  0.0000  0.0000  0.0000  0.0000  0.0000
  o =  0.7701  v =  0.0000  0.0000  0.0000  0.0000  0.0000  0.0000  0.0000  0.0000  0.0000  1.0000      0.0000  0.0000  0.0000  0.0000  0.0000  0.0000  0.0000  0.0000  0.0000  0.0000
atom =   2  type =  1  l = 2
 
 onsite density matrix
 
spin component  1
 
  0.7701  0.0000  0.0000  0.0000  0.0000
  0.0000  0.7701  0.0000  0.0000  0.0000
  0.0000  0.0000  0.7701  0.0000  0.0000
  0.0000  0.0000  0.0000  0.7701  0.0000
  0.0000  0.0000  0.0000  0.0000  0.7701
 
spin component  2
 
  0.2837  0.0000  0.0000  0.0000  0.0000
  0.0000  0.2837  0.0000  0.0000  0.0000
  0.0000  0.0000  0.2837  0.0000  0.0000
  0.0000  0.0000  0.0000  0.2837  0.0000
  0.0000  0.0000  0.0000  0.0000  0.2837
 
 occupancies and eigenvectors
 
  o =  0.2837  v =  0.0000  0.0000  0.0000  0.0000  0.0000  1.0000  0.0000  0.0000  0.0000  0.0000      0.0000  0.0000  0.0000  0.0000  0.0000  0.0000  0.0000  0.0000  0.0000  0.0000
  o =  0.2837  v =  0.0000  0.0000  0.0000  0.0000  0.0000  0.0000  1.0000  0.0000  0.0000  0.0000      0.0000  0.0000  0.0000  0.0000  0.0000  0.0000  0.0000  0.0000  0.0000  0.0000
  o =  0.2837  v =  0.0000  0.0000  0.0000  0.0000  0.0000  0.0000  0.0000  1.0000  0.0000  0.0000      0.0000  0.0000  0.0000  0.0000  0.0000  0.0000  0.0000  0.0000  0.0000  0.0000
  o =  0.2837  v =  0.0000  0.0000  0.0000  0.0000  0.0000  0.0000  0.0000  0.0000  1.0000  0.0000      0.0000  0.0000  0.0000  0.0000  0.0000  0.0000  0.0000  0.0000  0.0000  0.0000
  o =  0.2837  v =  0.0000  0.0000  0.0000  0.0000  0.0000  0.0000  0.0000  0.0000  0.0000  1.0000      0.0000  0.0000  0.0000  0.0000  0.0000  0.0000  0.0000  0.0000  0.0000  0.0000
  o =  0.7701  v =  1.0000  0.0000  0.0000  0.0000  0.0000  0.0000  0.0000  0.0000  0.0000  0.0000      0.0000  0.0000  0.0000  0.0000  0.0000  0.0000  0.0000  0.0000  0.0000  0.0000
  o =  0.7701  v =  0.0000  1.0000  0.0000  0.0000  0.0000  0.0000  0.0000  0.0000  0.0000  0.0000      0.0000  0.0000  0.0000  0.0000  0.0000  0.0000  0.0000  0.0000  0.0000  0.0000
  o =  0.7701  v =  0.0000  0.0000  1.0000  0.0000  0.0000  0.0000  0.0000  0.0000  0.0000  0.0000      0.0000  0.0000  0.0000  0.0000  0.0000  0.0000  0.0000  0.0000  0.0000  0.0000
  o =  0.7701  v =  0.0000  0.0000  0.0000  1.0000  0.0000  0.0000  0.0000  0.0000  0.0000  0.0000      0.0000  0.0000  0.0000  0.0000  0.0000  0.0000  0.0000  0.0000  0.0000  0.0000
  o =  0.7701  v =  0.0000  0.0000  0.0000  0.0000  1.0000  0.0000  0.0000  0.0000  0.0000  0.0000      0.0000  0.0000  0.0000  0.0000  0.0000  0.0000  0.0000  0.0000  0.0000  0.0000
     EDDAV:  cpu time    0.3392: real time    0.3576
 BZINTS: Fermi energy: 18.869206; 54.000000 electrons
         Band energy: -64.548044;  BLOECHL correction: -0.194418
       DOS:  cpu time    0.0091: real time    0.0091
    --------------------------------------------
      LOOP:  cpu time    0.5844: real time    0.6027

 eigenvalue-minimisations  :  1296
 total energy-change (2. order) : 0.6784988E+03  (-0.3433601E+04)
 number of electron      54.0000000 magnetization       0.0000000
 augmentation part       54.0000000 magnetization       0.0000000

 Free energy of the ion-electron system (eV)
  ---------------------------------------------------
  alpha Z        PSCENC =       201.68854072
  Ewald energy   TEWEN  =     -4236.95701916
  -Hartree energ DENC   =     -2101.64229405
  -exchange      EXHF   =         0.00000000
  -V(xc)+E(xc)   XCENC  =       295.10603683
  PAW double counting   =      5431.03059579    -5535.63577024
  entropy T*S    EENTRO =         0.00000000
  eigenvalues    EBANDS =       -64.54804447
  atomic energy  EATOM  =      6689.45677594
  Solvation  Ediel_sol  =         0.00000000
  ---------------------------------------------------
  free energy    TOTEN  =       678.49882136 eV

  energy without entropy =      678.49882136  energy(sigma->0) =      678.49882136


--------------------------------------------------------------------------------------------------------




--------------------------------------- Iteration      1(   2)  ---------------------------------------


     EDDAV:  cpu time    0.3731: real time    0.3731
 BZINTS: Fermi energy:  3.512245; 54.000000 electrons
         Band energy:-733.673824;  BLOECHL correction:  0.000000
       DOS:  cpu time    0.0021: real time    0.0021
    --------------------------------------------
      LOOP:  cpu time    0.3752: real time    0.3752

 eigenvalue-minimisations  :  1500
 total energy-change (2. order) :-0.6691258E+03  (-0.6504697E+03)
 number of electron      54.0000000 magnetization       0.0000000
 augmentation part       54.0000000 magnetization       0.0000000

 Free energy of the ion-electron system (eV)
  ---------------------------------------------------
  alpha Z        PSCENC =       201.68854072
  Ewald energy   TEWEN  =     -4236.95701916
  -Hartree energ DENC   =     -2101.64229405
  -exchange      EXHF   =         0.00000000
  -V(xc)+E(xc)   XCENC  =       295.10603683
  PAW double counting   =      5431.03059579    -5535.63577024
  entropy T*S    EENTRO =         0.00000000
  eigenvalues    EBANDS =      -733.67382394
  atomic energy  EATOM  =      6689.45677594
  Solvation  Ediel_sol  =         0.00000000
  ---------------------------------------------------
  free energy    TOTEN  =         9.37304189 eV

  energy without entropy =        9.37304189  energy(sigma->0) =        9.37304189


--------------------------------------------------------------------------------------------------------




--------------------------------------- Iteration      1(   3)  ---------------------------------------


     EDDAV:  cpu time    0.3991: real time    0.3991
 BZINTS: Fermi energy:  2.421956; 54.000000 electrons
         Band energy:-780.382604;  BLOECHL correction:  0.000000
       DOS:  cpu time    0.0018: real time    0.0018
    --------------------------------------------
      LOOP:  cpu time    0.4008: real time    0.4009

 eigenvalue-minimisations  :  1596
 total energy-change (2. order) :-0.4670878E+02  (-0.4652942E+02)
 number of electron      54.0000000 magnetization       0.0000000
 augmentation part       54.0000000 magnetization       0.0000000

 Free energy of the ion-electron system (eV)
  ---------------------------------------------------
  alpha Z        PSCENC =       201.68854072
  Ewald energy   TEWEN  =     -4236.95701916
  -Hartree energ DENC   =     -2101.64229405
  -exchange      EXHF   =         0.00000000
  -V(xc)+E(xc)   XCENC  =       295.10603683
  PAW double counting   =      5431.03059579    -5535.63577024
  entropy T*S    EENTRO =         0.00000000
  eigenvalues    EBANDS =      -780.38260422
  atomic energy  EATOM  =      6689.45677594
  Solvation  Ediel_sol  =         0.00000000
  ---------------------------------------------------
  free energy    TOTEN  =       -37.33573839 eV

  energy without entropy =      -37.33573839  energy(sigma->0) =      -37.33573839


--------------------------------------------------------------------------------------------------------




--------------------------------------- Iteration      1(   4)  ---------------------------------------


     EDDAV:  cpu time    0.3597: real time    0.3597
 BZINTS: Fermi energy:  2.478009; 54.000000 electrons
         Band energy:-781.022508;  BLOECHL correction:  0.000000
       DOS:  cpu time    0.0020: real time    0.0020
    --------------------------------------------
      LOOP:  cpu time    0.3618: real time    0.3618

 eigenvalue-minimisations  :  1428
 total energy-change (2. order) :-0.6399034E+00  (-0.6398081E+00)
 number of electron      54.0000000 magnetization       0.0000000
 augmentation part       54.0000000 magnetization       0.0000000

 Free energy of the ion-electron system (eV)
  ---------------------------------------------------
  alpha Z        PSCENC =       201.68854072
  Ewald energy   TEWEN  =     -4236.95701916
  -Hartree energ DENC   =     -2101.64229405
  -exchange      EXHF   =         0.00000000
  -V(xc)+E(xc)   XCENC  =       295.10603683
  PAW double counting   =      5431.03059579    -5535.63577024
  entropy T*S    EENTRO =         0.00000000
  eigenvalues    EBANDS =      -781.02250759
  atomic energy  EATOM  =      6689.45677594
  Solvation  Ediel_sol  =         0.00000000
  ---------------------------------------------------
  free energy    TOTEN  =       -37.97564176 eV

  energy without entropy =      -37.97564176  energy(sigma->0) =      -37.97564176


--------------------------------------------------------------------------------------------------------




--------------------------------------- Iteration      1(   5)  ---------------------------------------


     EDDAV:  cpu time    0.3890: real time    0.3890
 BZINTS: Fermi energy:  2.459999; 54.000000 electrons
         Band energy:-781.033423;  BLOECHL correction:  0.000000
       DOS:  cpu time    0.0020: real time    0.0020
    CHARGE:  cpu time    0.0370: real time    0.0370
    MIXING:  cpu time    0.0005: real time    0.0005
    --------------------------------------------
      LOOP:  cpu time    0.4285: real time    0.4285

 eigenvalue-minimisations  :  1560
 total energy-change (2. order) :-0.1091543E-01  (-0.1091534E-01)
 number of electron      54.0000001 magnetization      -0.0000000
 augmentation part       20.1704960 magnetization      -0.0000000

 Broyden mixing:
  rms(total) = 0.24802E+01    rms(broyden)= 0.24802E+01
  rms(prec ) = 0.32026E+01
  weight for this iteration     100.00

 Free energy of the ion-electron system (eV)
  ---------------------------------------------------
  alpha Z        PSCENC =       201.68854072
  Ewald energy   TEWEN  =     -4236.95701916
  -Hartree energ DENC   =     -2101.64229405
  -exchange      EXHF   =         0.00000000
  -V(xc)+E(xc)   XCENC  =       295.10603683
  PAW double counting   =      5431.03059579    -5535.63577024
  entropy T*S    EENTRO =         0.00000000
  eigenvalues    EBANDS =      -781.03342302
  atomic energy  EATOM  =      6689.45677594
  Solvation  Ediel_sol  =         0.00000000
  ---------------------------------------------------
  free energy    TOTEN  =       -37.98655719 eV

  energy without entropy =      -37.98655719  energy(sigma->0) =      -37.98655719


--------------------------------------------------------------------------------------------------------




--------------------------------------- Iteration      1(   6)  ---------------------------------------


    POTLOK:  cpu time    0.0048: real time    0.0048
    SETDIJ:  cpu time    0.2318: real time    0.2318
atom =   1  type =  1  l = 2
 
 onsite density matrix
 
spin component  1
 
 -0.0824  0.0000  0.0035  0.0000  0.0000
  0.0000 -0.0848  0.0000  0.0025  0.0000
  0.0035  0.0000 -0.0833  0.0000 -0.0000
  0.0000  0.0025  0.0000 -0.0848  0.0000
  0.0000  0.0000 -0.0000  0.0000 -0.0894
 
spin component  2
 
  1.1115  0.0000  0.0134  0.0000 -0.0000
  0.0000  1.1085  0.0000  0.0120  0.0000
  0.0134  0.0000  1.1032  0.0000 -0.0000
  0.0000  0.0120  0.0000  1.1085  0.0000
 -0.0000  0.0000 -0.0000  0.0000  1.0979
 
 occupancies and eigenvectors
 
  o = -0.0894  v = -0.0000  0.0000  0.0000 -0.0000  1.0000  0.0000  0.0000  0.0000  0.0000  0.0000      0.0000  0.0000  0.0000  0.0000  0.0000  0.0000  0.0000  0.0000  0.0000  0.0000
  o = -0.0873  v =  0.0000 -0.7071 -0.0000  0.7071  0.0000  0.0000  0.0000  0.0000  0.0000  0.0000      0.0000  0.0000  0.0000  0.0000  0.0000  0.0000  0.0000  0.0000  0.0000  0.0000
  o = -0.0864  v =  0.6595  0.0000 -0.7517 -0.0000  0.0000  0.0000  0.0000  0.0000  0.0000  0.0000      0.0000  0.0000  0.0000  0.0000  0.0000  0.0000  0.0000  0.0000  0.0000  0.0000
  o = -0.0823  v =  0.0000  0.7071  0.0000  0.7071 -0.0000  0.0000  0.0000  0.0000  0.0000  0.0000      0.0000  0.0000  0.0000  0.0000  0.0000  0.0000  0.0000  0.0000  0.0000  0.0000
  o = -0.0793  v =  0.7517 -0.0000  0.6595 -0.0000 -0.0000  0.0000  0.0000  0.0000  0.0000  0.0000      0.0000  0.0000  0.0000  0.0000  0.0000  0.0000  0.0000  0.0000  0.0000  0.0000
  o =  1.0933  v =  0.0000  0.0000  0.0000  0.0000  0.0000 -0.5931  0.0000  0.8051  0.0000 -0.0000      0.0000  0.0000  0.0000  0.0000  0.0000  0.0000  0.0000  0.0000  0.0000  0.0000
  o =  1.0965  v =  0.0000  0.0000  0.0000  0.0000  0.0000  0.0000 -0.7071  0.0000  0.7071  0.0000      0.0000  0.0000  0.0000  0.0000  0.0000  0.0000  0.0000  0.0000  0.0000  0.0000
  o =  1.0979  v =  0.0000  0.0000  0.0000  0.0000  0.0000  0.0000 -0.0000 -0.0000  0.0000 -1.0000      0.0000  0.0000  0.0000  0.0000  0.0000  0.0000  0.0000  0.0000  0.0000  0.0000
  o =  1.1204  v =  0.0000  0.0000  0.0000  0.0000  0.0000  0.0000 -0.7071  0.0000 -0.7071  0.0000      0.0000  0.0000  0.0000  0.0000  0.0000  0.0000  0.0000  0.0000  0.0000  0.0000
  o =  1.1214  v =  0.0000  0.0000  0.0000  0.0000  0.0000 -0.8051  0.0000 -0.5931  0.0000  0.0000      0.0000  0.0000  0.0000  0.0000  0.0000  0.0000  0.0000  0.0000  0.0000  0.0000
atom =   2  type =  1  l = 2
 
 onsite density matrix
 
spin component  1
 
  1.1115  0.0000 -0.0134  0.0000 -0.0000
  0.0000  1.1085  0.0000 -0.0120  0.0000
 -0.0134  0.0000  1.1032  0.0000 -0.0000
  0.0000 -0.0120  0.0000  1.1085  0.0000
 -0.0000  0.0000 -0.0000  0.0000  1.0979
 
spin component  2
 
 -0.0824  0.0000 -0.0035  0.0000  0.0000
  0.0000 -0.0848  0.0000 -0.0025  0.0000
 -0.0035  0.0000 -0.0833  0.0000  0.0000
  0.0000 -0.0025  0.0000 -0.0848  0.0000
  0.0000  0.0000  0.0000  0.0000 -0.0894
 
 occupancies and eigenvectors
 
  o = -0.0894  v =  0.0000  0.0000  0.0000  0.0000  0.0000  0.0000 -0.0000  0.0000 -0.0000 -1.0000      0.0000  0.0000  0.0000  0.0000  0.0000  0.0000  0.0000  0.0000  0.0000  0.0000
  o = -0.0873  v =  0.0000  0.0000  0.0000  0.0000  0.0000 -0.0000  0.7071 -0.0000  0.7071 -0.0000      0.0000  0.0000  0.0000  0.0000  0.0000  0.0000  0.0000  0.0000  0.0000  0.0000
  o = -0.0864  v =  0.0000  0.0000  0.0000  0.0000  0.0000  0.6595  0.0000  0.7517  0.0000  0.0000      0.0000  0.0000  0.0000  0.0000  0.0000  0.0000  0.0000  0.0000  0.0000  0.0000
  o = -0.0823  v =  0.0000  0.0000  0.0000  0.0000  0.0000  0.0000  0.7071 -0.0000 -0.7071 -0.0000      0.0000  0.0000  0.0000  0.0000  0.0000  0.0000  0.0000  0.0000  0.0000  0.0000
  o = -0.0793  v =  0.0000  0.0000  0.0000  0.0000  0.0000  0.7517 -0.0000 -0.6595  0.0000 -0.0000      0.0000  0.0000  0.0000  0.0000  0.0000  0.0000  0.0000  0.0000  0.0000  0.0000
  o =  1.0933  v = -0.5931  0.0000 -0.8051  0.0000 -0.0000  0.0000  0.0000  0.0000  0.0000  0.0000      0.0000  0.0000  0.0000  0.0000  0.0000  0.0000  0.0000  0.0000  0.0000  0.0000
  o =  1.0965  v = -0.0000 -0.7071 -0.0000 -0.7071  0.0000  0.0000  0.0000  0.0000  0.0000  0.0000      0.0000  0.0000  0.0000  0.0000  0.0000  0.0000  0.0000  0.0000  0.0000  0.0000
  o =  1.0979  v = -0.0000  0.0000 -0.0000  0.0000  1.0000  0.0000  0.0000  0.0000  0.0000  0.0000      0.0000  0.0000  0.0000  0.0000  0.0000  0.0000  0.0000  0.0000  0.0000  0.0000
  o =  1.1204  v = -0.0000 -0.7071  0.0000  0.7071 -0.0000  0.0000  0.0000  0.0000  0.0000  0.0000      0.0000  0.0000  0.0000  0.0000  0.0000  0.0000  0.0000  0.0000  0.0000  0.0000
  o =  1.1214  v = -0.8051  0.0000  0.5931 -0.0000 -0.0000  0.0000  0.0000  0.0000  0.0000  0.0000      0.0000  0.0000  0.0000  0.0000  0.0000  0.0000  0.0000  0.0000  0.0000  0.0000
     EDDAV:  cpu time    0.3953: real time    0.3953
 BZINTS: Fermi energy:  0.388653; 54.000000 electrons
         Band energy:-775.524273;  BLOECHL correction:  0.000000
       DOS:  cpu time    0.0020: real time    0.0020
    CHARGE:  cpu time    0.0364: real time    0.0364
    MIXING:  cpu time    0.0005: real time    0.0005
    --------------------------------------------
      LOOP:  cpu time    0.6708: real time    0.6708

 eigenvalue-minimisations  :  1584
 total energy-change (2. order) : 0.6394892E+00  (-0.1682008E+01)
 number of electron      54.0000001 magnetization      -0.0000000
 augmentation part       20.0313875 magnetization      -0.0000000

 Broyden mixing:
  rms(total) = 0.16605E+01    rms(broyden)= 0.16604E+01
  rms(prec ) = 0.17115E+01
  weight for this iteration     100.00

 eigenvalues of (default mixing * dielectric matrix)
  average eigenvalue GAMMA=   0.8153
  0.8153

 Free energy of the ion-electron system (eV)
  ---------------------------------------------------
  alpha Z        PSCENC =       201.68854072
  Ewald energy   TEWEN  =     -4236.95701916
  -Hartree energ DENC   =     -2127.33926265
  -exchange      EXHF   =         0.00000000
  -V(xc)+E(xc)   XCENC  =       295.97508341
  PAW double counting   =      5726.21683128    -5810.86374450
  entropy T*S    EENTRO =         0.00000000
  eigenvalues    EBANDS =      -775.52427304
  atomic energy  EATOM  =      6689.45677594
  Solvation  Ediel_sol  =         0.00000000
  ---------------------------------------------------
  free energy    TOTEN  =       -37.34706800 eV

  energy without entropy =      -37.34706800  energy(sigma->0) =      -37.34706800


--------------------------------------------------------------------------------------------------------




--------------------------------------- Iteration      1(   7)  ---------------------------------------


    POTLOK:  cpu time    0.0047: real time    0.0047
    SETDIJ:  cpu time    0.2295: real time    0.2295
atom =   1  type =  1  l = 2
 
 onsite density matrix
 
spin component  1
 
  0.1149  0.0000  0.0165  0.0000 -0.0000
  0.0000  0.1095  0.0000  0.0142  0.0000
  0.0165  0.0000  0.1049  0.0000  0.0000
  0.0000  0.0142  0.0000  0.1095  0.0000
 -0.0000  0.0000  0.0000  0.0000  0.0948
 
spin component  2
 
  0.9073  0.0000  0.0086  0.0000  0.0000
  0.0000  0.9046  0.0000  0.0071  0.0000
  0.0086  0.0000  0.9038  0.0000 -0.0000
  0.0000  0.0071  0.0000  0.9046  0.0000
  0.0000  0.0000 -0.0000  0.0000  0.8968
 
 occupancies and eigenvectors
 
  o =  0.0927  v = -0.5961 -0.0000  0.8029  0.0000 -0.0000  0.0000  0.0000  0.0000  0.0000  0.0000      0.0000  0.0000  0.0000  0.0000  0.0000  0.0000  0.0000  0.0000  0.0000  0.0000
  o =  0.0948  v = -0.0000  0.0000  0.0000  0.0000  1.0000  0.0000  0.0000  0.0000  0.0000  0.0000      0.0000  0.0000  0.0000  0.0000  0.0000  0.0000  0.0000  0.0000  0.0000  0.0000
  o =  0.0953  v =  0.0000  0.7071  0.0000 -0.7071 -0.0000  0.0000  0.0000  0.0000  0.0000  0.0000      0.0000  0.0000  0.0000  0.0000  0.0000  0.0000  0.0000  0.0000  0.0000  0.0000
  o =  0.1236  v =  0.0000 -0.7071  0.0000 -0.7071  0.0000  0.0000  0.0000  0.0000  0.0000  0.0000      0.0000  0.0000  0.0000  0.0000  0.0000  0.0000  0.0000  0.0000  0.0000  0.0000
  o =  0.1271  v = -0.8029 -0.0000 -0.5961  0.0000 -0.0000  0.0000  0.0000  0.0000  0.0000  0.0000      0.0000  0.0000  0.0000  0.0000  0.0000  0.0000  0.0000  0.0000  0.0000  0.0000
  o =  0.8968  v =  0.0000  0.0000  0.0000  0.0000  0.0000 -0.6319 -0.0000  0.7750  0.0000  0.0000      0.0000  0.0000  0.0000  0.0000  0.0000  0.0000  0.0000  0.0000  0.0000  0.0000
  o =  0.8968  v =  0.0000  0.0000  0.0000  0.0000  0.0000 -0.0000  0.0000  0.0000 -0.0000 -1.0000      0.0000  0.0000  0.0000  0.0000  0.0000  0.0000  0.0000  0.0000  0.0000  0.0000
  o =  0.8976  v =  0.0000  0.0000  0.0000  0.0000  0.0000 -0.0000 -0.7071  0.0000  0.7071 -0.0000      0.0000  0.0000  0.0000  0.0000  0.0000  0.0000  0.0000  0.0000  0.0000  0.0000
  o =  0.9117  v =  0.0000  0.0000  0.0000  0.0000  0.0000  0.0000  0.7071  0.0000  0.7071  0.0000      0.0000  0.0000  0.0000  0.0000  0.0000  0.0000  0.0000  0.0000  0.0000  0.0000
  o =  0.9143  v =  0.0000  0.0000  0.0000  0.0000  0.0000 -0.7750  0.0000 -0.6319  0.0000  0.0000      0.0000  0.0000  0.0000  0.0000  0.0000  0.0000  0.0000  0.0000  0.0000  0.0000
atom =   2  type =  1  l = 2
 
 onsite density matrix
 
spin component  1
 
  0.9073  0.0000 -0.0086  0.0000 -0.0000
  0.0000  0.9046  0.0000 -0.0071  0.0000
 -0.0086  0.0000  0.9038  0.0000 -0.0000
  0.0000 -0.0071  0.0000  0.9046  0.0000
 -0.0000  0.0000 -0.0000  0.0000  0.8968
 
spin component  2
 
  0.1149  0.0000 -0.0165  0.0000 -0.0000
  0.0000  0.1095  0.0000 -0.0142  0.0000
 -0.0165  0.0000  0.1049  0.0000  0.0000
  0.0000 -0.0142  0.0000  0.1095  0.0000
 -0.0000  0.0000  0.0000  0.0000  0.0948
 
 occupancies and eigenvectors
 
  o =  0.0927  v =  0.0000  0.0000  0.0000  0.0000  0.0000 -0.5961  0.0000 -0.8029  0.0000  0.0000      0.0000  0.0000  0.0000  0.0000  0.0000  0.0000  0.0000  0.0000  0.0000  0.0000
  o =  0.0948  v =  0.0000  0.0000  0.0000  0.0000  0.0000 -0.0000 -0.0000 -0.0000 -0.0000 -1.0000      0.0000  0.0000  0.0000  0.0000  0.0000  0.0000  0.0000  0.0000  0.0000  0.0000
  o =  0.0953  v =  0.0000  0.0000  0.0000  0.0000  0.0000  0.0000 -0.7071  0.0000 -0.7071  0.0000      0.0000  0.0000  0.0000  0.0000  0.0000  0.0000  0.0000  0.0000  0.0000  0.0000
  o =  0.1236  v =  0.0000  0.0000  0.0000  0.0000  0.0000  0.0000 -0.7071 -0.0000  0.7071  0.0000      0.0000  0.0000  0.0000  0.0000  0.0000  0.0000  0.0000  0.0000  0.0000  0.0000
  o =  0.1271  v =  0.0000  0.0000  0.0000  0.0000  0.0000 -0.8029 -0.0000  0.5961  0.0000  0.0000      0.0000  0.0000  0.0000  0.0000  0.0000  0.0000  0.0000  0.0000  0.0000  0.0000
  o =  0.8968  v = -0.6319  0.0000 -0.7750  0.0000 -0.0000  0.0000  0.0000  0.0000  0.0000  0.0000      0.0000  0.0000  0.0000  0.0000  0.0000  0.0000  0.0000  0.0000  0.0000  0.0000
  o =  0.8968  v =  0.0000  0.0000 -0.0000  0.0000  1.0000  0.0000  0.0000  0.0000  0.0000  0.0000      0.0000  0.0000  0.0000  0.0000  0.0000  0.0000  0.0000  0.0000  0.0000  0.0000
  o =  0.8976  v =  0.0000 -0.7071 -0.0000 -0.7071  0.0000  0.0000  0.0000  0.0000  0.0000  0.0000      0.0000  0.0000  0.0000  0.0000  0.0000  0.0000  0.0000  0.0000  0.0000  0.0000
  o =  0.9117  v =  0.0000 -0.7071 -0.0000  0.7071  0.0000  0.0000  0.0000  0.0000  0.0000  0.0000      0.0000  0.0000  0.0000  0.0000  0.0000  0.0000  0.0000  0.0000  0.0000  0.0000
  o =  0.9143  v = -0.7750  0.0000  0.6319  0.0000  0.0000  0.0000  0.0000  0.0000  0.0000  0.0000      0.0000  0.0000  0.0000  0.0000  0.0000  0.0000  0.0000  0.0000  0.0000  0.0000
     EDDAV:  cpu time    0.3593: real time    0.3593
 BZINTS: Fermi energy:  1.066613; 54.000000 electrons
         Band energy:-760.651480;  BLOECHL correction:  0.000000
       DOS:  cpu time    0.0020: real time    0.0020
    CHARGE:  cpu time    0.0364: real time    0.0364
    MIXING:  cpu time    0.0005: real time    0.0005
    --------------------------------------------
      LOOP:  cpu time    0.6325: real time    0.6325

 eigenvalue-minimisations  :  1428
 total energy-change (2. order) :-0.1104006E+01  (-0.2443869E+00)
 number of electron      54.0000001 magnetization       0.0000000
 augmentation part       19.9267731 magnetization       0.0000000

 Broyden mixing:
  rms(total) = 0.11088E+01    rms(broyden)= 0.11088E+01
  rms(prec ) = 0.11456E+01
  weight for this iteration     100.00

 eigenvalues of (default mixing * dielectric matrix)
  average eigenvalue GAMMA=   1.2527
  0.7115  1.7940

 Free energy of the ion-electron system (eV)
  ---------------------------------------------------
  alpha Z        PSCENC =       201.68854072
  Ewald energy   TEWEN  =     -4236.95701916
  -Hartree energ DENC   =     -2125.86973484
  -exchange      EXHF   =         0.00000000
  -V(xc)+E(xc)   XCENC  =       296.86974518
  PAW double counting   =      5987.19660031    -6090.18450192
  entropy T*S    EENTRO =         0.00000000
  eigenvalues    EBANDS =      -760.65148014
  atomic energy  EATOM  =      6689.45677594
  Solvation  Ediel_sol  =         0.00000000
  ---------------------------------------------------
  free energy    TOTEN  =       -38.45107391 eV

  energy without entropy =      -38.45107391  energy(sigma->0) =      -38.45107391


--------------------------------------------------------------------------------------------------------




--------------------------------------- Iteration      1(   8)  ---------------------------------------


    POTLOK:  cpu time    0.0048: real time    0.0048
    SETDIJ:  cpu time    0.2299: real time    0.2299
atom =   1  type =  1  l = 2
 
 onsite density matrix
 
spin component  1
 
 -0.0371  0.0000  0.0173  0.0000  0.0000
  0.0000 -0.0431  0.0000  0.0141  0.0000
  0.0173  0.0000 -0.0449  0.0000 -0.0000
  0.0000  0.0141  0.0000 -0.0431  0.0000
  0.0000  0.0000 -0.0000  0.0000 -0.0598
 
spin component  2
 
  1.0589  0.0000  0.0197  0.0000 -0.0000
  0.0000  1.0530  0.0000  0.0175  0.0000
  0.0197  0.0000  1.0463  0.0000  0.0000
  0.0000  0.0175  0.0000  1.0530  0.0000
 -0.0000  0.0000  0.0000  0.0000  1.0360
 
 occupancies and eigenvectors
 
  o = -0.0598  v =  0.0000  0.0000 -0.0000  0.0000 -1.0000  0.0000  0.0000  0.0000  0.0000  0.0000      0.0000  0.0000  0.0000  0.0000  0.0000  0.0000  0.0000  0.0000  0.0000  0.0000
  o = -0.0588  v = -0.6244  0.0000  0.7811  0.0000 -0.0000  0.0000  0.0000  0.0000  0.0000  0.0000      0.0000  0.0000  0.0000  0.0000  0.0000  0.0000  0.0000  0.0000  0.0000  0.0000
  o = -0.0572  v =  0.0000  0.7071  0.0000 -0.7071  0.0000  0.0000  0.0000  0.0000  0.0000  0.0000      0.0000  0.0000  0.0000  0.0000  0.0000  0.0000  0.0000  0.0000  0.0000  0.0000
  o = -0.0290  v =  0.0000 -0.7071  0.0000 -0.7071 -0.0000  0.0000  0.0000  0.0000  0.0000  0.0000      0.0000  0.0000  0.0000  0.0000  0.0000  0.0000  0.0000  0.0000  0.0000  0.0000
  o = -0.0232  v =  0.7811  0.0000  0.6244  0.0000 -0.0000  0.0000  0.0000  0.0000  0.0000  0.0000      0.0000  0.0000  0.0000  0.0000  0.0000  0.0000  0.0000  0.0000  0.0000  0.0000
  o =  1.0319  v =  0.0000  0.0000  0.0000  0.0000  0.0000 -0.5902  0.0000  0.8073  0.0000 -0.0000      0.0000  0.0000  0.0000  0.0000  0.0000  0.0000  0.0000  0.0000  0.0000  0.0000
  o =  1.0355  v =  0.0000  0.0000  0.0000  0.0000  0.0000  0.0000  0.7071  0.0000 -0.7071 -0.0000      0.0000  0.0000  0.0000  0.0000  0.0000  0.0000  0.0000  0.0000  0.0000  0.0000
  o =  1.0360  v =  0.0000  0.0000  0.0000  0.0000  0.0000  0.0000  0.0000  0.0000  0.0000  1.0000      0.0000  0.0000  0.0000  0.0000  0.0000  0.0000  0.0000  0.0000  0.0000  0.0000
  o =  1.0704  v =  0.0000  0.0000  0.0000  0.0000  0.0000  0.0000 -0.7071  0.0000 -0.7071  0.0000      0.0000  0.0000  0.0000  0.0000  0.0000  0.0000  0.0000  0.0000  0.0000  0.0000
  o =  1.0733  v =  0.0000  0.0000  0.0000  0.0000  0.0000 -0.8073  0.0000 -0.5902  0.0000  0.0000      0.0000  0.0000  0.0000  0.0000  0.0000  0.0000  0.0000  0.0000  0.0000  0.0000
atom =   2  type =  1  l = 2
 
 onsite density matrix
 
spin component  1
 
  1.0589  0.0000 -0.0197  0.0000 -0.0000
  0.0000  1.0530  0.0000 -0.0175  0.0000
 -0.0197  0.0000  1.0463  0.0000  0.0000
  0.0000 -0.0175  0.0000  1.0530  0.0000
 -0.0000  0.0000  0.0000  0.0000  1.0360
 
spin component  2
 
 -0.0371  0.0000 -0.0173  0.0000 -0.0000
  0.0000 -0.0431  0.0000 -0.0141  0.0000
 -0.0173  0.0000 -0.0449  0.0000 -0.0000
  0.0000 -0.0141  0.0000 -0.0431  0.0000
 -0.0000  0.0000 -0.0000  0.0000 -0.0598
 
 occupancies and eigenvectors
 
  o = -0.0598  v =  0.0000  0.0000  0.0000  0.0000  0.0000  0.0000  0.0000  0.0000  0.0000  1.0000      0.0000  0.0000  0.0000  0.0000  0.0000  0.0000  0.0000  0.0000  0.0000  0.0000
  o = -0.0588  v =  0.0000  0.0000  0.0000  0.0000  0.0000 -0.6244  0.0000 -0.7811  0.0000  0.0000      0.0000  0.0000  0.0000  0.0000  0.0000  0.0000  0.0000  0.0000  0.0000  0.0000
  o = -0.0572  v =  0.0000  0.0000  0.0000  0.0000  0.0000  0.0000 -0.7071  0.0000 -0.7071  0.0000      0.0000  0.0000  0.0000  0.0000  0.0000  0.0000  0.0000  0.0000  0.0000  0.0000
  o = -0.0290  v =  0.0000  0.0000  0.0000  0.0000  0.0000  0.0000 -0.7071  0.0000  0.7071  0.0000      0.0000  0.0000  0.0000  0.0000  0.0000  0.0000  0.0000  0.0000  0.0000  0.0000
  o = -0.0232  v =  0.0000  0.0000  0.0000  0.0000  0.0000  0.7811  0.0000 -0.6244  0.0000  0.0000      0.0000  0.0000  0.0000  0.0000  0.0000  0.0000  0.0000  0.0000  0.0000  0.0000
  o =  1.0319  v = -0.5902  0.0000 -0.8073  0.0000  0.0000  0.0000  0.0000  0.0000  0.0000  0.0000      0.0000  0.0000  0.0000  0.0000  0.0000  0.0000  0.0000  0.0000  0.0000  0.0000
  o =  1.0355  v =  0.0000  0.7071  0.0000  0.7071 -0.0000  0.0000  0.0000  0.0000  0.0000  0.0000      0.0000  0.0000  0.0000  0.0000  0.0000  0.0000  0.0000  0.0000  0.0000  0.0000
  o =  1.0360  v = -0.0000 -0.0000 -0.0000  0.0000 -1.0000  0.0000  0.0000  0.0000  0.0000  0.0000      0.0000  0.0000  0.0000  0.0000  0.0000  0.0000  0.0000  0.0000  0.0000  0.0000
  o =  1.0704  v =  0.0000  0.7071  0.0000 -0.7071 -0.0000  0.0000  0.0000  0.0000  0.0000  0.0000      0.0000  0.0000  0.0000  0.0000  0.0000  0.0000  0.0000  0.0000  0.0000  0.0000
  o =  1.0733  v = -0.8073  0.0000  0.5902  0.0000  0.0000  0.0000  0.0000  0.0000  0.0000  0.0000      0.0000  0.0000  0.0000  0.0000  0.0000  0.0000  0.0000  0.0000  0.0000  0.0000
     EDDAV:  cpu time    0.3931: real time    0.3931
 BZINTS: Fermi energy:  0.271690; 54.000000 electrons
         Band energy:-778.481996;  BLOECHL correction:  0.000000
       DOS:  cpu time    0.0020: real time    0.0020
    CHARGE:  cpu time    0.0362: real time    0.0362
    MIXING:  cpu time    0.0006: real time    0.0006
    --------------------------------------------
      LOOP:  cpu time    0.6666: real time    0.6666

 eigenvalue-minimisations  :  1584
 total energy-change (2. order) : 0.9848400E-01  (-0.7993935E-01)
 number of electron      54.0000001 magnetization       0.0000000
 augmentation part       20.0275990 magnetization       0.0000000

 Broyden mixing:
  rms(total) = 0.57405E+00    rms(broyden)= 0.57405E+00
  rms(prec ) = 0.59962E+00
  weight for this iteration     100.00

 eigenvalues of (default mixing * dielectric matrix)
  average eigenvalue GAMMA=   1.5167
  3.0001  0.8917  0.6582

 Free energy of the ion-electron system (eV)
  ---------------------------------------------------
  alpha Z        PSCENC =       201.68854072
  Ewald energy   TEWEN  =     -4236.95701916
  -Hartree energ DENC   =     -2116.60660810
  -exchange      EXHF   =         0.00000000
  -V(xc)+E(xc)   XCENC  =       295.86175802
  PAW double counting   =      6226.18124613    -6319.49528707
  entropy T*S    EENTRO =         0.00000000
  eigenvalues    EBANDS =      -778.48199639
  atomic energy  EATOM  =      6689.45677594
  Solvation  Ediel_sol  =         0.00000000
  ---------------------------------------------------
  free energy    TOTEN  =       -38.35258991 eV

  energy without entropy =      -38.35258991  energy(sigma->0) =      -38.35258991


--------------------------------------------------------------------------------------------------------




--------------------------------------- Iteration      1(   9)  ---------------------------------------


    POTLOK:  cpu time    0.0047: real time    0.0047
    SETDIJ:  cpu time    0.2307: real time    0.2307
atom =   1  type =  1  l = 2
 
 onsite density matrix
 
spin component  1
 
  0.0434  0.0000  0.0213  0.0000 -0.0000
  0.0000  0.0363  0.0000  0.0181  0.0000
  0.0213  0.0000  0.0315  0.0000 -0.0000
  0.0000  0.0181  0.0000  0.0363  0.0000
 -0.0000  0.0000 -0.0000  0.0000  0.0166
 
spin component  2
 
  0.9761  0.0000  0.0244  0.0000  0.0000
  0.0000  0.9683  0.0000  0.0211  0.0000
  0.0244  0.0000  0.9626  0.0000  0.0000
  0.0000  0.0211  0.0000  0.9683  0.0000
  0.0000  0.0000  0.0000  0.0000  0.9463
 
 occupancies and eigenvectors
 
  o =  0.0153  v = -0.6039  0.0000  0.7971  0.0000  0.0000  0.0000  0.0000  0.0000  0.0000  0.0000      0.0000  0.0000  0.0000  0.0000  0.0000  0.0000  0.0000  0.0000  0.0000  0.0000
  o =  0.0166  v = -0.0000 -0.0000  0.0000  0.0000 -1.0000  0.0000  0.0000  0.0000  0.0000  0.0000      0.0000  0.0000  0.0000  0.0000  0.0000  0.0000  0.0000  0.0000  0.0000  0.0000
  o =  0.0182  v =  0.0000 -0.7071  0.0000  0.7071  0.0000  0.0000  0.0000  0.0000  0.0000  0.0000      0.0000  0.0000  0.0000  0.0000  0.0000  0.0000  0.0000  0.0000  0.0000  0.0000
  o =  0.0544  v =  0.0000  0.7071  0.0000  0.7071 -0.0000  0.0000  0.0000  0.0000  0.0000  0.0000      0.0000  0.0000  0.0000  0.0000  0.0000  0.0000  0.0000  0.0000  0.0000  0.0000
  o =  0.0596  v = -0.7971  0.0000 -0.6039  0.0000  0.0000  0.0000  0.0000  0.0000  0.0000  0.0000      0.0000  0.0000  0.0000  0.0000  0.0000  0.0000  0.0000  0.0000  0.0000  0.0000
  o =  0.9441  v =  0.0000  0.0000  0.0000  0.0000  0.0000 -0.6055  0.0000  0.7959 -0.0000 -0.0000      0.0000  0.0000  0.0000  0.0000  0.0000  0.0000  0.0000  0.0000  0.0000  0.0000
  o =  0.9463  v =  0.0000  0.0000  0.0000  0.0000  0.0000 -0.0000 -0.0000  0.0000  0.0000  1.0000      0.0000  0.0000  0.0000  0.0000  0.0000  0.0000  0.0000  0.0000  0.0000  0.0000
  o =  0.9473  v =  0.0000  0.0000  0.0000  0.0000  0.0000  0.0000  0.7071 -0.0000 -0.7071  0.0000      0.0000  0.0000  0.0000  0.0000  0.0000  0.0000  0.0000  0.0000  0.0000  0.0000
  o =  0.9894  v =  0.0000  0.0000  0.0000  0.0000  0.0000 -0.0000 -0.7071 -0.0000 -0.7071 -0.0000      0.0000  0.0000  0.0000  0.0000  0.0000  0.0000  0.0000  0.0000  0.0000  0.0000
  o =  0.9947  v =  0.0000  0.0000  0.0000  0.0000  0.0000 -0.7959  0.0000 -0.6055  0.0000 -0.0000      0.0000  0.0000  0.0000  0.0000  0.0000  0.0000  0.0000  0.0000  0.0000  0.0000
atom =   2  type =  1  l = 2
 
 onsite density matrix
 
spin component  1
 
  0.9761  0.0000 -0.0244  0.0000  0.0000
  0.0000  0.9683  0.0000 -0.0211  0.0000
 -0.0244  0.0000  0.9626  0.0000 -0.0000
  0.0000 -0.0211  0.0000  0.9683  0.0000
  0.0000  0.0000 -0.0000  0.0000  0.9463
 
spin component  2
 
  0.0434  0.0000 -0.0213  0.0000 -0.0000
  0.0000  0.0363  0.0000 -0.0181  0.0000
 -0.0213  0.0000  0.0315  0.0000  0.0000
  0.0000 -0.0181  0.0000  0.0363  0.0000
 -0.0000  0.0000  0.0000  0.0000  0.0166
 
 occupancies and eigenvectors
 
  o =  0.0153  v =  0.0000  0.0000  0.0000  0.0000  0.0000 -0.6039  0.0000 -0.7971  0.0000  0.0000      0.0000  0.0000  0.0000  0.0000  0.0000  0.0000  0.0000  0.0000  0.0000  0.0000
  o =  0.0166  v =  0.0000  0.0000  0.0000  0.0000  0.0000 -0.0000 -0.0000 -0.0000  0.0000 -1.0000      0.0000  0.0000  0.0000  0.0000  0.0000  0.0000  0.0000  0.0000  0.0000  0.0000
  o =  0.0182  v =  0.0000  0.0000  0.0000  0.0000  0.0000  0.0000  0.7071  0.0000  0.7071 -0.0000      0.0000  0.0000  0.0000  0.0000  0.0000  0.0000  0.0000  0.0000  0.0000  0.0000
  o =  0.0544  v =  0.0000  0.0000  0.0000  0.0000  0.0000  0.0000  0.7071  0.0000 -0.7071 -0.0000      0.0000  0.0000  0.0000  0.0000  0.0000  0.0000  0.0000  0.0000  0.0000  0.0000
  o =  0.0596  v =  0.0000  0.0000  0.0000  0.0000  0.0000 -0.7971  0.0000  0.6039  0.0000  0.0000      0.0000  0.0000  0.0000  0.0000  0.0000  0.0000  0.0000  0.0000  0.0000  0.0000
  o =  0.9441  v = -0.6055  0.0000 -0.7959  0.0000  0.0000  0.0000  0.0000  0.0000  0.0000  0.0000      0.0000  0.0000  0.0000  0.0000  0.0000  0.0000  0.0000  0.0000  0.0000  0.0000
  o =  0.9463  v =  0.0000 -0.0000  0.0000 -0.0000  1.0000  0.0000  0.0000  0.0000  0.0000  0.0000      0.0000  0.0000  0.0000  0.0000  0.0000  0.0000  0.0000  0.0000  0.0000  0.0000
  o =  0.9473  v =  0.0000  0.7071  0.0000  0.7071  0.0000  0.0000  0.0000  0.0000  0.0000  0.0000      0.0000  0.0000  0.0000  0.0000  0.0000  0.0000  0.0000  0.0000  0.0000  0.0000
  o =  0.9894  v =  0.0000  0.7071  0.0000 -0.7071  0.0000  0.0000  0.0000  0.0000  0.0000  0.0000      0.0000  0.0000  0.0000  0.0000  0.0000  0.0000  0.0000  0.0000  0.0000  0.0000
  o =  0.9947  v = -0.7959  0.0000  0.6055  0.0000 -0.0000  0.0000  0.0000  0.0000  0.0000  0.0000      0.0000  0.0000  0.0000  0.0000  0.0000  0.0000  0.0000  0.0000  0.0000  0.0000
     EDDAV:  cpu time    0.3475: real time    0.3475
 BZINTS: Fermi energy:  0.470310; 54.000000 electrons
         Band energy:-770.927508;  BLOECHL correction:  0.000000
       DOS:  cpu time    0.0018: real time    0.0018
    CHARGE:  cpu time    0.0362: real time    0.0362
    MIXING:  cpu time    0.0006: real time    0.0006
    --------------------------------------------
      LOOP:  cpu time    0.6215: real time    0.6215

 eigenvalue-minimisations  :  1380
 total energy-change (2. order) :-0.5290713E+00  (-0.1640456E-01)
 number of electron      54.0000001 magnetization       0.0000000
 augmentation part       19.9912119 magnetization       0.0000000

 Broyden mixing:
  rms(total) = 0.20432E+00    rms(broyden)= 0.20432E+00
  rms(prec ) = 0.21804E+00
  weight for this iteration     100.00

 eigenvalues of (default mixing * dielectric matrix)
  average eigenvalue GAMMA=   1.1945
  2.7943  0.9517  0.6572  0.3747

 Free energy of the ion-electron system (eV)
  ---------------------------------------------------
  alpha Z        PSCENC =       201.68854072
  Ewald energy   TEWEN  =     -4236.95701916
  -Hartree energ DENC   =     -2116.46819614
  -exchange      EXHF   =         0.00000000
  -V(xc)+E(xc)   XCENC  =       296.29526247
  PAW double counting   =      6434.13330953    -6536.10282607
  entropy T*S    EENTRO =         0.00000000
  eigenvalues    EBANDS =      -770.92750849
  atomic energy  EATOM  =      6689.45677594
  Solvation  Ediel_sol  =         0.00000000
  ---------------------------------------------------
  free energy    TOTEN  =       -38.88166120 eV

  energy without entropy =      -38.88166120  energy(sigma->0) =      -38.88166120


--------------------------------------------------------------------------------------------------------




--------------------------------------- Iteration      1(  10)  ---------------------------------------


    POTLOK:  cpu time    0.0047: real time    0.0047
    SETDIJ:  cpu time    0.2296: real time    0.2296
atom =   1  type =  1  l = 2
 
 onsite density matrix
 
spin component  1
 
  0.0403  0.0000  0.0224  0.0000 -0.0000
  0.0000  0.0327  0.0000  0.0189  0.0000
  0.0224  0.0000  0.0279  0.0000 -0.0000
  0.0000  0.0189  0.0000  0.0327  0.0000
 -0.0000  0.0000 -0.0000  0.0000  0.0120
 
spin component  2
 
  0.9799  0.0000  0.0223  0.0000  0.0000
  0.0000  0.9727  0.0000  0.0194  0.0000
  0.0223  0.0000  0.9672  0.0000  0.0000
  0.0000  0.0194  0.0000  0.9727  0.0000
  0.0000  0.0000  0.0000  0.0000  0.9527
 
 occupancies and eigenvectors
 
  o =  0.0109  v = -0.6059  0.0000  0.7955  0.0000  0.0000  0.0000  0.0000  0.0000  0.0000  0.0000      0.0000  0.0000  0.0000  0.0000  0.0000  0.0000  0.0000  0.0000  0.0000  0.0000
  o =  0.0120  v = -0.0000 -0.0000  0.0000  0.0000 -1.0000  0.0000  0.0000  0.0000  0.0000  0.0000      0.0000  0.0000  0.0000  0.0000  0.0000  0.0000  0.0000  0.0000  0.0000  0.0000
  o =  0.0138  v =  0.0000 -0.7071  0.0000  0.7071  0.0000  0.0000  0.0000  0.0000  0.0000  0.0000      0.0000  0.0000  0.0000  0.0000  0.0000  0.0000  0.0000  0.0000  0.0000  0.0000
  o =  0.0516  v =  0.0000 -0.7071  0.0000 -0.7071  0.0000  0.0000  0.0000  0.0000  0.0000  0.0000      0.0000  0.0000  0.0000  0.0000  0.0000  0.0000  0.0000  0.0000  0.0000  0.0000
  o =  0.0573  v = -0.7955  0.0000 -0.6059  0.0000  0.0000  0.0000  0.0000  0.0000  0.0000  0.0000      0.0000  0.0000  0.0000  0.0000  0.0000  0.0000  0.0000  0.0000  0.0000  0.0000
  o =  0.9504  v =  0.0000  0.0000  0.0000  0.0000  0.0000 -0.6032  0.0000  0.7976 -0.0000 -0.0000      0.0000  0.0000  0.0000  0.0000  0.0000  0.0000  0.0000  0.0000  0.0000  0.0000
  o =  0.9527  v =  0.0000  0.0000  0.0000  0.0000  0.0000 -0.0000  0.0000  0.0000 -0.0000  1.0000      0.0000  0.0000  0.0000  0.0000  0.0000  0.0000  0.0000  0.0000  0.0000  0.0000
  o =  0.9534  v =  0.0000  0.0000  0.0000  0.0000  0.0000 -0.0000 -0.7071  0.0000  0.7071  0.0000      0.0000  0.0000  0.0000  0.0000  0.0000  0.0000  0.0000  0.0000  0.0000  0.0000
  o =  0.9921  v =  0.0000  0.0000  0.0000  0.0000  0.0000 -0.0000 -0.7071 -0.0000 -0.7071  0.0000      0.0000  0.0000  0.0000  0.0000  0.0000  0.0000  0.0000  0.0000  0.0000  0.0000
  o =  0.9968  v =  0.0000  0.0000  0.0000  0.0000  0.0000 -0.7976  0.0000 -0.6032  0.0000 -0.0000      0.0000  0.0000  0.0000  0.0000  0.0000  0.0000  0.0000  0.0000  0.0000  0.0000
atom =   2  type =  1  l = 2
 
 onsite density matrix
 
spin component  1
 
  0.9799  0.0000 -0.0223  0.0000 -0.0000
  0.0000  0.9727  0.0000 -0.0194  0.0000
 -0.0223  0.0000  0.9672  0.0000 -0.0000
  0.0000 -0.0194  0.0000  0.9727  0.0000
 -0.0000  0.0000 -0.0000  0.0000  0.9527
 
spin component  2
 
  0.0403  0.0000 -0.0224  0.0000 -0.0000
  0.0000  0.0327  0.0000 -0.0189  0.0000
 -0.0224  0.0000  0.0279  0.0000  0.0000
  0.0000 -0.0189  0.0000  0.0327  0.0000
 -0.0000  0.0000  0.0000  0.0000  0.0120
 
 occupancies and eigenvectors
 
  o =  0.0109  v =  0.0000  0.0000  0.0000  0.0000  0.0000 -0.6059  0.0000 -0.7955  0.0000  0.0000      0.0000  0.0000  0.0000  0.0000  0.0000  0.0000  0.0000  0.0000  0.0000  0.0000
  o =  0.0120  v =  0.0000  0.0000  0.0000  0.0000  0.0000 -0.0000 -0.0000 -0.0000  0.0000 -1.0000      0.0000  0.0000  0.0000  0.0000  0.0000  0.0000  0.0000  0.0000  0.0000  0.0000
  o =  0.0138  v =  0.0000  0.0000  0.0000  0.0000  0.0000  0.0000  0.7071  0.0000  0.7071 -0.0000      0.0000  0.0000  0.0000  0.0000  0.0000  0.0000  0.0000  0.0000  0.0000  0.0000
  o =  0.0516  v =  0.0000  0.0000  0.0000  0.0000  0.0000  0.0000  0.7071  0.0000 -0.7071 -0.0000      0.0000  0.0000  0.0000  0.0000  0.0000  0.0000  0.0000  0.0000  0.0000  0.0000
  o =  0.0573  v =  0.0000  0.0000  0.0000  0.0000  0.0000 -0.7955  0.0000  0.6059  0.0000  0.0000      0.0000  0.0000  0.0000  0.0000  0.0000  0.0000  0.0000  0.0000  0.0000  0.0000
  o =  0.9504  v = -0.6032  0.0000 -0.7976  0.0000 -0.0000  0.0000  0.0000  0.0000  0.0000  0.0000      0.0000  0.0000  0.0000  0.0000  0.0000  0.0000  0.0000  0.0000  0.0000  0.0000
  o =  0.9527  v =  0.0000 -0.0000 -0.0000 -0.0000  1.0000  0.0000  0.0000  0.0000  0.0000  0.0000      0.0000  0.0000  0.0000  0.0000  0.0000  0.0000  0.0000  0.0000  0.0000  0.0000
  o =  0.9534  v =  0.0000  0.7071 -0.0000  0.7071  0.0000  0.0000  0.0000  0.0000  0.0000  0.0000      0.0000  0.0000  0.0000  0.0000  0.0000  0.0000  0.0000  0.0000  0.0000  0.0000
  o =  0.9921  v =  0.0000  0.7071 -0.0000 -0.7071  0.0000  0.0000  0.0000  0.0000  0.0000  0.0000      0.0000  0.0000  0.0000  0.0000  0.0000  0.0000  0.0000  0.0000  0.0000  0.0000
  o =  0.9968  v = -0.7976  0.0000  0.6032  0.0000  0.0000  0.0000  0.0000  0.0000  0.0000  0.0000      0.0000  0.0000  0.0000  0.0000  0.0000  0.0000  0.0000  0.0000  0.0000  0.0000
     EDDAV:  cpu time    0.3553: real time    0.3553
 BZINTS: Fermi energy:  0.476413; 54.000000 electrons
         Band energy:-770.519819;  BLOECHL correction:  0.000000
       DOS:  cpu time    0.0018: real time    0.0018
    CHARGE:  cpu time    0.0365: real time    0.0365
    MIXING:  cpu time    0.0007: real time    0.0007
    --------------------------------------------
      LOOP:  cpu time    0.6285: real time    0.6285

 eigenvalue-minimisations  :  1404
 total energy-change (2. order) :-0.8950492E-04  (-0.2884570E-02)
 number of electron      54.0000001 magnetization       0.0000000
 augmentation part       19.9972162 magnetization       0.0000000

 Broyden mixing:
  rms(total) = 0.53240E-01    rms(broyden)= 0.53240E-01
  rms(prec ) = 0.69044E-01
  weight for this iteration     100.00

 eigenvalues of (default mixing * dielectric matrix)
  average eigenvalue GAMMA=   1.1450
  2.7847  0.8554  0.8554  0.6695  0.5600

 Free energy of the ion-electron system (eV)
  ---------------------------------------------------
  alpha Z        PSCENC =       201.68854072
  Ewald energy   TEWEN  =     -4236.95701916
  -Hartree energ DENC   =     -2117.44732180
  -exchange      EXHF   =         0.00000000
  -V(xc)+E(xc)   XCENC  =       296.33782303
  PAW double counting   =      6405.28176402    -6506.72249437
  entropy T*S    EENTRO =         0.00000000
  eigenvalues    EBANDS =      -770.51981907
  atomic energy  EATOM  =      6689.45677594
  Solvation  Ediel_sol  =         0.00000000
  ---------------------------------------------------
  free energy    TOTEN  =       -38.88175070 eV

  energy without entropy =      -38.88175070  energy(sigma->0) =      -38.88175070


--------------------------------------------------------------------------------------------------------




--------------------------------------- Iteration      1(  11)  ---------------------------------------


    POTLOK:  cpu time    0.0046: real time    0.0046
    SETDIJ:  cpu time    0.2309: real time    0.2309
atom =   1  type =  1  l = 2
 
 onsite density matrix
 
spin component  1
 
  0.0386  0.0000  0.0231  0.0000  0.0000
  0.0000  0.0307  0.0000  0.0196  0.0000
  0.0231  0.0000  0.0260  0.0000 -0.0000
  0.0000  0.0196  0.0000  0.0307  0.0000
  0.0000  0.0000 -0.0000  0.0000  0.0092
 
spin component  2
 
  0.9825  0.0000  0.0210  0.0000 -0.0000
  0.0000  0.9759  0.0000  0.0183  0.0000
  0.0210  0.0000  0.9703  0.0000  0.0000
  0.0000  0.0183  0.0000  0.9759  0.0000
 -0.0000  0.0000  0.0000  0.0000  0.9574
 
 occupancies and eigenvectors
 
  o =  0.0083  v = -0.6068 -0.0000  0.7948  0.0000  0.0000  0.0000  0.0000  0.0000  0.0000  0.0000      0.0000  0.0000  0.0000  0.0000  0.0000  0.0000  0.0000  0.0000  0.0000  0.0000
  o =  0.0092  v = -0.0000  0.0000  0.0000  0.0000 -1.0000  0.0000  0.0000  0.0000  0.0000  0.0000      0.0000  0.0000  0.0000  0.0000  0.0000  0.0000  0.0000  0.0000  0.0000  0.0000
  o =  0.0111  v =  0.0000  0.7071  0.0000 -0.7071  0.0000  0.0000  0.0000  0.0000  0.0000  0.0000      0.0000  0.0000  0.0000  0.0000  0.0000  0.0000  0.0000  0.0000  0.0000  0.0000
  o =  0.0503  v =  0.0000  0.7071  0.0000  0.7071  0.0000  0.0000  0.0000  0.0000  0.0000  0.0000      0.0000  0.0000  0.0000  0.0000  0.0000  0.0000  0.0000  0.0000  0.0000  0.0000
  o =  0.0563  v = -0.7948 -0.0000 -0.6068  0.0000  0.0000  0.0000  0.0000  0.0000  0.0000  0.0000      0.0000  0.0000  0.0000  0.0000  0.0000  0.0000  0.0000  0.0000  0.0000  0.0000
  o =  0.9546  v =  0.0000  0.0000  0.0000  0.0000  0.0000 -0.6004  0.0000  0.7997  0.0000 -0.0000      0.0000  0.0000  0.0000  0.0000  0.0000  0.0000  0.0000  0.0000  0.0000  0.0000
  o =  0.9574  v =  0.0000  0.0000  0.0000  0.0000  0.0000  0.0000  0.0000  0.0000  0.0000  1.0000      0.0000  0.0000  0.0000  0.0000  0.0000  0.0000  0.0000  0.0000  0.0000  0.0000
  o =  0.9576  v =  0.0000  0.0000  0.0000  0.0000  0.0000  0.0000  0.7071  0.0000 -0.7071 -0.0000      0.0000  0.0000  0.0000  0.0000  0.0000  0.0000  0.0000  0.0000  0.0000  0.0000
  o =  0.9942  v =  0.0000  0.0000  0.0000  0.0000  0.0000  0.0000 -0.7071  0.0000 -0.7071  0.0000      0.0000  0.0000  0.0000  0.0000  0.0000  0.0000  0.0000  0.0000  0.0000  0.0000
  o =  0.9983  v =  0.0000  0.0000  0.0000  0.0000  0.0000 -0.7997  0.0000 -0.6004  0.0000  0.0000      0.0000  0.0000  0.0000  0.0000  0.0000  0.0000  0.0000  0.0000  0.0000  0.0000
atom =   2  type =  1  l = 2
 
 onsite density matrix
 
spin component  1
 
  0.9825  0.0000 -0.0210  0.0000  0.0000
  0.0000  0.9759  0.0000 -0.0183  0.0000
 -0.0210  0.0000  0.9703  0.0000  0.0000
  0.0000 -0.0183  0.0000  0.9759  0.0000
  0.0000  0.0000  0.0000  0.0000  0.9574
 
spin component  2
 
  0.0386  0.0000 -0.0231  0.0000 -0.0000
  0.0000  0.0307  0.0000 -0.0196  0.0000
 -0.0231  0.0000  0.0260  0.0000 -0.0000
  0.0000 -0.0196  0.0000  0.0307  0.0000
 -0.0000  0.0000 -0.0000  0.0000  0.0092
 
 occupancies and eigenvectors
 
  o =  0.0083  v =  0.0000  0.0000  0.0000  0.0000  0.0000 -0.6068 -0.0000 -0.7948  0.0000 -0.0000      0.0000  0.0000  0.0000  0.0000  0.0000  0.0000  0.0000  0.0000  0.0000  0.0000
  o =  0.0092  v =  0.0000  0.0000  0.0000  0.0000  0.0000 -0.0000  0.0000 -0.0000  0.0000  1.0000      0.0000  0.0000  0.0000  0.0000  0.0000  0.0000  0.0000  0.0000  0.0000  0.0000
  o =  0.0111  v =  0.0000  0.0000  0.0000  0.0000  0.0000  0.0000 -0.7071  0.0000 -0.7071  0.0000      0.0000  0.0000  0.0000  0.0000  0.0000  0.0000  0.0000  0.0000  0.0000  0.0000
  o =  0.0503  v =  0.0000  0.0000  0.0000  0.0000  0.0000  0.0000  0.7071  0.0000 -0.7071 -0.0000      0.0000  0.0000  0.0000  0.0000  0.0000  0.0000  0.0000  0.0000  0.0000  0.0000
  o =  0.0563  v =  0.0000  0.0000  0.0000  0.0000  0.0000 -0.7948 -0.0000  0.6068  0.0000 -0.0000      0.0000  0.0000  0.0000  0.0000  0.0000  0.0000  0.0000  0.0000  0.0000  0.0000
  o =  0.9546  v = -0.6004  0.0000 -0.7997  0.0000  0.0000  0.0000  0.0000  0.0000  0.0000  0.0000      0.0000  0.0000  0.0000  0.0000  0.0000  0.0000  0.0000  0.0000  0.0000  0.0000
  o =  0.9574  v =  0.0000  0.0000 -0.0000  0.0000 -1.0000  0.0000  0.0000  0.0000  0.0000  0.0000      0.0000  0.0000  0.0000  0.0000  0.0000  0.0000  0.0000  0.0000  0.0000  0.0000
  o =  0.9576  v =  0.0000 -0.7071  0.0000 -0.7071 -0.0000  0.0000  0.0000  0.0000  0.0000  0.0000      0.0000  0.0000  0.0000  0.0000  0.0000  0.0000  0.0000  0.0000  0.0000  0.0000
[...]
     33       9.5777      0.00000
     34      10.3560      0.00000
     35      10.7267      0.00000
     36      11.4560      0.00000

 k-point     7 :       0.1250    0.1250    0.4167
  band No.  band energies     occupation 
      1     -46.0687      1.00000
      2     -46.0405      1.00000
      3     -46.0165      1.00000
      4     -41.4095      1.00000
      5     -41.3874      1.00000
      6     -41.3563      1.00000
      7     -20.5624      1.00000
      8     -20.4199      1.00000
      9     -20.3807      1.00000
     10     -20.2436      1.00000
     11      -4.9001      1.00000
     12      -4.1696      1.00000
     13      -3.9448      1.00000
     14      -3.9092      1.00000
     15      -3.6637      1.00000
     16      -3.3065      1.00000
     17      -3.0590      1.00000
     18      -2.7480      1.00000
     19      -2.4116      1.00000
     20      -2.1358      1.00000
     21      -1.8273      1.00000
     22      -1.8074      1.00000
     23      -1.8023      1.00000
     24      -1.0669      1.00000
     25      -0.6820      1.00000
     26      -0.2949      1.00000
     27       0.0101      1.00000
     28       8.2051      0.00000
     29       8.5413      0.00000
     30       8.6191      0.00000
     31       9.0821      0.00000
     32       9.5818      0.00000
     33       9.8908      0.00000
     34      11.2369      0.00000
     35      12.3753      0.00000
     36      12.5722      0.00000

 k-point     8 :       0.3750    0.1250    0.4167
  band No.  band energies     occupation 
      1     -46.0687      1.00000
      2     -46.0405      1.00000
      3     -46.0165      1.00000
      4     -41.4096      1.00000
      5     -41.3874      1.00000
      6     -41.3564      1.00000
      7     -20.4996      1.00000
      8     -20.4325      1.00000
      9     -20.3913      1.00000
     10     -20.2829      1.00000
     11      -4.6779      1.00000
     12      -4.3584      1.00000
     13      -4.1848      1.00000
     14      -3.9711      1.00000
     15      -3.7373      1.00000
     16      -3.0838      1.00000
     17      -2.9952      1.00000
     18      -2.7944      1.00000
     19      -2.6551      1.00000
     20      -2.0968      1.00000
     21      -1.7976      1.00000
     22      -1.6997      1.00000
     23      -1.5721      1.00000
     24      -1.1296      1.00000
     25      -0.8330      1.00000
     26      -0.3355      1.00000
     27       0.3325      1.00000
     28       8.5581      0.00000
     29       8.6019      0.00000
     30       8.7466      0.00000
     31       9.2072      0.00000
     32       9.6710      0.00000
     33      10.0272      0.00000
     34      10.8137      0.00000
     35      11.4095      0.00000
     36      12.3938      0.00000

 k-point     9 :       0.3750    0.3750    0.4167
  band No.  band energies     occupation 
      1     -46.0687      1.00000
      2     -46.0405      1.00000
      3     -46.0165      1.00000
      4     -41.4096      1.00000
      5     -41.3874      1.00000
      6     -41.3564      1.00000
      7     -20.4790      1.00000
      8     -20.4558      1.00000
      9     -20.3993      1.00000
     10     -20.2671      1.00000
     11      -4.7774      1.00000
     12      -4.3280      1.00000
     13      -4.2587      1.00000
     14      -4.2387      1.00000
     15      -3.9780      1.00000
     16      -3.1867      1.00000
     17      -2.7347      1.00000
     18      -2.7177      1.00000
     19      -2.3830      1.00000
     20      -1.8793      1.00000
     21      -1.7925      1.00000
     22      -1.6266      1.00000
     23      -1.5096      1.00000
     24      -1.0666      1.00000
     25      -0.8935      1.00000
     26      -0.2658      1.00000
     27       0.2416      1.00000
     28       8.5731      0.00000
     29       8.7026      0.00000
     30       8.8811      0.00000
     31       9.3295      0.00000
     32       9.6555      0.00000
     33      10.0813      0.00000
     34      11.2957      0.00000
     35      11.4827      0.00000
     36      11.5051      0.00000


--------------------------------------------------------------------------------------------------------


 soft charge-density along one line, spin component           1
         0         1         2         3         4         5         6         7         8         9
 total charge-density along one line
 
 soft charge-density along one line, spin component           2
         0         1         2         3         4         5         6         7         8         9
 total charge-density along one line
 
 pseudopotential strength for first ion, spin component:           1
-41.909  -0.000  -0.028   7.908   0.000   0.011   0.000   0.000
 -0.000 -41.883  -0.000   0.000   7.898   0.000   0.000   0.000
 -0.028  -0.000 -41.909   0.011   0.000   7.908  -0.000   0.000
  7.908   0.000   0.011   5.348  -0.000  -0.004  -0.000  -0.000
  0.000   7.898   0.000  -0.000   5.352  -0.000  -0.000   0.000
  0.011   0.000   7.908  -0.004  -0.000   5.348  -0.000  -0.000
  0.000   0.000  -0.000  -0.000  -0.000  -0.000   0.264  -0.000
  0.000   0.000   0.000  -0.000   0.000  -0.000  -0.000   0.329
  0.000   0.000  -0.000   0.000  -0.000  -0.000  -0.131   0.000
  0.000  -0.000   0.000  -0.000  -0.000  -0.000  -0.000  -0.138
 -0.000   0.000   0.000   0.000  -0.000   0.000  -0.000   0.000
  0.000   0.000  -0.000  -0.000  -0.000  -0.000  -0.130  -0.000
  0.000   0.000   0.000  -0.000   0.000  -0.000  -0.000  -0.064
  0.000   0.000  -0.000   0.000  -0.000  -0.000  -0.136   0.000
  0.000  -0.000   0.000  -0.000  -0.000  -0.000  -0.000  -0.142
 -0.000   0.000   0.000   0.000  -0.000   0.000  -0.000   0.000
 -0.000  -0.000   0.000  -0.000  -0.000   0.000   0.006   0.000
 -0.000  -0.000   0.000  -0.000  -0.000   0.000   0.011   0.000
 pseudopotential strength for first ion, spin component:           2
-45.023  -0.000  -0.021   9.415   0.000   0.008   0.000   0.000
 -0.000 -45.005  -0.000   0.000   9.408   0.000   0.000   0.000
 -0.021  -0.000 -45.023   0.008   0.000   9.415  -0.000   0.000
  9.415   0.000   0.008   4.847  -0.000  -0.002   0.000  -0.000
  0.000   9.408   0.000  -0.000   4.849  -0.000  -0.000   0.000
  0.008   0.000   9.415  -0.002  -0.000   4.847  -0.000  -0.000
  0.000   0.000  -0.000   0.000  -0.000  -0.000  -9.172  -0.000
  0.000   0.000   0.000  -0.000   0.000  -0.000  -0.000  -9.113
  0.000   0.000  -0.000   0.000  -0.000  -0.000  -0.131   0.000
  0.000  -0.000   0.000  -0.000  -0.000  -0.000  -0.000  -0.139
 -0.000   0.000   0.000  -0.000  -0.000  -0.000  -0.000   0.000
  0.000   0.000  -0.000   0.000  -0.000  -0.000  -9.715  -0.000
  0.000   0.000   0.000  -0.000   0.000  -0.000  -0.000  -9.655
  0.000   0.000  -0.000   0.000  -0.000  -0.000  -0.135   0.000
  0.000  -0.000   0.000  -0.000  -0.000  -0.000  -0.000  -0.142
 -0.000   0.000   0.000  -0.000  -0.000  -0.000  -0.000   0.000
 -0.000  -0.000   0.000  -0.000  -0.000   0.000   0.003   0.000
 -0.000  -0.000   0.000  -0.000  -0.000   0.000   0.006   0.000
 total augmentation occupancy for first ion, spin component:           1
  1.998   0.000   0.000  -0.013   0.000   0.000   0.000   0.000   0.000   0.000   0.000   0.000   0.000   0.000   0.000   0.000
  0.000   1.998   0.000   0.000  -0.012   0.000   0.000   0.000   0.000   0.000   0.000   0.000   0.000   0.000   0.000   0.000
  0.000   0.000   1.998   0.000   0.000  -0.013   0.000   0.000   0.000   0.000   0.000   0.000   0.000   0.000   0.000   0.000
 -0.013   0.000   0.000   0.095   0.000  -0.009   0.000   0.000   0.000   0.000   0.000   0.000   0.000   0.000   0.000   0.000
  0.000  -0.012   0.000   0.000   0.107   0.000   0.000   0.000   0.000   0.000   0.000   0.000   0.000   0.000   0.000   0.000
  0.000   0.000  -0.013  -0.009   0.000   0.095   0.000   0.000   0.000   0.000   0.000   0.000   0.000   0.000   0.000   0.000
  0.000   0.000   0.000   0.000   0.000   0.000   8.592   0.000   3.520   0.000   0.000  -6.624   0.000  -3.335   0.000   0.000
  0.000   0.000   0.000   0.000   0.000   0.000   0.000   7.218   0.000   3.047   0.000   0.000  -5.318   0.000  -2.880   0.000
  0.000   0.000   0.000   0.000   0.000   0.000   3.520   0.000   6.522   0.000   0.000  -3.336   0.000  -4.681   0.000  -0.000
  0.000   0.000   0.000   0.000   0.000   0.000   0.000   3.047   0.000   7.218   0.000   0.000  -2.880   0.000  -5.318   0.000
  0.000   0.000   0.000   0.000   0.000   0.000   0.000   0.000   0.000   0.000   4.025   0.000   0.000   0.000   0.000  -2.276
  0.000   0.000   0.000   0.000   0.000   0.000  -6.624   0.000  -3.336   0.000   0.000   5.824   0.000   3.188   0.000   0.000
  0.000   0.000   0.000   0.000   0.000   0.000   0.000  -5.318   0.000  -2.880   0.000   0.000   4.575   0.000   2.744   0.000
  0.000   0.000   0.000   0.000   0.000   0.000  -3.335   0.000  -4.681   0.000   0.000   3.188   0.000   3.986   0.000  -0.000
  0.000   0.000   0.000   0.000   0.000   0.000   0.000  -2.880   0.000  -5.318   0.000   0.000   2.744   0.000   4.575   0.000
  0.000   0.000   0.000   0.000   0.000   0.000   0.000   0.000  -0.000   0.000  -2.276   0.000   0.000  -0.000   0.000   1.652
  0.000   0.000   0.000   0.000   0.000   0.000   0.253   0.000  -0.246   0.000   0.000  -0.278   0.000   0.254   0.000  -0.000
  0.000   0.000   0.000   0.000   0.000   0.000  -0.012   0.000   0.029   0.000   0.000   0.033   0.000  -0.039   0.000   0.000
 total augmentation occupancy for first ion, spin component:           2
  0.004   0.000  -0.000   0.016   0.000  -0.000   0.000   0.000   0.000   0.000   0.000   0.000   0.000   0.000   0.000   0.000
  0.000   0.004   0.000   0.000   0.017   0.000   0.000   0.000   0.000   0.000   0.000   0.000   0.000   0.000   0.000   0.000
 -0.000   0.000   0.004  -0.000   0.000   0.016   0.000   0.000   0.000   0.000   0.000   0.000   0.000   0.000   0.000   0.000
  0.016   0.000  -0.000  -0.010   0.000  -0.000   0.000   0.000   0.000   0.000   0.000   0.000   0.000   0.000   0.000   0.000
  0.000   0.017   0.000   0.000  -0.010   0.000   0.000   0.000   0.000   0.000   0.000   0.000   0.000   0.000   0.000   0.000
 -0.000   0.000   0.016  -0.000   0.000  -0.010   0.000   0.000   0.000   0.000   0.000   0.000   0.000   0.000   0.000   0.000
  0.000   0.000   0.000   0.000   0.000   0.000  -6.129   0.000  -2.126   0.000   0.000   3.833   0.000   1.760   0.000   0.000
  0.000   0.000   0.000   0.000   0.000   0.000   0.000  -5.295   0.000  -1.855   0.000   0.000   3.130   0.000   1.534   0.000
  0.000   0.000   0.000   0.000   0.000   0.000  -2.126   0.000  -4.806   0.000  -0.000   1.761   0.000   2.737   0.000   0.000
  0.000   0.000   0.000   0.000   0.000   0.000   0.000  -1.855   0.000  -5.295   0.000   0.000   1.534   0.000   3.130   0.000
  0.000   0.000   0.000   0.000   0.000   0.000  -0.000   0.000  -0.000   0.000  -3.410   0.000   0.000   0.000   0.000   1.564
  0.000   0.000   0.000   0.000   0.000   0.000   3.833   0.000   1.761   0.000  -0.000  -2.658   0.000  -1.405   0.000   0.000
  0.000   0.000   0.000   0.000   0.000   0.000   0.000   3.130   0.000   1.534   0.000   0.000  -2.084   0.000  -1.221   0.000
  0.000   0.000   0.000   0.000   0.000   0.000   1.760   0.000   2.737   0.000   0.000  -1.405   0.000  -1.782   0.000  -0.000
  0.000   0.000   0.000   0.000   0.000   0.000   0.000   1.534   0.000   3.130   0.000   0.000  -1.221   0.000  -2.084   0.000
  0.000   0.000   0.000   0.000   0.000   0.000  -0.000   0.000   0.000   0.000   1.564   0.000   0.000   0.000   0.000  -0.830
  0.000   0.000   0.000   0.000   0.000   0.000  -0.011   0.000   0.039   0.000   0.000   0.006   0.000  -0.023   0.000  -0.000
  0.000   0.000   0.000   0.000   0.000   0.000  -0.037   0.000   0.011   0.000  -0.000   0.021   0.000  -0.005   0.000   0.000


------------------------ aborting loop because EDIFF is reached ----------------------------------------


 


 total charge     
 
# of ion       s       p       d       tot
------------------------------------------
    1        0.177   6.170   4.980  11.328
    2        0.182   6.165   4.986  11.333
    3        1.720   4.371   0.000   6.091
    4        1.720   4.371   0.000   6.091
    5        1.720   4.367   0.000   6.087
    6        1.720   4.367   0.000   6.087
--------------------------------------------------
tot          7.239  29.810   9.966  47.015
 


 magnetization (x)
 
# of ion       s       p       d       tot
------------------------------------------
    1       -0.015  -0.016  -4.698  -4.729
    2        0.016   0.015   4.696   4.726
    3        0.001   0.012   0.000   0.014
    4        0.001   0.012   0.000   0.014
    5       -0.002  -0.009   0.000  -0.011
    6       -0.002  -0.009   0.000  -0.011
--------------------------------------------------
tot         -0.001   0.005  -0.002   0.002
 
    CHARGE:  cpu time    0.0363: real time    0.0363
    FORLOC:  cpu time    0.0008: real time    0.0008
    FORNL :  cpu time    0.1745: real time    0.1745
    STRESS:  cpu time    0.5177: real time    0.5177
    FORCOR:  cpu time    0.0041: real time    0.0041
    FORHAR:  cpu time    0.0021: real time    0.0021
    MIXING:  cpu time    0.0008: real time    0.0008
    OFIELD:  cpu time    0.0000: real time    0.0000

  FORCE on cell =-STRESS in cart. coord.  units (eV):
  Direction    XX          YY          ZZ          XY          YZ          ZX
  --------------------------------------------------------------------------------------
  Alpha Z   201.68854   201.68854   201.68854
  Ewald   -1603.71755 -1603.71755 -1029.52512     0.00000     0.00000     0.00000
  Hartree   578.05817   578.05817   962.76421    -0.00000    -0.00000    -0.00000
  E(xc)    -309.71115  -309.71115  -309.75668    -0.00000     0.00000     0.00000
  Local     183.16231   183.16231  -768.39697    -0.00000     0.00000     0.00000
  n-local  -238.87551  -239.24851  -237.80007     0.04021     0.12897     0.13695
  augment   267.25576   267.25576   266.60166    -0.00000    -0.00000    -0.00000
  Kinetic   921.87873   922.82320   914.44141    -0.46696    -0.92435    -0.98955
  Fock        0.00000     0.00000     0.00000     0.00000     0.00000     0.00000
  -------------------------------------------------------------------------------------
  Total       0.02504     0.02504     0.01697    -0.00000     0.00000     0.00000
  in kB       0.53115     0.53115     0.35996    -0.00000     0.00000     0.00000
  external pressure =        0.47 kB  Pullay stress =        0.00 kB


 VOLUME and BASIS-vectors are now :
 -----------------------------------------------------------------------------
  energy-cutoff  :      600.00
  volume of cell :       75.54
      direct lattice vectors                 reciprocal lattice vectors
     4.811631305  0.000000000  0.000000000     0.207829723  0.000000000  0.000000000
     0.000000000  4.811631305  0.000000000     0.000000000  0.207829723  0.000000000
     0.000000000  0.000000000  3.262873884     0.000000000  0.000000000  0.306478287

  length of vectors
     4.811631305  4.811631305  3.262873884     0.207829723  0.207829723  0.306478287


 FORCES acting on ions
    electron-ion (+dipol)            ewald-force                    non-local-force                 convergence-correction
 -----------------------------------------------------------------------------------------------
   -.178E-11 0.658E-11 -.466E-13   0.171E-12 -.284E-13 -.336E-13   0.000E+00 0.000E+00 0.000E+00   -.189E-13 -.360E-13 0.742E-13
   -.340E-13 -.374E-13 0.385E-13   0.568E-13 0.199E-12 -.358E-13   0.000E+00 0.000E+00 0.000E+00   -.325E-14 0.276E-13 -.113E-12
   -.347E+02 0.347E+02 -.662E-12   0.360E+02 -.360E+02 0.194E-13   -.134E+01 0.134E+01 0.108E-18   -.188E-03 0.188E-03 0.133E-12
   0.347E+02 -.347E+02 0.118E-11   -.360E+02 0.360E+02 0.196E-13   0.134E+01 -.134E+01 -.108E-18   0.188E-03 -.188E-03 -.292E-13
   0.347E+02 0.347E+02 0.500E-08   -.360E+02 -.360E+02 0.118E-13   0.134E+01 0.134E+01 0.217E-18   0.188E-03 0.188E-03 -.251E-10
   -.347E+02 -.347E+02 -.500E-08   0.360E+02 0.360E+02 0.120E-13   -.134E+01 -.134E+01 -.217E-18   -.188E-03 -.188E-03 0.251E-10
 -----------------------------------------------------------------------------------------------
   0.157E-11 0.911E-11 -.433E-11   0.142E-13 0.000E+00 -.653E-14   0.000E+00 0.000E+00 0.000E+00   -.449E-13 -.263E-14 -.812E-14
 
 
 POSITION                                       TOTAL-FORCE (eV/Angst)
 -----------------------------------------------------------------------------------
      2.40582      2.40582      1.63144         0.000000     -0.000000      0.000000
      0.00000      0.00000      0.00000         0.000000     -0.000000      0.000000
      0.93984      3.87179      1.63144        -0.001544      0.001544      0.000000
      3.87179      0.93984      1.63144         0.001544     -0.001544     -0.000000
      1.46598      1.46598      0.00000         0.001544      0.001544      0.000000
      3.34565      3.34565      0.00000        -0.001544     -0.001544     -0.000000
 -----------------------------------------------------------------------------------
    total drift:                                0.000000      0.000000     -0.000000


--------------------------------------------------------------------------------------------------------



  FREE ENERGIE OF THE ION-ELECTRON SYSTEM (eV)
  ---------------------------------------------------
  free  energy   TOTEN  =       -38.88015453 eV

  energy  without entropy=      -38.88015453  energy(sigma->0) =      -38.88015453
 


--------------------------------------------------------------------------------------------------------


    POTLOK:  cpu time    0.2334: real time    0.2334


--------------------------------------------------------------------------------------------------------


 writing wavefunctions
     LOOP+:  cpu time   10.6880: real time   10.7066
    4ORBIT:  cpu time    0.0000: real time    0.0000
 


 total charge     
 
# of ion       s       p       d       tot
------------------------------------------
    1        0.177   6.170   4.980  11.328
    2        0.182   6.165   4.986  11.333
    3        1.720   4.371   0.000   6.091
    4        1.720   4.371   0.000   6.091
    5        1.720   4.367   0.000   6.087
    6        1.720   4.367   0.000   6.087
--------------------------------------------------
tot          7.239  29.810   9.966  47.015
 


 magnetization (x)
 
# of ion       s       p       d       tot
------------------------------------------
    1       -0.015  -0.016  -4.698  -4.729
    2        0.016   0.015   4.696   4.726
    3        0.001   0.012   0.000   0.014
    4        0.001   0.012   0.000   0.014
    5       -0.002  -0.009   0.000  -0.011
    6       -0.002  -0.009   0.000  -0.011
--------------------------------------------------
tot         -0.001   0.005  -0.002   0.002
 
 BZINTS: Fermi energy:  0.652909; 54.000000 electrons
         Band energy:-769.405178;  BLOECHL correction:  0.000000

 total amount of memory used by VASP MPI-rank0    43626. kBytes
=======================================================================

   base      :      30000. kBytes
   nonl-proj :       6838. kBytes
   fftplans  :       1875. kBytes
   grid      :       2467. kBytes
   one-center:        186. kBytes
   wavefun   :       2260. kBytes
 
  
  
 General timing and accounting informations for this job:
 ========================================================
  
                  Total CPU time used (sec):       12.171
                            User time (sec):       10.077
                          System time (sec):        2.094
                         Elapsed time (sec):       12.380
  
                   Maximum memory used (kb):       58148.
                   Average memory used (kb):           0.
  
                          Minor page faults:         8857
                          Major page faults:            5
                 Voluntary context switches:          160
