 vasp.5.4.4.18Apr17-6-g9f103f2a35 (build Nov 21 2017 18:25:41) complex          
  
 executed on         CrayXC-Intel date 2022.04.14  12:34:44
 running on  144 total cores
 distrk:  each k-point on   36 cores,    4 groups
 distr:  one band on NCORES_PER_BAND=   6 cores,    6 groups


--------------------------------------------------------------------------------------------------------


 INCAR:
 POTCAR:    PAW_PBE Mn_pv 02Aug2007               
 POTCAR:    PAW_PBE F 08Apr2002                   
 POTCAR:    PAW_PBE H 15Jun2001                   

 ----------------------------------------------------------------------------- 
|                                                                             |
|           W    W    AA    RRRRR   N    N  II  N    N   GGGG   !!!           |
|           W    W   A  A   R    R  NN   N  II  NN   N  G    G  !!!           |
|           W    W  A    A  R    R  N N  N  II  N N  N  G       !!!           |
|           W WW W  AAAAAA  RRRRR   N  N N  II  N  N N  G  GGG   !            |
|           WW  WW  A    A  R   R   N   NN  II  N   NN  G    G                |
|           W    W  A    A  R    R  N    N  II  N    N   GGGG   !!!           |
|                                                                             |
|      You have enabled k-point parallelism (KPAR>1).                         |
|      This developmental code was originally  written by Paul Kent at ORNL,  |
|      and carefully double checked in Vienna.                                |
|      GW as well as linear response parallelism added by Martijn Marsman     |
|      and Georg Kresse.                                                      |
|      Carefully verify results versus KPAR=1.                                |
|      Report problems to Paul Kent and Vienna.                               |
|                                                                             |
 ----------------------------------------------------------------------------- 

 POTCAR:    PAW_PBE Mn_pv 02Aug2007               
   VRHFIN =Mn: 3p4s3d                                                           
   LEXCH  = PE                                                                  
   EATOM  =  2025.2664 eV,  148.8529 Ry                                         
                                                                                
   TITEL  = PAW_PBE Mn_pv 02Aug2007                                             
   LULTRA =        F    use ultrasoft PP ?                                      
   IUNSCR =        1    unscreen: 0-lin 1-nonlin 2-no                           
   RPACOR =    2.080    partial core radius                                     
   POMASS =   54.938; ZVAL   =   13.000    mass and valenz                      
   RCORE  =    2.300    outmost cutoff radius                                   
   RWIGS  =    2.500; RWIGS  =    1.323    wigner-seitz radius (au A)           
   ENMAX  =  269.864; ENMIN  =  202.398 eV                                      
   ICORE  =        3    local potential                                         
   LCOR   =        T    correct aug charges                                     
   LPAW   =        T    paw PP                                                  
   EAUG   =  569.085                                                            
   DEXC   =    0.000                                                            
   RMAX   =    2.343    core radius for proj-oper                               
   RAUG   =    1.300    factor for augmentation sphere                          
   RDEP   =    2.338    radius for radial grids                                 
   RDEPT  =    1.798    core radius for aug-charge                              
                                                                                
   Atomic configuration                                                         
    8 entries                                                                   
     n  l   j            E        occ.                                          
     1  0  0.50     -6424.8287   2.0000                                         
     2  0  0.50      -739.1154   2.0000                                         
     2  1  1.50      -625.3949   6.0000                                         
     3  0  0.50       -81.6100   2.0000                                         
     3  1  1.50       -50.4667   6.0000                                         
     3  2  2.50        -3.3745   6.0000                                         
     4  0  0.50        -4.1331   1.0000                                         
     4  3  2.50        -1.3606   0.0000                                         
   Description                                                                  
     l       E           TYP  RCUT    TYP  RCUT                                 
     1    -50.4666628     23  2.000                                             
     1     -1.3605826     23  2.000                                             
     2     -3.3744729     23  2.300                                             
     2     -4.7350555     23  2.300                                             
     0     -4.1331431     23  2.300                                             
     0      7.6656591     23  2.300                                             
     3      9.5240782     23  2.300                                             
  local pseudopotential read in
  partial core-charges read in
  partial kinetic energy density read in
  atomic valenz-charges read in
  non local Contribution for L=           1  read in
    real space projection operators read in
  non local Contribution for L=           1  read in
    real space projection operators read in
  non local Contribution for L=           2  read in
    real space projection operators read in
  non local Contribution for L=           2  read in
    real space projection operators read in
  non local Contribution for L=           0  read in
    real space projection operators read in
  non local Contribution for L=           0  read in
    real space projection operators read in
    PAW grid and wavefunctions read in
 
   number of l-projection  operators is LMAX  =           6
   number of lm-projection operators is LMMAX =          18
 
 POTCAR:    PAW_PBE F 08Apr2002                   
   VRHFIN =F: s2p5                                                              
   LEXCH  = PE                                                                  
   EATOM  =   659.6475 eV,   48.4827 Ry                                         
                                                                                
   TITEL  = PAW_PBE F 08Apr2002                                                 
   LULTRA =        F    use ultrasoft PP ?                                      
   IUNSCR =        1    unscreen: 0-lin 1-nonlin 2-no                           
   RPACOR =    1.200    partial core radius                                     
   POMASS =   18.998; ZVAL   =    7.000    mass and valenz                      
   RCORE  =    1.520    outmost cutoff radius                                   
   RWIGS  =    1.500; RWIGS  =    0.794    wigner-seitz radius (au A)           
   ENMAX  =  400.000; ENMIN  =  300.000 eV                                      
   ICORE  =        2    local potential                                         
   LCOR   =        T    correct aug charges                                     
   LPAW   =        T    paw PP                                                  
   EAUG   =  613.614                                                            
   RMAX   =    1.555    core radius for proj-oper                               
   RAUG   =    1.300    factor for augmentation sphere                          
   RDEP   =    1.539    radius for radial grids                                 
   RDEPT  =    1.299    core radius for aug-charge                              
                                                                                
   Atomic configuration                                                         
    4 entries                                                                   
     n  l   j            E        occ.                                          
     1  0  0.50      -663.3661   2.0000                                         
     2  0  0.50       -29.8995   2.0000                                         
     2  1  0.50       -11.1114   5.0000                                         
     3  2  1.50       -10.8847   0.0000                                         
   Description                                                                  
     l       E           TYP  RCUT    TYP  RCUT                                 
     0    -29.8995018     23  1.200                                             
     0     -9.5240782     23  1.200                                             
     1    -11.1113914     23  1.520                                             
     1      1.3605826     23  1.520                                             
     2    -10.8846608      7  1.500                                             
  local pseudopotential read in
  partial core-charges read in
  partial kinetic energy density read in
  atomic valenz-charges read in
  non local Contribution for L=           0  read in
    real space projection operators read in
  non local Contribution for L=           0  read in
    real space projection operators read in
  non local Contribution for L=           1  read in
    real space projection operators read in
  non local Contribution for L=           1  read in
    real space projection operators read in
    PAW grid and wavefunctions read in
 
   number of l-projection  operators is LMAX  =           4
   number of lm-projection operators is LMMAX =           8
 
 POTCAR:    PAW_PBE H 15Jun2001                   
   VRHFIN =H: ultrasoft test                                                    
   LEXCH  = PE                                                                  
   EATOM  =    12.4884 eV,    0.9179 Ry                                         
                                                                                
   TITEL  = PAW_PBE H 15Jun2001                                                 
   LULTRA =        F    use ultrasoft PP ?                                      
   IUNSCR =        0    unscreen: 0-lin 1-nonlin 2-no                           
   RPACOR =    0.000    partial core radius                                     
   POMASS =    1.000; ZVAL   =    1.000    mass and valenz                      
   RCORE  =    1.100    outmost cutoff radius                                   
   RWIGS  =    0.700; RWIGS  =    0.370    wigner-seitz radius (au A)           
   ENMAX  =  250.000; ENMIN  =  200.000 eV                                      
   RCLOC  =    0.701    cutoff for local pot                                    
   LCOR   =        T    correct aug charges                                     
   LPAW   =        T    paw PP                                                  
   EAUG   =  400.000                                                            
   RMAX   =    1.123    core radius for proj-oper                               
   RAUG   =    1.200    factor for augmentation sphere                          
   RDEP   =    1.112    radius for radial grids                                 
   RDEPT  =    0.926    core radius for aug-charge                              
                                                                                
   Atomic configuration                                                         
    2 entries                                                                   
     n  l   j            E        occ.                                          
     1  0  0.50        -6.4927   1.0000                                         
     2  1  0.50        -3.4015   0.0000                                         
   Description                                                                  
     l       E           TYP  RCUT    TYP  RCUT                                 
     0     -6.4927494     23  1.100                                             
     0      6.8029130     23  1.100                                             
     1     -4.0817478     23  1.100                                             
  local pseudopotential read in
  atomic valenz-charges read in
  non local Contribution for L=           0  read in
    real space projection operators read in
  non local Contribution for L=           0  read in
    real space projection operators read in
  non local Contribution for L=           1  read in
    real space projection operators read in
    PAW grid and wavefunctions read in
 
   number of l-projection  operators is LMAX  =           3
   number of lm-projection operators is LMMAX =           5
 

 ----------------------------------------------------------------------------- 
|                                                                             |
|  ADVICE TO THIS USER RUNNING 'VASP/VAMP'   (HEAR YOUR MASTER'S VOICE ...):  |
|                                                                             |
|      You have a (more or less) 'large supercell' and for larger cells       |
|      it might be more efficient to use real space projection opertators     |
|      So try LREAL= Auto  in the INCAR   file.                               |
|      Mind:          For very  accurate calculation you might also keep the  |
|      reciprocal projection scheme          (i.e. LREAL=.FALSE.)             |
|                                                                             |
 ----------------------------------------------------------------------------- 


 ----------------------------------------------------------------------------- 
|                                                                             |
|  ADVICE TO THIS USER RUNNING 'VASP/VAMP'   (HEAR YOUR MASTER'S VOICE ...):  |
|                                                                             |
|      You enforced a specific xc-type in the INCAR file,                     |
|      a different type was found on the POTCAR file                          |
|          I HOPE YOU KNOW, WHAT YOU ARE  DOING                               |
|                                                                             |
 ----------------------------------------------------------------------------- 

  PAW_PBE Mn_pv 02Aug2007               :
 energy of atom  1       EATOM=-2025.2664
 kinetic energy error for atom=    0.0020 (will be added to EATOM!!)
  PAW_PBE F 08Apr2002                   :
 energy of atom  2       EATOM= -659.6475
 kinetic energy error for atom=    0.0140 (will be added to EATOM!!)
  PAW_PBE H 15Jun2001                   :
 energy of atom  3       EATOM=  -12.4884
 kinetic energy error for atom=    0.0002 (will be added to EATOM!!)
 
 
 POSCAR: Mn  F  H                                
  positions in direct lattice
  velocities in cartesian coordinates
 exchange correlation table for  LEXCH =       14
   RHO(1)=    0.500       N(1)  =     2000
   RHO(2)=  100.500       N(2)  =     4000
 


--------------------------------------------------------------------------------------------------------


 ion  position               nearest neighbor table
   1  0.166  0.174  0.127-  73 2.08  74 2.11  80 2.11  76 2.12  79 2.13  75 2.14
   2  0.020  0.998  0.000- 117 2.10 105 2.10  75 2.10 204 2.17 182 2.18 170 2.18
   3  0.166  0.168  0.375-  77 2.10  78 2.10  83 2.12  80 2.13  84 2.13  79 2.13
   4  0.001  0.001  0.250- 208 2.09  79 2.10 170 2.12 174 2.12 109 2.13 105 2.13
   5  0.166  0.168  0.625-  81 2.10  82 2.10  83 2.12  88 2.13  84 2.13  87 2.13
   6  0.001  0.999  0.500- 212 2.09  83 2.10 109 2.13 113 2.13 174 2.13 178 2.13
   7  0.166  0.174  0.874-  85 2.08  86 2.11  88 2.11  76 2.12  87 2.13  75 2.14
   8  0.001  0.001  0.750- 216 2.09  87 2.10 182 2.12 178 2.12 113 2.13 117 2.13
   9  0.167  0.500  0.125-  89 2.10  90 2.10  92 2.13  91 2.13  96 2.13  95 2.13
  10  0.998  0.336  0.000- 172 2.09  91 2.10 186 2.13 198 2.13  73 2.13  85 2.13
  11  0.167  0.500  0.375-  93 2.10  94 2.10  95 2.12  96 2.12  99 2.13 100 2.13
  12  0.998  0.336  0.251-  95 2.10 176 2.10  73 2.11 190 2.11 186 2.13  77 2.14
  13  0.167  0.500  0.625-  98 2.10  97 2.10 104 2.12 103 2.12 100 2.13  99 2.13
  14  0.999  0.334  0.500-  99 2.09 180 2.10  77 2.12  81 2.12 194 2.13 190 2.13
  15  0.167  0.500  0.875- 101 2.10 102 2.10  91 2.13  92 2.13 103 2.13 104 2.13
  16  0.998  0.336  0.749- 103 2.10 184 2.10  85 2.11 194 2.11 198 2.13  81 2.14
  17  0.168  0.826  0.127- 106 2.08 105 2.11 111 2.11 107 2.12 112 2.13 108 2.14
  18  0.998  0.665  0.000- 188 2.09 107 2.10 214 2.13 202 2.13  89 2.13 101 2.13
  19  0.167  0.832  0.375- 110 2.10 109 2.10 116 2.12 111 2.13 115 2.13 112 2.13
  20  0.999  0.665  0.250- 192 2.09 111 2.10 202 2.13  93 2.13 206 2.13  89 2.13
  21  0.167  0.832  0.625- 114 2.10 113 2.10 116 2.12 119 2.13 115 2.13 120 2.13
  22  0.999  0.666  0.500- 196 2.10 115 2.10  97 2.13  93 2.13 210 2.13 206 2.13
  23  0.168  0.826  0.874- 118 2.08 117 2.11 119 2.11 107 2.12 120 2.13 108 2.14
  24  0.999  0.665  0.750- 200 2.09 119 2.10 214 2.13  97 2.13 210 2.13 101 2.13
  25  0.496  0.163  0.124- 121 2.09 122 2.10 127 2.12 124 2.13 123 2.14 128 2.15
  26  0.314  0.002  0.000-  74 2.10  86 2.10 108 2.10 123 2.17 153 2.18 165 2.18
  27  0.500  0.166  0.375- 125 2.09 126 2.09 128 2.12 132 2.13 127 2.13 131 2.13
  28  0.332  0.999  0.250- 127 2.09 112 2.10 153 2.12 157 2.12  78 2.13  74 2.13
  29  0.500  0.166  0.625- 129 2.09 130 2.09 136 2.12 132 2.13 135 2.13 131 2.13
  30  0.332  0.001  0.500- 131 2.09 116 2.10  82 2.13  78 2.13 161 2.13 157 2.13
  31  0.496  0.163  0.876- 133 2.09 134 2.10 135 2.12 124 2.13 123 2.14 136 2.15
  32  0.332  0.999  0.750- 135 2.09 120 2.10 165 2.12 161 2.12  82 2.13  86 2.13
  33  0.504  0.500  0.125- 138 2.09 137 2.09 140 2.12 144 2.13 139 2.13 143 2.13
  34  0.335  0.335  0.000- 139 2.09  76 2.10 133 2.13 121 2.13 102 2.13  90 2.13
  35  0.502  0.499  0.375- 142 2.09 141 2.10 143 2.13 148 2.13 144 2.13 147 2.13
  36  0.335  0.335  0.250- 143 2.09  80 2.10 121 2.13  94 2.13 125 2.13  90 2.13
  37  0.502  0.499  0.625- 146 2.09 145 2.10 151 2.13 148 2.13 152 2.13 147 2.13
  38  0.334  0.334  0.500- 147 2.10  84 2.10  94 2.13  98 2.13 125 2.13 129 2.13
  39  0.504  0.500  0.875- 150 2.09 149 2.09 140 2.12 152 2.13 139 2.13 151 2.13
  40  0.335  0.335  0.750- 151 2.09  88 2.10 133 2.13  98 2.13 129 2.13 102 2.13
  41  0.496  0.837  0.124- 153 2.11 154 2.12 156 2.12 155 2.12 159 2.13 160 2.13
  42  0.335  0.664  0.000- 155 2.09  92 2.10 149 2.13 137 2.13 118 2.13 106 2.13
  43  0.499  0.834  0.375- 158 2.09 157 2.09 163 2.13 164 2.13 160 2.13 159 2.13
  44  0.336  0.664  0.251-  96 2.10 159 2.10 106 2.11 141 2.11 137 2.13 110 2.14
  45  0.499  0.834  0.625- 162 2.09 161 2.09 163 2.13 164 2.13 168 2.13 167 2.13
  46  0.334  0.666  0.500- 100 2.09 163 2.09 110 2.12 114 2.12 141 2.13 145 2.13
  47  0.496  0.837  0.876- 165 2.11 166 2.12 156 2.12 155 2.12 167 2.13 168 2.13
  48  0.336  0.664  0.749- 104 2.10 167 2.10 118 2.11 145 2.11 149 2.13 114 2.14
  49  0.837  0.163  0.124- 170 2.11 169 2.12 171 2.12 172 2.12 176 2.13 175 2.13
  50  0.667  1.000  0.000- 171 2.10 156 2.10 134 2.13 213 2.13 201 2.13 122 2.13
  51  0.834  0.166  0.375- 173 2.09 174 2.09 180 2.13 179 2.13 175 2.13 176 2.13
  52  0.667  1.000  0.249- 175 2.10 160 2.10 126 2.13 205 2.13 122 2.13 201 2.13
  53  0.834  0.166  0.625- 177 2.09 178 2.09 180 2.13 179 2.13 183 2.13 184 2.13
  54  0.667  1.000  0.500- 179 2.09 164 2.09 205 2.13 126 2.13 130 2.13 209 2.13
  55  0.837  0.163  0.876- 182 2.11 181 2.12 171 2.12 172 2.12 184 2.13 183 2.13
  56  0.667  1.000  0.751- 168 2.10 183 2.10 209 2.13 130 2.13 134 2.13 213 2.13
  57  0.830  0.500  0.125- 185 2.09 186 2.09 187 2.12 191 2.13 188 2.13 192 2.13
  58  0.667  0.328  0.000- 187 2.11 124 2.11 181 2.12 169 2.12 150 2.13 138 2.13
  59  0.831  0.501  0.375- 189 2.09 190 2.10 192 2.13 195 2.13 191 2.13 196 2.13
  60  0.667  0.330  0.249- 128 2.10 191 2.10 138 2.13 173 2.13 169 2.13 142 2.13
  61  0.831  0.501  0.625- 193 2.09 194 2.10 200 2.13 195 2.13 199 2.13 196 2.13
  62  0.667  0.332  0.500- 132 2.09 195 2.09 142 2.13 146 2.13 173 2.13 177 2.13
  63  0.830  0.500  0.875- 197 2.09 198 2.09 187 2.12 199 2.13 188 2.13 200 2.13
  64  0.667  0.330  0.751- 136 2.10 199 2.10 150 2.13 177 2.13 181 2.13 146 2.13
  65  0.837  0.837  0.124- 202 2.09 201 2.10 208 2.12 203 2.13 204 2.14 207 2.15
  66  0.666  0.672  0.000- 140 2.11 203 2.11 166 2.12 154 2.12 185 2.13 197 2.13
  67  0.833  0.834  0.375- 206 2.09 205 2.09 207 2.12 211 2.13 208 2.13 212 2.13
  68  0.667  0.670  0.249- 207 2.10 144 2.10 185 2.13 158 2.13 154 2.13 189 2.13
  69  0.833  0.834  0.625- 210 2.09 209 2.09 215 2.12 211 2.13 216 2.13 212 2.13
  70  0.667  0.668  0.500- 211 2.09 148 2.09 193 2.13 189 2.13 162 2.13 158 2.13
  71  0.837  0.837  0.876- 214 2.09 213 2.10 216 2.12 203 2.13 204 2.14 215 2.15
  72  0.667  0.670  0.751- 215 2.10 152 2.10 197 2.13 162 2.13 166 2.13 193 2.13
  73  0.066  0.276  0.127-   1 2.08  12 2.11  10 2.13
  74  0.264  0.068  0.130-  26 2.10   1 2.11  28 2.13
  75  0.089  0.124  0.000-   2 2.10   1 2.14   7 2.14
  76  0.235  0.232  0.000-  34 2.10   1 2.12   7 2.12
  77  0.065  0.270  0.375-   3 2.10  14 2.12  12 2.14
  78  0.266  0.065  0.375-   3 2.10  30 2.13  28 2.13
  79  0.100  0.105  0.249-   4 2.10   3 2.13   1 2.13
  80  0.232  0.235  0.252-  36 2.10   1 2.11   3 2.13
  81  0.065  0.270  0.625-   5 2.10  14 2.12  16 2.14
  82  0.266  0.065  0.625-   5 2.10  30 2.13  32 2.13
  83  0.101  0.102  0.500-   6 2.10   5 2.12   3 2.12
  84  0.232  0.232  0.500-  38 2.10   5 2.13   3 2.13
  85  0.066  0.276  0.873-   7 2.08  16 2.11  10 2.13
  86  0.264  0.068  0.870-  26 2.10   7 2.11  32 2.13
  87  0.100  0.105  0.751-   8 2.10   5 2.13   7 2.13
  88  0.232  0.235  0.748-  40 2.10   7 2.11   5 2.13
  89  0.065  0.602  0.125-   9 2.10  20 2.13  18 2.13
  90  0.268  0.398  0.125-   9 2.10  36 2.13  34 2.13
  91  0.100  0.437  0.000-  10 2.10  15 2.13   9 2.13
  92  0.234  0.563  0.000-  42 2.10   9 2.13  15 2.13
  93  0.064  0.601  0.376-  11 2.10  22 2.13  20 2.13
  94  0.269  0.399  0.376-  11 2.10  38 2.13  36 2.13
  95  0.100  0.437  0.251-  12 2.10  11 2.12   9 2.13
  96  0.234  0.563  0.251-  44 2.10  11 2.12   9 2.13
  97  0.064  0.601  0.624-  13 2.10  22 2.13  24 2.13
  98  0.269  0.399  0.624-  13 2.10  38 2.13  40 2.13
  99  0.101  0.435  0.500-  14 2.09  11 2.13  13 2.13
 100  0.232  0.565  0.500-  46 2.09  13 2.13  11 2.13
 101  0.065  0.602  0.875-  15 2.10  24 2.13  18 2.13
 102  0.268  0.398  0.875-  15 2.10  40 2.13  34 2.13
 103  0.100  0.437  0.749-  16 2.10  13 2.12  15 2.13
 104  0.234  0.563  0.749-  48 2.10  13 2.12  15 2.13
 105  0.069  0.931  0.130-   2 2.10  17 2.11   4 2.13
 106  0.267  0.724  0.127-  17 2.08  44 2.11  42 2.13
 107  0.099  0.768  0.000-  18 2.10  17 2.12  23 2.12
 108  0.244  0.876  0.000-  26 2.10  17 2.14  23 2.14
 109  0.067  0.935  0.375-  19 2.10   6 2.13   4 2.13
 110  0.269  0.730  0.375-  19 2.10  46 2.12  44 2.14
 111  0.101  0.765  0.252-  20 2.10  17 2.11  19 2.13
 112  0.233  0.895  0.249-  28 2.10  19 2.13  17 2.13
 113  0.067  0.935  0.625-  21 2.10   6 2.13   8 2.13
 114  0.269  0.730  0.625-  21 2.10  46 2.12  48 2.14
 115  0.101  0.768  0.500-  22 2.10  19 2.13  21 2.13
 116  0.232  0.898  0.500-  30 2.10  21 2.12  19 2.12
 117  0.069  0.931  0.870-   2 2.10  23 2.11   8 2.13
 118  0.267  0.724  0.873-  23 2.08  48 2.11  42 2.13
 119  0.101  0.765  0.748-  24 2.10  23 2.11  21 2.13
 120  0.233  0.895  0.751-  32 2.10  21 2.13  23 2.13
 121  0.399  0.268  0.126-  25 2.09  36 2.13  34 2.13
 122  0.600  0.064  0.125-  25 2.10  50 2.13  52 2.13
 123  0.425  0.100  0.000-  25 2.14  31 2.14  26 2.17
 124  0.564  0.228  0.000-  58 2.11  25 2.13  31 2.13
 125  0.400  0.269  0.375-  27 2.09  38 2.13  36 2.13
 126  0.602  0.065  0.375-  27 2.09  52 2.13  54 2.13
 127  0.433  0.100  0.251-  28 2.09  25 2.12  27 2.13
 128  0.565  0.229  0.248-  60 2.10  27 2.12  25 2.15
 129  0.400  0.269  0.625-  29 2.09  38 2.13  40 2.13
 130  0.602  0.065  0.625-  29 2.09  56 2.13  54 2.13
 131  0.434  0.102  0.500-  30 2.09  29 2.13  27 2.13
 132  0.566  0.231  0.500-  62 2.09  29 2.13  27 2.13
 133  0.399  0.268  0.875-  31 2.09  40 2.13  34 2.13
 134  0.600  0.064  0.875-  31 2.10  50 2.13  56 2.13
 135  0.433  0.100  0.749-  32 2.09  31 2.12  29 2.13
 136  0.565  0.229  0.752-  64 2.10  29 2.12  31 2.15
 137  0.402  0.601  0.125-  33 2.09  42 2.13  44 2.13
 138  0.602  0.396  0.124-  33 2.09  60 2.13  58 2.13
 139  0.437  0.435  0.000-  34 2.09  33 2.13  39 2.13
 140  0.568  0.567  0.000-  66 2.11  33 2.12  39 2.12
 141  0.401  0.601  0.376-  35 2.10  44 2.11  46 2.13
 142  0.602  0.396  0.374-  35 2.09  62 2.13  60 2.13
 143  0.436  0.435  0.250-  36 2.09  35 2.13  33 2.13
 144  0.568  0.566  0.250-  68 2.10  33 2.13  35 2.13
 145  0.401  0.601  0.624-  37 2.10  48 2.11  46 2.13
 146  0.602  0.396  0.626-  37 2.09  62 2.13  64 2.13
 147  0.436  0.434  0.500-  38 2.10  37 2.13  35 2.13
 148  0.568  0.564  0.500-  70 2.09  37 2.13  35 2.13
 149  0.402  0.601  0.875-  39 2.09  42 2.13  48 2.13
 150  0.602  0.396  0.876-  39 2.09  64 2.13  58 2.13
 151  0.436  0.435  0.751-  40 2.09  37 2.13  39 2.13
 152  0.568  0.566  0.750-  72 2.10  39 2.13  37 2.13
 153  0.393  0.938  0.121-  41 2.11  28 2.12  26 2.18
 154  0.600  0.735  0.125-  41 2.12  66 2.12  68 2.13
 155  0.434  0.768  0.000-  42 2.09  41 2.12  47 2.12
 156  0.564  0.899  0.000-  50 2.10  41 2.12  47 2.12
 157  0.398  0.935  0.376-  43 2.09  28 2.12  30 2.13
 158  0.601  0.734  0.375-  43 2.09  68 2.13  70 2.13
 159  0.433  0.770  0.250-  44 2.10  41 2.13  43 2.13
 160  0.563  0.901  0.249-  52 2.10  41 2.13  43 2.13
 161  0.398  0.935  0.624-  45 2.09  32 2.12  30 2.13
 162  0.601  0.734  0.625-  45 2.09  72 2.13  70 2.13
 163  0.435  0.768  0.500-  46 2.09  45 2.13  43 2.13
 164  0.565  0.899  0.500-  54 2.09  43 2.13  45 2.13
 165  0.393  0.938  0.879-  47 2.11  32 2.12  26 2.18
 166  0.600  0.735  0.875-  47 2.12  66 2.12  72 2.13
 167  0.433  0.770  0.751-  48 2.10  47 2.13  45 2.13
 168  0.563  0.901  0.751-  56 2.10  47 2.13  45 2.13
 169  0.734  0.265  0.125-  49 2.12  58 2.12  60 2.13
 170  0.940  0.062  0.121-  49 2.11   4 2.12   2 2.18
 171  0.769  0.101  0.000-  50 2.10  55 2.12  49 2.12
 172  0.900  0.232  0.000-  10 2.09  49 2.12  55 2.12
 173  0.732  0.266  0.375-  51 2.09  60 2.13  62 2.13
 174  0.936  0.065  0.376-  51 2.09   4 2.12   6 2.13
 175  0.770  0.099  0.249-  52 2.10  49 2.13  51 2.13
 176  0.900  0.230  0.250-  12 2.10  49 2.13  51 2.13
 177  0.732  0.266  0.625-  53 2.09  64 2.13  62 2.13
 178  0.936  0.065  0.624-  53 2.09   8 2.12   6 2.13
 179  0.769  0.100  0.500-  54 2.09  53 2.13  51 2.13
 180  0.899  0.232  0.500-  14 2.10  51 2.13  53 2.13
 181  0.734  0.265  0.875-  55 2.12  58 2.12  64 2.13
 182  0.940  0.062  0.879-  55 2.11   8 2.12   2 2.18
 183  0.770  0.099  0.751-  56 2.10  55 2.13  53 2.13
 184  0.900  0.230  0.751-  16 2.10  55 2.13  53 2.13
 185  0.731  0.604  0.124-  57 2.09  68 2.13  66 2.13
 186  0.932  0.399  0.125-  57 2.09  10 2.13  12 2.13
 187  0.766  0.433  0.000-  58 2.11  63 2.12  57 2.12
 188  0.896  0.565  0.000-  18 2.09  63 2.13  57 2.13
 189  0.732  0.604  0.374-  59 2.09  70 2.13  68 2.13
 190  0.932  0.399  0.376-  59 2.10  12 2.11  14 2.13
 191  0.766  0.434  0.250-  60 2.10  57 2.13  59 2.13
 192  0.897  0.564  0.250-  20 2.09  59 2.13  57 2.13
 193  0.732  0.604  0.626-  61 2.09  70 2.13  72 2.13
 194  0.932  0.399  0.624-  61 2.10  16 2.11  14 2.13
 195  0.766  0.435  0.500-  62 2.09  61 2.13  59 2.13
 196  0.897  0.565  0.500-  22 2.10  59 2.13  61 2.13
 197  0.731  0.604  0.876-  63 2.09  72 2.13  66 2.13
 198  0.932  0.399  0.875-  63 2.09  10 2.13  16 2.13
 199  0.766  0.434  0.750-  64 2.10  63 2.13  61 2.13
 200  0.897  0.564  0.751-  24 2.09  61 2.13  63 2.13
 201  0.734  0.936  0.125-  65 2.10  50 2.13  52 2.13
 202  0.935  0.732  0.126-  65 2.09  20 2.13  18 2.13
 203  0.770  0.772  0.000-  66 2.11  65 2.13  71 2.13
 204  0.909  0.900  0.000-  71 2.14  65 2.14   2 2.17
 205  0.731  0.934  0.375-  67 2.09  52 2.13  54 2.13
 206  0.934  0.731  0.375-  67 2.09  22 2.13  20 2.13
 207  0.769  0.770  0.248-  68 2.10  67 2.12  65 2.15
 208  0.900  0.900  0.251-   4 2.09  65 2.12  67 2.13
 209  0.731  0.934  0.625-  69 2.09  56 2.13  54 2.13
 210  0.934  0.731  0.625-  69 2.09  22 2.13  24 2.13
 211  0.768  0.769  0.500-  70 2.09  69 2.13  67 2.13
 212  0.899  0.898  0.500-   6 2.09  69 2.13  67 2.13
 213  0.734  0.936  0.875-  71 2.10  50 2.13  56 2.13
 214  0.935  0.732  0.875-  71 2.09  24 2.13  18 2.13
 215  0.769  0.770  0.752-  72 2.10  69 2.12  71 2.15
 216  0.900  0.900  0.749-   8 2.09  71 2.12  69 2.13
 217  0.167  1.000  0.000-
 

IMPORTANT INFORMATION: All symmetrisations will be switched off!
NOSYMM: (Re-)initialisation of all symmetry stuff for point group C_1.

 
 
 KPOINTS: KPOINTS created by Atomic Simulation Env

Automatic generation of k-mesh.
Space group operators:
 irot       det(A)        alpha          n_x          n_y          n_z        tau_x        tau_y        tau_z
    1     1.000000     0.000000     1.000000     0.000000     0.000000     0.000000     0.000000     0.000000
 
 Subroutine IBZKPT returns following result:
 ===========================================
 
 Found      4 irreducible k-points:
 
 Following reciprocal coordinates:
            Coordinates               Weight
  0.250000  0.250000  0.250000      2.000000
 -0.250000  0.250000  0.250000      2.000000
  0.250000 -0.250000  0.250000      2.000000
 -0.250000 -0.250000  0.250000      2.000000
 
 Following cartesian coordinates:
            Coordinates               Weight
  0.017111  0.017111  0.018996      2.000000
 -0.017111  0.017111  0.018996      2.000000
  0.017111 -0.017111  0.018996      2.000000
 -0.017111 -0.017111  0.018996      2.000000
 


--------------------------------------------------------------------------------------------------------




 Dimension of arrays:
   k-points           NKPTS =      4   k-points in BZ     NKDIM =      4   number of bands    NBANDS=   1170
   number of dos      NEDOS =   5001   number of ions     NIONS =    217
   non local maximal  LDIM  =      6   non local SUM 2l+1 LMDIM =     18
   total plane-waves  NPLWV = 829440
   max r-space proj   IRMAX =      1   max aug-charges    IRDMAX=  71863
   dimension x,y,z NGX =    96 NGY =   96 NGZ =   90
   dimension x,y,z NGXF=   192 NGYF=  192 NGZF=  180
   support grid    NGXF=   384 NGYF=  384 NGZF=  360
   ions per type =              72 144   1
   NGX,Y,Z   is equivalent  to a cutoff of  10.92, 10.92, 11.37 a.u.
   NGXF,Y,Z  is equivalent  to a cutoff of  21.85, 21.85, 22.74 a.u.

 SYSTEM =  unknown system                          
 POSCAR =  Mn  F  H                                

 Startparameter for this run:
   NWRITE =      2    write-flag & timer
   PREC   = normal    normal or accurate (medium, high low for compatibility)
   ISTART =      0    job   : 0-new  1-cont  2-samecut
   ICHARG =      1    charge: 1-file 2-atom 10-const
   ISPIN  =      2    spin polarized calculation?
   LNONCOLLINEAR =      F non collinear calculations
   LSORBIT =      F    spin-orbit coupling
   INIWAV =      1    electr: 0-lowe 1-rand  2-diag
   LASPH  =      T    aspherical Exc in radial PAW
   METAGGA=      F    non-selfconsistent MetaGGA calc.

 Electronic Relaxation 1
   ENCUT  =  700.0 eV  51.45 Ry    7.17 a.u.  31.52 31.52 28.39*2*pi/ulx,y,z
   ENINI  =  700.0     initial cutoff
   ENAUG  =  613.6 eV  augmentation charge cutoff
   NELM   =     60;   NELMIN=  2; NELMDL= -5     # of ELM steps 
   EDIFF  = 0.1E-06   stopping-criterion for ELM
   LREAL  =      F    real-space projection
   NLSPLINE    = F    spline interpolate recip. space projectors
   LCOMPAT=      F    compatible to vasp.4.4
   GGA_COMPAT  = T    GGA compatible to vasp.4.4-vasp.4.6
   LMAXPAW     = -100 max onsite density
   LMAXMIX     =    4 max onsite mixed and CHGCAR
   VOSKOWN=      0    Vosko Wilk Nusair interpolation
   ROPT   =    0.00000   0.00000   0.00000
 Ionic relaxation
   EDIFFG = -.5E-02   stopping-criterion for IOM
   NSW    =      0    number of steps for IOM
   NBLOCK =      1;   KBLOCK =      1    inner block; outer block 
   IBRION =     -1    ionic relax: 0-MD 1-quasi-New 2-CG
   NFREE  =      0    steps in history (QN), initial steepest desc. (CG)
   ISIF   =      2    stress and relaxation
   IWAVPR =     10    prediction:  0-non 1-charg 2-wave 3-comb
   ISYM   =      0    0-nonsym 1-usesym 2-fastsym
   LCORR  =      T    Harris-Foulkes like correction to forces

   POTIM  = 0.5500    time-step for ionic-motion
   TEIN   =    0.0    initial temperature
   TEBEG  =    0.0;   TEEND  =   0.0 temperature during run
   SMASS  =  -3.00    Nose mass-parameter (am)
   estimated Nose-frequenzy (Omega)   =  0.10E-29 period in steps =****** mass=  -0.488E-26a.u.
   SCALEE = 1.0000    scale energy and forces
   NPACO  =    256;   APACO  = 16.0  distance and # of slots for P.C.
   PSTRESS=    0.0 pullay stress

  Mass of Ions in am
   POMASS =  54.94 19.00  1.00
  Ionic Valenz
   ZVAL   =  13.00  7.00  1.00
  Atomic Wigner-Seitz radii
   RWIGS  =  -1.00 -1.00 -1.00
  virtual crystal weights 
   VCA    =   1.00  1.00  1.00
   NELECT =    1945.0000    total number of electrons
   NUPDOWN=      -1.0000    fix difference up-down

 DOS related values:
   EMIN   =  10.00;   EMAX   =-10.00  energy-range for DOS
   EFERMI =   0.00
   ISMEAR =     0;   SIGMA  =   0.02  broadening in eV -4-tet -1-fermi 0-gaus

 Electronic relaxation 2 (details)
   IALGO  =     68    algorithm
   LDIAG  =      T    sub-space diagonalisation (order eigenvalues)
   LSUBROT=      F    optimize rotation matrix (better conditioning)
   TURBO    =      0    0=normal 1=particle mesh
   IRESTART =      0    0=no restart 2=restart with 2 vectors
   NREBOOT  =      0    no. of reboots
   NMIN     =      0    reboot dimension
   EREF     =   0.00    reference energy to select bands
   IMIX   =      4    mixing-type and parameters
     AMIX     =   0.40;   BMIX     =  1.00
     AMIX_MAG =   1.60;   BMIX_MAG =  1.00
     AMIN     =   0.10
     WC   =   100.;   INIMIX=   1;  MIXPRE=   1;  MAXMIX= -45

 Intra band minimization:
   WEIMIN = 0.0000     energy-eigenvalue tresh-hold
   EBREAK =  0.21E-10  absolut break condition
   DEPER  =   0.30     relativ break condition  

   TIME   =   0.40     timestep for ELM

  volume/ion in A,a.u.               =      12.95        87.36
  Fermi-wavevector in a.u.,A,eV,Ry     =   1.448291  2.736872 28.538842  2.097546
  Thomas-Fermi vector in A             =   2.566148
 
 Write flags
   LWAVE        =      T    write WAVECAR
   LDOWNSAMPLE  =      F    k-point downsampling of WAVECAR
   LCHARG       =      T    write CHGCAR
   LVTOT        =      F    write LOCPOT, total local potential
   LVHAR        =      F    write LOCPOT, Hartree potential only
   LELF         =      F    write electronic localiz. function (ELF)
   LORBIT       =     11    0 simple, 1 ext, 2 COOP (PROOUT), +10 PAW based schemes


 Dipole corrections
   LMONO  =      F    monopole corrections only (constant potential shift)
   LDIPOL =      F    correct potential (dipole corrections)
   IDIPOL =      0    1-x, 2-y, 3-z, 4-all directions 
   EPSILON=  1.0000000 bulk dielectric constant

 LDA+U is selected, type is set to LDAUTYPE =  2
   angular momentum for each species LDAUL =     2   -1   -1
   U (eV)           for each species LDAUU =   2.0  0.0  0.0
   J (eV)           for each species LDAUJ =   0.0  0.0  0.0
 Exchange correlation treatment:
   GGA     =    PS    GGA type
   LEXCH   =    14    internal setting for exchange type
   VOSKOWN=      0    Vosko Wilk Nusair interpolation
   LHFCALC =     F    Hartree Fock is set to
   LHFONE  =     F    Hartree Fock one center treatment
   AEXX    =    0.0000 exact exchange contribution

 Linear response parameters
   LEPSILON=     F    determine dielectric tensor
   LRPA    =     F    only Hartree local field effects (RPA)
   LNABLA  =     F    use nabla operator in PAW spheres
   LVEL    =     F    velocity operator in full k-point grid
   LINTERFAST=   F  fast interpolation
   KINTER  =     0    interpolate to denser k-point grid
   CSHIFT  =0.1000    complex shift for real part using Kramers Kronig
   OMEGAMAX=  -1.0    maximum frequency
   DEG_THRESHOLD= 0.2000000E-02 threshold for treating states as degnerate
   RTIME   =   -0.100 relaxation time in fs
  (WPLASMAI=    0.000 imaginary part of plasma frequency in eV, 0.658/RTIME)
   DFIELD  = 0.0000000 0.0000000 0.0000000 field for delta impulse in time
 
 Orbital magnetization related:
   ORBITALMAG=     F  switch on orbital magnetization
   LCHIMAG   =     F  perturbation theory with respect to B field
   DQ        =  0.001000  dq finite difference perturbation B field
   LLRAUG    =     F  two centre corrections for induced B field



--------------------------------------------------------------------------------------------------------


 Static calculation
 charge density and potential will be updated during run
 spin polarized calculation
 RMM-DIIS sequential band-by-band and
  variant of blocked Davidson during initial phase
 perform sub-space diagonalisation
    before iterative eigenvector-optimisation
 modified Broyden-mixing scheme, WC =      100.0
 initial mixing is a Kerker type mixing with AMIX =  0.4000 and BMIX =      1.0000
 Hartree-type preconditioning will be used
 using additional bands          197
 reciprocal scheme for non local part
 use partial core corrections
 calculate Harris-corrections to forces 
   (improved forces if not selfconsistent)
 use gradient corrections 
 use of overlap-Matrix (Vanderbilt PP)
 Gauss-broadening in eV      SIGMA  =   0.02


--------------------------------------------------------------------------------------------------------


  energy-cutoff  :      700.00
  volume of cell :     2809.16
      direct lattice vectors                 reciprocal lattice vectors
    14.610086635  0.000000000  0.000000000     0.068445864  0.000000000  0.000000000
     0.000000000 14.610086635  0.000000000     0.000000000  0.068445864  0.000000000
     0.000000000  0.000000000 13.160468869     0.000000000  0.000000000  0.075985135

  length of vectors
    14.610086635 14.610086635 13.160468869     0.068445864  0.068445864  0.075985135


 
 k-points in units of 2pi/SCALE and weight: KPOINTS created by Atomic Simulation Env
   0.01711147  0.01711147  0.01899628       0.250
  -0.01711147  0.01711147  0.01899628       0.250
   0.01711147 -0.01711147  0.01899628       0.250
  -0.01711147 -0.01711147  0.01899628       0.250
 
 k-points in reciprocal lattice and weights: KPOINTS created by Atomic Simulation Env
   0.25000000  0.25000000  0.25000000       0.250
  -0.25000000  0.25000000  0.25000000       0.250
   0.25000000 -0.25000000  0.25000000       0.250
  -0.25000000 -0.25000000  0.25000000       0.250
 
 position of ions in fractional coordinates (direct lattice) 
   0.16575107  0.17412222  0.12654457
   0.01957360  0.99825679  0.00002400
   0.16604086  0.16783681  0.37528591
   0.00115830  0.00108815  0.25036722
   0.16604107  0.16783677  0.62476261
   0.00132176  0.99895779  0.50002388
   0.16575154  0.17412179  0.87350425
   0.00115854  0.00108813  0.74968048
   0.16668961  0.49994919  0.12527404
   0.99811907  0.33572884  0.00002375
   0.16668998  0.49994823  0.37540677
   0.99765324  0.33593112  0.25088964
   0.16669160  0.49994833  0.62464009
   0.99924490  0.33370805  0.50002385
   0.16668761  0.49994731  0.87477258
   0.99765278  0.33593061  0.74915781
   0.16762868  0.82577553  0.12654346
   0.99796269  0.66524530  0.00002390
   0.16733947  0.83205849  0.37528459
   0.99863779  0.66495404  0.25032620
   0.16733934  0.83205825  0.62476284
   0.99902715  0.66631678  0.50002308
   0.16762871  0.82577524  0.87350410
   0.99863778  0.66495384  0.74972012
   0.49593937  0.16289060  0.12371894
   0.31384304  0.00163756  0.00002423
   0.50005378  0.16634610  0.37460295
   0.33221835  0.99881009  0.25036562
   0.50005396  0.16634599  0.62544464
   0.33205976  0.00093547  0.50002369
   0.49593936  0.16289014  0.87632885
   0.33221832  0.99880997  0.74968191
   0.50380310  0.49987844  0.12475218
   0.33541470  0.33465274  0.00002380
   0.50238958  0.49933658  0.37495652
   0.33474233  0.33494159  0.25032680
   0.50238947  0.49933659  0.62509135
   0.33435374  0.33357951  0.50002390
   0.50380318  0.49987853  0.87529558
   0.33474247  0.33494141  0.74972125
   0.49614931  0.83669536  0.12420499
   0.33525895  0.66416710  0.00002344
   0.49933485  0.83412876  0.37482123
   0.33572852  0.66396477  0.25088946
   0.49933454  0.83412856  0.62522641
   0.33413674  0.66618869  0.50002338
   0.49614926  0.83669549  0.87584290
   0.33572800  0.66396455  0.74915783
   0.83723327  0.16319851  0.12420361
   0.66668984  0.99994790  0.00002337
   0.83404624  0.16576777  0.37482081
   0.66669009  0.99994903  0.24949996
   0.83404594  0.16576768  0.62522644
   0.66669125  0.99994841  0.50002347
   0.83723308  0.16319795  0.87584384
   0.66669037  0.99994773  0.75054725
   0.82957722  0.50001753  0.12475206
   0.66736511  0.32799528  0.00002351
   0.83099131  0.50055845  0.37495614
   0.66674594  0.33002839  0.24906008
   0.83099133  0.50055858  0.62509005
   0.66681713  0.33189681  0.50002362
   0.82957722  0.50001746  0.87529469
   0.66674589  0.33002836  0.75098721
   0.83744159  0.83700810  0.12371714
   0.66601581  0.67190053  0.00002403
   0.83332551  0.83354878  0.37460280
   0.66663513  0.66986675  0.24906077
   0.83332556  0.83354870  0.62544538
   0.66656202  0.66799821  0.50002426
   0.83744304  0.83700727  0.87633131
   0.66663512  0.66986687  0.75098757
   0.06641502  0.27578866  0.12668064
   0.26392961  0.06840015  0.12971829
   0.08920859  0.12388773  0.00002437
   0.23475686  0.23238006  0.00002449
   0.06472380  0.26950579  0.37486879
   0.26606179  0.06469931  0.37458434
   0.10041672  0.10460106  0.24905315
   0.23230366  0.23452051  0.25204263
   0.06472396  0.26950570  0.62517890
   0.26606174  0.06469912  0.62546309
   0.10098298  0.10229208  0.50002435
   0.23249624  0.23220153  0.50002440
   0.06641543  0.27578867  0.87336703
   0.26392984  0.06839988  0.87032966
   0.10041671  0.10460135  0.75099527
   0.23230417  0.23452009  0.74800594
   0.06540204  0.60168085  0.12491463
   0.26797664  0.39821604  0.12491618
   0.09975634  0.43689957  0.00002409
   0.23362147  0.56299691  0.00002278
   0.06445700  0.60067994  0.37556256
   0.26892380  0.39921630  0.37556420
   0.09976732  0.43674472  0.25069863
   0.23361384  0.56315154  0.25069849
   0.06445729  0.60068021  0.62448303
   0.26892379  0.39921594  0.62448439
   0.10102357  0.43466942  0.50002370
   0.23235737  0.56522742  0.50002336
   0.06540184  0.60168094  0.87513225
   0.26797639  0.39821590  0.87513154
   0.09976667  0.43674464  0.74934712
   0.23361340  0.56315124  0.74934932
   0.06944266  0.93149147  0.12972858
   0.26696499  0.72410934  0.12668078
   0.09862250  0.76751752  0.00002389
   0.24416248  0.87602726  0.00002399
   0.06731839  0.93519665  0.37458403
   0.26865663  0.73038969  0.37486831
   0.10107621  0.76537562  0.25204181
   0.23296339  0.89529546  0.24905221
   0.06731850  0.93519656  0.62546398
   0.26865658  0.73038957  0.62517914
   0.10088379  0.76769558  0.50002349
   0.23239718  0.89760345  0.50002392
   0.06944268  0.93149142  0.87031949
   0.26696500  0.72410938  0.87336689
   0.10107610  0.76537541  0.74800576
   0.23296350  0.89529514  0.75099532
   0.39876878  0.26826963  0.12554085
   0.59963915  0.06381455  0.12459219
   0.42468679  0.10000868  0.00002412
   0.56365540  0.22790192  0.00002377
   0.39961026  0.26857983  0.37490514
   0.60194195  0.06546015  0.37471905
   0.43315359  0.10014812  0.25112813
   0.56453977  0.22941080  0.24793851
   0.39961026  0.26857997  0.62514335
   0.60194218  0.06545993  0.62532825
   0.43398920  0.10167616  0.50002382
   0.56557415  0.23073037  0.50002384
   0.39876871  0.26826930  0.87450714
   0.59963914  0.06381429  0.87545518
   0.43315363  0.10014788  0.74891921
   0.56453981  0.22941060  0.75210920
   0.40178296  0.60052639  0.12522474
   0.60241397  0.39594037  0.12402246
   0.43694835  0.43519242  0.00002397
   0.56767576  0.56653052  0.00002406
   0.40110328  0.60093483  0.37603493
   0.60154496  0.39610565  0.37423666
   0.43649923  0.43545094  0.24952250
   0.56750579  0.56564715  0.25031528
   0.40110318  0.60093510  0.62401289
   0.60154487  0.39610565  0.62581081
   0.43648780  0.43445271  0.50002417
   0.56766430  0.56446738  0.50002403
   0.40178302  0.60052642  0.87482295
   0.60241407  0.39594058  0.87602492
   0.43649915  0.43545084  0.75052554
   0.56750591  0.56564703  0.74973254
   0.39289732  0.93761045  0.12102860
   0.59957095  0.73521101  0.12519440
   0.43373375  0.76801012  0.00002404
   0.56441858  0.89936316  0.00002403
   0.39754326  0.93492294  0.37556008
   0.60115386  0.73351361  0.37486996
   0.43310735  0.76968678  0.24951673
   0.56296903  0.90055561  0.24923351
   0.39754330  0.93492293  0.62448725
   0.60115371  0.73351360  0.62517843
   0.43481906  0.76829118  0.50002377
   0.56450653  0.89945749  0.50002389
   0.39289739  0.93761071  0.87901926
   0.59957078  0.73521090  0.87485380
   0.43310701  0.76968689  0.75053123
   0.56296901  0.90055515  0.75081406
   0.73380979  0.26468401  0.12519415
   0.94048827  0.06228392  0.12102254
   0.76896164  0.10053179  0.00002393
   0.89964408  0.23188755  0.00002376
   0.73222545  0.26638083  0.37486944
   0.93583727  0.06497377  0.37556217
   0.77041299  0.09933976  0.24923278
   0.90027410  0.23020842  0.24951555
   0.73222537  0.26638083  0.62517788
   0.93583724  0.06497382  0.62448582
   0.76887577  0.10043835  0.50002362
   0.89856033  0.23160673  0.50002362
   0.73380988  0.26468398  0.87485318
   0.94048844  0.06228376  0.87902540
   0.77041256  0.09933959  0.75081454
   0.90027382  0.23020823  0.75053189
   0.73096640  0.60395490  0.12402224
   0.93159668  0.39936984  0.12522556
   0.76570457  0.43336562  0.00002337
   0.89643115  0.56470328  0.00002326
   0.73183553  0.60378925  0.37423694
   0.93227862  0.39896106  0.37603405
   0.76587414  0.43424856  0.25031522
   0.89688085  0.56444449  0.24952156
   0.73183560  0.60378928  0.62581122
   0.93227832  0.39896082  0.62401312
   0.76571705  0.43542626  0.50002319
   0.89689259  0.56544317  0.50002294
   0.73096627  0.60395477  0.87602564
   0.93159678  0.39936974  0.87482178
   0.76587405  0.43424875  0.74973111
   0.89688094  0.56444432  0.75052475
   0.73374072  0.93608184  0.12459193
   0.93460921  0.73162621  0.12554142
   0.76972449  0.77199466  0.00002414
   0.90870174  0.89988971  0.00002434
   0.73143912  0.93443637  0.37471837
   0.93376953  0.73131514  0.37490393
   0.76883979  0.77048526  0.24793775
   0.90022520  0.89974832  0.25112890
   0.73143914  0.93443609  0.62532852
   0.93376941  0.73131510  0.62514198
   0.76780465  0.76916497  0.50002414
   0.89939044  0.89821907  0.50002413
   0.73374131  0.93608136  0.87545575
   0.93460978  0.73162570  0.87450574
   0.76883964  0.77048562  0.75211072
   0.90022524  0.89974834  0.74891917
   0.16662960  0.99993703  0.00002409
 
 position of ions in cartesian coordinates  (Angst):
   2.42163755  2.54394071  1.66538588
   0.28597195 14.58461812  0.00031591
   2.42587142  2.45211028  4.93893849
   0.01692284  0.01589793  3.29495002
   2.42587443  2.45210972  8.22216894
   0.01931107 14.59485983  6.58054864
   2.42164433  2.54393451 11.49572547
   0.01692641  0.01589765  9.86614665
   2.43534960  7.30430104  1.64866513
  14.58260602  4.90502743  0.00031251
   2.43535501  7.30428697  4.94052915
  14.57580032  4.90798270  3.30182524
   2.43537876  7.30428841  8.22055642
  14.59905456  4.87550348  6.58054827
   2.43532040  7.30427348 11.51241725
  14.57579356  4.90797531  9.85926808
   2.44906957 12.06465198  1.66537127
  14.58032129  9.71929152  0.00031456
   2.44484414 12.15644665  4.93892117
  14.59018463  9.71503608  3.29441022
   2.44484220 12.15644310  8.22217193
  14.59587314  9.73494588  6.58053813
   2.44907001 12.06464773 11.49572353
  14.59018450  9.71503324  9.86666834
   7.24571711  2.37984579  1.62819921
   4.58527405  0.02392484  0.00031891
   7.30582904  2.43033087  4.92995053
   4.85373890 14.59270198  3.29492896
   7.30583163  2.43032930  8.23114471
   4.85142191  0.01366723  6.58054621
   7.24571702  2.37983899 11.53289859
   4.85373836 14.59270019  9.86616539
   7.36060691  7.30326734  1.64179719
   4.90043788  4.88930552  0.00031323
   7.33995531  7.29535068  4.93460367
   4.89061439  4.89352564  3.29441802
   7.33995375  7.29535088  8.22649528
   4.88493707  4.87362548  6.58054891
   7.36060809  7.30326861 11.51930027
   4.89061652  4.89352297  9.86668311
   7.24878444 12.22419174  1.63459596
   4.89816231  9.70353893  0.00030850
   7.29532537 12.18669350  4.93282317
   4.90502278  9.70058281  3.30182286
   7.29532084 12.18669053  8.22827266
   4.88176672  9.73307443  6.58054212
   7.24878373 12.22419358 11.52650318
   4.90501514  9.70057958  9.85926835
  12.23205065  2.38434430  1.63457778
   9.74039629 14.60932550  0.00030760
  12.18548776  2.42188148  4.93281761
   9.74039998 14.60934202  3.28353647
  12.18548341  2.42188020  8.22827307
   9.74041692 14.60933293  6.58054335
  12.23204788  2.38433626 11.52651562
   9.74040409 14.60932295  9.87755373
  12.12019503  7.30529946  1.64179563
   9.75026209  4.79203941  0.00030944
  12.14085501  7.31320225  4.93459865
   9.74121600  4.82174343  3.27774749
  12.14085526  7.31320420  8.22647817
   9.74225610  4.84904115  6.58054524
  12.12019502  7.30529840 11.51928848
   9.74121520  4.82174296  9.88334379
  12.23509418 12.22876079  1.62817550
   9.73054865  9.81652494  0.00031625
  12.17495792 12.17821985  4.92994851
   9.73959697  9.78681123  3.27775651
  12.17495863 12.17821869  8.23115441
   9.73852882  9.75951178  6.58055373
  12.23511534 12.22874867 11.53293091
   9.73959693  9.78681296  9.88334857
   0.97032918  4.02929621  1.66717661
   3.85603444  0.99933215  1.70715351
   1.30334518  1.81001049  0.00032076
   3.42981804  3.39509279  0.00032229
   0.94562039  3.93750301  4.93344905
   3.88718573  0.94526251  4.92970551
   1.46709693  1.52823059  3.27765616
   3.39397667  3.42636495  3.31699922
   0.94562259  3.93750165  8.22764747
   3.88718508  0.94525977  8.23138752
   1.47537010  1.49449611  6.58055496
   3.39679018  3.39248446  6.58055558
   0.97033520  4.02929641 11.49391963
   3.85603776  0.99932810 11.45394639
   1.46709685  1.52823478  9.88344993
   3.39398403  3.42635885  9.84410891
   0.95552942  8.79060934  1.64393512
   3.91516194  5.81797085  1.64395552
   1.45744873  6.38314057  0.00031706
   3.41322994  8.22543366  0.00029977
   0.94172230  8.77598592  4.94257935
   3.92900005  5.83258478  4.94260095
   1.45760919  6.38087820  3.29931151
   3.41311839  8.22769276  3.29930968
   0.94172663  8.77598990  8.21848947
   3.92899994  5.83257947  8.21850737
   1.47596306  6.35055787  6.58054635
   3.39476135  8.25802154  6.58054186
   0.95552656  8.79061060 11.51715074
   3.91515821  5.81796882 11.51714142
   1.45759976  6.38087698  9.86175949
   3.41311197  8.22768844  9.86178846
   1.01456322 13.60917109  1.70728898
   3.90038164 10.57930018  1.66717841
   1.44088323 11.21349745  0.00031438
   3.56723505 12.79883422  0.00031566
   0.98352758 13.66330405  4.92970149
   3.92509667 10.67105662  4.93344273
   1.47673212 11.18220406  3.31698836
   3.40361537 13.08034418  3.27764388
   0.98352905 13.66330269  8.23139927
   3.92509584 10.67105495  8.22765058
   1.47392085 11.21609888  6.58054362
   3.39534298 13.11406424  6.58054924
   1.01456353 13.60917033 11.45381262
   3.90038175 10.57930080 11.49391778
   1.47673057 11.18220103  9.84410655
   3.40361697 13.08033953  9.88345048
   5.82604635  3.91944258  1.65217649
   8.76077986  0.93233613  1.63969170
   6.20471080  1.46113543  0.00031739
   8.23505427  3.32966685  0.00031282
   5.83834058  3.92397454  4.93392737
   8.79442407  0.95637851  4.93147836
   6.32841146  1.46317268  3.30496392
   8.24797498  3.35171167  3.26298702
   5.83834054  3.92397670  8.22717962
   8.79442735  0.95637527  8.22961291
   6.34061980  1.48549743  6.58054798
   8.26308733  3.37099063  6.58054824
   5.82604536  3.91943775 11.50892403
   8.76077979  0.93233234 11.52140068
   6.32841211  1.46316928  9.85612795
   8.24797556  3.35170871  9.89810967
   5.87008382  8.77374253  1.64801625
   8.80132036  5.78472313  1.63219368
   6.38385323  6.35819895  0.00031550
   8.29379211  8.27706000  0.00031668
   5.86015366  8.77970990  4.94879594
   8.78862393  5.78713786  4.92512994
   6.37729163  6.36197601  3.28383308
   8.29130879  8.26415387  3.29426644
   5.86015223  8.77971382  8.21230220
   8.78862271  5.78713789  8.23596363
   6.37712460  6.34739170  6.58055251
   8.29362463  8.24691737  6.58055075
   5.87008476  8.77374296 11.51308019
   8.80132174  5.78472617 11.52889869
   6.37729040  6.36197455  9.87726795
   8.29131054  8.26415210  9.86683170
   5.74026388 13.69856986  1.59279319
   8.75978358 10.74149653  1.64761702
   6.33688773 11.22069435  0.00031639
   8.24620438 13.13977376  0.00031624
   5.80814143 13.65930510  4.94254671
   8.78290992 10.71669742  4.93346447
   6.32773595 11.24519049  3.28375716
   8.22502634 13.15719546  3.28002980
   5.80814212 13.65930497  8.21854500
   8.78290777 10.71669726  8.22764120
   6.35274414 11.22480072  6.58054730
   8.24748924 13.14115179  6.58054884
   5.74026491 13.69857377 11.56830566
   8.75978105 10.74149502 11.51348620
   6.32773096 11.24519217  9.87734283
   8.22502597 13.15718872  9.88106505
  10.72102468  3.86705638  1.64761369
  13.74061515  0.90997354  1.59271330
  11.23459622  1.46877813  0.00031494
  13.14387791  3.38789723  0.00031272
  10.69787728  3.89184707  4.93345760
  13.67266359  0.94927241  4.94257430
  11.25580050  1.45136251  3.28002023
  13.15308264  3.36336500  3.28374161
  10.69787609  3.89184697  8.22763402
  13.67266318  0.94927317  8.21852624
  11.23334155  1.46741305  6.58054533
  13.12804433  3.38379433  6.58054528
  10.72102599  3.86705591 11.51347803
  13.74061765  0.90997108 11.56838647
  11.25579428  1.45136002  9.88107138
  13.15307854  3.36336223  9.87735156
  10.67948247  8.82383338  1.63219083
  13.61070825  5.83482790  1.64802714
  11.18701009  6.33150923  0.00030752
  13.09693680  8.25036389  0.00030605
  10.69218053  8.82141323  4.92513360
  13.62067146  5.82885567  4.94878446
  11.18948753  6.34440909  3.29426568
  13.10350695  8.24658290  3.28382071
  10.69218153  8.82141366  8.23596908
  13.62066695  5.82885208  8.21230522
  11.18719242  6.36161540  6.58053957
  13.10367843  8.26117365  6.58053640
  10.67948055  8.82383157 11.52890817
  13.61070970  5.83482645 11.51306479
  11.18948623  6.34441193  9.86681288
  13.10350823  8.24658048  9.87725758
  10.72001551 13.67623674  1.63968820
  13.65472156 10.68912227  1.65218398
  11.24574151 11.27890883  0.00031775
  13.27621119 13.14746656  0.00032035
  10.68638884 13.65219638  4.93146949
  13.64245369 10.68457752  4.93391150
  11.23281589 11.25685637  3.26297704
  13.15236818 13.14540086  3.30497404
  10.68638917 13.65219219  8.22961654
  13.64245202 10.68457700  8.22716155
  11.21769244 11.23756681  6.58055207
  13.14017223 13.12305843  6.58055203
  10.72002404 13.67622973 11.52140813
  13.65472981 10.68911493 11.50890558
  11.23281377 11.25686170  9.89812971
  13.15236877 13.14540123  9.85612745
   2.43447292 14.60916658  0.00031706
 


--------------------------------------------------------------------------------------------------------


 k-point  1 :   0.2500 0.2500 0.2500  plane waves:  118129
 k-point  2 :  -0.2500 0.2500 0.2500  plane waves:  118129
 k-point  3 :   0.2500-0.2500 0.2500  plane waves:  118129
 k-point  4 :  -0.2500-0.2500 0.2500  plane waves:  118129

 maximum and minimum number of plane-waves per node :     19742    19655

 maximum number of plane-waves:    118129
 maximum index in each direction: 
   IXMAX=   31   IYMAX=   31   IZMAX=   28
   IXMIN=  -31   IYMIN=  -31   IZMIN=  -28


 parallel 3D FFT for wavefunctions:
    minimum data exchange during FFTs selected (reduces bandwidth)
 parallel 3D FFT for charge:
    minimum data exchange during FFTs selected (reduces bandwidth)


 total amount of memory used by VASP MPI-rank0   697375. kBytes
=======================================================================

   base      :      30000. kBytes
   nonl-proj :     102460. kBytes
   fftplans  :      32099. kBytes
   grid      :      29521. kBytes
   one-center:       1150. kBytes
   wavefun   :     502145. kBytes
 
     INWAV:  cpu time    0.0000: real time    0.0000
 Broyden mixing: mesh for mixing (old mesh)
   NGX = 63   NGY = 63   NGZ = 57
  (NGX  =192   NGY  =192   NGZ  =180)
  gives a total of 226233 points

 initial charge density was supplied:
 number of electron    1945.0000031 magnetization       1.0000000
 keeping initial charge density in first step


--------------------------------------------------------------------------------------------------------


 Maximum index for augmentation-charges         2394 (set IRDMAX)


--------------------------------------------------------------------------------------------------------


 First call to EWALD:  gamma=   0.126
 Maximum number of real-space cells 3x 3x 3
 Maximum number of reciprocal cells 3x 3x 3

    FEWALD:  cpu time    0.3886: real time    0.3887


--------------------------------------- Iteration      1(   1)  ---------------------------------------


    POTLOK:  cpu time    0.3377: real time    0.3462
    SETDIJ:  cpu time    4.0714: real time    4.0716
atom =   1  type =  1  l = 2
 
 onsite density matrix
 
spin component  1
 
  0.9639 -0.0008  0.0197  0.0002  0.0021
 -0.0008  0.9562  0.0002  0.0175  0.0013
  0.0197  0.0002  0.9525  0.0007  0.0008
  0.0002  0.0175  0.0007  0.9616  0.0008
  0.0021  0.0013  0.0008  0.0008  0.9421
 
spin component  2
 
  0.0543 -0.0008  0.0299 -0.0001  0.0026
 -0.0008  0.0415 -0.0000  0.0244  0.0013
  0.0299 -0.0000  0.0392  0.0012  0.0022
 -0.0001  0.0244  0.0012  0.0489  0.0015
  0.0026  0.0013  0.0022  0.0015  0.0175
 
 occupancies and eigenvectors
 
  o =  0.0159  v =  0.0000  0.0000  0.0000  0.0000  0.0000  0.6077 -0.0356 -0.7882  0.0533  0.0734      0.0000  0.0000  0.0000  0.0000  0.0000  0.0000  0.0000  0.0000  0.0000  0.0000
  o =  0.0173  v =  0.0000  0.0000  0.0000  0.0000  0.0000 -0.0899 -0.0413  0.0241 -0.0160  0.9947      0.0000  0.0000  0.0000  0.0000  0.0000  0.0000  0.0000  0.0000  0.0000  0.0000
  o =  0.0205  v =  0.0000  0.0000  0.0000  0.0000  0.0000 -0.0478 -0.7563  0.0389  0.6508 -0.0262      0.0000  0.0000  0.0000  0.0000  0.0000  0.0000  0.0000  0.0000  0.0000  0.0000
  o =  0.0700  v =  0.0000  0.0000  0.0000  0.0000  0.0000  0.0300 -0.6519 -0.0020 -0.7568 -0.0365      0.0000  0.0000  0.0000  0.0000  0.0000  0.0000  0.0000  0.0000  0.0000  0.0000
  o =  0.0778  v =  0.0000  0.0000  0.0000  0.0000  0.0000 -0.7870 -0.0017 -0.6138 -0.0254 -0.0568      0.0000  0.0000  0.0000  0.0000  0.0000  0.0000  0.0000  0.0000  0.0000  0.0000
  o =  0.9376  v = -0.5995 -0.0686  0.7827  0.0280  0.1500  0.0000  0.0000  0.0000  0.0000  0.0000      0.0000  0.0000  0.0000  0.0000  0.0000  0.0000  0.0000  0.0000  0.0000  0.0000
  o =  0.9410  v =  0.0432 -0.6954 -0.1261  0.5788  0.4045  0.0000  0.0000  0.0000  0.0000  0.0000      0.0000  0.0000  0.0000  0.0000  0.0000  0.0000  0.0000  0.0000  0.0000  0.0000
  o =  0.9422  v = -0.0292 -0.2949  0.1134  0.3011 -0.8993  0.0000  0.0000  0.0000  0.0000  0.0000      0.0000  0.0000  0.0000  0.0000  0.0000  0.0000  0.0000  0.0000  0.0000  0.0000
  o =  0.9767  v =  0.0848 -0.6502  0.0419 -0.7530 -0.0364  0.0000  0.0000  0.0000  0.0000  0.0000      0.0000  0.0000  0.0000  0.0000  0.0000  0.0000  0.0000  0.0000  0.0000  0.0000
  o =  0.9789  v = -0.7942 -0.0446 -0.5974 -0.0812 -0.0620  0.0000  0.0000  0.0000  0.0000  0.0000      0.0000  0.0000  0.0000  0.0000  0.0000  0.0000  0.0000  0.0000  0.0000  0.0000
atom =   2  type =  1  l = 2
 
 onsite density matrix
 
spin component  1
 
  0.0489  0.0000 -0.0249  0.0000 -0.0081
  0.0000  0.0470 -0.0000 -0.0246 -0.0000
 -0.0249 -0.0000  0.0469  0.0000 -0.0067
  0.0000 -0.0246  0.0000  0.0437 -0.0000
 -0.0081 -0.0000 -0.0067 -0.0000  0.0392
 
spin component  2
 
  0.9608  0.0000 -0.0188  0.0000  0.0003
  0.0000  0.9600 -0.0000 -0.0167  0.0000
 -0.0188 -0.0000  0.9358  0.0000  0.0300
  0.0000 -0.0167  0.0000  0.9572  0.0000
  0.0003  0.0000  0.0300  0.0000  0.9010
 
 occupancies and eigenvectors
 
  o =  0.0178  v = -0.6290 -0.0000 -0.6412 -0.0000 -0.4396  0.0000  0.0000  0.0000  0.0000  0.0000      0.0000  0.0000  0.0000  0.0000  0.0000  0.0000  0.0000  0.0000  0.0000  0.0000
  o =  0.0207  v = -0.0000  0.6830 -0.0000  0.7304  0.0000  0.0000  0.0000  0.0000  0.0000  0.0000      0.0000  0.0000  0.0000  0.0000  0.0000  0.0000  0.0000  0.0000  0.0000  0.0000
  o =  0.0442  v =  0.2790  0.0000  0.3417  0.0000 -0.8974  0.0000  0.0000  0.0000  0.0000  0.0000      0.0000  0.0000  0.0000  0.0000  0.0000  0.0000  0.0000  0.0000  0.0000  0.0000
  o =  0.0700  v = -0.0000  0.7304  0.0000 -0.6830 -0.0000  0.0000  0.0000  0.0000  0.0000  0.0000      0.0000  0.0000  0.0000  0.0000  0.0000  0.0000  0.0000  0.0000  0.0000  0.0000
  o =  0.0729  v = -0.7256 -0.0000  0.6871  0.0000  0.0361  0.0000  0.0000  0.0000  0.0000  0.0000      0.0000  0.0000  0.0000  0.0000  0.0000  0.0000  0.0000  0.0000  0.0000  0.0000
  o =  0.8825  v =  0.0000  0.0000  0.0000  0.0000  0.0000  0.1286  0.0000  0.5207  0.0000 -0.8440      0.0000  0.0000  0.0000  0.0000  0.0000  0.0000  0.0000  0.0000  0.0000  0.0000
  o =  0.9410  v =  0.0000  0.0000  0.0000  0.0000  0.0000 -0.5980  0.0000 -0.6382  0.0000 -0.4848      0.0000  0.0000  0.0000  0.0000  0.0000  0.0000  0.0000  0.0000  0.0000  0.0000
  o =  0.9418  v =  0.0000  0.0000  0.0000  0.0000  0.0000 -0.0000 -0.6767 -0.0000 -0.7363 -0.0000      0.0000  0.0000  0.0000  0.0000  0.0000  0.0000  0.0000  0.0000  0.0000  0.0000
  o =  0.9742  v =  0.0000  0.0000  0.0000  0.0000  0.0000  0.7911 -0.0000 -0.5671  0.0000 -0.2293      0.0000  0.0000  0.0000  0.0000  0.0000  0.0000  0.0000  0.0000  0.0000  0.0000
  o =  0.9754  v =  0.0000  0.0000  0.0000  0.0000  0.0000  0.0000  0.7363 -0.0000 -0.6767 -0.0000      0.0000  0.0000  0.0000  0.0000  0.0000  0.0000  0.0000  0.0000  0.0000  0.0000
atom =   3  type =  1  l = 2
 
 onsite density matrix
 
spin component  1
 
  0.9645 -0.0004  0.0191 -0.0001  0.0003
 -0.0004  0.9590  0.0002  0.0175  0.0002
  0.0191  0.0002  0.9522  0.0003  0.0003
 -0.0001  0.0175  0.0003  0.9594  0.0002
  0.0003  0.0002  0.0003  0.0002  0.9423
 
spin component  2
 
  0.0542 -0.0005  0.0294 -0.0002  0.0006
 -0.0005  0.0446  0.0001  0.0249  0.0004
  0.0294  0.0001  0.0384  0.0005  0.0005
 -0.0002  0.0249  0.0005  0.0453  0.0003
  0.0006  0.0004  0.0005  0.0003  0.0170
 
 occupancies and eigenvectors
 
  o =  0.0158  v =  0.0000  0.0000  0.0000  0.0000  0.0000 -0.6085  0.0041  0.7932 -0.0210 -0.0097      0.0000  0.0000  0.0000  0.0000  0.0000  0.0000  0.0000  0.0000  0.0000  0.0000
  o =  0.0170  v =  0.0000  0.0000  0.0000  0.0000  0.0000 -0.0162 -0.0162  0.0000  0.0033  0.9997      0.0000  0.0000  0.0000  0.0000  0.0000  0.0000  0.0000  0.0000  0.0000  0.0000
  o =  0.0201  v =  0.0000  0.0000  0.0000  0.0000  0.0000 -0.0156 -0.7116  0.0102  0.7022 -0.0141      0.0000  0.0000  0.0000  0.0000  0.0000  0.0000  0.0000  0.0000  0.0000  0.0000
  o =  0.0699  v =  0.0000  0.0000  0.0000  0.0000  0.0000  0.0073  0.7022  0.0209  0.7116  0.0092      0.0000  0.0000  0.0000  0.0000  0.0000  0.0000  0.0000  0.0000  0.0000  0.0000
  o =  0.0768  v =  0.0000  0.0000  0.0000  0.0000  0.0000 -0.7932  0.0176 -0.6085  0.0088 -0.0125      0.0000  0.0000  0.0000  0.0000  0.0000  0.0000  0.0000  0.0000  0.0000  0.0000
  o =  0.9383  v = -0.5892 -0.0176  0.8077 -0.0011 -0.0070  0.0000  0.0000  0.0000  0.0000  0.0000      0.0000  0.0000  0.0000  0.0000  0.0000  0.0000  0.0000  0.0000  0.0000  0.0000
  o =  0.9416  v = -0.0012  0.7110  0.0134 -0.7025 -0.0294  0.0000  0.0000  0.0000  0.0000  0.0000      0.0000  0.0000  0.0000  0.0000  0.0000  0.0000  0.0000  0.0000  0.0000  0.0000
  o =  0.9423  v = -0.0141  0.0145 -0.0014 -0.0271  0.9994  0.0000  0.0000  0.0000  0.0000  0.0000      0.0000  0.0000  0.0000  0.0000  0.0000  0.0000  0.0000  0.0000  0.0000  0.0000
  o =  0.9767  v =  0.0225  0.7021  0.0327  0.7109  0.0095  0.0000  0.0000  0.0000  0.0000  0.0000      0.0000  0.0000  0.0000  0.0000  0.0000  0.0000  0.0000  0.0000  0.0000  0.0000
  o =  0.9784  v = -0.8075  0.0311 -0.5885  0.0221 -0.0121  0.0000  0.0000  0.0000  0.0000  0.0000      0.0000  0.0000  0.0000  0.0000  0.0000  0.0000  0.0000  0.0000  0.0000  0.0000
atom =   4  type =  1  l = 2
 
 onsite density matrix
 
spin component  1
 
  0.0550 -0.0009 -0.0299  0.0003 -0.0006
 -0.0009  0.0454 -0.0014 -0.0248  0.0001
 -0.0299 -0.0014  0.0392  0.0016  0.0005
  0.0003 -0.0248  0.0016  0.0452  0.0001
 -0.0006  0.0001  0.0005  0.0001  0.0173
 
spin component  2
 
  0.9636  0.0010 -0.0193 -0.0007 -0.0006
  0.0010  0.9569 -0.0010 -0.0159  0.0005
 -0.0193 -0.0010  0.9527  0.0012  0.0004
 -0.0007 -0.0159  0.0012  0.9583 -0.0002
 -0.0006  0.0005  0.0004 -0.0002  0.9424
 
 occupancies and eigenvectors
 
  o =  0.0161  v =  0.6077  0.0517  0.7905 -0.0057 -0.0556  0.0000  0.0000  0.0000  0.0000  0.0000      0.0000  0.0000  0.0000  0.0000  0.0000  0.0000  0.0000  0.0000  0.0000  0.0000
  o =  0.0173  v =  0.0444 -0.0246  0.0375 -0.0269  0.9976  0.0000  0.0000  0.0000  0.0000  0.0000      0.0000  0.0000  0.0000  0.0000  0.0000  0.0000  0.0000  0.0000  0.0000  0.0000
  o =  0.0205  v =  0.0125 -0.7036  0.0287 -0.7088 -0.0381  0.0000  0.0000  0.0000  0.0000  0.0000      0.0000  0.0000  0.0000  0.0000  0.0000  0.0000  0.0000  0.0000  0.0000  0.0000
  o =  0.0702  v =  0.0924 -0.7061 -0.0199  0.7018 -0.0018  0.0000  0.0000  0.0000  0.0000  0.0000      0.0000  0.0000  0.0000  0.0000  0.0000  0.0000  0.0000  0.0000  0.0000  0.0000
  o =  0.0781  v = -0.7875 -0.0554  0.6103  0.0652  0.0125  0.0000  0.0000  0.0000  0.0000  0.0000      0.0000  0.0000  0.0000  0.0000  0.0000  0.0000  0.0000  0.0000  0.0000  0.0000
  o =  0.9380  v =  0.0000  0.0000  0.0000  0.0000  0.0000  0.6018 -0.0364  0.7960 -0.0530  0.0003      0.0000  0.0000  0.0000  0.0000  0.0000  0.0000  0.0000  0.0000  0.0000  0.0000
  o =  0.9416  v =  0.0000  0.0000  0.0000  0.0000  0.0000 -0.0297 -0.6969 -0.0534 -0.6597  0.2746      0.0000  0.0000  0.0000  0.0000  0.0000  0.0000  0.0000  0.0000  0.0000  0.0000
  o =  0.9424  v =  0.0000  0.0000  0.0000  0.0000  0.0000 -0.0253 -0.1868 -0.0025 -0.2015 -0.9612      0.0000  0.0000  0.0000  0.0000  0.0000  0.0000  0.0000  0.0000  0.0000  0.0000
  o =  0.9729  v =  0.0000  0.0000  0.0000  0.0000  0.0000  0.2716 -0.6516 -0.1897  0.6820 -0.0230      0.0000  0.0000  0.0000  0.0000  0.0000  0.0000  0.0000  0.0000  0.0000  0.0000
  o =  0.9789  v =  0.0000  0.0000  0.0000  0.0000  0.0000 -0.7500 -0.2313  0.5723  0.2373  0.0134      0.0000  0.0000  0.0000  0.0000  0.0000  0.0000  0.0000  0.0000  0.0000  0.0000
atom =   5  type =  1  l = 2
 
 onsite density matrix
 
spin component  1
 
  0.9645  0.0004  0.0191  0.0001  0.0003
  0.0004  0.9590 -0.0002  0.0175 -0.0002
  0.0191 -0.0002  0.9522 -0.0003  0.0003
  0.0001  0.0175 -0.0003  0.9594 -0.0002
  0.0003 -0.0002  0.0003 -0.0002  0.9423
 
spin component  2
 
  0.0542  0.0005  0.0294  0.0002  0.0006
  0.0005  0.0446 -0.0001  0.0249 -0.0004
  0.0294 -0.0001  0.0384 -0.0005  0.0005
  0.0002  0.0249 -0.0005  0.0453 -0.0003
  0.0006 -0.0004  0.0005 -0.0003  0.0170
 
 occupancies and eigenvectors
 
  o =  0.0158  v =  0.0000  0.0000  0.0000  0.0000  0.0000 -0.6085 -0.0041  0.7932  0.0210 -0.0097      0.0000  0.0000  0.0000  0.0000  0.0000  0.0000  0.0000  0.0000  0.0000  0.0000
  o =  0.0170  v =  0.0000  0.0000  0.0000  0.0000  0.0000 -0.0162  0.0162  0.0000 -0.0033  0.9997      0.0000  0.0000  0.0000  0.0000  0.0000  0.0000  0.0000  0.0000  0.0000  0.0000
  o =  0.0201  v =  0.0000  0.0000  0.0000  0.0000  0.0000 -0.0156  0.7116  0.0102 -0.7022 -0.0141      0.0000  0.0000  0.0000  0.0000  0.0000  0.0000  0.0000  0.0000  0.0000  0.0000
  o =  0.0699  v =  0.0000  0.0000  0.0000  0.0000  0.0000  0.0073 -0.7022  0.0209 -0.7116  0.0092      0.0000  0.0000  0.0000  0.0000  0.0000  0.0000  0.0000  0.0000  0.0000  0.0000
  o =  0.0768  v =  0.0000  0.0000  0.0000  0.0000  0.0000 -0.7932 -0.0176 -0.6085 -0.0088 -0.0125      0.0000  0.0000  0.0000  0.0000  0.0000  0.0000  0.0000  0.0000  0.0000  0.0000
  o =  0.9383  v = -0.5892  0.0176  0.8077  0.0011 -0.0070  0.0000  0.0000  0.0000  0.0000  0.0000      0.0000  0.0000  0.0000  0.0000  0.0000  0.0000  0.0000  0.0000  0.0000  0.0000
  o =  0.9416  v = -0.0012 -0.7110  0.0134  0.7025 -0.0294  0.0000  0.0000  0.0000  0.0000  0.0000      0.0000  0.0000  0.0000  0.0000  0.0000  0.0000  0.0000  0.0000  0.0000  0.0000
  o =  0.9423  v = -0.0141 -0.0145 -0.0014  0.0271  0.9994  0.0000  0.0000  0.0000  0.0000  0.0000      0.0000  0.0000  0.0000  0.0000  0.0000  0.0000  0.0000  0.0000  0.0000  0.0000
  o =  0.9767  v =  0.0225 -0.7021  0.0327 -0.7109  0.0095  0.0000  0.0000  0.0000  0.0000  0.0000      0.0000  0.0000  0.0000  0.0000  0.0000  0.0000  0.0000  0.0000  0.0000  0.0000
  o =  0.9784  v = -0.8075 -0.0311 -0.5885 -0.0220 -0.0121  0.0000  0.0000  0.0000  0.0000  0.0000      0.0000  0.0000  0.0000  0.0000  0.0000  0.0000  0.0000  0.0000  0.0000  0.0000
atom =   6  type =  1  l = 2
 
 onsite density matrix
 
spin component  1
 
  0.0543  0.0000 -0.0296  0.0000 -0.0005
  0.0000  0.0445  0.0000 -0.0247 -0.0000
 -0.0296  0.0000  0.0385 -0.0000  0.0004
  0.0000 -0.0247 -0.0000  0.0452 -0.0000
 -0.0005 -0.0000  0.0004 -0.0000  0.0171
 
spin component  2
 
  0.9645  0.0000 -0.0193  0.0000 -0.0003
  0.0000  0.9588 -0.0000 -0.0174 -0.0000
 -0.0193 -0.0000  0.9523 -0.0000  0.0002
  0.0000 -0.0174 -0.0000  0.9593 -0.0000
 -0.0003 -0.0000  0.0002 -0.0000  0.9423
 
 occupancies and eigenvectors
 
  o =  0.0157  v = -0.6089  0.0000 -0.7932  0.0000  0.0090  0.0000  0.0000  0.0000  0.0000  0.0000      0.0000  0.0000  0.0000  0.0000  0.0000  0.0000  0.0000  0.0000  0.0000  0.0000
  o =  0.0171  v =  0.0132  0.0000  0.0013  0.0000  0.9999  0.0000  0.0000  0.0000  0.0000  0.0000      0.0000  0.0000  0.0000  0.0000  0.0000  0.0000  0.0000  0.0000  0.0000  0.0000
  o =  0.0201  v =  0.0000  0.7119  0.0000  0.7023 -0.0000  0.0000  0.0000  0.0000  0.0000  0.0000      0.0000  0.0000  0.0000  0.0000  0.0000  0.0000  0.0000  0.0000  0.0000  0.0000
  o =  0.0696  v =  0.0000  0.7023 -0.0000 -0.7119 -0.0000  0.0000  0.0000  0.0000  0.0000  0.0000      0.0000  0.0000  0.0000  0.0000  0.0000  0.0000  0.0000  0.0000  0.0000  0.0000
  o =  0.0771  v = -0.7932  0.0000  0.6089 -0.0000  0.0097  0.0000  0.0000  0.0000  0.0000  0.0000      0.0000  0.0000  0.0000  0.0000  0.0000  0.0000  0.0000  0.0000  0.0000  0.0000
  o =  0.9382  v =  0.0000  0.0000  0.0000  0.0000  0.0000 -0.5914 -0.0000 -0.8064 -0.0000  0.0012      0.0000  0.0000  0.0000  0.0000  0.0000  0.0000  0.0000  0.0000  0.0000  0.0000
  o =  0.9417  v =  0.0000  0.0000  0.0000  0.0000  0.0000 -0.0000  0.7115  0.0000  0.7027  0.0000      0.0000  0.0000  0.0000  0.0000  0.0000  0.0000  0.0000  0.0000  0.0000  0.0000
  o =  0.9423  v =  0.0000  0.0000  0.0000  0.0000  0.0000 -0.0086  0.0000  0.0048  0.0000 -1.0000      0.0000  0.0000  0.0000  0.0000  0.0000  0.0000  0.0000  0.0000  0.0000  0.0000
  o =  0.9764  v =  0.0000  0.0000  0.0000  0.0000  0.0000  0.0000  0.7027 -0.0000 -0.7115 -0.0000      0.0000  0.0000  0.0000  0.0000  0.0000  0.0000  0.0000  0.0000  0.0000  0.0000
  o =  0.9786  v =  0.0000  0.0000  0.0000  0.0000  0.0000 -0.8063  0.0000  0.5914 -0.0000  0.0098      0.0000  0.0000  0.0000  0.0000  0.0000  0.0000  0.0000  0.0000  0.0000  0.0000
atom =   7  type =  1  l = 2
 
 onsite density matrix
 
spin component  1
 
  0.9639  0.0008  0.0197 -0.0002  0.0021
  0.0008  0.9562 -0.0002  0.0175 -0.0013
  0.0197 -0.0002  0.9525 -0.0007  0.0008
 -0.0002  0.0175 -0.0007  0.9616 -0.0008
  0.0021 -0.0013  0.0008 -0.0008  0.9421
 
spin component  2
 
  0.0543  0.0008  0.0299  0.0001  0.0026
  0.0008  0.0415  0.0000  0.0244 -0.0013
  0.0299  0.0000  0.0392 -0.0012  0.0022
  0.0001  0.0244 -0.0012  0.0489 -0.0015
  0.0026 -0.0013  0.0022 -0.0015  0.0175
 
 occupancies and eigenvectors
 
  o =  0.0159  v =  0.0000  0.0000  0.0000  0.0000  0.0000  0.6077  0.0356 -0.7882 -0.0533  0.0733      0.0000  0.0000  0.0000  0.0000  0.0000  0.0000  0.0000  0.0000  0.0000  0.0000
  o =  0.0173  v =  0.0000  0.0000  0.0000  0.0000  0.0000 -0.0899  0.0413  0.0240  0.0160  0.9947      0.0000  0.0000  0.0000  0.0000  0.0000  0.0000  0.0000  0.0000  0.0000  0.0000
  o =  0.0205  v =  0.0000  0.0000  0.0000  0.0000  0.0000 -0.0478  0.7563  0.0389 -0.6508 -0.0262      0.0000  0.0000  0.0000  0.0000  0.0000  0.0000  0.0000  0.0000  0.0000  0.0000
  o =  0.0700  v =  0.0000  0.0000  0.0000  0.0000  0.0000  0.0300  0.6519 -0.0020  0.7568 -0.0365      0.0000  0.0000  0.0000  0.0000  0.0000  0.0000  0.0000  0.0000  0.0000  0.0000
  o =  0.0778  v =  0.0000  0.0000  0.0000  0.0000  0.0000 -0.7870  0.0017 -0.6138  0.0254 -0.0568      0.0000  0.0000  0.0000  0.0000  0.0000  0.0000  0.0000  0.0000  0.0000  0.0000
  o =  0.9376  v = -0.5995  0.0686  0.7827 -0.0280  0.1500  0.0000  0.0000  0.0000  0.0000  0.0000      0.0000  0.0000  0.0000  0.0000  0.0000  0.0000  0.0000  0.0000  0.0000  0.0000
  o =  0.9410  v = -0.0432 -0.6953  0.1262  0.5787 -0.4048  0.0000  0.0000  0.0000  0.0000  0.0000      0.0000  0.0000  0.0000  0.0000  0.0000  0.0000  0.0000  0.0000  0.0000  0.0000
  o =  0.9422  v =  0.0292 -0.2951 -0.1133  0.3013  0.8991  0.0000  0.0000  0.0000  0.0000  0.0000      0.0000  0.0000  0.0000  0.0000  0.0000  0.0000  0.0000  0.0000  0.0000  0.0000
  o =  0.9767  v =  0.0848  0.6502  0.0419  0.7530 -0.0364  0.0000  0.0000  0.0000  0.0000  0.0000      0.0000  0.0000  0.0000  0.0000  0.0000  0.0000  0.0000  0.0000  0.0000  0.0000
  o =  0.9789  v = -0.7942  0.0446 -0.5974  0.0811 -0.0620  0.0000  0.0000  0.0000  0.0000  0.0000      0.0000  0.0000  0.0000  0.0000  0.0000  0.0000  0.0000  0.0000  0.0000  0.0000
atom =   8  type =  1  l = 2
 
 onsite density matrix
 
spin component  1
 
  0.0550  0.0009 -0.0299 -0.0003 -0.0006
  0.0009  0.0454  0.0014 -0.0248 -0.0001
 -0.0299  0.0014  0.0392 -0.0016  0.0005
 -0.0003 -0.0248 -0.0016  0.0452 -0.0001
 -0.0006 -0.0001  0.0005 -0.0001  0.0173
 
spin component  2
 
  0.9636 -0.0010 -0.0193  0.0007 -0.0006
 -0.0010  0.9569  0.0010 -0.0159 -0.0005
 -0.0193  0.0010  0.9527 -0.0012  0.0004
  0.0007 -0.0159 -0.0012  0.9583  0.0002
 -0.0006 -0.0005  0.0004  0.0002  0.9424
 
 occupancies and eigenvectors
 
  o =  0.0161  v = -0.6077  0.0517 -0.7905 -0.0057  0.0556  0.0000  0.0000  0.0000  0.0000  0.0000      0.0000  0.0000  0.0000  0.0000  0.0000  0.0000  0.0000  0.0000  0.0000  0.0000
  o =  0.0173  v = -0.0444 -0.0246 -0.0375 -0.0269 -0.9976  0.0000  0.0000  0.0000  0.0000  0.0000      0.0000  0.0000  0.0000  0.0000  0.0000  0.0000  0.0000  0.0000  0.0000  0.0000
  o =  0.0205  v =  0.0125  0.7036  0.0287  0.7088 -0.0381  0.0000  0.0000  0.0000  0.0000  0.0000      0.0000  0.0000  0.0000  0.0000  0.0000  0.0000  0.0000  0.0000  0.0000  0.0000
  o =  0.0702  v =  0.0924  0.7061 -0.0199 -0.7018 -0.0018  0.0000  0.0000  0.0000  0.0000  0.0000      0.0000  0.0000  0.0000  0.0000  0.0000  0.0000  0.0000  0.0000  0.0000  0.0000
  o =  0.0781  v = -0.7875  0.0555  0.6103 -0.0652  0.0125  0.0000  0.0000  0.0000  0.0000  0.0000      0.0000  0.0000  0.0000  0.0000  0.0000  0.0000  0.0000  0.0000  0.0000  0.0000
  o =  0.9380  v =  0.0000  0.0000  0.0000  0.0000  0.0000 -0.6018 -0.0364 -0.7960 -0.0530 -0.0003      0.0000  0.0000  0.0000  0.0000  0.0000  0.0000  0.0000  0.0000  0.0000  0.0000
  o =  0.9416  v =  0.0000  0.0000  0.0000  0.0000  0.0000  0.0296 -0.6968  0.0534 -0.6596 -0.2750      0.0000  0.0000  0.0000  0.0000  0.0000  0.0000  0.0000  0.0000  0.0000  0.0000
  o =  0.9424  v =  0.0000  0.0000  0.0000  0.0000  0.0000 -0.0253  0.1870 -0.0026  0.2017 -0.9611      0.0000  0.0000  0.0000  0.0000  0.0000  0.0000  0.0000  0.0000  0.0000  0.0000
  o =  0.9729  v =  0.0000  0.0000  0.0000  0.0000  0.0000  0.2716  0.6516 -0.1897 -0.6820 -0.0230      0.0000  0.0000  0.0000  0.0000  0.0000  0.0000  0.0000  0.0000  0.0000  0.0000
  o =  0.9789  v =  0.0000  0.0000  0.0000  0.0000  0.0000 -0.7500  0.2313  0.5723 -0.2373  0.0134      0.0000  0.0000  0.0000  0.0000  0.0000  0.0000  0.0000  0.0000  0.0000  0.0000
atom =   9  type =  1  l = 2
 
 onsite density matrix
 
spin component  1
 
  0.9642  0.0000  0.0193  0.0000  0.0005
  0.0000  0.9580 -0.0000  0.0174  0.0000
  0.0193 -0.0000  0.9524 -0.0000  0.0002
  0.0000  0.0174 -0.0000  0.9602  0.0000
  0.0005  0.0000  0.0002  0.0000  0.9423
 
spin component  2
 
  0.0538  0.0000  0.0295 -0.0000  0.0007
  0.0000  0.0432 -0.0000  0.0247  0.0000
  0.0295 -0.0000  0.0386 -0.0000  0.0005
 -0.0000  0.0247 -0.0000  0.0463  0.0000
  0.0007  0.0000  0.0005  0.0000  0.0169
 
 occupancies and eigenvectors
 
  o =  0.0157  v =  0.0000  0.0000  0.0000  0.0000  0.0000  0.6123 -0.0000 -0.7906  0.0000  0.0030      0.0000  0.0000  0.0000  0.0000  0.0000  0.0000  0.0000  0.0000  0.0000  0.0000
  o =  0.0169  v =  0.0000  0.0000  0.0000  0.0000  0.0000 -0.0128 -0.0000 -0.0062  0.0000  0.9999      0.0000  0.0000  0.0000  0.0000  0.0000  0.0000  0.0000  0.0000  0.0000  0.0000
  o =  0.0200  v =  0.0000  0.0000  0.0000  0.0000  0.0000 -0.0000 -0.7289  0.0000  0.6847 -0.0000      0.0000  0.0000  0.0000  0.0000  0.0000  0.0000  0.0000  0.0000  0.0000  0.0000
  o =  0.0695  v =  0.0000  0.0000  0.0000  0.0000  0.0000  0.0000  0.6847  0.0000  0.7289  0.0000      0.0000  0.0000  0.0000  0.0000  0.0000  0.0000  0.0000  0.0000  0.0000  0.0000
  o =  0.0767  v =  0.0000  0.0000  0.0000  0.0000  0.0000 -0.7905  0.0000 -0.6122  0.0000 -0.0139      0.0000  0.0000  0.0000  0.0000  0.0000  0.0000  0.0000  0.0000  0.0000  0.0000
  o =  0.9381  v = -0.5949  0.0000  0.8032  0.0000  0.0307  0.0000  0.0000  0.0000  0.0000  0.0000      0.0000  0.0000  0.0000  0.0000  0.0000  0.0000  0.0000  0.0000  0.0000  0.0000
  o =  0.9417  v =  0.0000 -0.7287 -0.0000  0.6848  0.0001  0.0000  0.0000  0.0000  0.0000  0.0000      0.0000  0.0000  0.0000  0.0000  0.0000  0.0000  0.0000  0.0000  0.0000  0.0000
  o =  0.9423  v =  0.0063  0.0001 -0.0335 -0.0001  0.9994  0.0000  0.0000  0.0000  0.0000  0.0000      0.0000  0.0000  0.0000  0.0000  0.0000  0.0000  0.0000  0.0000  0.0000  0.0000
  o =  0.9765  v =  0.0001  0.6848  0.0000  0.7287  0.0000  0.0000  0.0000  0.0000  0.0000  0.0000      0.0000  0.0000  0.0000  0.0000  0.0000  0.0000  0.0000  0.0000  0.0000  0.0000
  o =  0.9785  v = -0.8038  0.0000 -0.5947  0.0001 -0.0149  0.0000  0.0000  0.0000  0.0000  0.0000      0.0000  0.0000  0.0000  0.0000  0.0000  0.0000  0.0000  0.0000  0.0000  0.0000
atom =  10  type =  1  l = 2
 
 onsite density matrix
 
spin component  1
 
  0.0539 -0.0000 -0.0299  0.0000 -0.0014
 -0.0000  0.0422 -0.0000 -0.0242  0.0000
 -0.0299 -0.0000  0.0389  0.0000  0.0012
  0.0000 -0.0242  0.0000  0.0467 -0.0000
 -0.0014  0.0000  0.0012 -0.0000  0.0171
 
spin component  2
 
  0.9639  0.0000 -0.0196  0.0000 -0.0010
  0.0000  0.9575 -0.0000 -0.0171  0.0000
 -0.0196 -0.0000  0.9527  0.0000  0.0007
  0.0000 -0.0171  0.0000  0.9605 -0.0000
 -0.0010  0.0000  0.0007 -0.0000  0.9424
 
 occupancies and eigenvectors
 
[...]
    1        0.169   6.154   4.958  11.281
    2        0.173   6.156   4.921  11.250
    3        0.167   6.152   4.958  11.277
    4        0.169   6.154   4.957  11.279
    5        0.167   6.152   4.958  11.277
    6        0.167   6.152   4.958  11.277
    7        0.169   6.154   4.958  11.281
    8        0.169   6.154   4.957  11.279
    9        0.167   6.152   4.957  11.275
   10        0.167   6.152   4.957  11.275
   11        0.168   6.153   4.959  11.280
   12        0.168   6.154   4.959  11.281
   13        0.168   6.153   4.959  11.280
   14        0.168   6.153   4.959  11.280
   15        0.167   6.152   4.957  11.275
   16        0.168   6.154   4.959  11.281
   17        0.169   6.154   4.958  11.281
   18        0.168   6.153   4.958  11.278
   19        0.167   6.152   4.958  11.277
   20        0.168   6.153   4.958  11.279
   21        0.167   6.152   4.958  11.277
   22        0.167   6.152   4.958  11.277
   23        0.169   6.154   4.958  11.281
   24        0.168   6.153   4.958  11.279
   25        0.166   6.151   4.955  11.272
   26        0.173   6.155   4.922  11.250
   27        0.167   6.152   4.957  11.277
   28        0.169   6.154   4.957  11.279
   29        0.167   6.152   4.957  11.277
   30        0.167   6.152   4.958  11.277
   31        0.166   6.151   4.955  11.272
   32        0.169   6.154   4.957  11.279
   33        0.167   6.152   4.958  11.277
   34        0.168   6.153   4.958  11.278
   35        0.167   6.152   4.958  11.278
   36        0.168   6.153   4.958  11.279
   37        0.167   6.152   4.958  11.278
   38        0.167   6.152   4.958  11.277
   39        0.167   6.152   4.958  11.277
   40        0.168   6.153   4.958  11.279
   41        0.166   6.150   4.954  11.270
   42        0.167   6.152   4.957  11.275
   43        0.167   6.152   4.957  11.277
   44        0.168   6.154   4.959  11.281
   45        0.167   6.152   4.957  11.277
   46        0.168   6.153   4.959  11.280
   47        0.166   6.150   4.954  11.270
   48        0.168   6.154   4.959  11.281
   49        0.166   6.150   4.954  11.270
   50        0.168   6.153   4.959  11.279
   51        0.167   6.152   4.957  11.277
   52        0.167   6.151   4.956  11.275
   53        0.167   6.152   4.957  11.277
   54        0.167   6.152   4.957  11.277
   55        0.166   6.150   4.954  11.270
   56        0.167   6.151   4.956  11.275
   57        0.167   6.152   4.958  11.277
   58        0.166   6.150   4.955  11.271
   59        0.167   6.152   4.958  11.278
   60        0.167   6.152   4.956  11.275
   61        0.167   6.152   4.958  11.278
   62        0.167   6.152   4.957  11.277
   63        0.167   6.152   4.958  11.277
   64        0.167   6.152   4.956  11.275
   65        0.166   6.151   4.955  11.272
   66        0.166   6.150   4.955  11.271
   67        0.167   6.152   4.957  11.277
   68        0.167   6.152   4.956  11.275
   69        0.167   6.152   4.957  11.277
   70        0.167   6.152   4.957  11.277
   71        0.166   6.151   4.955  11.272
   72        0.167   6.152   4.956  11.275
   73        1.727   4.365   0.000   6.092
   74        1.728   4.357   0.000   6.085
   75        1.730   4.351   0.000   6.081
   76        1.727   4.362   0.000   6.089
   77        1.726   4.361   0.000   6.088
   78        1.726   4.361   0.000   6.088
   79        1.726   4.361   0.000   6.088
   80        1.727   4.363   0.000   6.090
   81        1.726   4.361   0.000   6.088
   82        1.726   4.361   0.000   6.088
   83        1.726   4.362   0.000   6.088
   84        1.726   4.361   0.000   6.088
   85        1.727   4.365   0.000   6.092
   86        1.728   4.357   0.000   6.085
   87        1.726   4.361   0.000   6.088
   88        1.727   4.363   0.000   6.090
   89        1.726   4.361   0.000   6.088
   90        1.726   4.361   0.000   6.088
   91        1.726   4.362   0.000   6.089
   92        1.726   4.362   0.000   6.089
   93        1.726   4.362   0.000   6.088
   94        1.726   4.362   0.000   6.088
   95        1.726   4.362   0.000   6.089
   96        1.726   4.362   0.000   6.089
   97        1.726   4.362   0.000   6.088
   98        1.726   4.362   0.000   6.088
   99        1.726   4.362   0.000   6.088
  100        1.726   4.362   0.000   6.088
  101        1.726   4.361   0.000   6.088
  102        1.726   4.361   0.000   6.088
  103        1.726   4.362   0.000   6.089
  104        1.726   4.362   0.000   6.089
  105        1.728   4.357   0.000   6.085
  106        1.727   4.365   0.000   6.092
  107        1.727   4.362   0.000   6.089
  108        1.730   4.351   0.000   6.081
  109        1.726   4.361   0.000   6.088
  110        1.726   4.361   0.000   6.088
  111        1.727   4.363   0.000   6.090
  112        1.726   4.361   0.000   6.088
  113        1.726   4.361   0.000   6.088
  114        1.726   4.361   0.000   6.088
  115        1.726   4.361   0.000   6.088
  116        1.726   4.362   0.000   6.088
  117        1.728   4.357   0.000   6.085
  118        1.727   4.365   0.000   6.092
  119        1.727   4.363   0.000   6.090
  120        1.726   4.361   0.000   6.088
  121        1.726   4.362   0.000   6.088
  122        1.726   4.362   0.000   6.088
  123        1.726   4.353   0.000   6.079
  124        1.726   4.360   0.000   6.086
  125        1.726   4.362   0.000   6.088
  126        1.726   4.362   0.000   6.088
  127        1.726   4.363   0.000   6.089
  128        1.726   4.360   0.000   6.087
  129        1.726   4.362   0.000   6.088
  130        1.726   4.362   0.000   6.088
  131        1.726   4.361   0.000   6.087
  132        1.726   4.362   0.000   6.089
  133        1.726   4.362   0.000   6.088
  134        1.726   4.362   0.000   6.088
  135        1.726   4.363   0.000   6.089
  136        1.726   4.360   0.000   6.087
  137        1.726   4.362   0.000   6.089
  138        1.726   4.362   0.000   6.088
  139        1.726   4.362   0.000   6.088
  140        1.726   4.361   0.000   6.088
  141        1.726   4.363   0.000   6.089
  142        1.726   4.362   0.000   6.088
  143        1.726   4.362   0.000   6.088
  144        1.726   4.361   0.000   6.087
  145        1.726   4.363   0.000   6.089
  146        1.726   4.362   0.000   6.088
  147        1.726   4.361   0.000   6.088
  148        1.726   4.362   0.000   6.088
  149        1.726   4.362   0.000   6.089
  150        1.726   4.362   0.000   6.088
  151        1.726   4.362   0.000   6.088
  152        1.726   4.361   0.000   6.087
  153        1.726   4.357   0.000   6.083
  154        1.726   4.360   0.000   6.086
  155        1.726   4.363   0.000   6.089
  156        1.726   4.362   0.000   6.089
  157        1.726   4.363   0.000   6.089
  158        1.726   4.362   0.000   6.088
  159        1.726   4.361   0.000   6.087
  160        1.726   4.361   0.000   6.087
  161        1.726   4.363   0.000   6.089
  162        1.726   4.362   0.000   6.088
  163        1.726   4.362   0.000   6.088
  164        1.726   4.362   0.000   6.088
  165        1.726   4.357   0.000   6.083
  166        1.726   4.360   0.000   6.086
  167        1.726   4.361   0.000   6.087
  168        1.726   4.361   0.000   6.087
  169        1.726   4.360   0.000   6.086
  170        1.726   4.357   0.000   6.083
  171        1.726   4.362   0.000   6.089
  172        1.726   4.363   0.000   6.089
  173        1.726   4.362   0.000   6.088
  174        1.726   4.363   0.000   6.089
  175        1.726   4.361   0.000   6.087
  176        1.726   4.361   0.000   6.087
  177        1.726   4.362   0.000   6.088
  178        1.726   4.363   0.000   6.089
  179        1.726   4.362   0.000   6.088
  180        1.726   4.362   0.000   6.088
  181        1.726   4.360   0.000   6.086
  182        1.726   4.357   0.000   6.083
  183        1.726   4.361   0.000   6.087
  184        1.726   4.361   0.000   6.087
  185        1.726   4.362   0.000   6.088
  186        1.726   4.362   0.000   6.089
  187        1.726   4.361   0.000   6.088
  188        1.726   4.362   0.000   6.088
  189        1.726   4.362   0.000   6.088
  190        1.726   4.363   0.000   6.089
  191        1.726   4.361   0.000   6.087
  192        1.726   4.362   0.000   6.088
  193        1.726   4.362   0.000   6.088
  194        1.726   4.363   0.000   6.089
  195        1.726   4.362   0.000   6.088
  196        1.726   4.361   0.000   6.088
  197        1.726   4.362   0.000   6.088
  198        1.726   4.362   0.000   6.089
  199        1.726   4.361   0.000   6.087
  200        1.726   4.362   0.000   6.088
  201        1.726   4.362   0.000   6.088
  202        1.726   4.362   0.000   6.088
  203        1.726   4.360   0.000   6.086
  204        1.726   4.353   0.000   6.079
  205        1.726   4.362   0.000   6.088
  206        1.726   4.362   0.000   6.088
  207        1.726   4.360   0.000   6.087
  208        1.726   4.363   0.000   6.089
  209        1.726   4.362   0.000   6.088
  210        1.726   4.362   0.000   6.088
  211        1.726   4.362   0.000   6.089
  212        1.726   4.361   0.000   6.087
  213        1.726   4.362   0.000   6.088
  214        1.726   4.362   0.000   6.088
  215        1.726   4.360   0.000   6.087
  216        1.726   4.363   0.000   6.089
  217        0.415   0.004   0.000   0.420
--------------------------------------------------
tot        261.0951070.991 356.8461688.933
 


 magnetization (x)
 
# of ion       s       p       d       tot
------------------------------------------
    1        0.018   0.018   4.566   4.602
    2       -0.017  -0.017  -4.481  -4.514
    3        0.018   0.018   4.569   4.604
    4       -0.018  -0.018  -4.563  -4.598
    5        0.018   0.018   4.569   4.604
    6       -0.018  -0.018  -4.568  -4.604
    7        0.018   0.018   4.566   4.602
    8       -0.018  -0.018  -4.563  -4.598
    9        0.018   0.018   4.569   4.605
   10       -0.018  -0.018  -4.569  -4.605
   11        0.018   0.018   4.568   4.603
   12       -0.018  -0.018  -4.568  -4.603
   13        0.018   0.018   4.568   4.603
   14       -0.018  -0.018  -4.568  -4.603
   15        0.018   0.018   4.569   4.605
   16       -0.018  -0.018  -4.568  -4.603
   17        0.018   0.018   4.566   4.602
   18       -0.018  -0.018  -4.568  -4.604
   19        0.018   0.018   4.569   4.604
   20       -0.018  -0.018  -4.568  -4.603
   21        0.018   0.018   4.569   4.604
   22       -0.018  -0.018  -4.569  -4.604
   23        0.018   0.018   4.566   4.602
   24       -0.018  -0.018  -4.568  -4.603
   25        0.018   0.018   4.570   4.605
   26       -0.017  -0.017  -4.482  -4.515
   27        0.018   0.018   4.569   4.604
   28       -0.018  -0.018  -4.563  -4.598
   29        0.018   0.018   4.569   4.604
   30       -0.018  -0.018  -4.568  -4.604
   31        0.018   0.018   4.570   4.605
   32       -0.018  -0.018  -4.563  -4.598
   33        0.018   0.018   4.569   4.604
   34       -0.018  -0.018  -4.568  -4.604
   35        0.018   0.018   4.568   4.604
   36       -0.018  -0.018  -4.568  -4.603
   37        0.018   0.018   4.568   4.604
   38       -0.018  -0.018  -4.569  -4.604
   39        0.018   0.018   4.569   4.604
   40       -0.018  -0.018  -4.568  -4.603
   41        0.018   0.018   4.571   4.606
   42       -0.018  -0.018  -4.569  -4.605
   43        0.018   0.018   4.569   4.604
   44       -0.018  -0.018  -4.568  -4.603
   45        0.018   0.018   4.569   4.604
   46       -0.018  -0.018  -4.568  -4.603
   47        0.018   0.018   4.571   4.606
   48       -0.018  -0.018  -4.568  -4.603
   49        0.018   0.018   4.571   4.606
   50       -0.018  -0.018  -4.568  -4.603
   51        0.018   0.018   4.569   4.604
   52       -0.018  -0.018  -4.569  -4.605
   53        0.018   0.018   4.569   4.604
   54       -0.018  -0.018  -4.569  -4.604
   55        0.018   0.018   4.571   4.606
   56       -0.018  -0.018  -4.569  -4.605
   57        0.018   0.018   4.569   4.604
   58       -0.017  -0.018  -4.570  -4.605
   59        0.018   0.018   4.568   4.604
   60       -0.018  -0.018  -4.569  -4.604
   61        0.018   0.018   4.568   4.604
   62       -0.018  -0.018  -4.569  -4.604
   63        0.018   0.018   4.569   4.604
   64       -0.018  -0.018  -4.569  -4.604
   65        0.018   0.018   4.570   4.605
   66       -0.017  -0.018  -4.570  -4.605
   67        0.018   0.018   4.569   4.604
   68       -0.018  -0.018  -4.569  -4.604
   69        0.018   0.018   4.569   4.604
   70       -0.018  -0.018  -4.569  -4.604
   71        0.018   0.018   4.570   4.605
   72       -0.018  -0.018  -4.569  -4.604
   73       -0.002  -0.017   0.000  -0.019
   74       -0.001  -0.004   0.000  -0.005
   75        0.004   0.055   0.000   0.059
   76        0.002   0.021   0.000   0.023
   77       -0.002  -0.020   0.000  -0.022
   78       -0.002  -0.020   0.000  -0.022
   79        0.002   0.020   0.000   0.022
   80        0.002   0.021   0.000   0.024
   81       -0.002  -0.020   0.000  -0.022
   82       -0.002  -0.020   0.000  -0.022
   83        0.002   0.020   0.000   0.022
   84        0.002   0.020   0.000   0.023
   85       -0.002  -0.017   0.000  -0.019
   86       -0.001  -0.004   0.000  -0.005
   87        0.002   0.020   0.000   0.022
   88        0.002   0.021   0.000   0.024
   89       -0.002  -0.020   0.000  -0.022
   90       -0.002  -0.020   0.000  -0.022
   91        0.002   0.020   0.000   0.022
   92        0.002   0.020   0.000   0.022
   93       -0.002  -0.020   0.000  -0.022
   94       -0.002  -0.020   0.000  -0.022
   95        0.002   0.020   0.000   0.022
   96        0.002   0.020   0.000   0.022
   97       -0.002  -0.020   0.000  -0.022
   98       -0.002  -0.020   0.000  -0.022
   99        0.002   0.020   0.000   0.022
  100        0.002   0.020   0.000   0.022
  101       -0.002  -0.020   0.000  -0.022
  102       -0.002  -0.020   0.000  -0.022
  103        0.002   0.020   0.000   0.022
  104        0.002   0.020   0.000   0.022
  105       -0.001  -0.004   0.000  -0.005
  106       -0.002  -0.017   0.000  -0.019
  107        0.002   0.021   0.000   0.023
  108        0.004   0.055   0.000   0.059
  109       -0.002  -0.020   0.000  -0.022
  110       -0.002  -0.020   0.000  -0.022
  111        0.002   0.021   0.000   0.024
  112        0.002   0.020   0.000   0.022
  113       -0.002  -0.020   0.000  -0.022
  114       -0.002  -0.020   0.000  -0.022
  115        0.002   0.020   0.000   0.023
  116        0.002   0.020   0.000   0.022
  117       -0.001  -0.004   0.000  -0.005
  118       -0.002  -0.017   0.000  -0.019
  119        0.002   0.021   0.000   0.024
  120        0.002   0.020   0.000   0.022
  121       -0.002  -0.020   0.000  -0.022
  122       -0.002  -0.020   0.000  -0.022
  123        0.002   0.023   0.000   0.025
  124        0.002   0.021   0.000   0.023
  125       -0.002  -0.020   0.000  -0.022
  126       -0.002  -0.020   0.000  -0.022
  127        0.002   0.019   0.000   0.021
  128        0.002   0.019   0.000   0.021
  129       -0.002  -0.020   0.000  -0.022
  130       -0.002  -0.020   0.000  -0.022
  131        0.002   0.019   0.000   0.021
  132        0.002   0.019   0.000   0.021
  133       -0.002  -0.020   0.000  -0.022
  134       -0.002  -0.020   0.000  -0.022
  135        0.002   0.019   0.000   0.021
  136        0.002   0.019   0.000   0.021
  137       -0.002  -0.020   0.000  -0.022
  138       -0.002  -0.019   0.000  -0.022
  139        0.002   0.019   0.000   0.021
  140        0.002   0.021   0.000   0.023
  141       -0.002  -0.020   0.000  -0.022
  142       -0.002  -0.019   0.000  -0.021
  143        0.002   0.019   0.000   0.021
  144        0.002   0.020   0.000   0.022
  145       -0.002  -0.020   0.000  -0.022
  146       -0.002  -0.019   0.000  -0.021
  147        0.002   0.020   0.000   0.022
  148        0.002   0.019   0.000   0.022
  149       -0.002  -0.020   0.000  -0.022
  150       -0.002  -0.019   0.000  -0.022
  151        0.002   0.019   0.000   0.021
  152        0.002   0.020   0.000   0.022
  153       -0.002  -0.019   0.000  -0.021
  154       -0.002  -0.021   0.000  -0.023
  155        0.002   0.020   0.000   0.022
  156        0.002   0.020   0.000   0.022
  157       -0.002  -0.020   0.000  -0.022
  158       -0.002  -0.019   0.000  -0.021
  159        0.002   0.019   0.000   0.022
  160        0.002   0.019   0.000   0.022
  161       -0.002  -0.020   0.000  -0.022
  162       -0.002  -0.019   0.000  -0.021
  163        0.002   0.020   0.000   0.022
  164        0.002   0.019   0.000   0.022
  165       -0.002  -0.019   0.000  -0.021
  166       -0.002  -0.021   0.000  -0.023
  167        0.002   0.019   0.000   0.022
  168        0.002   0.019   0.000   0.022
  169       -0.002  -0.021   0.000  -0.023
  170       -0.002  -0.019   0.000  -0.021
  171        0.002   0.020   0.000   0.022
  172        0.002   0.020   0.000   0.022
  173       -0.002  -0.019   0.000  -0.021
  174       -0.002  -0.020   0.000  -0.022
  175        0.002   0.019   0.000   0.022
  176        0.002   0.019   0.000   0.022
  177       -0.002  -0.019   0.000  -0.021
  178       -0.002  -0.020   0.000  -0.022
  179        0.002   0.019   0.000   0.022
  180        0.002   0.020   0.000   0.022
  181       -0.002  -0.021   0.000  -0.023
  182       -0.002  -0.019   0.000  -0.021
  183        0.002   0.019   0.000   0.022
  184        0.002   0.019   0.000   0.022
  185       -0.002  -0.019   0.000  -0.022
  186       -0.002  -0.020   0.000  -0.022
  187        0.002   0.021   0.000   0.023
  188        0.002   0.019   0.000   0.021
  189       -0.002  -0.019   0.000  -0.021
  190       -0.002  -0.020   0.000  -0.022
  191        0.002   0.020   0.000   0.022
  192        0.002   0.019   0.000   0.021
  193       -0.002  -0.019   0.000  -0.021
  194       -0.002  -0.020   0.000  -0.022
  195        0.002   0.019   0.000   0.022
  196        0.002   0.020   0.000   0.022
  197       -0.002  -0.019   0.000  -0.022
  198       -0.002  -0.020   0.000  -0.022
  199        0.002   0.020   0.000   0.022
  200        0.002   0.019   0.000   0.021
  201       -0.002  -0.020   0.000  -0.022
  202       -0.002  -0.020   0.000  -0.022
  203        0.002   0.021   0.000   0.023
  204        0.002   0.023   0.000   0.025
  205       -0.002  -0.020   0.000  -0.022
  206       -0.002  -0.020   0.000  -0.022
  207        0.002   0.019   0.000   0.021
  208        0.002   0.019   0.000   0.021
  209       -0.002  -0.020   0.000  -0.022
  210       -0.002  -0.020   0.000  -0.022
  211        0.002   0.019   0.000   0.021
  212        0.002   0.019   0.000   0.021
  213       -0.002  -0.020   0.000  -0.022
  214       -0.002  -0.020   0.000  -0.022
  215        0.002   0.019   0.000   0.021
  216        0.002   0.019   0.000   0.021
  217        0.268  -0.001   0.000   0.268
--------------------------------------------------
tot          0.281   0.155   0.200   0.636
 

 total amount of memory used by VASP MPI-rank0   697375. kBytes
=======================================================================

   base      :      30000. kBytes
   nonl-proj :     102460. kBytes
   fftplans  :      32099. kBytes
   grid      :      29521. kBytes
   one-center:       1150. kBytes
   wavefun   :     502145. kBytes
 
  
  
 General timing and accounting informations for this job:
 ========================================================
  
                  Total CPU time used (sec):     5277.597
                            User time (sec):     5241.979
                          System time (sec):       35.618
                         Elapsed time (sec):     5291.341
  
                   Maximum memory used (kb):      921416.
                   Average memory used (kb):           0.
  
                          Minor page faults:       315119
                          Major page faults:           13
                 Voluntary context switches:         1058
