       N       E                     dE             d eps       ncg     rms          rms(c)
DAV:   1     0.785386706039E+03    0.78539E+03   -0.42320E+04  1296   0.252E+03
DAV:   2     0.204932180859E+02   -0.76489E+03   -0.74053E+03  1488   0.597E+02
DAV:   3    -0.391619782806E+02   -0.59655E+02   -0.59350E+02  1572   0.173E+02
DAV:   4    -0.401167133361E+02   -0.95474E+00   -0.95447E+00  1416   0.231E+01
DAV:   5    -0.401313401929E+02   -0.14627E-01   -0.14627E-01  1572   0.286E+00    0.224E+01
DAV:   6    -0.382323310057E+02    0.18990E+01   -0.15613E+01  1608   0.316E+01    0.142E+01
DAV:   7    -0.389513348396E+02   -0.71900E+00   -0.18299E+00  1548   0.108E+01    0.112E+01
DAV:   8    -0.390124552456E+02   -0.61120E-01   -0.41432E-01  1488   0.550E+00    0.522E+00
DAV:   9    -0.391696152735E+02   -0.15716E+00   -0.48815E-02  1332   0.219E+00    0.126E+00
DAV:  10    -0.391705635965E+02   -0.94832E-03   -0.19702E-02  1608   0.124E+00    0.282E-01
DAV:  11    -0.391707960407E+02   -0.23244E-03   -0.28363E-03  1368   0.357E-01    0.139E-01
DAV:  12    -0.391709459172E+02   -0.14988E-03   -0.10649E-04  1620   0.124E-01    0.550E-02
DAV:  13    -0.391710020569E+02   -0.56140E-04   -0.93857E-05  1368   0.564E-02    0.213E-02
DAV:  14    -0.391710104576E+02   -0.84007E-05   -0.83448E-06  1536   0.218E-02    0.927E-03
DAV:  15    -0.391710102464E+02    0.21117E-06   -0.15559E-06  1416   0.755E-03    0.273E-03
DAV:  16    -0.391710105201E+02   -0.27368E-06   -0.24539E-07  1452   0.295E-03    0.182E-03
DAV:  17    -0.391710104801E+02    0.40045E-07   -0.17175E-08   924   0.106E-03
   1 F= -.39171010E+02 E0= -.39171010E+02  d E =-.391710E+02  mag=    -0.0000
