       N       E                     dE             d eps       ncg     rms          rms(c)
DAV:   1     0.675825525413E+03    0.67583E+03   -0.34180E+04  7200   0.187E+03
DAV:   2     0.950471903741E+01   -0.66632E+03   -0.64569E+03  8268   0.508E+02
DAV:   3    -0.394058928786E+02   -0.48911E+02   -0.48623E+02  8532   0.151E+02
DAV:   4    -0.400983331368E+02   -0.69244E+00   -0.69226E+00  8124   0.194E+01
DAV:   5    -0.401090998297E+02   -0.10767E-01   -0.10766E-01  8616   0.238E+00    0.225E+01
DAV:   6    -0.382161537566E+02    0.18929E+01   -0.15660E+01  8940   0.317E+01    0.143E+01
DAV:   7    -0.389381994558E+02   -0.72205E+00   -0.18483E+00  8628   0.108E+01    0.113E+01
DAV:   8    -0.390018830516E+02   -0.63684E-01   -0.41907E-01  8496   0.548E+00    0.523E+00
DAV:   9    -0.391605091471E+02   -0.15863E+00   -0.48020E-02  7536   0.216E+00    0.127E+00
DAV:  10    -0.391617129209E+02   -0.12038E-02   -0.20210E-02  8748   0.125E+00    0.285E-01
DAV:  11    -0.391619611928E+02   -0.24827E-03   -0.28828E-03  7656   0.358E-01    0.136E-01
DAV:  12    -0.391621137318E+02   -0.15254E-03   -0.10568E-04  8484   0.123E-01    0.544E-02
DAV:  13    -0.391621681870E+02   -0.54455E-04   -0.90230E-05  7548   0.547E-02    0.213E-02
DAV:  14    -0.391621775750E+02   -0.93880E-05   -0.84321E-06  8556   0.213E-02    0.903E-03
DAV:  15    -0.391621773824E+02    0.19254E-06   -0.14389E-06  7944   0.731E-03    0.265E-03
DAV:  16    -0.391621776457E+02   -0.26325E-06   -0.21878E-07  7644   0.273E-03    0.180E-03
DAV:  17    -0.391621776069E+02    0.38817E-07   -0.17731E-08  5376   0.104E-03
   1 F= -.39162178E+02 E0= -.39162178E+02  d E =-.391622E+02  mag=     0.0000
