 vasp.5.4.4.18Apr17-6-g9f103f2a35 (build Apr 27 2017 11:13:10) complex          
  
 executed on           IFC91_ompi date 2020.05.13  11:29:05
 running on   12 total cores
 distrk:  each k-point on   12 cores,    1 groups
 distr:  one band on NCORES_PER_BAND=   1 cores,   12 groups


--------------------------------------------------------------------------------------------------------


 INCAR:
 POTCAR:    PAW_PBE Mn_pv 02Aug2007               
 POTCAR:    PAW_PBE F 08Apr2002                   

 ----------------------------------------------------------------------------- 
|                                                                             |
|           W    W    AA    RRRRR   N    N  II  N    N   GGGG   !!!           |
|           W    W   A  A   R    R  NN   N  II  NN   N  G    G  !!!           |
|           W    W  A    A  R    R  N N  N  II  N N  N  G       !!!           |
|           W WW W  AAAAAA  RRRRR   N  N N  II  N  N N  G  GGG   !            |
|           WW  WW  A    A  R   R   N   NN  II  N   NN  G    G                |
|           W    W  A    A  R    R  N    N  II  N    N   GGGG   !!!           |
|                                                                             |
|      For optimal performance we recommend to set                            |
|        NCORE= 4 - approx SQRT( number of cores)                             |
|      NCORE specifies how many cores store one orbital (NPAR=cpu/NCORE).     |
|      This setting can  greatly improve the performance of VASP for DFT.     |
|      The default,   NCORE=1            might be grossly inefficient         |
|      on modern multi-core architectures or massively parallel machines.     |
|      Do your own testing !!!!                                               |
|      Unfortunately you need to use the default for GW and RPA calculations. |
|      (for HF NCORE is supported but not extensively tested yet)             |
|                                                                             |
 ----------------------------------------------------------------------------- 

 POTCAR:    PAW_PBE Mn_pv 02Aug2007               
   VRHFIN =Mn: 3p4s3d                                                           
   LEXCH  = PE                                                                  
   EATOM  =  2025.2664 eV,  148.8529 Ry                                         
                                                                                
   TITEL  = PAW_PBE Mn_pv 02Aug2007                                             
   LULTRA =        F    use ultrasoft PP ?                                      
   IUNSCR =        1    unscreen: 0-lin 1-nonlin 2-no                           
   RPACOR =    2.080    partial core radius                                     
   POMASS =   54.938; ZVAL   =   13.000    mass and valenz                      
   RCORE  =    2.300    outmost cutoff radius                                   
   RWIGS  =    2.500; RWIGS  =    1.323    wigner-seitz radius (au A)           
   ENMAX  =  269.864; ENMIN  =  202.398 eV                                      
   ICORE  =        3    local potential                                         
   LCOR   =        T    correct aug charges                                     
   LPAW   =        T    paw PP                                                  
   EAUG   =  569.085                                                            
   DEXC   =    0.000                                                            
   RMAX   =    2.343    core radius for proj-oper                               
   RAUG   =    1.300    factor for augmentation sphere                          
   RDEP   =    2.338    radius for radial grids                                 
   RDEPT  =    1.798    core radius for aug-charge                              
                                                                                
   Atomic configuration                                                         
    8 entries                                                                   
     n  l   j            E        occ.                                          
     1  0  0.50     -6424.8287   2.0000                                         
     2  0  0.50      -739.1154   2.0000                                         
     2  1  1.50      -625.3949   6.0000                                         
     3  0  0.50       -81.6100   2.0000                                         
     3  1  1.50       -50.4667   6.0000                                         
     3  2  2.50        -3.3745   6.0000                                         
     4  0  0.50        -4.1331   1.0000                                         
     4  3  2.50        -1.3606   0.0000                                         
   Description                                                                  
     l       E           TYP  RCUT    TYP  RCUT                                 
     1    -50.4666628     23  2.000                                             
     1     -1.3605826     23  2.000                                             
     2     -3.3744729     23  2.300                                             
     2     -4.7350555     23  2.300                                             
     0     -4.1331431     23  2.300                                             
     0      7.6656591     23  2.300                                             
     3      9.5240782     23  2.300                                             
  local pseudopotential read in
  partial core-charges read in
  partial kinetic energy density read in
  atomic valenz-charges read in
  non local Contribution for L=           1  read in
    real space projection operators read in
  non local Contribution for L=           1  read in
    real space projection operators read in
  non local Contribution for L=           2  read in
    real space projection operators read in
  non local Contribution for L=           2  read in
    real space projection operators read in
  non local Contribution for L=           0  read in
    real space projection operators read in
  non local Contribution for L=           0  read in
    real space projection operators read in
    PAW grid and wavefunctions read in
 
   number of l-projection  operators is LMAX  =           6
   number of lm-projection operators is LMMAX =          18
 
 POTCAR:    PAW_PBE F 08Apr2002                   
   VRHFIN =F: s2p5                                                              
   LEXCH  = PE                                                                  
   EATOM  =   659.6475 eV,   48.4827 Ry                                         
                                                                                
   TITEL  = PAW_PBE F 08Apr2002                                                 
   LULTRA =        F    use ultrasoft PP ?                                      
   IUNSCR =        1    unscreen: 0-lin 1-nonlin 2-no                           
   RPACOR =    1.200    partial core radius                                     
   POMASS =   18.998; ZVAL   =    7.000    mass and valenz                      
   RCORE  =    1.520    outmost cutoff radius                                   
   RWIGS  =    1.500; RWIGS  =    0.794    wigner-seitz radius (au A)           
   ENMAX  =  400.000; ENMIN  =  300.000 eV                                      
   ICORE  =        2    local potential                                         
   LCOR   =        T    correct aug charges                                     
   LPAW   =        T    paw PP                                                  
   EAUG   =  613.614                                                            
   RMAX   =    1.555    core radius for proj-oper                               
   RAUG   =    1.300    factor for augmentation sphere                          
   RDEP   =    1.539    radius for radial grids                                 
   RDEPT  =    1.299    core radius for aug-charge                              
                                                                                
   Atomic configuration                                                         
    4 entries                                                                   
     n  l   j            E        occ.                                          
     1  0  0.50      -663.3661   2.0000                                         
     2  0  0.50       -29.8995   2.0000                                         
     2  1  0.50       -11.1114   5.0000                                         
     3  2  1.50       -10.8847   0.0000                                         
   Description                                                                  
     l       E           TYP  RCUT    TYP  RCUT                                 
     0    -29.8995018     23  1.200                                             
     0     -9.5240782     23  1.200                                             
     1    -11.1113914     23  1.520                                             
     1      1.3605826     23  1.520                                             
     2    -10.8846608      7  1.500                                             
  local pseudopotential read in
  partial core-charges read in
  partial kinetic energy density read in
  atomic valenz-charges read in
  non local Contribution for L=           0  read in
    real space projection operators read in
  non local Contribution for L=           0  read in
    real space projection operators read in
  non local Contribution for L=           1  read in
    real space projection operators read in
  non local Contribution for L=           1  read in
    real space projection operators read in
    PAW grid and wavefunctions read in
 
   number of l-projection  operators is LMAX  =           4
   number of lm-projection operators is LMMAX =           8
 

 ----------------------------------------------------------------------------- 
|                                                                             |
|  ADVICE TO THIS USER RUNNING 'VASP/VAMP'   (HEAR YOUR MASTER'S VOICE ...):  |
|                                                                             |
|      You enforced a specific xc-type in the INCAR file,                     |
|      a different type was found on the POTCAR file                          |
|          I HOPE YOU KNOW, WHAT YOU ARE  DOING                               |
|                                                                             |
 ----------------------------------------------------------------------------- 

  PAW_PBE Mn_pv 02Aug2007               :
 energy of atom  1       EATOM=-2025.2664
 kinetic energy error for atom=    0.0009 (will be added to EATOM!!)
  PAW_PBE F 08Apr2002                   :
 energy of atom  2       EATOM= -659.6475
 kinetic energy error for atom=    0.0038 (will be added to EATOM!!)
 
 
 POSCAR: Mn  F                                   
  positions in cartesian coordinates
  No initial velocities read in
 exchange correlation table for  LEXCH =       14
   RHO(1)=    0.500       N(1)  =     2000
   RHO(2)=  100.500       N(2)  =     4000
 


--------------------------------------------------------------------------------------------------------


 ion  position               nearest neighbor table
   1  0.500  0.500  0.500-   3 2.11   4 2.11   5 2.13   6 2.13   5 2.13   6 2.13
   2  0.000  0.000  0.000-   5 2.11   6 2.11   3 2.13   4 2.13   3 2.13   4 2.13
   3  0.195  0.805  0.500-   1 2.11   2 2.13   2 2.13
   4  0.805  0.195  0.500-   1 2.11   2 2.13   2 2.13
   5  0.305  0.305  0.000-   2 2.11   1 2.13   1 2.13
   6  0.695  0.695  0.000-   2 2.11   1 2.13   1 2.13
 
  LATTYP: Found a simple tetragonal cell.
 ALAT       =     4.8907553463
 C/A-ratio  =     0.6756782568
  
  Lattice vectors:
  
 A1 = (   4.8907553463,   0.0000000000,   0.0000000000)
 A2 = (   0.0000000000,   4.8907553463,   0.0000000000)
 A3 = (   0.0000000000,   0.0000000000,   3.3045770469)


Analysis of symmetry for initial positions (statically):
=====================================================================
 Subroutine PRICEL returns:
 Original cell was already a primitive cell.
 

 Routine SETGRP: Setting up the symmetry group for a 
 simple tetragonal supercell.


 Subroutine GETGRP returns: Found 16 space group operations
 (whereof  8 operations were pure point group operations)
 out of a pool of 16 trial point group operations.


The static configuration has the point symmetry D_2h.
 The point group associated with its full space group is D_4h.


Analysis of symmetry for dynamics (positions and initial velocities):
=====================================================================
 Subroutine PRICEL returns:
 Original cell was already a primitive cell.
 

 Routine SETGRP: Setting up the symmetry group for a 
 simple tetragonal supercell.


 Subroutine GETGRP returns: Found 16 space group operations
 (whereof  8 operations were pure point group operations)
 out of a pool of 16 trial point group operations.


The dynamic configuration has the point symmetry D_2h.
 The point group associated with its full space group is D_4h.


Analysis of structural, dynamic, and magnetic symmetry:
=====================================================================
 Subroutine PRICEL returns:
 Original cell was already a primitive cell.
 

 Routine SETGRP: Setting up the symmetry group for a 
 simple tetragonal supercell.


 Subroutine GETGRP returns: Found 16 space group operations
 (whereof  8 operations were pure point group operations)
 out of a pool of 16 trial point group operations.


The magnetic configuration has the point symmetry D_2h.
 The point group associated with its full space group is D_4h.


 Subroutine INISYM returns: Found 16 space group operations
 (whereof  8 operations are pure point group operations),
 and found     1 'primitive' translations

 
 
 KPOINTS: KPOINTS created by Atomic Simulation Env

Automatic generation of k-mesh.
Space group operators:
 irot       det(A)        alpha          n_x          n_y          n_z        tau_x        tau_y        tau_z
    1     1.000000     0.000000     1.000000     0.000000     0.000000     0.000000     0.000000     0.000000
    2    -1.000000     0.000000     1.000000     0.000000     0.000000     0.000000     0.000000     0.000000
    3     1.000000   180.000000     0.000000     0.000000     1.000000     0.000000     0.000000     0.000000
    4    -1.000000   180.000000     0.000000     0.000000     1.000000     0.000000     0.000000     0.000000
    5     1.000000   180.000000     0.707107     0.707107     0.000000     0.000000     0.000000     0.000000
    6    -1.000000   180.000000     0.707107     0.707107     0.000000     0.000000     0.000000     0.000000
    7     1.000000   180.000000     0.707107    -0.707107     0.000000     0.000000     0.000000     0.000000
    8    -1.000000   180.000000     0.707107    -0.707107     0.000000     0.000000     0.000000     0.000000
    9     1.000000    90.000000     0.000000     0.000000    -1.000000     0.500000     0.500000     0.500000
   10    -1.000000    90.000000     0.000000     0.000000    -1.000000     0.500000     0.500000     0.500000
   11     1.000000    90.000000     0.000000     0.000000     1.000000     0.500000     0.500000     0.500000
   12    -1.000000    90.000000     0.000000     0.000000     1.000000     0.500000     0.500000     0.500000
   13     1.000000   180.000000     0.000000     1.000000     0.000000     0.500000     0.500000     0.500000
   14    -1.000000   180.000000     0.000000     1.000000     0.000000     0.500000     0.500000     0.500000
   15     1.000000   180.000000     1.000000     0.000000     0.000000     0.500000     0.500000     0.500000
   16    -1.000000   180.000000     1.000000     0.000000     0.000000     0.500000     0.500000     0.500000
 
 Subroutine IBZKPT returns following result:
 ===========================================
 
 Found      9 irreducible k-points:
 
 Following reciprocal coordinates:
            Coordinates               Weight
  0.125000  0.125000  0.083333      8.000000
  0.375000  0.125000  0.083333     16.000000
  0.375000  0.375000  0.083333      8.000000
  0.125000  0.125000  0.250000      8.000000
  0.375000  0.125000  0.250000     16.000000
  0.375000  0.375000  0.250000      8.000000
  0.125000  0.125000  0.416667      8.000000
  0.375000  0.125000  0.416667     16.000000
  0.375000  0.375000  0.416667      8.000000
 
 Following cartesian coordinates:
            Coordinates               Weight
  0.025558  0.025558  0.025218      8.000000
  0.076675  0.025558  0.025218     16.000000
  0.076675  0.076675  0.025218      8.000000
  0.025558  0.025558  0.075653      8.000000
  0.076675  0.025558  0.075653     16.000000
  0.076675  0.076675  0.075653      8.000000
  0.025558  0.025558  0.126088      8.000000
  0.076675  0.025558  0.126088     16.000000
  0.076675  0.076675  0.126088      8.000000
 
 TETIRR: Found    106 inequivalent tetrahedra from      576


--------------------------------------------------------------------------------------------------------




 Dimension of arrays:
   k-points           NKPTS =      9   k-points in BZ     NKDIM =      9   number of bands    NBANDS=     36
   number of dos      NEDOS =    301   number of ions     NIONS =      6
   non local maximal  LDIM  =      6   non local SUM 2l+1 LMDIM =     18
   total plane-waves  NPLWV =  31104
   max r-space proj   IRMAX =      1   max aug-charges    IRDMAX=  95708
   dimension x,y,z NGX =    36 NGY =   36 NGZ =   24
   dimension x,y,z NGXF=    72 NGYF=   72 NGZF=   48
   support grid    NGXF=   144 NGYF=  144 NGZF=   96
   ions per type =               2   4
   NGX,Y,Z   is equivalent  to a cutoff of  12.24, 12.24, 12.07 a.u.
   NGXF,Y,Z  is equivalent  to a cutoff of  24.47, 24.47, 24.15 a.u.

 SYSTEM =  unknown system                          
 POSCAR =  Mn  F                                   

 Startparameter for this run:
   NWRITE =      2    write-flag & timer
   PREC   = normal    normal or accurate (medium, high low for compatibility)
   ISTART =      0    job   : 0-new  1-cont  2-samecut
   ICHARG =      2    charge: 1-file 2-atom 10-const
   ISPIN  =      2    spin polarized calculation?
   LNONCOLLINEAR =      F non collinear calculations
   LSORBIT =      F    spin-orbit coupling
   INIWAV =      1    electr: 0-lowe 1-rand  2-diag
   LASPH  =      T    aspherical Exc in radial PAW
   METAGGA=      F    non-selfconsistent MetaGGA calc.

 Electronic Relaxation 1
   ENCUT  =  900.0 eV  66.15 Ry    8.13 a.u.  11.96 11.96  8.08*2*pi/ulx,y,z
   ENINI  =  900.0     initial cutoff
   ENAUG  =  613.6 eV  augmentation charge cutoff
   NELM   =     60;   NELMIN=  2; NELMDL= -5     # of ELM steps 
   EDIFF  = 0.1E-05   stopping-criterion for ELM
   LREAL  =      F    real-space projection
   NLSPLINE    = F    spline interpolate recip. space projectors
   LCOMPAT=      F    compatible to vasp.4.4
   GGA_COMPAT  = T    GGA compatible to vasp.4.4-vasp.4.6
   LMAXPAW     = -100 max onsite density
   LMAXMIX     =    4 max onsite mixed and CHGCAR
   VOSKOWN=      0    Vosko Wilk Nusair interpolation
   ROPT   =    0.00000   0.00000
 Ionic relaxation
   EDIFFG = 0.1E-04   stopping-criterion for IOM
   NSW    =      0    number of steps for IOM
   NBLOCK =      1;   KBLOCK =      1    inner block; outer block 
   IBRION =     -1    ionic relax: 0-MD 1-quasi-New 2-CG
   NFREE  =      0    steps in history (QN), initial steepest desc. (CG)
   ISIF   =      2    stress and relaxation
   IWAVPR =     10    prediction:  0-non 1-charg 2-wave 3-comb
   ISYM   =      2    0-nonsym 1-usesym 2-fastsym
   LCORR  =      T    Harris-Foulkes like correction to forces

   POTIM  = 0.5000    time-step for ionic-motion
   TEIN   =    0.0    initial temperature
   TEBEG  =    0.0;   TEEND  =   0.0 temperature during run
   SMASS  =  -3.00    Nose mass-parameter (am)
   estimated Nose-frequenzy (Omega)   =  0.10E-29 period in steps =****** mass=  -0.547E-27a.u.
   SCALEE = 1.0000    scale energy and forces
   NPACO  =    256;   APACO  = 16.0  distance and # of slots for P.C.
   PSTRESS=    0.0 pullay stress

  Mass of Ions in am
   POMASS =  54.94 19.00
  Ionic Valenz
   ZVAL   =  13.00  7.00
  Atomic Wigner-Seitz radii
   RWIGS  =  -1.00 -1.00
  virtual crystal weights 
   VCA    =   1.00  1.00
   NELECT =      54.0000    total number of electrons
   NUPDOWN=      -1.0000    fix difference up-down

 DOS related values:
   EMIN   =  10.00;   EMAX   =-10.00  energy-range for DOS
   EFERMI =   0.00
   ISMEAR =    -5;   SIGMA  =   0.20  broadening in eV -4-tet -1-fermi 0-gaus

 Electronic relaxation 2 (details)
   IALGO  =     38    algorithm
   LDIAG  =      T    sub-space diagonalisation (order eigenvalues)
   LSUBROT=      F    optimize rotation matrix (better conditioning)
   TURBO    =      0    0=normal 1=particle mesh
   IRESTART =      0    0=no restart 2=restart with 2 vectors
   NREBOOT  =      0    no. of reboots
   NMIN     =      0    reboot dimension
   EREF     =   0.00    reference energy to select bands
   IMIX   =      4    mixing-type and parameters
     AMIX     =   0.40;   BMIX     =  1.00
     AMIX_MAG =   1.60;   BMIX_MAG =  1.00
     AMIN     =   0.10
     WC   =   100.;   INIMIX=   1;  MIXPRE=   1;  MAXMIX= -45

 Intra band minimization:
   WEIMIN = 0.0000     energy-eigenvalue tresh-hold
   EBREAK =  0.69E-08  absolut break condition
   DEPER  =   0.30     relativ break condition  

   TIME   =   0.40     timestep for ELM

  volume/ion in A,a.u.               =      13.17        88.90
  Fermi-wavevector in a.u.,A,eV,Ry     =   1.441839  2.724681 28.285156  2.078900
  Thomas-Fermi vector in A             =   2.560426
 
 Write flags
   LWAVE        =      T    write WAVECAR
   LDOWNSAMPLE  =      F    k-point downsampling of WAVECAR
   LCHARG       =      T    write CHGCAR
   LVTOT        =      F    write LOCPOT, total local potential
   LVHAR        =      F    write LOCPOT, Hartree potential only
   LELF         =      F    write electronic localiz. function (ELF)
   LORBIT       =     11    0 simple, 1 ext, 2 COOP (PROOUT), +10 PAW based schemes


 Dipole corrections
   LMONO  =      F    monopole corrections only (constant potential shift)
   LDIPOL =      F    correct potential (dipole corrections)
   IDIPOL =      0    1-x, 2-y, 3-z, 4-all directions 
   EPSILON=  1.0000000 bulk dielectric constant

 LDA+U is selected, type is set to LDAUTYPE =  2
   angular momentum for each species LDAUL =     2   -1
   U (eV)           for each species LDAUU =   4.0  0.0
   J (eV)           for each species LDAUJ =   0.0  0.0
 Exchange correlation treatment:
   GGA     =    PS    GGA type
   LEXCH   =    14    internal setting for exchange type
   VOSKOWN=      0    Vosko Wilk Nusair interpolation
   LHFCALC =     F    Hartree Fock is set to
   LHFONE  =     F    Hartree Fock one center treatment
   AEXX    =    0.0000 exact exchange contribution

 Linear response parameters
   LEPSILON=     F    determine dielectric tensor
   LRPA    =     F    only Hartree local field effects (RPA)
   LNABLA  =     F    use nabla operator in PAW spheres
   LVEL    =     F    velocity operator in full k-point grid
   LINTERFAST=   F  fast interpolation
   KINTER  =     0    interpolate to denser k-point grid
   CSHIFT  =0.1000    complex shift for real part using Kramers Kronig
   OMEGAMAX=  -1.0    maximum frequency
   DEG_THRESHOLD= 0.2000000E-02 threshold for treating states as degnerate
   RTIME   =   -0.100 relaxation time in fs
  (WPLASMAI=    0.000 imaginary part of plasma frequency in eV, 0.658/RTIME)
   DFIELD  = 0.0000000 0.0000000 0.0000000 field for delta impulse in time
 
 Orbital magnetization related:
   ORBITALMAG=     F  switch on orbital magnetization
   LCHIMAG   =     F  perturbation theory with respect to B field
   DQ        =  0.001000  dq finite difference perturbation B field
   LLRAUG    =     F  two centre corrections for induced B field



--------------------------------------------------------------------------------------------------------


 Static calculation
 charge density and potential will be updated during run
 spin polarized calculation
 Variant of blocked Davidson
 Davidson routine will perform the subspace rotation
 perform sub-space diagonalisation
    after iterative eigenvector-optimisation
 modified Broyden-mixing scheme, WC =      100.0
 initial mixing is a Kerker type mixing with AMIX =  0.4000 and BMIX =      1.0000
 Hartree-type preconditioning will be used
 using additional bands            9
 reciprocal scheme for non local part
 use partial core corrections
 calculate Harris-corrections to forces 
   (improved forces if not selfconsistent)
 use gradient corrections 
 use of overlap-Matrix (Vanderbilt PP)
 Fermi weights with tetrahedron method with Bloechl corrections


--------------------------------------------------------------------------------------------------------


  energy-cutoff  :      900.00
  volume of cell :       79.04
      direct lattice vectors                 reciprocal lattice vectors
     4.890755346  0.000000000  0.000000000     0.204467394  0.000000000  0.000000000
     0.000000000  4.890755346  0.000000000     0.000000000  0.204467394  0.000000000
     0.000000000  0.000000000  3.304577047     0.000000000  0.000000000  0.302610587

  length of vectors
     4.890755346  4.890755346  3.304577047     0.204467394  0.204467394  0.302610587


 
 k-points in units of 2pi/SCALE and weight: KPOINTS created by Atomic Simulation Env
   0.02555842  0.02555842  0.02521755       0.083
   0.07667527  0.02555842  0.02521755       0.167
   0.07667527  0.07667527  0.02521755       0.083
   0.02555842  0.02555842  0.07565265       0.083
   0.07667527  0.02555842  0.07565265       0.167
   0.07667527  0.07667527  0.07565265       0.083
   0.02555842  0.02555842  0.12608774       0.083
   0.07667527  0.02555842  0.12608774       0.167
   0.07667527  0.07667527  0.12608774       0.083
 
 k-points in reciprocal lattice and weights: KPOINTS created by Atomic Simulation Env
   0.12500000  0.12500000  0.08333333       0.083
   0.37500000  0.12500000  0.08333333       0.167
   0.37500000  0.37500000  0.08333333       0.083
   0.12500000  0.12500000  0.25000000       0.083
   0.37500000  0.12500000  0.25000000       0.167
   0.37500000  0.37500000  0.25000000       0.083
   0.12500000  0.12500000  0.41666667       0.083
   0.37500000  0.12500000  0.41666667       0.167
   0.37500000  0.37500000  0.41666667       0.083
 
 position of ions in fractional coordinates (direct lattice) 
   0.50000000  0.50000000  0.50000000
   0.00000000  0.00000000  0.00000000
   0.19537293  0.80462707  0.50000000
   0.80462707  0.19537293  0.50000000
   0.30462707  0.30462707  0.00000000
   0.69537293  0.69537293  0.00000000
 
 position of ions in cartesian coordinates  (Angst):
   2.44537767  2.44537767  1.65228852
   0.00000000  0.00000000  0.00000000
   0.95552119  3.93523416  1.65228852
   3.93523416  0.95552119  1.65228852
   1.48985649  1.48985649  0.00000000
   3.40089886  3.40089886  0.00000000
 


--------------------------------------------------------------------------------------------------------


 k-point  1 :   0.1250 0.1250 0.0833  plane waves:    4834
 k-point  2 :   0.3750 0.1250 0.0833  plane waves:    4834
 k-point  3 :   0.3750 0.3750 0.0833  plane waves:    4837
 k-point  4 :   0.1250 0.1250 0.2500  plane waves:    4850
 k-point  5 :   0.3750 0.1250 0.2500  plane waves:    4852
 k-point  6 :   0.3750 0.3750 0.2500  plane waves:    4851
 k-point  7 :   0.1250 0.1250 0.4167  plane waves:    4843
 k-point  8 :   0.3750 0.1250 0.4167  plane waves:    4852
 k-point  9 :   0.3750 0.3750 0.4167  plane waves:    4875

 maximum and minimum number of plane-waves per node :      4875     4834

 maximum number of plane-waves:      4875
 maximum index in each direction: 
   IXMAX=   11   IYMAX=   11   IZMAX=    7
   IXMIN=  -12   IYMIN=  -12   IZMIN=   -8


 serial   3D FFT for wavefunctions
 parallel 3D FFT for charge:
    minimum data exchange during FFTs selected (reduces bandwidth)


 total amount of memory used by VASP MPI-rank0    55058. kBytes
=======================================================================

   base      :      30000. kBytes
   nonl-proj :      13128. kBytes
   fftplans  :       3220. kBytes
   grid      :       4243. kBytes
   one-center:        186. kBytes
   wavefun   :       4281. kBytes
 
     INWAV:  cpu time    0.0000: real time    0.0000
 Broyden mixing: mesh for mixing (old mesh)
   NGX = 23   NGY = 23   NGZ = 17
  (NGX  = 72   NGY  = 72   NGZ  = 48)
  gives a total of   8993 points

 initial charge density was supplied:
 charge density of overlapping atoms calculated
 number of electron      54.0000000 magnetization       0.0000000
 keeping initial charge density in first step


--------------------------------------------------------------------------------------------------------


 Maximum index for augmentation-charges         7855 (set IRDMAX)


--------------------------------------------------------------------------------------------------------


 First call to EWALD:  gamma=   0.413
 Maximum number of real-space cells 2x 2x 3
 Maximum number of reciprocal cells 3x 3x 2

    FEWALD:  cpu time    0.0010: real time    0.0010


--------------------------------------- Iteration      1(   1)  ---------------------------------------


    POTLOK:  cpu time    0.0291: real time    0.0291
    SETDIJ:  cpu time    0.3881: real time    0.3881
atom =   1  type =  1  l = 2
 
 onsite density matrix
 
spin component  1
 
  0.2835  0.0000  0.0000  0.0000  0.0000
  0.0000  0.2835  0.0000  0.0000  0.0000
  0.0000  0.0000  0.2835  0.0000  0.0000
  0.0000  0.0000  0.0000  0.2835  0.0000
  0.0000  0.0000  0.0000  0.0000  0.2835
 
spin component  2
 
  0.7694  0.0000  0.0000  0.0000  0.0000
  0.0000  0.7694  0.0000  0.0000  0.0000
  0.0000  0.0000  0.7694  0.0000  0.0000
  0.0000  0.0000  0.0000  0.7694  0.0000
  0.0000  0.0000  0.0000  0.0000  0.7694
 
 occupancies and eigenvectors
 
  o =  0.2835  v =  1.0000  0.0000  0.0000  0.0000  0.0000  0.0000  0.0000  0.0000  0.0000  0.0000      0.0000  0.0000  0.0000  0.0000  0.0000  0.0000  0.0000  0.0000  0.0000  0.0000
  o =  0.2835  v =  0.0000  1.0000  0.0000  0.0000  0.0000  0.0000  0.0000  0.0000  0.0000  0.0000      0.0000  0.0000  0.0000  0.0000  0.0000  0.0000  0.0000  0.0000  0.0000  0.0000
  o =  0.2835  v =  0.0000  0.0000  1.0000  0.0000  0.0000  0.0000  0.0000  0.0000  0.0000  0.0000      0.0000  0.0000  0.0000  0.0000  0.0000  0.0000  0.0000  0.0000  0.0000  0.0000
  o =  0.2835  v =  0.0000  0.0000  0.0000  1.0000  0.0000  0.0000  0.0000  0.0000  0.0000  0.0000      0.0000  0.0000  0.0000  0.0000  0.0000  0.0000  0.0000  0.0000  0.0000  0.0000
  o =  0.2835  v =  0.0000  0.0000  0.0000  0.0000  1.0000  0.0000  0.0000  0.0000  0.0000  0.0000      0.0000  0.0000  0.0000  0.0000  0.0000  0.0000  0.0000  0.0000  0.0000  0.0000
  o =  0.7694  v =  0.0000  0.0000  0.0000  0.0000  0.0000  1.0000  0.0000  0.0000  0.0000  0.0000      0.0000  0.0000  0.0000  0.0000  0.0000  0.0000  0.0000  0.0000  0.0000  0.0000
  o =  0.7694  v =  0.0000  0.0000  0.0000  0.0000  0.0000  0.0000  1.0000  0.0000  0.0000  0.0000      0.0000  0.0000  0.0000  0.0000  0.0000  0.0000  0.0000  0.0000  0.0000  0.0000
  o =  0.7694  v =  0.0000  0.0000  0.0000  0.0000  0.0000  0.0000  0.0000  1.0000  0.0000  0.0000      0.0000  0.0000  0.0000  0.0000  0.0000  0.0000  0.0000  0.0000  0.0000  0.0000
  o =  0.7694  v =  0.0000  0.0000  0.0000  0.0000  0.0000  0.0000  0.0000  0.0000  1.0000  0.0000      0.0000  0.0000  0.0000  0.0000  0.0000  0.0000  0.0000  0.0000  0.0000  0.0000
  o =  0.7694  v =  0.0000  0.0000  0.0000  0.0000  0.0000  0.0000  0.0000  0.0000  0.0000  1.0000      0.0000  0.0000  0.0000  0.0000  0.0000  0.0000  0.0000  0.0000  0.0000  0.0000
atom =   2  type =  1  l = 2
 
 onsite density matrix
 
spin component  1
 
  0.7694  0.0000  0.0000  0.0000  0.0000
  0.0000  0.7694  0.0000  0.0000  0.0000
  0.0000  0.0000  0.7694  0.0000  0.0000
  0.0000  0.0000  0.0000  0.7694  0.0000
  0.0000  0.0000  0.0000  0.0000  0.7694
 
spin component  2
 
  0.2835  0.0000  0.0000  0.0000  0.0000
  0.0000  0.2835  0.0000  0.0000  0.0000
  0.0000  0.0000  0.2835  0.0000  0.0000
  0.0000  0.0000  0.0000  0.2835  0.0000
  0.0000  0.0000  0.0000  0.0000  0.2835
 
 occupancies and eigenvectors
 
  o =  0.2835  v =  0.0000  0.0000  0.0000  0.0000  0.0000  1.0000  0.0000  0.0000  0.0000  0.0000      0.0000  0.0000  0.0000  0.0000  0.0000  0.0000  0.0000  0.0000  0.0000  0.0000
  o =  0.2835  v =  0.0000  0.0000  0.0000  0.0000  0.0000  0.0000  1.0000  0.0000  0.0000  0.0000      0.0000  0.0000  0.0000  0.0000  0.0000  0.0000  0.0000  0.0000  0.0000  0.0000
  o =  0.2835  v =  0.0000  0.0000  0.0000  0.0000  0.0000  0.0000  0.0000  1.0000  0.0000  0.0000      0.0000  0.0000  0.0000  0.0000  0.0000  0.0000  0.0000  0.0000  0.0000  0.0000
  o =  0.2835  v =  0.0000  0.0000  0.0000  0.0000  0.0000  0.0000  0.0000  0.0000  1.0000  0.0000      0.0000  0.0000  0.0000  0.0000  0.0000  0.0000  0.0000  0.0000  0.0000  0.0000
  o =  0.2835  v =  0.0000  0.0000  0.0000  0.0000  0.0000  0.0000  0.0000  0.0000  0.0000  1.0000      0.0000  0.0000  0.0000  0.0000  0.0000  0.0000  0.0000  0.0000  0.0000  0.0000
  o =  0.7694  v =  1.0000  0.0000  0.0000  0.0000  0.0000  0.0000  0.0000  0.0000  0.0000  0.0000      0.0000  0.0000  0.0000  0.0000  0.0000  0.0000  0.0000  0.0000  0.0000  0.0000
  o =  0.7694  v =  0.0000  1.0000  0.0000  0.0000  0.0000  0.0000  0.0000  0.0000  0.0000  0.0000      0.0000  0.0000  0.0000  0.0000  0.0000  0.0000  0.0000  0.0000  0.0000  0.0000
  o =  0.7694  v =  0.0000  0.0000  1.0000  0.0000  0.0000  0.0000  0.0000  0.0000  0.0000  0.0000      0.0000  0.0000  0.0000  0.0000  0.0000  0.0000  0.0000  0.0000  0.0000  0.0000
  o =  0.7694  v =  0.0000  0.0000  0.0000  1.0000  0.0000  0.0000  0.0000  0.0000  0.0000  0.0000      0.0000  0.0000  0.0000  0.0000  0.0000  0.0000  0.0000  0.0000  0.0000  0.0000
  o =  0.7694  v =  0.0000  0.0000  0.0000  0.0000  1.0000  0.0000  0.0000  0.0000  0.0000  0.0000      0.0000  0.0000  0.0000  0.0000  0.0000  0.0000  0.0000  0.0000  0.0000  0.0000
     EDDAV:  cpu time    0.6206: real time    0.6395
 BZINTS: Fermi energy: 20.387169; 54.000000 electrons
         Band energy:  47.894961;  BLOECHL correction: -0.037765
       DOS:  cpu time    0.0066: real time    0.0066
    --------------------------------------------
      LOOP:  cpu time    1.0443: real time    1.0632

 eigenvalue-minimisations  :  1296
 total energy-change (2. order) : 0.7853867E+03  (-0.4231963E+04)
 number of electron      54.0000000 magnetization      -0.0000000
 augmentation part       54.0000000 magnetization      -0.0000000

 Free energy of the ion-electron system (eV)
  ---------------------------------------------------
  alpha Z        PSCENC =       195.30296598
  Ewald energy   TEWEN  =     -4172.12804146
  -Hartree energ DENC   =     -2150.31312215
  -exchange      EXHF   =         0.00000000
  -V(xc)+E(xc)   XCENC  =       293.21803363
  PAW double counting   =      5439.83165491    -5546.16339751
  entropy T*S    EENTRO =         0.00000000
  eigenvalues    EBANDS =        47.89496124
  atomic energy  EATOM  =      6677.74365140
  Solvation  Ediel_sol  =         0.00000000
  ---------------------------------------------------
  free energy    TOTEN  =       785.38670604 eV

  energy without entropy =      785.38670604  energy(sigma->0) =      785.38670604


--------------------------------------------------------------------------------------------------------




--------------------------------------- Iteration      1(   2)  ---------------------------------------


     EDDAV:  cpu time    0.6882: real time    0.6883
 BZINTS: Fermi energy:  4.490170; 54.000000 electrons
         Band energy:-716.998527;  BLOECHL correction:  0.000000
       DOS:  cpu time    0.0014: real time    0.0014
    --------------------------------------------
      LOOP:  cpu time    0.6896: real time    0.6897

 eigenvalue-minimisations  :  1488
 total energy-change (2. order) :-0.7648935E+03  (-0.7405268E+03)
 number of electron      54.0000000 magnetization      -0.0000000
 augmentation part       54.0000000 magnetization      -0.0000000

 Free energy of the ion-electron system (eV)
  ---------------------------------------------------
  alpha Z        PSCENC =       195.30296598
  Ewald energy   TEWEN  =     -4172.12804146
  -Hartree energ DENC   =     -2150.31312215
  -exchange      EXHF   =         0.00000000
  -V(xc)+E(xc)   XCENC  =       293.21803363
  PAW double counting   =      5439.83165491    -5546.16339751
  entropy T*S    EENTRO =         0.00000000
  eigenvalues    EBANDS =      -716.99852671
  atomic energy  EATOM  =      6677.74365140
  Solvation  Ediel_sol  =         0.00000000
  ---------------------------------------------------
  free energy    TOTEN  =        20.49321809 eV

  energy without entropy =       20.49321809  energy(sigma->0) =       20.49321809


--------------------------------------------------------------------------------------------------------




--------------------------------------- Iteration      1(   3)  ---------------------------------------


     EDDAV:  cpu time    0.7165: real time    0.7165
 BZINTS: Fermi energy:  3.076825; 54.000000 electrons
         Band energy:-776.653723;  BLOECHL correction:  0.000000
       DOS:  cpu time    0.0013: real time    0.0013
    --------------------------------------------
      LOOP:  cpu time    0.7178: real time    0.7178

 eigenvalue-minimisations  :  1572
 total energy-change (2. order) :-0.5965520E+02  (-0.5935033E+02)
 number of electron      54.0000000 magnetization      -0.0000000
 augmentation part       54.0000000 magnetization      -0.0000000

 Free energy of the ion-electron system (eV)
  ---------------------------------------------------
  alpha Z        PSCENC =       195.30296598
  Ewald energy   TEWEN  =     -4172.12804146
  -Hartree energ DENC   =     -2150.31312215
  -exchange      EXHF   =         0.00000000
  -V(xc)+E(xc)   XCENC  =       293.21803363
  PAW double counting   =      5439.83165491    -5546.16339751
  entropy T*S    EENTRO =         0.00000000
  eigenvalues    EBANDS =      -776.65372308
  atomic energy  EATOM  =      6677.74365140
  Solvation  Ediel_sol  =         0.00000000
  ---------------------------------------------------
  free energy    TOTEN  =       -39.16197828 eV

  energy without entropy =      -39.16197828  energy(sigma->0) =      -39.16197828


--------------------------------------------------------------------------------------------------------




--------------------------------------- Iteration      1(   4)  ---------------------------------------


     EDDAV:  cpu time    0.6599: real time    0.6600
 BZINTS: Fermi energy:  2.983836; 54.000000 electrons
         Band energy:-777.608458;  BLOECHL correction:  0.000000
       DOS:  cpu time    0.0012: real time    0.0012
    --------------------------------------------
      LOOP:  cpu time    0.6611: real time    0.6611

 eigenvalue-minimisations  :  1416
 total energy-change (2. order) :-0.9547351E+00  (-0.9544713E+00)
 number of electron      54.0000000 magnetization      -0.0000000
 augmentation part       54.0000000 magnetization      -0.0000000

 Free energy of the ion-electron system (eV)
  ---------------------------------------------------
  alpha Z        PSCENC =       195.30296598
  Ewald energy   TEWEN  =     -4172.12804146
  -Hartree energ DENC   =     -2150.31312215
  -exchange      EXHF   =         0.00000000
  -V(xc)+E(xc)   XCENC  =       293.21803363
  PAW double counting   =      5439.83165491    -5546.16339751
  entropy T*S    EENTRO =         0.00000000
  eigenvalues    EBANDS =      -777.60845813
  atomic energy  EATOM  =      6677.74365140
  Solvation  Ediel_sol  =         0.00000000
  ---------------------------------------------------
  free energy    TOTEN  =       -40.11671334 eV

  energy without entropy =      -40.11671334  energy(sigma->0) =      -40.11671334


--------------------------------------------------------------------------------------------------------




--------------------------------------- Iteration      1(   5)  ---------------------------------------


     EDDAV:  cpu time    0.7154: real time    0.7155
 BZINTS: Fermi energy:  3.056497; 54.000000 electrons
         Band energy:-777.623085;  BLOECHL correction:  0.000000
       DOS:  cpu time    0.0013: real time    0.0013
    CHARGE:  cpu time    0.0608: real time    0.0608
    MIXING:  cpu time    0.0016: real time    0.0016
    --------------------------------------------
      LOOP:  cpu time    0.7791: real time    0.7792

 eigenvalue-minimisations  :  1572
 total energy-change (2. order) :-0.1462686E-01  (-0.1462661E-01)
 number of electron      54.0000000 magnetization       0.0000000
 augmentation part       20.0522723 magnetization       0.0000000

 Broyden mixing:
  rms(total) = 0.22379E+01    rms(broyden)= 0.22379E+01
  rms(prec ) = 0.30109E+01
  weight for this iteration     100.00

 Free energy of the ion-electron system (eV)
  ---------------------------------------------------
  alpha Z        PSCENC =       195.30296598
  Ewald energy   TEWEN  =     -4172.12804146
  -Hartree energ DENC   =     -2150.31312215
  -exchange      EXHF   =         0.00000000
  -V(xc)+E(xc)   XCENC  =       293.21803363
  PAW double counting   =      5439.83165491    -5546.16339751
  entropy T*S    EENTRO =         0.00000000
  eigenvalues    EBANDS =      -777.62308499
  atomic energy  EATOM  =      6677.74365140
  Solvation  Ediel_sol  =         0.00000000
  ---------------------------------------------------
  free energy    TOTEN  =       -40.13134019 eV

  energy without entropy =      -40.13134019  energy(sigma->0) =      -40.13134019


--------------------------------------------------------------------------------------------------------




--------------------------------------- Iteration      1(   6)  ---------------------------------------


    POTLOK:  cpu time    0.0270: real time    0.0270
    SETDIJ:  cpu time    0.3879: real time    0.3879
atom =   1  type =  1  l = 2
 
 onsite density matrix
 
spin component  1
 
 -0.0785  0.0000  0.0026  0.0000 -0.0000
  0.0000 -0.0808  0.0000  0.0019  0.0000
  0.0026  0.0000 -0.0787  0.0000 -0.0000
  0.0000  0.0019  0.0000 -0.0808  0.0000
 -0.0000  0.0000 -0.0000  0.0000 -0.0852
 
spin component  2
 
  1.1020  0.0000  0.0137  0.0000  0.0000
  0.0000  1.0997  0.0000  0.0122  0.0000
  0.0137  0.0000  1.0934  0.0000  0.0000
  0.0000  0.0122  0.0000  1.0997  0.0000
  0.0000  0.0000  0.0000  0.0000  1.0894
 
 occupancies and eigenvectors
 
  o = -0.0852  v = -0.0000  0.0000  0.0000 -0.0000  1.0000  0.0000  0.0000  0.0000  0.0000  0.0000      0.0000  0.0000  0.0000  0.0000  0.0000  0.0000  0.0000  0.0000  0.0000  0.0000
  o = -0.0827  v = -0.0000  0.7071  0.0000 -0.7071 -0.0000  0.0000  0.0000  0.0000  0.0000  0.0000      0.0000  0.0000  0.0000  0.0000  0.0000  0.0000  0.0000  0.0000  0.0000  0.0000
  o = -0.0812  v =  0.6921  0.0000 -0.7218 -0.0000  0.0000  0.0000  0.0000  0.0000  0.0000  0.0000      0.0000  0.0000  0.0000  0.0000  0.0000  0.0000  0.0000  0.0000  0.0000  0.0000
  o = -0.0790  v = -0.0000 -0.7071  0.0000 -0.7071 -0.0000  0.0000  0.0000  0.0000  0.0000  0.0000      0.0000  0.0000  0.0000  0.0000  0.0000  0.0000  0.0000  0.0000  0.0000  0.0000
  o = -0.0760  v =  0.7218 -0.0000  0.6921 -0.0000 -0.0000  0.0000  0.0000  0.0000  0.0000  0.0000      0.0000  0.0000  0.0000  0.0000  0.0000  0.0000  0.0000  0.0000  0.0000  0.0000
  o =  1.0833  v =  0.0000  0.0000  0.0000  0.0000  0.0000 -0.5919  0.0000  0.8060 -0.0000 -0.0000      0.0000  0.0000  0.0000  0.0000  0.0000  0.0000  0.0000  0.0000  0.0000  0.0000
  o =  1.0874  v =  0.0000  0.0000  0.0000  0.0000  0.0000 -0.0000 -0.7071  0.0000  0.7071 -0.0000      0.0000  0.0000  0.0000  0.0000  0.0000  0.0000  0.0000  0.0000  0.0000  0.0000
  o =  1.0894  v =  0.0000  0.0000  0.0000  0.0000  0.0000 -0.0000 -0.0000  0.0000  0.0000  1.0000      0.0000  0.0000  0.0000  0.0000  0.0000  0.0000  0.0000  0.0000  0.0000  0.0000
  o =  1.1119  v =  0.0000  0.0000  0.0000  0.0000  0.0000 -0.0000 -0.7071 -0.0000 -0.7071  0.0000      0.0000  0.0000  0.0000  0.0000  0.0000  0.0000  0.0000  0.0000  0.0000  0.0000
  o =  1.1121  v =  0.0000  0.0000  0.0000  0.0000  0.0000 -0.8060  0.0000 -0.5919  0.0000 -0.0000      0.0000  0.0000  0.0000  0.0000  0.0000  0.0000  0.0000  0.0000  0.0000  0.0000
atom =   2  type =  1  l = 2
 
 onsite density matrix
 
spin component  1
 
  1.1020  0.0000 -0.0137  0.0000 -0.0000
  0.0000  1.0997  0.0000 -0.0122  0.0000
 -0.0137  0.0000  1.0934  0.0000  0.0000
  0.0000 -0.0122  0.0000  1.0997  0.0000
 -0.0000  0.0000  0.0000  0.0000  1.0894
 
spin component  2
 
 -0.0785  0.0000 -0.0026  0.0000 -0.0000
  0.0000 -0.0808  0.0000 -0.0019  0.0000
 -0.0026  0.0000 -0.0787  0.0000 -0.0000
  0.0000 -0.0019  0.0000 -0.0808  0.0000
 -0.0000  0.0000 -0.0000  0.0000 -0.0852
 
 occupancies and eigenvectors
 
  o = -0.0852  v =  0.0000  0.0000  0.0000  0.0000  0.0000 -0.0000 -0.0000 -0.0000  0.0000 -1.0000      0.0000  0.0000  0.0000  0.0000  0.0000  0.0000  0.0000  0.0000  0.0000  0.0000
  o = -0.0827  v =  0.0000  0.0000  0.0000  0.0000  0.0000  0.0000  0.7071  0.0000  0.7071 -0.0000      0.0000  0.0000  0.0000  0.0000  0.0000  0.0000  0.0000  0.0000  0.0000  0.0000
  o = -0.0812  v =  0.0000  0.0000  0.0000  0.0000  0.0000  0.6921 -0.0000  0.7218 -0.0000 -0.0000      0.0000  0.0000  0.0000  0.0000  0.0000  0.0000  0.0000  0.0000  0.0000  0.0000
  o = -0.0790  v =  0.0000  0.0000  0.0000  0.0000  0.0000 -0.0000  0.7071 -0.0000 -0.7071 -0.0000      0.0000  0.0000  0.0000  0.0000  0.0000  0.0000  0.0000  0.0000  0.0000  0.0000
  o = -0.0760  v =  0.0000  0.0000  0.0000  0.0000  0.0000  0.7218  0.0000 -0.6921 -0.0000  0.0000      0.0000  0.0000  0.0000  0.0000  0.0000  0.0000  0.0000  0.0000  0.0000  0.0000
  o =  1.0833  v = -0.5919  0.0000 -0.8060  0.0000  0.0000  0.0000  0.0000  0.0000  0.0000  0.0000      0.0000  0.0000  0.0000  0.0000  0.0000  0.0000  0.0000  0.0000  0.0000  0.0000
  o =  1.0874  v = -0.0000 -0.7071 -0.0000 -0.7071  0.0000  0.0000  0.0000  0.0000  0.0000  0.0000      0.0000  0.0000  0.0000  0.0000  0.0000  0.0000  0.0000  0.0000  0.0000  0.0000
  o =  1.0894  v =  0.0000  0.0000  0.0000  0.0000  1.0000  0.0000  0.0000  0.0000  0.0000  0.0000      0.0000  0.0000  0.0000  0.0000  0.0000  0.0000  0.0000  0.0000  0.0000  0.0000
  o =  1.1119  v = -0.0000 -0.7071  0.0000  0.7071  0.0000  0.0000  0.0000  0.0000  0.0000  0.0000      0.0000  0.0000  0.0000  0.0000  0.0000  0.0000  0.0000  0.0000  0.0000  0.0000
  o =  1.1121  v = -0.8060  0.0000  0.5919 -0.0000  0.0000  0.0000  0.0000  0.0000  0.0000  0.0000      0.0000  0.0000  0.0000  0.0000  0.0000  0.0000  0.0000  0.0000  0.0000  0.0000
     EDDAV:  cpu time    0.7286: real time    0.7286
 BZINTS: Fermi energy:  1.208548; 54.000000 electrons
         Band energy:-765.247414;  BLOECHL correction:  0.000000
       DOS:  cpu time    0.0013: real time    0.0013
    CHARGE:  cpu time    0.0630: real time    0.0630
    MIXING:  cpu time    0.0016: real time    0.0016
    --------------------------------------------
      LOOP:  cpu time    1.2095: real time    1.2095

 eigenvalue-minimisations  :  1608
 total energy-change (2. order) : 0.1899009E+01  (-0.1561305E+01)
 number of electron      54.0000000 magnetization      -0.0000000
 augmentation part       19.9218176 magnetization      -0.0000000

 Broyden mixing:
  rms(total) = 0.14190E+01    rms(broyden)= 0.14190E+01
  rms(prec ) = 0.14842E+01
  weight for this iteration     100.00

 eigenvalues of (default mixing * dielectric matrix)
  average eigenvalue GAMMA=   0.7864
  0.7864

 Free energy of the ion-electron system (eV)
  ---------------------------------------------------
  alpha Z        PSCENC =       195.30296598
  Ewald energy   TEWEN  =     -4172.12804146
  -Hartree energ DENC   =     -2170.44248512
  -exchange      EXHF   =         0.00000000
  -V(xc)+E(xc)   XCENC  =       293.66366952
  PAW double counting   =      5689.43443328    -5786.55911101
  entropy T*S    EENTRO =         0.00000000
  eigenvalues    EBANDS =      -765.24741359
  atomic energy  EATOM  =      6677.74365140
  Solvation  Ediel_sol  =         0.00000000
  ---------------------------------------------------
  free energy    TOTEN  =       -38.23233101 eV

  energy without entropy =      -38.23233101  energy(sigma->0) =      -38.23233101


--------------------------------------------------------------------------------------------------------




--------------------------------------- Iteration      1(   7)  ---------------------------------------


    POTLOK:  cpu time    0.0269: real time    0.0269
    SETDIJ:  cpu time    0.3878: real time    0.3878
atom =   1  type =  1  l = 2
 
 onsite density matrix
 
spin component  1
 
  0.1149  0.0000  0.0188  0.0000 -0.0000
  0.0000  0.1092  0.0000  0.0161  0.0000
  0.0188  0.0000  0.1045  0.0000  0.0000
  0.0000  0.0161  0.0000  0.1092  0.0000
 -0.0000  0.0000  0.0000  0.0000  0.0923
 
spin component  2
 
  0.9015  0.0000  0.0066  0.0000 -0.0000
  0.0000  0.8998  0.0000  0.0058  0.0000
  0.0066  0.0000  0.8980  0.0000  0.0000
  0.0000  0.0058  0.0000  0.8998  0.0000
 -0.0000  0.0000  0.0000  0.0000  0.8938
 
 occupancies and eigenvectors
 
  o =  0.0903  v = -0.6051  0.0000  0.7961  0.0000 -0.0000  0.0000  0.0000  0.0000  0.0000  0.0000      0.0000  0.0000  0.0000  0.0000  0.0000  0.0000  0.0000  0.0000  0.0000  0.0000
  o =  0.0923  v = -0.0000 -0.0000  0.0000  0.0000  1.0000  0.0000  0.0000  0.0000  0.0000  0.0000      0.0000  0.0000  0.0000  0.0000  0.0000  0.0000  0.0000  0.0000  0.0000  0.0000
  o =  0.0932  v =  0.0000 -0.7071  0.0000  0.7071 -0.0000  0.0000  0.0000  0.0000  0.0000  0.0000      0.0000  0.0000  0.0000  0.0000  0.0000  0.0000  0.0000  0.0000  0.0000  0.0000
  o =  0.1253  v = -0.0000  0.7071 -0.0000  0.7071  0.0000  0.0000  0.0000  0.0000  0.0000  0.0000      0.0000  0.0000  0.0000  0.0000  0.0000  0.0000  0.0000  0.0000  0.0000  0.0000
  o =  0.1292  v = -0.7961 -0.0000 -0.6051  0.0000 -0.0000  0.0000  0.0000  0.0000  0.0000  0.0000      0.0000  0.0000  0.0000  0.0000  0.0000  0.0000  0.0000  0.0000  0.0000  0.0000
  o =  0.8929  v =  0.0000  0.0000  0.0000  0.0000  0.0000 -0.6104  0.0000  0.7921  0.0000 -0.0000      0.0000  0.0000  0.0000  0.0000  0.0000  0.0000  0.0000  0.0000  0.0000  0.0000
  o =  0.8938  v =  0.0000  0.0000  0.0000  0.0000  0.0000  0.0000  0.0000  0.0000  0.0000  1.0000      0.0000  0.0000  0.0000  0.0000  0.0000  0.0000  0.0000  0.0000  0.0000  0.0000
  o =  0.8940  v =  0.0000  0.0000  0.0000  0.0000  0.0000  0.0000  0.7071  0.0000 -0.7071 -0.0000      0.0000  0.0000  0.0000  0.0000  0.0000  0.0000  0.0000  0.0000  0.0000  0.0000
  o =  0.9056  v =  0.0000  0.0000  0.0000  0.0000  0.0000  0.0000  0.7071  0.0000  0.7071 -0.0000      0.0000  0.0000  0.0000  0.0000  0.0000  0.0000  0.0000  0.0000  0.0000  0.0000
  o =  0.9066  v =  0.0000  0.0000  0.0000  0.0000  0.0000 -0.7921  0.0000 -0.6104  0.0000  0.0000      0.0000  0.0000  0.0000  0.0000  0.0000  0.0000  0.0000  0.0000  0.0000  0.0000
atom =   2  type =  1  l = 2
 
 onsite density matrix
 
spin component  1
 
  0.9015  0.0000 -0.0066  0.0000 -0.0000
  0.0000  0.8998  0.0000 -0.0058  0.0000
 -0.0066  0.0000  0.8980  0.0000 -0.0000
  0.0000 -0.0058  0.0000  0.8998  0.0000
 -0.0000  0.0000 -0.0000  0.0000  0.8938
 
spin component  2
 
  0.1149  0.0000 -0.0188  0.0000  0.0000
  0.0000  0.1092  0.0000 -0.0161  0.0000
 -0.0188  0.0000  0.1045  0.0000 -0.0000
  0.0000 -0.0161  0.0000  0.1092  0.0000
  0.0000  0.0000 -0.0000  0.0000  0.0923
 
 occupancies and eigenvectors
 
  o =  0.0903  v =  0.0000  0.0000  0.0000  0.0000  0.0000 -0.6051  0.0000 -0.7961  0.0000 -0.0000      0.0000  0.0000  0.0000  0.0000  0.0000  0.0000  0.0000  0.0000  0.0000  0.0000
  o =  0.0923  v =  0.0000  0.0000  0.0000  0.0000  0.0000 -0.0000 -0.0000 -0.0000  0.0000  1.0000      0.0000  0.0000  0.0000  0.0000  0.0000  0.0000  0.0000  0.0000  0.0000  0.0000
  o =  0.0932  v =  0.0000  0.0000  0.0000  0.0000  0.0000  0.0000 -0.7071  0.0000 -0.7071 -0.0000      0.0000  0.0000  0.0000  0.0000  0.0000  0.0000  0.0000  0.0000  0.0000  0.0000
  o =  0.1253  v =  0.0000  0.0000  0.0000  0.0000  0.0000  0.0000  0.7071  0.0000 -0.7071  0.0000      0.0000  0.0000  0.0000  0.0000  0.0000  0.0000  0.0000  0.0000  0.0000  0.0000
  o =  0.1292  v =  0.0000  0.0000  0.0000  0.0000  0.0000 -0.7961  0.0000  0.6051  0.0000 -0.0000      0.0000  0.0000  0.0000  0.0000  0.0000  0.0000  0.0000  0.0000  0.0000  0.0000
  o =  0.8929  v = -0.6104  0.0000 -0.7921  0.0000 -0.0000  0.0000  0.0000  0.0000  0.0000  0.0000      0.0000  0.0000  0.0000  0.0000  0.0000  0.0000  0.0000  0.0000  0.0000  0.0000
  o =  0.8938  v =  0.0000  0.0000 -0.0000  0.0000  1.0000  0.0000  0.0000  0.0000  0.0000  0.0000      0.0000  0.0000  0.0000  0.0000  0.0000  0.0000  0.0000  0.0000  0.0000  0.0000
  o =  0.8940  v =  0.0000 -0.7071 -0.0000 -0.7071  0.0000  0.0000  0.0000  0.0000  0.0000  0.0000      0.0000  0.0000  0.0000  0.0000  0.0000  0.0000  0.0000  0.0000  0.0000  0.0000
  o =  0.9056  v =  0.0000 -0.7071 -0.0000  0.7071  0.0000  0.0000  0.0000  0.0000  0.0000  0.0000      0.0000  0.0000  0.0000  0.0000  0.0000  0.0000  0.0000  0.0000  0.0000  0.0000
  o =  0.9066  v = -0.7921  0.0000  0.6104  0.0000  0.0000  0.0000  0.0000  0.0000  0.0000  0.0000      0.0000  0.0000  0.0000  0.0000  0.0000  0.0000  0.0000  0.0000  0.0000  0.0000
     EDDAV:  cpu time    0.7083: real time    0.7083
 BZINTS: Fermi energy:  1.518332; 54.000000 electrons
         Band energy:-761.235282;  BLOECHL correction:  0.000000
       DOS:  cpu time    0.0011: real time    0.0011
    CHARGE:  cpu time    0.0632: real time    0.0632
    MIXING:  cpu time    0.0017: real time    0.0017
    --------------------------------------------
      LOOP:  cpu time    1.1890: real time    1.1890

 eigenvalue-minimisations  :  1548
 total energy-change (2. order) :-0.7190038E+00  (-0.1829941E+00)
 number of electron      54.0000000 magnetization       0.0000000
 augmentation part       19.9186453 magnetization       0.0000000

 Broyden mixing:
  rms(total) = 0.11212E+01    rms(broyden)= 0.11212E+01
  rms(prec ) = 0.11556E+01
  weight for this iteration     100.00

 eigenvalues of (default mixing * dielectric matrix)
  average eigenvalue GAMMA=   1.3953
  0.6946  2.0960

 Free energy of the ion-electron system (eV)
  ---------------------------------------------------
  alpha Z        PSCENC =       195.30296598
  Ewald energy   TEWEN  =     -4172.12804146
  -Hartree energ DENC   =     -2165.97486374
  -exchange      EXHF   =         0.00000000
  -V(xc)+E(xc)   XCENC  =       294.21353521
  PAW double counting   =      5909.15258855    -6016.02588878
  entropy T*S    EENTRO =         0.00000000
  eigenvalues    EBANDS =      -761.23528200
  atomic energy  EATOM  =      6677.74365140
  Solvation  Ediel_sol  =         0.00000000
  ---------------------------------------------------
  free energy    TOTEN  =       -38.95133484 eV

  energy without entropy =      -38.95133484  energy(sigma->0) =      -38.95133484


--------------------------------------------------------------------------------------------------------




--------------------------------------- Iteration      1(   8)  ---------------------------------------


    POTLOK:  cpu time    0.0269: real time    0.0269
    SETDIJ:  cpu time    0.3892: real time    0.3892
atom =   1  type =  1  l = 2
 
 onsite density matrix
 
spin component  1
 
 -0.0142  0.0000  0.0193  0.0000 -0.0000
  0.0000 -0.0203  0.0000  0.0159  0.0000
  0.0193  0.0000 -0.0235  0.0000  0.0000
  0.0000  0.0159  0.0000 -0.0203  0.0000
 -0.0000  0.0000  0.0000  0.0000 -0.0392
 
spin component  2
 
  1.0296  0.0000  0.0170  0.0000  0.0000
  0.0000  1.0249  0.0000  0.0156  0.0000
  0.0170  0.0000  1.0187  0.0000 -0.0000
  0.0000  0.0156  0.0000  1.0249  0.0000
  0.0000  0.0000 -0.0000  0.0000  1.0106
 
 occupancies and eigenvectors
 
  o = -0.0392  v =  0.0000  0.0000 -0.0000  0.0000  1.0000  0.0000  0.0000  0.0000  0.0000  0.0000      0.0000  0.0000  0.0000  0.0000  0.0000  0.0000  0.0000  0.0000  0.0000  0.0000
  o = -0.0387  v = -0.6192  0.0000  0.7853  0.0000  0.0000  0.0000  0.0000  0.0000  0.0000  0.0000      0.0000  0.0000  0.0000  0.0000  0.0000  0.0000  0.0000  0.0000  0.0000  0.0000
  o = -0.0362  v =  0.0000 -0.7071  0.0000  0.7071  0.0000  0.0000  0.0000  0.0000  0.0000  0.0000      0.0000  0.0000  0.0000  0.0000  0.0000  0.0000  0.0000  0.0000  0.0000  0.0000
  o = -0.0045  v =  0.0000 -0.7071  0.0000 -0.7071  0.0000  0.0000  0.0000  0.0000  0.0000  0.0000      0.0000  0.0000  0.0000  0.0000  0.0000  0.0000  0.0000  0.0000  0.0000  0.0000
  o =  0.0010  v =  0.7853  0.0000  0.6192  0.0000  0.0000  0.0000  0.0000  0.0000  0.0000  0.0000      0.0000  0.0000  0.0000  0.0000  0.0000  0.0000  0.0000  0.0000  0.0000  0.0000
  o =  1.0063  v =  0.0000  0.0000  0.0000  0.0000  0.0000 -0.5886  0.0000  0.8084 -0.0000  0.0000      0.0000  0.0000  0.0000  0.0000  0.0000  0.0000  0.0000  0.0000  0.0000  0.0000
  o =  1.0093  v =  0.0000  0.0000  0.0000  0.0000  0.0000 -0.0000 -0.7071  0.0000  0.7071 -0.0000      0.0000  0.0000  0.0000  0.0000  0.0000  0.0000  0.0000  0.0000  0.0000  0.0000
  o =  1.0106  v =  0.0000  0.0000  0.0000  0.0000  0.0000  0.0000 -0.0000 -0.0000  0.0000  1.0000      0.0000  0.0000  0.0000  0.0000  0.0000  0.0000  0.0000  0.0000  0.0000  0.0000
  o =  1.0405  v =  0.0000  0.0000  0.0000  0.0000  0.0000 -0.0000 -0.7071 -0.0000 -0.7071  0.0000      0.0000  0.0000  0.0000  0.0000  0.0000  0.0000  0.0000  0.0000  0.0000  0.0000
  o =  1.0420  v =  0.0000  0.0000  0.0000  0.0000  0.0000 -0.8084  0.0000 -0.5886  0.0000  0.0000      0.0000  0.0000  0.0000  0.0000  0.0000  0.0000  0.0000  0.0000  0.0000  0.0000
atom =   2  type =  1  l = 2
 
 onsite density matrix
 
spin component  1
 
  1.0296  0.0000 -0.0170  0.0000  0.0000
  0.0000  1.0249  0.0000 -0.0156  0.0000
 -0.0170  0.0000  1.0187  0.0000  0.0000
  0.0000 -0.0156  0.0000  1.0249  0.0000
  0.0000  0.0000  0.0000  0.0000  1.0106
 
spin component  2
 
 -0.0142  0.0000 -0.0193  0.0000 -0.0000
  0.0000 -0.0203  0.0000 -0.0159  0.0000
 -0.0193  0.0000 -0.0235  0.0000  0.0000
  0.0000 -0.0159  0.0000 -0.0203  0.0000
 -0.0000  0.0000  0.0000  0.0000 -0.0392
 
 occupancies and eigenvectors
 
  o = -0.0392  v =  0.0000  0.0000  0.0000  0.0000  0.0000 -0.0000  0.0000 -0.0000  0.0000  1.0000      0.0000  0.0000  0.0000  0.0000  0.0000  0.0000  0.0000  0.0000  0.0000  0.0000
  o = -0.0387  v =  0.0000  0.0000  0.0000  0.0000  0.0000  0.6192  0.0000  0.7853  0.0000  0.0000      0.0000  0.0000  0.0000  0.0000  0.0000  0.0000  0.0000  0.0000  0.0000  0.0000
  o = -0.0362  v =  0.0000  0.0000  0.0000  0.0000  0.0000  0.0000 -0.7071  0.0000 -0.7071  0.0000      0.0000  0.0000  0.0000  0.0000  0.0000  0.0000  0.0000  0.0000  0.0000  0.0000
  o = -0.0045  v =  0.0000  0.0000  0.0000  0.0000  0.0000 -0.0000  0.7071  0.0000 -0.7071 -0.0000      0.0000  0.0000  0.0000  0.0000  0.0000  0.0000  0.0000  0.0000  0.0000  0.0000
  o =  0.0010  v =  0.0000  0.0000  0.0000  0.0000  0.0000  0.7853  0.0000 -0.6192 -0.0000 -0.0000      0.0000  0.0000  0.0000  0.0000  0.0000  0.0000  0.0000  0.0000  0.0000  0.0000
  o =  1.0063  v = -0.5886 -0.0000 -0.8084 -0.0000  0.0000  0.0000  0.0000  0.0000  0.0000  0.0000      0.0000  0.0000  0.0000  0.0000  0.0000  0.0000  0.0000  0.0000  0.0000  0.0000
  o =  1.0093  v = -0.0000  0.7071 -0.0000  0.7071 -0.0000  0.0000  0.0000  0.0000  0.0000  0.0000      0.0000  0.0000  0.0000  0.0000  0.0000  0.0000  0.0000  0.0000  0.0000  0.0000
  o =  1.0106  v =  0.0000  0.0000  0.0000  0.0000  1.0000  0.0000  0.0000  0.0000  0.0000  0.0000      0.0000  0.0000  0.0000  0.0000  0.0000  0.0000  0.0000  0.0000  0.0000  0.0000
  o =  1.0405  v = -0.0000  0.7071  0.0000 -0.7071 -0.0000  0.0000  0.0000  0.0000  0.0000  0.0000      0.0000  0.0000  0.0000  0.0000  0.0000  0.0000  0.0000  0.0000  0.0000  0.0000
  o =  1.0420  v = -0.8084 -0.0000  0.5886  0.0000  0.0000  0.0000  0.0000  0.0000  0.0000  0.0000      0.0000  0.0000  0.0000  0.0000  0.0000  0.0000  0.0000  0.0000  0.0000  0.0000
     EDDAV:  cpu time    0.6867: real time    0.6867
 BZINTS: Fermi energy:  1.137031; 54.000000 electrons
         Band energy:-768.224496;  BLOECHL correction:  0.000000
       DOS:  cpu time    0.0013: real time    0.0013
    CHARGE:  cpu time    0.0630: real time    0.0630
    MIXING:  cpu time    0.0017: real time    0.0017
    --------------------------------------------
      LOOP:  cpu time    1.1689: real time    1.1689

 eigenvalue-minimisations  :  1488
 total energy-change (2. order) :-0.6112041E-01  (-0.4143246E-01)
 number of electron      54.0000000 magnetization      -0.0000000
 augmentation part       19.9505167 magnetization      -0.0000000

 Broyden mixing:
  rms(total) = 0.52168E+00    rms(broyden)= 0.52168E+00
  rms(prec ) = 0.54616E+00
  weight for this iteration     100.00

 eigenvalues of (default mixing * dielectric matrix)
  average eigenvalue GAMMA=   1.1880
  2.0750  0.8880  0.6011

 Free energy of the ion-electron system (eV)
  ---------------------------------------------------
  alpha Z        PSCENC =       195.30296598
  Ewald energy   TEWEN  =     -4172.12804146
  -Hartree energ DENC   =     -2161.30119026
  -exchange      EXHF   =         0.00000000
  -V(xc)+E(xc)   XCENC  =       293.72391622
  PAW double counting   =      6118.01492549    -6222.14418637
  entropy T*S    EENTRO =         0.00000000
  eigenvalues    EBANDS =      -768.22449625
  atomic energy  EATOM  =      6677.74365140
  Solvation  Ediel_sol  =         0.00000000
  ---------------------------------------------------
  free energy    TOTEN  =       -39.01245525 eV

  energy without entropy =      -39.01245525  energy(sigma->0) =      -39.01245525


--------------------------------------------------------------------------------------------------------




--------------------------------------- Iteration      1(   9)  ---------------------------------------


    POTLOK:  cpu time    0.0268: real time    0.0268
    SETDIJ:  cpu time    0.3908: real time    0.3908
atom =   1  type =  1  l = 2
 
 onsite density matrix
 
spin component  1
 
  0.0378  0.0000  0.0230  0.0000  0.0000
  0.0000  0.0303  0.0000  0.0200  0.0000
  0.0230  0.0000  0.0251  0.0000 -0.0000
  0.0000  0.0200  0.0000  0.0303  0.0000
  0.0000  0.0000 -0.0000  0.0000  0.0083
 
spin component  2
 
  0.9754  0.0000  0.0210  0.0000 -0.0000
  0.0000  0.9696  0.0000  0.0184  0.0000
  0.0210  0.0000  0.9632  0.0000 -0.0000
  0.0000  0.0184  0.0000  0.9696  0.0000
 -0.0000  0.0000 -0.0000  0.0000  0.9511
 
 occupancies and eigenvectors
 
  o =  0.0076  v = -0.6060 -0.0000  0.7954  0.0000  0.0000  0.0000  0.0000  0.0000  0.0000  0.0000      0.0000  0.0000  0.0000  0.0000  0.0000  0.0000  0.0000  0.0000  0.0000  0.0000
  o =  0.0083  v = -0.0000  0.0000  0.0000  0.0000 -1.0000  0.0000  0.0000  0.0000  0.0000  0.0000      0.0000  0.0000  0.0000  0.0000  0.0000  0.0000  0.0000  0.0000  0.0000  0.0000
  o =  0.0103  v =  0.0000  0.7071  0.0000 -0.7071  0.0000  0.0000  0.0000  0.0000  0.0000  0.0000      0.0000  0.0000  0.0000  0.0000  0.0000  0.0000  0.0000  0.0000  0.0000  0.0000
  o =  0.0503  v =  0.0000  0.7071  0.0000  0.7071  0.0000  0.0000  0.0000  0.0000  0.0000  0.0000      0.0000  0.0000  0.0000  0.0000  0.0000  0.0000  0.0000  0.0000  0.0000  0.0000
  o =  0.0553  v = -0.7954 -0.0000 -0.6060  0.0000  0.0000  0.0000  0.0000  0.0000  0.0000  0.0000      0.0000  0.0000  0.0000  0.0000  0.0000  0.0000  0.0000  0.0000  0.0000  0.0000
  o =  0.9474  v =  0.0000  0.0000  0.0000  0.0000  0.0000 -0.6010  0.0000  0.7993  0.0000 -0.0000      0.0000  0.0000  0.0000  0.0000  0.0000  0.0000  0.0000  0.0000  0.0000  0.0000
  o =  0.9511  v =  0.0000  0.0000  0.0000  0.0000  0.0000  0.0000 -0.0000 -0.0000  0.0000 -1.0000      0.0000  0.0000  0.0000  0.0000  0.0000  0.0000  0.0000  0.0000  0.0000  0.0000
  o =  0.9511  v =  0.0000  0.0000  0.0000  0.0000  0.0000  0.0000 -0.7071  0.0000  0.7071  0.0000      0.0000  0.0000  0.0000  0.0000  0.0000  0.0000  0.0000  0.0000  0.0000  0.0000
  o =  0.9880  v =  0.0000  0.0000  0.0000  0.0000  0.0000  0.0000  0.7071  0.0000  0.7071 -0.0000      0.0000  0.0000  0.0000  0.0000  0.0000  0.0000  0.0000  0.0000  0.0000  0.0000
  o =  0.9912  v =  0.0000  0.0000  0.0000  0.0000  0.0000 -0.7993  0.0000 -0.6010  0.0000  0.0000      0.0000  0.0000  0.0000  0.0000  0.0000  0.0000  0.0000  0.0000  0.0000  0.0000
atom =   2  type =  1  l = 2
 
 onsite density matrix
 
spin component  1
 
  0.9754  0.0000 -0.0210  0.0000 -0.0000
  0.0000  0.9696  0.0000 -0.0184  0.0000
 -0.0210  0.0000  0.9632  0.0000  0.0000
  0.0000 -0.0184  0.0000  0.9696  0.0000
 -0.0000  0.0000  0.0000  0.0000  0.9511
 
spin component  2
 
  0.0378  0.0000 -0.0230  0.0000  0.0000
  0.0000  0.0303  0.0000 -0.0200  0.0000
 -0.0230  0.0000  0.0251  0.0000  0.0000
  0.0000 -0.0200  0.0000  0.0303  0.0000
  0.0000  0.0000  0.0000  0.0000  0.0083
 
 occupancies and eigenvectors
 
  o =  0.0076  v =  0.0000  0.0000  0.0000  0.0000  0.0000 -0.6060 -0.0000 -0.7954  0.0000  0.0000      0.0000  0.0000  0.0000  0.0000  0.0000  0.0000  0.0000  0.0000  0.0000  0.0000
  o =  0.0083  v =  0.0000  0.0000  0.0000  0.0000  0.0000 -0.0000  0.0000 -0.0000  0.0000 -1.0000      0.0000  0.0000  0.0000  0.0000  0.0000  0.0000  0.0000  0.0000  0.0000  0.0000
  o =  0.0103  v =  0.0000  0.0000  0.0000  0.0000  0.0000  0.0000 -0.7071  0.0000 -0.7071 -0.0000      0.0000  0.0000  0.0000  0.0000  0.0000  0.0000  0.0000  0.0000  0.0000  0.0000
  o =  0.0503  v =  0.0000  0.0000  0.0000  0.0000  0.0000  0.0000 -0.7071  0.0000  0.7071 -0.0000      0.0000  0.0000  0.0000  0.0000  0.0000  0.0000  0.0000  0.0000  0.0000  0.0000
  o =  0.0553  v =  0.0000  0.0000  0.0000  0.0000  0.0000 -0.7954 -0.0000  0.6060  0.0000  0.0000      0.0000  0.0000  0.0000  0.0000  0.0000  0.0000  0.0000  0.0000  0.0000  0.0000
  o =  0.9474  v = -0.6010  0.0000 -0.7993  0.0000 -0.0000  0.0000  0.0000  0.0000  0.0000  0.0000      0.0000  0.0000  0.0000  0.0000  0.0000  0.0000  0.0000  0.0000  0.0000  0.0000
  o =  0.9511  v =  0.0000 -0.0000  0.0000  0.0000 -1.0000  0.0000  0.0000  0.0000  0.0000  0.0000      0.0000  0.0000  0.0000  0.0000  0.0000  0.0000  0.0000  0.0000  0.0000  0.0000
  o =  0.9511  v =  0.0000  0.7071  0.0000  0.7071 -0.0000  0.0000  0.0000  0.0000  0.0000  0.0000      0.0000  0.0000  0.0000  0.0000  0.0000  0.0000  0.0000  0.0000  0.0000  0.0000
  o =  0.9880  v =  0.0000  0.7071  0.0000 -0.7071 -0.0000  0.0000  0.0000  0.0000  0.0000  0.0000      0.0000  0.0000  0.0000  0.0000  0.0000  0.0000  0.0000  0.0000  0.0000  0.0000
  o =  0.9912  v = -0.7993  0.0000  0.6010  0.0000  0.0000  0.0000  0.0000  0.0000  0.0000  0.0000      0.0000  0.0000  0.0000  0.0000  0.0000  0.0000  0.0000  0.0000  0.0000  0.0000
     EDDAV:  cpu time    0.6298: real time    0.6299
 BZINTS: Fermi energy:  1.202463; 54.000000 electrons
         Band energy:-765.183033;  BLOECHL correction:  0.000000
       DOS:  cpu time    0.0012: real time    0.0012
    CHARGE:  cpu time    0.0630: real time    0.0630
    MIXING:  cpu time    0.0018: real time    0.0018
    --------------------------------------------
      LOOP:  cpu time    1.1135: real time    1.1135

 eigenvalue-minimisations  :  1332
 total energy-change (2. order) :-0.1571600E+00  (-0.4881462E-02)
 number of electron      54.0000000 magnetization      -0.0000000
 augmentation part       19.9433010 magnetization      -0.0000000

 Broyden mixing:
  rms(total) = 0.12622E+00    rms(broyden)= 0.12622E+00
  rms(prec ) = 0.14150E+00
  weight for this iteration     100.00

 eigenvalues of (default mixing * dielectric matrix)
  average eigenvalue GAMMA=   1.2251
  2.6194  0.8283  0.8283  0.6243

 Free energy of the ion-electron system (eV)
  ---------------------------------------------------
  alpha Z        PSCENC =       195.30296598
  Ewald energy   TEWEN  =     -4172.12804146
  -Hartree energ DENC   =     -2160.96637941
  -exchange      EXHF   =         0.00000000
  -V(xc)+E(xc)   XCENC  =       293.90693823
  PAW double counting   =      6272.31014132    -6380.15585867
  entropy T*S    EENTRO =         0.00000000
  eigenvalues    EBANDS =      -765.18303265
  atomic energy  EATOM  =      6677.74365140
  Solvation  Ediel_sol  =         0.00000000
  ---------------------------------------------------
  free energy    TOTEN  =       -39.16961527 eV

  energy without entropy =      -39.16961527  energy(sigma->0) =      -39.16961527


--------------------------------------------------------------------------------------------------------




--------------------------------------- Iteration      1(  10)  ---------------------------------------


    POTLOK:  cpu time    0.0268: real time    0.0268
    SETDIJ:  cpu time    0.3898: real time    0.3898
atom =   1  type =  1  l = 2
 
 onsite density matrix
 
spin component  1
 
  0.0457  0.0000  0.0253  0.0000 -0.0000
  0.0000  0.0377  0.0000  0.0216  0.0000
  0.0253  0.0000  0.0321  0.0000  0.0000
  0.0000  0.0216  0.0000  0.0377  0.0000
 -0.0000  0.0000  0.0000  0.0000  0.0139
 
spin component  2
 
  0.9677  0.0000  0.0188  0.0000  0.0000
  0.0000  0.9623  0.0000  0.0168  0.0000
  0.0188  0.0000  0.9564  0.0000 -0.0000
  0.0000  0.0168  0.0000  0.9623  0.0000
  0.0000  0.0000 -0.0000  0.0000  0.9457
 
 occupancies and eigenvectors
 
  o =  0.0127  v = -0.6080  0.0000  0.7939 -0.0000 -0.0000  0.0000  0.0000  0.0000  0.0000  0.0000      0.0000  0.0000  0.0000  0.0000  0.0000  0.0000  0.0000  0.0000  0.0000  0.0000
  o =  0.0139  v = -0.0000 -0.0000  0.0000  0.0000  1.0000  0.0000  0.0000  0.0000  0.0000  0.0000      0.0000  0.0000  0.0000  0.0000  0.0000  0.0000  0.0000  0.0000  0.0000  0.0000
  o =  0.0161  v =  0.0000  0.7071 -0.0000 -0.7071  0.0000  0.0000  0.0000  0.0000  0.0000  0.0000      0.0000  0.0000  0.0000  0.0000  0.0000  0.0000  0.0000  0.0000  0.0000  0.0000
  o =  0.0593  v = -0.0000 -0.7071 -0.0000 -0.7071 -0.0000  0.0000  0.0000  0.0000  0.0000  0.0000      0.0000  0.0000  0.0000  0.0000  0.0000  0.0000  0.0000  0.0000  0.0000  0.0000
  o =  0.0650  v = -0.7939  0.0000 -0.6080  0.0000 -0.0000  0.0000  0.0000  0.0000  0.0000  0.0000      0.0000  0.0000  0.0000  0.0000  0.0000  0.0000  0.0000  0.0000  0.0000  0.0000
  o =  0.9424  v =  0.0000  0.0000  0.0000  0.0000  0.0000 -0.5971 -0.0000  0.8022  0.0000  0.0000      0.0000  0.0000  0.0000  0.0000  0.0000  0.0000  0.0000  0.0000  0.0000  0.0000
  o =  0.9455  v =  0.0000  0.0000  0.0000  0.0000  0.0000  0.0000 -0.7071 -0.0000  0.7071  0.0000      0.0000  0.0000  0.0000  0.0000  0.0000  0.0000  0.0000  0.0000  0.0000  0.0000
  o =  0.9457  v =  0.0000  0.0000  0.0000  0.0000  0.0000  0.0000  0.0000 -0.0000 -0.0000  1.0000      0.0000  0.0000  0.0000  0.0000  0.0000  0.0000  0.0000  0.0000  0.0000  0.0000
  o =  0.9792  v =  0.0000  0.0000  0.0000  0.0000  0.0000  0.0000  0.7071 -0.0000  0.7071  0.0000      0.0000  0.0000  0.0000  0.0000  0.0000  0.0000  0.0000  0.0000  0.0000  0.0000
  o =  0.9817  v =  0.0000  0.0000  0.0000  0.0000  0.0000 -0.8022 -0.0000 -0.5971  0.0000  0.0000      0.0000  0.0000  0.0000  0.0000  0.0000  0.0000  0.0000  0.0000  0.0000  0.0000
atom =   2  type =  1  l = 2
 
 onsite density matrix
 
spin component  1
 
  0.9677  0.0000 -0.0188  0.0000  0.0000
  0.0000  0.9623  0.0000 -0.0168  0.0000
 -0.0188  0.0000  0.9564  0.0000  0.0000
  0.0000 -0.0168  0.0000  0.9623  0.0000
  0.0000  0.0000  0.0000  0.0000  0.9457
 
spin component  2
 
  0.0457  0.0000 -0.0253  0.0000 -0.0000
  0.0000  0.0377  0.0000 -0.0216  0.0000
 -0.0253  0.0000  0.0321  0.0000  0.0000
  0.0000 -0.0216  0.0000  0.0377  0.0000
 -0.0000  0.0000  0.0000  0.0000  0.0139
 
 occupancies and eigenvectors
 
  o =  0.0127  v =  0.0000  0.0000  0.0000  0.0000  0.0000 -0.6080  0.0000 -0.7939  0.0000  0.0000      0.0000  0.0000  0.0000  0.0000  0.0000  0.0000  0.0000  0.0000  0.0000  0.0000
  o =  0.0139  v =  0.0000  0.0000  0.0000  0.0000  0.0000 -0.0000 -0.0000 -0.0000 -0.0000 -1.0000      0.0000  0.0000  0.0000  0.0000  0.0000  0.0000  0.0000  0.0000  0.0000  0.0000
  o =  0.0161  v =  0.0000  0.0000  0.0000  0.0000  0.0000 -0.0000 -0.7071 -0.0000 -0.7071  0.0000      0.0000  0.0000  0.0000  0.0000  0.0000  0.0000  0.0000  0.0000  0.0000  0.0000
  o =  0.0593  v =  0.0000  0.0000  0.0000  0.0000  0.0000 -0.0000 -0.7071  0.0000  0.7071  0.0000      0.0000  0.0000  0.0000  0.0000  0.0000  0.0000  0.0000  0.0000  0.0000  0.0000
  o =  0.0650  v =  0.0000  0.0000  0.0000  0.0000  0.0000 -0.7939  0.0000  0.6080 -0.0000  0.0000      0.0000  0.0000  0.0000  0.0000  0.0000  0.0000  0.0000  0.0000  0.0000  0.0000
  o =  0.9424  v = -0.5971 -0.0000 -0.8022  0.0000  0.0000  0.0000  0.0000  0.0000  0.0000  0.0000      0.0000  0.0000  0.0000  0.0000  0.0000  0.0000  0.0000  0.0000  0.0000  0.0000
  o =  0.9455  v =  0.0000 -0.7071  0.0000 -0.7071 -0.0000  0.0000  0.0000  0.0000  0.0000  0.0000      0.0000  0.0000  0.0000  0.0000  0.0000  0.0000  0.0000  0.0000  0.0000  0.0000
  o =  0.9457  v = -0.0000  0.0000 -0.0000  0.0000 -1.0000  0.0000  0.0000  0.0000  0.0000  0.0000      0.0000  0.0000  0.0000  0.0000  0.0000  0.0000  0.0000  0.0000  0.0000  0.0000
  o =  0.9792  v =  0.0000 -0.7071  0.0000  0.7071 -0.0000  0.0000  0.0000  0.0000  0.0000  0.0000      0.0000  0.0000  0.0000  0.0000  0.0000  0.0000  0.0000  0.0000  0.0000  0.0000
  o =  0.9817  v = -0.8022 -0.0000  0.5971  0.0000  0.0000  0.0000  0.0000  0.0000  0.0000  0.0000      0.0000  0.0000  0.0000  0.0000  0.0000  0.0000  0.0000  0.0000  0.0000  0.0000
     EDDAV:  cpu time    0.7285: real time    0.7285
 BZINTS: Fermi energy:  1.193423; 54.000000 electrons
         Band energy:-764.306194;  BLOECHL correction:  0.000000
       DOS:  cpu time    0.0011: real time    0.0011
    CHARGE:  cpu time    0.0632: real time    0.0632
    MIXING:  cpu time    0.0019: real time    0.0019
    --------------------------------------------
      LOOP:  cpu time    1.2114: real time    1.2114

 eigenvalue-minimisations  :  1608
 total energy-change (2. order) :-0.9483231E-03  (-0.1970213E-02)
 number of electron      54.0000000 magnetization      -0.0000000
 augmentation part       19.9415173 magnetization      -0.0000000

 Broyden mixing:
  rms(total) = 0.28237E-01    rms(broyden)= 0.28236E-01
  rms(prec ) = 0.31166E-01
  weight for this iteration     100.00

 eigenvalues of (default mixing * dielectric matrix)
  average eigenvalue GAMMA=   1.1589
  2.5188  0.9590  0.9590  0.7456  0.6119

 Free energy of the ion-electron system (eV)
  ---------------------------------------------------
  alpha Z        PSCENC =       195.30296598
  Ewald energy   TEWEN  =     -4172.12804146
  -Hartree energ DENC   =     -2161.74757357
  -exchange      EXHF   =         0.00000000
  -V(xc)+E(xc)   XCENC  =       294.01993384
  PAW double counting   =      6265.05461586    -6373.10992201
  entropy T*S    EENTRO =         0.00000000
  eigenvalues    EBANDS =      -764.30619364
  atomic energy  EATOM  =      6677.74365140
  Solvation  Ediel_sol  =         0.00000000
  ---------------------------------------------------
  free energy    TOTEN  =       -39.17056360 eV

  energy without entropy =      -39.17056360  energy(sigma->0) =      -39.17056360


--------------------------------------------------------------------------------------------------------




--------------------------------------- Iteration      1(  11)  ---------------------------------------


    POTLOK:  cpu time    0.0270: real time    0.0270
    SETDIJ:  cpu time    0.3875: real time    0.3875
atom =   1  type =  1  l = 2
 
 onsite density matrix
 
spin component  1
 
  0.0440  0.0000  0.0249  0.0000  0.0000
  0.0000  0.0360  0.0000  0.0214  0.0000
  0.0249  0.0000  0.0305  0.0000 -0.0000
  0.0000  0.0214  0.0000  0.0360  0.0000
  0.0000  0.0000 -0.0000  0.0000  0.0125
 
spin component  2
 
  0.9703  0.0000  0.0189  0.0000 -0.0000
  0.0000  0.9649  0.0000  0.0168  0.0000
  0.0189  0.0000  0.9590  0.0000  0.0000
  0.0000  0.0168  0.0000  0.9649  0.0000
 -0.0000  0.0000  0.0000  0.0000  0.9483
 
 occupancies and eigenvectors
 
  o =  0.0114  v = -0.6071 -0.0000  0.7946  0.0000  0.0000  0.0000  0.0000  0.0000  0.0000  0.0000      0.0000  0.0000  0.0000  0.0000  0.0000  0.0000  0.0000  0.0000  0.0000  0.0000
  o =  0.0125  v = -0.0000  0.0000  0.0000  0.0000 -1.0000  0.0000  0.0000  0.0000  0.0000  0.0000      0.0000  0.0000  0.0000  0.0000  0.0000  0.0000  0.0000  0.0000  0.0000  0.0000
  o =  0.0147  v =  0.0000  0.7071  0.0000 -0.7071  0.0000  0.0000  0.0000  0.0000  0.0000  0.0000      0.0000  0.0000  0.0000  0.0000  0.0000  0.0000  0.0000  0.0000  0.0000  0.0000
  o =  0.0574  v =  0.0000  0.7071  0.0000  0.7071  0.0000  0.0000  0.0000  0.0000  0.0000  0.0000      0.0000  0.0000  0.0000  0.0000  0.0000  0.0000  0.0000  0.0000  0.0000  0.0000
  o =  0.0631  v = -0.7946 -0.0000 -0.6071  0.0000  0.0000  0.0000  0.0000  0.0000  0.0000  0.0000      0.0000  0.0000  0.0000  0.0000  0.0000  0.0000  0.0000  0.0000  0.0000  0.0000
  o =  0.9449  v =  0.0000  0.0000  0.0000  0.0000  0.0000 -0.5975 -0.0000  0.8019  0.0000 -0.0000      0.0000  0.0000  0.0000  0.0000  0.0000  0.0000  0.0000  0.0000  0.0000  0.0000
  o =  0.9481  v =  0.0000  0.0000  0.0000  0.0000  0.0000  0.0000 -0.7071  0.0000  0.7071  0.0000      0.0000  0.0000  0.0000  0.0000  0.0000  0.0000  0.0000  0.0000  0.0000  0.0000
  o =  0.9483  v =  0.0000  0.0000  0.0000  0.0000  0.0000 -0.0000  0.0000  0.0000  0.0000  1.0000      0.0000  0.0000  0.0000  0.0000  0.0000  0.0000  0.0000  0.0000  0.0000  0.0000
  o =  0.9817  v =  0.0000  0.0000  0.0000  0.0000  0.0000  0.0000 -0.7071  0.0000 -0.7071  0.0000      0.0000  0.0000  0.0000  0.0000  0.0000  0.0000  0.0000  0.0000  0.0000  0.0000
  o =  0.9843  v =  0.0000  0.0000  0.0000  0.0000  0.0000 -0.8019 -0.0000 -0.5975  0.0000 -0.0000      0.0000  0.0000  0.0000  0.0000  0.0000  0.0000  0.0000  0.0000  0.0000  0.0000
atom =   2  type =  1  l = 2
 
 onsite density matrix
 
spin component  1
 
  0.9703  0.0000 -0.0189  0.0000 -0.0000
  0.0000  0.9649  0.0000 -0.0168  0.0000
 -0.0189  0.0000  0.9590  0.0000  0.0000
  0.0000 -0.0168  0.0000  0.9649  0.0000
 -0.0000  0.0000  0.0000  0.0000  0.9483
 
spin component  2
 
  0.0440  0.0000 -0.0249  0.0000  0.0000
  0.0000  0.0360  0.0000 -0.0214  0.0000
 -0.0249  0.0000  0.0305  0.0000  0.0000
  0.0000 -0.0214  0.0000  0.0360  0.0000
  0.0000  0.0000  0.0000  0.0000  0.0125
 
 occupancies and eigenvectors
 
  o =  0.0114  v =  0.0000  0.0000  0.0000  0.0000  0.0000 -0.6071 -0.0000 -0.7946  0.0000  0.0000      0.0000  0.0000  0.0000  0.0000  0.0000  0.0000  0.0000  0.0000  0.0000  0.0000
  o =  0.0125  v =  0.0000  0.0000  0.0000  0.0000  0.0000 -0.0000  0.0000 -0.0000  0.0000 -1.0000      0.0000  0.0000  0.0000  0.0000  0.0000  0.0000  0.0000  0.0000  0.0000  0.0000
  o =  0.0147  v =  0.0000  0.0000  0.0000  0.0000  0.0000  0.0000  0.7071  0.0000  0.7071 -0.0000      0.0000  0.0000  0.0000  0.0000  0.0000  0.0000  0.0000  0.0000  0.0000  0.0000
  o =  0.0574  v =  0.0000  0.0000  0.0000  0.0000  0.0000  0.0000  0.7071  0.0000 -0.7071 -0.0000      0.0000  0.0000  0.0000  0.0000  0.0000  0.0000  0.0000  0.0000  0.0000  0.0000
[...]
     33       8.6376      0.00000
     34       9.7004      0.00000
     35      10.2136      0.00000
     36      11.1679      0.00000

 k-point     7 :       0.1250    0.1250    0.4167
  band No.  band energies     occupation 
      1     -46.7574      1.00000
      2     -46.7185      1.00000
      3     -46.7029      1.00000
      4     -41.7751      1.00000
      5     -41.7417      1.00000
      6     -41.7198      1.00000
      7     -20.8363      1.00000
      8     -20.7116      1.00000
      9     -20.6624      1.00000
     10     -20.5752      1.00000
     11      -4.2431      1.00000
     12      -3.9432      1.00000
     13      -3.5874      1.00000
     14      -3.5264      1.00000
     15      -3.4085      1.00000
     16      -3.1633      1.00000
     17      -2.6987      1.00000
     18      -2.4913      1.00000
     19      -2.4675      1.00000
     20      -2.0038      1.00000
     21      -1.8280      1.00000
     22      -1.7646      1.00000
     23      -0.5537      1.00000
     24      -0.3176      1.00000
     25       0.0206      1.00000
     26       0.5384      1.00000
     27       0.8487      1.00000
     28       7.0830      0.00000
     29       7.1134      0.00000
     30       7.2082      0.00000
     31       7.8828      0.00000
     32       8.0212      0.00000
     33       8.5221      0.00000
     34      10.6795      0.00000
     35      11.9630      0.00000
     36      12.4377      0.00000

 k-point     8 :       0.3750    0.1250    0.4167
  band No.  band energies     occupation 
      1     -46.7574      1.00000
      2     -46.7185      1.00000
      3     -46.7029      1.00000
      4     -41.7751      1.00000
      5     -41.7417      1.00000
      6     -41.7198      1.00000
      7     -20.7808      1.00000
      8     -20.7249      1.00000
      9     -20.6764      1.00000
     10     -20.6028      1.00000
     11      -4.1132      1.00000
     12      -3.9999      1.00000
     13      -3.8954      1.00000
     14      -3.6062      1.00000
     15      -3.4204      1.00000
     16      -2.9781      1.00000
     17      -2.8268      1.00000
     18      -2.6548      1.00000
     19      -2.2560      1.00000
     20      -1.9584      1.00000
     21      -1.7175      1.00000
     22      -1.5997      1.00000
     23      -0.5450      1.00000
     24      -0.3791      1.00000
     25      -0.0830      1.00000
     26       0.4908      1.00000
     27       1.0578      1.00000
     28       7.0804      0.00000
     29       7.1084      0.00000
     30       7.3359      0.00000
     31       7.7903      0.00000
     32       8.2834      0.00000
     33       9.0177      0.00000
     34      10.4846      0.00000
     35      10.9754      0.00000
     36      12.1659      0.00000

 k-point     9 :       0.3750    0.3750    0.4167
  band No.  band energies     occupation 
      1     -46.7574      1.00000
      2     -46.7185      1.00000
      3     -46.7029      1.00000
      4     -41.7752      1.00000
      5     -41.7417      1.00000
      6     -41.7199      1.00000
      7     -20.7601      1.00000
      8     -20.7496      1.00000
      9     -20.6777      1.00000
     10     -20.5940      1.00000
     11      -4.3738      1.00000
     12      -4.1234      1.00000
     13      -3.8707      1.00000
     14      -3.7904      1.00000
     15      -3.4752      1.00000
     16      -2.9916      1.00000
     17      -2.6809      1.00000
     18      -2.4460      1.00000
     19      -2.0641      1.00000
     20      -1.7768      1.00000
     21      -1.6564      1.00000
     22      -1.5535      1.00000
     23      -0.5462      1.00000
     24      -0.3699      1.00000
     25      -0.1284      1.00000
     26       0.5398      1.00000
     27       1.0058      1.00000
     28       7.0868      0.00000
     29       7.1329      0.00000
     30       7.3650      0.00000
     31       7.7830      0.00000
     32       8.1570      0.00000
     33       9.4361      0.00000
     34      10.9568      0.00000
     35      11.1748      0.00000
     36      11.2084      0.00000


--------------------------------------------------------------------------------------------------------


 soft charge-density along one line, spin component           1
         0         1         2         3         4         5         6         7         8         9
 total charge-density along one line
 
 soft charge-density along one line, spin component           2
         0         1         2         3         4         5         6         7         8         9
 total charge-density along one line
 
 pseudopotential strength for first ion, spin component:           1
-42.505  -0.000  -0.027   7.873   0.000   0.012   0.000   0.000
 -0.000 -42.476  -0.000   0.000   7.860   0.000   0.000   0.000
 -0.027  -0.000 -42.505   0.012   0.000   7.873   0.000   0.000
  7.873   0.000   0.012   5.256  -0.000  -0.002  -0.000  -0.000
  0.000   7.860   0.000  -0.000   5.258  -0.000  -0.000  -0.000
  0.012   0.000   7.873  -0.002  -0.000   5.256  -0.000  -0.000
  0.000   0.000   0.000  -0.000  -0.000  -0.000  -1.471  -0.000
  0.000   0.000   0.000  -0.000  -0.000  -0.000  -0.000  -1.431
 -0.000   0.000  -0.000   0.000  -0.000   0.000  -0.065   0.000
  0.000   0.000   0.000  -0.000  -0.000  -0.000  -0.000  -0.082
 -0.000  -0.000   0.000   0.000   0.000  -0.000  -0.000   0.000
  0.000   0.000   0.000  -0.000  -0.000  -0.000  -1.913  -0.000
  0.000   0.000   0.000  -0.000  -0.000  -0.000  -0.000  -1.871
 -0.000   0.000  -0.000   0.000  -0.000   0.000  -0.068   0.000
  0.000   0.000   0.000  -0.000  -0.000  -0.000  -0.000  -0.084
 -0.000  -0.000   0.000   0.000   0.000  -0.000  -0.000   0.000
 -0.000  -0.000  -0.000  -0.000  -0.000  -0.000   0.007   0.000
 -0.000  -0.000  -0.000  -0.000  -0.000  -0.000   0.013   0.000
 pseudopotential strength for first ion, spin component:           2
-45.846  -0.000  -0.020   9.403   0.000   0.007   0.000   0.000
 -0.000 -45.827  -0.000   0.000   9.397   0.000   0.000   0.000
 -0.020  -0.000 -45.846   0.007   0.000   9.403   0.000   0.000
  9.403   0.000   0.007   4.740  -0.000  -0.001  -0.000  -0.000
  0.000   9.397   0.000  -0.000   4.742  -0.000   0.000  -0.000
  0.007   0.000   9.403  -0.001  -0.000   4.740  -0.000   0.000
  0.000   0.000   0.000  -0.000   0.000  -0.000  -7.765  -0.000
  0.000   0.000   0.000  -0.000  -0.000   0.000  -0.000  -7.736
 -0.000   0.000  -0.000   0.000  -0.000   0.000  -0.045   0.000
  0.000   0.000   0.000   0.000  -0.000  -0.000  -0.000  -0.065
 -0.000  -0.000   0.000   0.000   0.000  -0.000   0.000   0.000
  0.000   0.000   0.000  -0.000  -0.000  -0.000  -8.261  -0.000
  0.000   0.000   0.000  -0.000  -0.000  -0.000  -0.000  -8.232
 -0.000   0.000  -0.000   0.000  -0.000   0.000  -0.047   0.000
  0.000   0.000   0.000  -0.000  -0.000  -0.000  -0.000  -0.066
 -0.000  -0.000   0.000   0.000   0.000  -0.000   0.000   0.000
 -0.000  -0.000  -0.000  -0.000  -0.000  -0.000   0.003   0.000
 -0.000  -0.000  -0.000  -0.000  -0.000  -0.000   0.005   0.000
 total augmentation occupancy for first ion, spin component:           1
  1.998   0.000   0.000  -0.013   0.000   0.000   0.000   0.000   0.000   0.000   0.000   0.000   0.000   0.000   0.000   0.000
  0.000   1.998   0.000   0.000  -0.013   0.000   0.000   0.000   0.000   0.000   0.000   0.000   0.000   0.000   0.000   0.000
  0.000   0.000   1.998   0.000   0.000  -0.013   0.000   0.000   0.000   0.000   0.000   0.000   0.000   0.000   0.000   0.000
 -0.013   0.000   0.000   0.085   0.000  -0.008   0.000   0.000   0.000   0.000   0.000   0.000   0.000   0.000   0.000   0.000
  0.000  -0.013   0.000   0.000   0.097   0.000   0.000   0.000   0.000   0.000   0.000   0.000   0.000   0.000   0.000   0.000
  0.000   0.000  -0.013  -0.008   0.000   0.085   0.000   0.000   0.000   0.000   0.000   0.000   0.000   0.000   0.000   0.000
  0.000   0.000   0.000   0.000   0.000   0.000   7.559   0.000   2.868   0.000  -0.000  -5.610   0.000  -2.708   0.000   0.000
  0.000   0.000   0.000   0.000   0.000   0.000   0.000   6.488   0.000   2.536   0.000   0.000  -4.593   0.000  -2.389   0.000
  0.000   0.000   0.000   0.000   0.000   0.000   2.868   0.000   5.864   0.000  -0.000  -2.709   0.000  -4.027   0.000   0.000
  0.000   0.000   0.000   0.000   0.000   0.000   0.000   2.536   0.000   6.488   0.000   0.000  -2.389   0.000  -4.593   0.000
  0.000   0.000   0.000   0.000   0.000   0.000   0.000   0.000  -0.000   0.000   3.836  -0.000   0.000  -0.000   0.000  -2.071
  0.000   0.000   0.000   0.000   0.000   0.000  -5.610   0.000  -2.709   0.000   0.000   4.830   0.000   2.587   0.000  -0.000
  0.000   0.000   0.000   0.000   0.000   0.000   0.000  -4.593   0.000  -2.389   0.000   0.000   3.855   0.000   2.277   0.000
  0.000   0.000   0.000   0.000   0.000   0.000  -2.708   0.000  -4.027   0.000   0.000   2.587   0.000   3.336   0.000  -0.000
  0.000   0.000   0.000   0.000   0.000   0.000   0.000  -2.389   0.000  -4.593   0.000   0.000   2.277   0.000   3.855   0.000
  0.000   0.000   0.000   0.000   0.000   0.000  -0.000   0.000  -0.000   0.000  -2.071  -0.000   0.000  -0.000   0.000   1.430
  0.000   0.000   0.000   0.000   0.000   0.000   0.193   0.000  -0.215   0.000   0.000  -0.224   0.000   0.231   0.000   0.000
  0.000   0.000   0.000   0.000   0.000   0.000   0.003   0.000   0.014   0.000   0.000   0.022   0.000  -0.030   0.000   0.000
 total augmentation occupancy for first ion, spin component:           2
  0.003   0.000  -0.000   0.011   0.000  -0.000   0.000   0.000   0.000   0.000   0.000   0.000   0.000   0.000   0.000   0.000
  0.000   0.003   0.000   0.000   0.012   0.000   0.000   0.000   0.000   0.000   0.000   0.000   0.000   0.000   0.000   0.000
 -0.000   0.000   0.003  -0.000   0.000   0.011   0.000   0.000   0.000   0.000   0.000   0.000   0.000   0.000   0.000   0.000
  0.011   0.000  -0.000  -0.011   0.000  -0.000   0.000   0.000   0.000   0.000   0.000   0.000   0.000   0.000   0.000   0.000
  0.000   0.012   0.000   0.000  -0.011   0.000   0.000   0.000   0.000   0.000   0.000   0.000   0.000   0.000   0.000   0.000
 -0.000   0.000   0.011  -0.000   0.000  -0.011   0.000   0.000   0.000   0.000   0.000   0.000   0.000   0.000   0.000   0.000
  0.000   0.000   0.000   0.000   0.000   0.000  -5.353   0.000  -1.617   0.000   0.000   3.068   0.000   1.272   0.000  -0.000
  0.000   0.000   0.000   0.000   0.000   0.000   0.000  -4.756   0.000  -1.444   0.000   0.000   2.585   0.000   1.137   0.000
  0.000   0.000   0.000   0.000   0.000   0.000  -1.617   0.000  -4.323   0.000   0.000   1.273   0.000   2.251   0.000  -0.000
  0.000   0.000   0.000   0.000   0.000   0.000   0.000  -1.444   0.000  -4.756   0.000   0.000   1.137   0.000   2.585   0.000
  0.000   0.000   0.000   0.000   0.000   0.000  -0.000   0.000   0.000   0.000  -3.301   0.000   0.000   0.000   0.000   1.438
  0.000   0.000   0.000   0.000   0.000   0.000   3.068   0.000   1.273   0.000  -0.000  -1.892   0.000  -0.934   0.000  -0.000
  0.000   0.000   0.000   0.000   0.000   0.000   0.000   2.585   0.000   1.137   0.000   0.000  -1.523   0.000  -0.836   0.000
  0.000   0.000   0.000   0.000   0.000   0.000   1.272   0.000   2.251   0.000   0.000  -0.934   0.000  -1.283   0.000  -0.000
  0.000   0.000   0.000   0.000   0.000   0.000   0.000   1.137   0.000   2.585   0.000   0.000  -0.836   0.000  -1.523   0.000
  0.000   0.000   0.000   0.000   0.000   0.000   0.000   0.000   0.000   0.000   1.438  -0.000   0.000   0.000   0.000  -0.679
  0.000   0.000   0.000   0.000   0.000   0.000   0.024   0.000   0.008   0.000   0.000  -0.025   0.000   0.004   0.000  -0.000
  0.000   0.000   0.000   0.000   0.000   0.000  -0.047   0.000   0.025   0.000  -0.000   0.028   0.000  -0.014   0.000   0.000


------------------------ aborting loop because EDIFF is reached ----------------------------------------


 


 total charge     
 
# of ion       s       p       d       tot
------------------------------------------
    1        0.163   6.152   4.948  11.263
    2        0.168   6.147   4.955  11.269
    3        1.726   4.367   0.000   6.093
    4        1.726   4.367   0.000   6.093
    5        1.726   4.363   0.000   6.088
    6        1.726   4.363   0.000   6.088
--------------------------------------------------
tot          7.234  29.758   9.903  46.895
 


 magnetization (x)
 
# of ion       s       p       d       tot
------------------------------------------
    1       -0.018  -0.019  -4.630  -4.668
    2        0.019   0.018   4.628   4.664
    3        0.002   0.017   0.000   0.018
    4        0.002   0.017   0.000   0.018
    5       -0.002  -0.013   0.000  -0.015
    6       -0.002  -0.013   0.000  -0.015
--------------------------------------------------
tot         -0.001   0.006  -0.002   0.003
 
    CHARGE:  cpu time    0.0614: real time    0.0614
    FORLOC:  cpu time    0.0021: real time    0.0021
    FORNL :  cpu time    0.3562: real time    0.3562
    STRESS:  cpu time    1.0968: real time    1.0968
    FORCOR:  cpu time    0.0265: real time    0.0265
    FORHAR:  cpu time    0.0036: real time    0.0036
    MIXING:  cpu time    0.0012: real time    0.0012
    OFIELD:  cpu time    0.0000: real time    0.0000

  FORCE on cell =-STRESS in cart. coord.  units (eV):
  Direction    XX          YY          ZZ          XY          YZ          ZX
  --------------------------------------------------------------------------------------
  Alpha Z   195.30297   195.30297   195.30297
  Ewald   -1580.63417 -1580.63417 -1010.86282     0.00000    -0.00000    -0.00000
  Hartree   592.31239   592.31239   977.70625     0.00000    -0.00000    -0.00000
  E(xc)    -314.07032  -314.07032  -313.84957    -0.00000    -0.00000    -0.00000
  Local     159.07969   159.07969  -789.14302    -0.00000     0.00000    -0.00000
  n-local  -242.24949  -242.58583  -241.37125     0.02243     0.11761     0.12000
  augment   265.53431   265.53431   265.02248     0.00000     0.00000     0.00000
  Kinetic   924.48535   925.32460   917.17932    -0.46627    -0.87225    -0.93026
  Fock        0.00000     0.00000     0.00000     0.00000     0.00000     0.00000
  -------------------------------------------------------------------------------------
  Total       0.01220     0.01220    -0.01566     0.00000     0.00000     0.00000
  in kB       0.24722     0.24722    -0.31743     0.00000     0.00000     0.00000
  external pressure =        0.06 kB  Pullay stress =        0.00 kB


 VOLUME and BASIS-vectors are now :
 -----------------------------------------------------------------------------
  energy-cutoff  :      900.00
  volume of cell :       79.04
      direct lattice vectors                 reciprocal lattice vectors
     4.890755346  0.000000000  0.000000000     0.204467394  0.000000000  0.000000000
     0.000000000  4.890755346  0.000000000     0.000000000  0.204467394  0.000000000
     0.000000000  0.000000000  3.304577047     0.000000000  0.000000000  0.302610587

  length of vectors
     4.890755346  4.890755346  3.304577047     0.204467394  0.204467394  0.302610587


 FORCES acting on ions
    electron-ion (+dipol)            ewald-force                    non-local-force                 convergence-correction
 -----------------------------------------------------------------------------------------------
   0.213E-11 0.516E-11 0.441E-11   0.284E-13 0.171E-12 0.232E-14   0.000E+00 0.000E+00 0.000E+00   -.989E-13 -.156E-12 -.741E-13
   -.529E-13 -.403E-13 -.120E-14   -.853E-13 0.284E-13 -.156E-16   0.000E+00 0.000E+00 0.000E+00   -.353E-13 0.184E-13 0.135E-16
   -.346E+02 0.346E+02 0.432E-11   0.360E+02 -.360E+02 -.154E-14   -.142E+01 0.142E+01 0.000E+00   -.268E-03 0.268E-03 0.540E-13
   0.346E+02 -.346E+02 0.482E-12   -.360E+02 0.360E+02 -.207E-14   0.142E+01 -.142E+01 0.000E+00   0.268E-03 -.268E-03 -.943E-13
   0.346E+02 0.346E+02 -.241E-07   -.360E+02 -.360E+02 -.667E-14   0.142E+01 0.142E+01 -.108E-18   0.268E-03 0.268E-03 0.287E-10
   -.346E+02 -.346E+02 0.241E-07   0.360E+02 0.360E+02 -.669E-14   -.142E+01 -.142E+01 0.108E-18   -.268E-03 -.268E-03 -.287E-10
 -----------------------------------------------------------------------------------------------
   0.543E-11 0.393E-11 0.749E-11   -.711E-14 0.000E+00 -.147E-13   -.444E-15 0.000E+00 0.000E+00   -.241E-12 -.210E-12 -.123E-12
 
 
 POSITION                                       TOTAL-FORCE (eV/Angst)
 -----------------------------------------------------------------------------------
      2.44538      2.44538      1.65229         0.000000     -0.000000     -0.000000
      0.00000      0.00000      0.00000         0.000000     -0.000000     -0.000000
      0.95552      3.93523      1.65229        -0.002603      0.002603     -0.000000
      3.93523      0.95552      1.65229         0.002603     -0.002603      0.000000
      1.48986      1.48986      0.00000         0.002603      0.002603     -0.000000
      3.40090      3.40090      0.00000        -0.002603     -0.002603      0.000000
 -----------------------------------------------------------------------------------
    total drift:                                0.000000      0.000000      0.000000


--------------------------------------------------------------------------------------------------------



  FREE ENERGIE OF THE ION-ELECTRON SYSTEM (eV)
  ---------------------------------------------------
  free  energy   TOTEN  =       -39.17101024 eV

  energy  without entropy=      -39.17101024  energy(sigma->0) =      -39.17101024
 


--------------------------------------------------------------------------------------------------------


    POTLOK:  cpu time    0.4167: real time    0.4167


--------------------------------------------------------------------------------------------------------


 writing wavefunctions
     LOOP+:  cpu time   18.1147: real time   18.1344
    4ORBIT:  cpu time    0.0000: real time    0.0000
 


 total charge     
 
# of ion       s       p       d       tot
------------------------------------------
    1        0.163   6.152   4.948  11.263
    2        0.168   6.147   4.955  11.269
    3        1.726   4.367   0.000   6.093
    4        1.726   4.367   0.000   6.093
    5        1.726   4.363   0.000   6.088
    6        1.726   4.363   0.000   6.088
--------------------------------------------------
tot          7.234  29.758   9.903  46.895
 


 magnetization (x)
 
# of ion       s       p       d       tot
------------------------------------------
    1       -0.018  -0.019  -4.630  -4.668
    2        0.019   0.018   4.628   4.664
    3        0.002   0.017   0.000   0.018
    4        0.002   0.017   0.000   0.018
    5       -0.002  -0.013   0.000  -0.015
    6       -0.002  -0.013   0.000  -0.015
--------------------------------------------------
tot         -0.001   0.006  -0.002   0.003
 
 BZINTS: Fermi energy:  1.208657; 54.000000 electrons
         Band energy:-763.930847;  BLOECHL correction:  0.000000

 total amount of memory used by VASP MPI-rank0    55058. kBytes
=======================================================================

   base      :      30000. kBytes
   nonl-proj :      13128. kBytes
   fftplans  :       3220. kBytes
   grid      :       4243. kBytes
   one-center:        186. kBytes
   wavefun   :       4281. kBytes
 
  
  
 General timing and accounting informations for this job:
 ========================================================
  
                  Total CPU time used (sec):       19.603
                            User time (sec):       14.783
                          System time (sec):        4.820
                         Elapsed time (sec):       19.679
  
                   Maximum memory used (kb):       80608.
                   Average memory used (kb):           0.
  
                          Minor page faults:        14632
                          Major page faults:            7
                 Voluntary context switches:          315
