       N       E                     dE             d eps       ncg     rms          rms(c)
DAV:   1     0.969368113790E+03    0.96937E+03   -0.37495E+04  1296   0.200E+03
DAV:   2     0.404095730390E+03   -0.56527E+03   -0.54052E+03  1512   0.514E+02
DAV:   3     0.369551172588E+03   -0.34545E+02   -0.34295E+02  1464   0.137E+02
DAV:   4     0.369126653314E+03   -0.42452E+00   -0.42416E+00  1572   0.165E+01
DAV:   5     0.369119446633E+03   -0.72067E-02   -0.72066E-02  1476   0.198E+00    0.588E+01
DAV:   6    -0.688172982914E+02   -0.43794E+03   -0.28332E+02  1584   0.212E+02    0.627E+01
DAV:   7    -0.715564986976E+02   -0.27392E+01   -0.50965E+01  1356   0.451E+01    0.172E+01
DAV:   8    -0.686654744765E+02    0.28910E+01   -0.69906E+00  1560   0.218E+01    0.668E+00
DAV:   9    -0.681604307305E+02    0.50504E+00   -0.50300E+00  1512   0.192E+01    0.817E+00
DAV:  10    -0.681120967170E+02    0.48334E-01   -0.44090E-01  1392   0.553E+00    0.599E+00
DAV:  11    -0.680756421118E+02    0.36455E-01   -0.11259E+00  1560   0.796E+00    0.200E+00
DAV:  12    -0.680376059090E+02    0.38036E-01   -0.10286E-01  1584   0.326E+00    0.123E+00
DAV:  13    -0.680293134452E+02    0.82925E-02   -0.71103E-02  1512   0.157E+00    0.104E+00
DAV:  14    -0.680245148218E+02    0.47986E-02   -0.52558E-02  1296   0.248E+00    0.408E-01
DAV:  15    -0.680253535515E+02   -0.83873E-03   -0.37122E-03  1476   0.445E-01    0.401E-01
DAV:  16    -0.680245487769E+02    0.80477E-03   -0.29965E-03  1416   0.360E-01    0.154E-01
DAV:  17    -0.680244917833E+02    0.56994E-04   -0.34432E-03  1404   0.419E-01    0.110E-01
DAV:  18    -0.680242692381E+02    0.22255E-03   -0.20505E-04  1332   0.105E-01    0.316E-02
DAV:  19    -0.680242582322E+02    0.11006E-04   -0.11447E-04  1488   0.712E-02    0.847E-03
DAV:  20    -0.680242802711E+02   -0.22039E-04   -0.66461E-06  1464   0.164E-02    0.950E-03
DAV:  21    -0.680242823735E+02   -0.21024E-05   -0.31258E-06  1332   0.122E-02    0.394E-03
DAV:  22    -0.680242807223E+02    0.16512E-05   -0.12774E-06  1476   0.673E-03    0.190E-03
DAV:  23    -0.680242836632E+02   -0.29409E-05   -0.10005E-07   792   0.244E-03    0.115E-03
DAV:  24    -0.680242842931E+02   -0.62995E-06   -0.18560E-08   648   0.117E-03    0.375E-04
DAV:  25    -0.680242847789E+02   -0.48579E-06   -0.19316E-08   648   0.924E-04    0.332E-04
DAV:  26    -0.680242849330E+02   -0.15406E-06   -0.17116E-09   648   0.292E-04    0.250E-04
DAV:  27    -0.680242848797E+02    0.53316E-07   -0.78775E-10   648   0.192E-04
   1 F= -.68024285E+02 E0= -.68024285E+02  d E =-.680243E+02  mag=     0.0000
