 vasp.5.4.4.18Apr17-6-g9f103f2a35 (build Apr 24 2018 11:19:41) complex          
  
 executed on         CrayXC-Intel date 2021.08.20  17:21:31
 running on  192 total cores
 distrk:  each k-point on   48 cores,    4 groups
 distr:  one band on NCORES_PER_BAND=  12 cores,    4 groups


--------------------------------------------------------------------------------------------------------


 INCAR:
 POTCAR:    PAW_PBE Mn_pv 02Aug2007               
 POTCAR:    PAW_PBE F 08Apr2002                   
 POTCAR:    PAW_PBE H 15Jun2001                   

 ----------------------------------------------------------------------------- 
|                                                                             |
|           W    W    AA    RRRRR   N    N  II  N    N   GGGG   !!!           |
|           W    W   A  A   R    R  NN   N  II  NN   N  G    G  !!!           |
|           W    W  A    A  R    R  N N  N  II  N N  N  G       !!!           |
|           W WW W  AAAAAA  RRRRR   N  N N  II  N  N N  G  GGG   !            |
|           WW  WW  A    A  R   R   N   NN  II  N   NN  G    G                |
|           W    W  A    A  R    R  N    N  II  N    N   GGGG   !!!           |
|                                                                             |
|      You have enabled k-point parallelism (KPAR>1).                         |
|      This developmental code was originally  written by Paul Kent at ORNL,  |
|      and carefully double checked in Vienna.                                |
|      GW as well as linear response parallelism added by Martijn Marsman     |
|      and Georg Kresse.                                                      |
|      Carefully verify results versus KPAR=1.                                |
|      Report problems to Paul Kent and Vienna.                               |
|                                                                             |
 ----------------------------------------------------------------------------- 

 POTCAR:    PAW_PBE Mn_pv 02Aug2007               
   VRHFIN =Mn: 3p4s3d                                                           
   LEXCH  = PE                                                                  
   EATOM  =  2025.2664 eV,  148.8529 Ry                                         
                                                                                
   TITEL  = PAW_PBE Mn_pv 02Aug2007                                             
   LULTRA =        F    use ultrasoft PP ?                                      
   IUNSCR =        1    unscreen: 0-lin 1-nonlin 2-no                           
   RPACOR =    2.080    partial core radius                                     
   POMASS =   54.938; ZVAL   =   13.000    mass and valenz                      
   RCORE  =    2.300    outmost cutoff radius                                   
   RWIGS  =    2.500; RWIGS  =    1.323    wigner-seitz radius (au A)           
   ENMAX  =  269.864; ENMIN  =  202.398 eV                                      
   ICORE  =        3    local potential                                         
   LCOR   =        T    correct aug charges                                     
   LPAW   =        T    paw PP                                                  
   EAUG   =  569.085                                                            
   DEXC   =    0.000                                                            
   RMAX   =    2.343    core radius for proj-oper                               
   RAUG   =    1.300    factor for augmentation sphere                          
   RDEP   =    2.338    radius for radial grids                                 
   RDEPT  =    1.798    core radius for aug-charge                              
                                                                                
   Atomic configuration                                                         
    8 entries                                                                   
     n  l   j            E        occ.                                          
     1  0  0.50     -6424.8287   2.0000                                         
     2  0  0.50      -739.1154   2.0000                                         
     2  1  1.50      -625.3949   6.0000                                         
     3  0  0.50       -81.6100   2.0000                                         
     3  1  1.50       -50.4667   6.0000                                         
     3  2  2.50        -3.3745   6.0000                                         
     4  0  0.50        -4.1331   1.0000                                         
     4  3  2.50        -1.3606   0.0000                                         
   Description                                                                  
     l       E           TYP  RCUT    TYP  RCUT                                 
     1    -50.4666628     23  2.000                                             
     1     -1.3605826     23  2.000                                             
     2     -3.3744729     23  2.300                                             
     2     -4.7350555     23  2.300                                             
     0     -4.1331431     23  2.300                                             
     0      7.6656591     23  2.300                                             
     3      9.5240782     23  2.300                                             
  local pseudopotential read in
  partial core-charges read in
  partial kinetic energy density read in
  atomic valenz-charges read in
  non local Contribution for L=           1  read in
    real space projection operators read in
  non local Contribution for L=           1  read in
    real space projection operators read in
  non local Contribution for L=           2  read in
    real space projection operators read in
  non local Contribution for L=           2  read in
    real space projection operators read in
  non local Contribution for L=           0  read in
    real space projection operators read in
  non local Contribution for L=           0  read in
    real space projection operators read in
    PAW grid and wavefunctions read in
 
   number of l-projection  operators is LMAX  =           6
   number of lm-projection operators is LMMAX =          18
 
 POTCAR:    PAW_PBE F 08Apr2002                   
   VRHFIN =F: s2p5                                                              
   LEXCH  = PE                                                                  
   EATOM  =   659.6475 eV,   48.4827 Ry                                         
                                                                                
   TITEL  = PAW_PBE F 08Apr2002                                                 
   LULTRA =        F    use ultrasoft PP ?                                      
   IUNSCR =        1    unscreen: 0-lin 1-nonlin 2-no                           
   RPACOR =    1.200    partial core radius                                     
   POMASS =   18.998; ZVAL   =    7.000    mass and valenz                      
   RCORE  =    1.520    outmost cutoff radius                                   
   RWIGS  =    1.500; RWIGS  =    0.794    wigner-seitz radius (au A)           
   ENMAX  =  400.000; ENMIN  =  300.000 eV                                      
   ICORE  =        2    local potential                                         
   LCOR   =        T    correct aug charges                                     
   LPAW   =        T    paw PP                                                  
   EAUG   =  613.614                                                            
   RMAX   =    1.555    core radius for proj-oper                               
   RAUG   =    1.300    factor for augmentation sphere                          
   RDEP   =    1.539    radius for radial grids                                 
   RDEPT  =    1.299    core radius for aug-charge                              
                                                                                
   Atomic configuration                                                         
    4 entries                                                                   
     n  l   j            E        occ.                                          
     1  0  0.50      -663.3661   2.0000                                         
     2  0  0.50       -29.8995   2.0000                                         
     2  1  0.50       -11.1114   5.0000                                         
     3  2  1.50       -10.8847   0.0000                                         
   Description                                                                  
     l       E           TYP  RCUT    TYP  RCUT                                 
     0    -29.8995018     23  1.200                                             
     0     -9.5240782     23  1.200                                             
     1    -11.1113914     23  1.520                                             
     1      1.3605826     23  1.520                                             
     2    -10.8846608      7  1.500                                             
  local pseudopotential read in
  partial core-charges read in
  partial kinetic energy density read in
  atomic valenz-charges read in
  non local Contribution for L=           0  read in
    real space projection operators read in
  non local Contribution for L=           0  read in
    real space projection operators read in
  non local Contribution for L=           1  read in
    real space projection operators read in
  non local Contribution for L=           1  read in
    real space projection operators read in
    PAW grid and wavefunctions read in
 
   number of l-projection  operators is LMAX  =           4
   number of lm-projection operators is LMMAX =           8
 
 POTCAR:    PAW_PBE H 15Jun2001                   
   VRHFIN =H: ultrasoft test                                                    
   LEXCH  = PE                                                                  
   EATOM  =    12.4884 eV,    0.9179 Ry                                         
                                                                                
   TITEL  = PAW_PBE H 15Jun2001                                                 
   LULTRA =        F    use ultrasoft PP ?                                      
   IUNSCR =        0    unscreen: 0-lin 1-nonlin 2-no                           
   RPACOR =    0.000    partial core radius                                     
   POMASS =    1.000; ZVAL   =    1.000    mass and valenz                      
   RCORE  =    1.100    outmost cutoff radius                                   
   RWIGS  =    0.700; RWIGS  =    0.370    wigner-seitz radius (au A)           
   ENMAX  =  250.000; ENMIN  =  200.000 eV                                      
   RCLOC  =    0.701    cutoff for local pot                                    
   LCOR   =        T    correct aug charges                                     
   LPAW   =        T    paw PP                                                  
   EAUG   =  400.000                                                            
   RMAX   =    1.123    core radius for proj-oper                               
   RAUG   =    1.200    factor for augmentation sphere                          
   RDEP   =    1.112    radius for radial grids                                 
   RDEPT  =    0.926    core radius for aug-charge                              
                                                                                
   Atomic configuration                                                         
    2 entries                                                                   
     n  l   j            E        occ.                                          
     1  0  0.50        -6.4927   1.0000                                         
     2  1  0.50        -3.4015   0.0000                                         
   Description                                                                  
     l       E           TYP  RCUT    TYP  RCUT                                 
     0     -6.4927494     23  1.100                                             
     0      6.8029130     23  1.100                                             
     1     -4.0817478     23  1.100                                             
  local pseudopotential read in
  atomic valenz-charges read in
  non local Contribution for L=           0  read in
    real space projection operators read in
  non local Contribution for L=           0  read in
    real space projection operators read in
  non local Contribution for L=           1  read in
    real space projection operators read in
    PAW grid and wavefunctions read in
 
   number of l-projection  operators is LMAX  =           3
   number of lm-projection operators is LMMAX =           5
 

 ----------------------------------------------------------------------------- 
|                                                                             |
|  ADVICE TO THIS USER RUNNING 'VASP/VAMP'   (HEAR YOUR MASTER'S VOICE ...):  |
|                                                                             |
|      You have a (more or less) 'large supercell' and for larger cells       |
|      it might be more efficient to use real space projection opertators     |
|      So try LREAL= Auto  in the INCAR   file.                               |
|      Mind:          For very  accurate calculation you might also keep the  |
|      reciprocal projection scheme          (i.e. LREAL=.FALSE.)             |
|                                                                             |
 ----------------------------------------------------------------------------- 


 ----------------------------------------------------------------------------- 
|                                                                             |
|  ADVICE TO THIS USER RUNNING 'VASP/VAMP'   (HEAR YOUR MASTER'S VOICE ...):  |
|                                                                             |
|      You enforced a specific xc-type in the INCAR file,                     |
|      a different type was found on the POTCAR file                          |
|          I HOPE YOU KNOW, WHAT YOU ARE  DOING                               |
|                                                                             |
 ----------------------------------------------------------------------------- 

  PAW_PBE Mn_pv 02Aug2007               :
 energy of atom  1       EATOM=-2025.2664
 kinetic energy error for atom=    0.0020 (will be added to EATOM!!)
  PAW_PBE F 08Apr2002                   :
 energy of atom  2       EATOM= -659.6475
 kinetic energy error for atom=    0.0140 (will be added to EATOM!!)
  PAW_PBE H 15Jun2001                   :
 energy of atom  3       EATOM=  -12.4884
 kinetic energy error for atom=    0.0002 (will be added to EATOM!!)
 
 
 POSCAR: Mn  F  H                                
  positions in direct lattice
  velocities in cartesian coordinates
 exchange correlation table for  LEXCH =       14
   RHO(1)=    0.500       N(1)  =     2000
   RHO(2)=  100.500       N(2)  =     4000
 


--------------------------------------------------------------------------------------------------------


 ion  position               nearest neighbor table
   1  0.172  0.168  0.129-  73 2.09  80 2.09  74 2.10  76 2.11  79 2.11  75 2.37
   2  0.988  0.995  0.000- 204 2.04 182 2.09 170 2.09 105 2.15 117 2.15  75 2.26
   3  0.166  0.165  0.376-  77 2.10  78 2.10  83 2.12  84 2.13  80 2.13  79 2.15
   4  0.999  0.000  0.250- 208 2.11  79 2.12 174 2.12 109 2.13 105 2.14 170 2.14
   5  0.166  0.165  0.624-  81 2.10  82 2.10  83 2.12  84 2.13  88 2.13  87 2.15
   6  0.999  1.000  0.500- 212 2.09  83 2.10 178 2.13 174 2.13 113 2.14 109 2.14
   7  0.172  0.168  0.871-  85 2.09  88 2.09  86 2.10  76 2.11  87 2.11  75 2.37
   8  0.999  0.000  0.750- 216 2.11  87 2.12 178 2.12 113 2.13 117 2.14 182 2.14
   9  0.167  0.500  0.125-  89 2.11  90 2.11  95 2.13  96 2.13  92 2.13  91 2.13
  10  0.001  0.333  0.000-  91 2.10 172 2.10 198 2.13 186 2.13  85 2.14  73 2.14
  11  0.167  0.500  0.375-  94 2.10  93 2.10  99 2.13 100 2.13  96 2.14  95 2.14
  12  0.001  0.332  0.250- 176 2.10  95 2.10  77 2.13 186 2.13 190 2.14  73 2.17
  13  0.167  0.500  0.625-  98 2.10  97 2.10  99 2.13 100 2.13 104 2.14 103 2.14
  14  0.000  0.333  0.500-  99 2.10 180 2.10 190 2.13 194 2.13  77 2.14  81 2.14
  15  0.167  0.500  0.875- 101 2.11 102 2.11 103 2.13 104 2.13  92 2.13  91 2.13
  16  0.001  0.332  0.750- 184 2.10 103 2.10  81 2.13 198 2.13 194 2.14  85 2.17
  17  0.162  0.832  0.129- 106 2.09 111 2.09 105 2.10 107 2.11 112 2.11 108 2.37
  18  0.001  0.667  0.000- 188 2.10  89 2.13 101 2.13 214 2.13 202 2.13 107 2.14
  19  0.167  0.835  0.376- 110 2.10 109 2.10 116 2.12 115 2.13 111 2.13 112 2.15
  20  0.999  0.666  0.251- 192 2.09 111 2.10  93 2.13 206 2.13  89 2.14 202 2.14
  21  0.167  0.835  0.624- 114 2.10 113 2.10 116 2.12 115 2.13 119 2.13 120 2.15
  22  0.000  0.667  0.500- 196 2.11 115 2.11  93 2.13  97 2.13 206 2.13 210 2.13
  23  0.162  0.832  0.871- 118 2.09 119 2.09 117 2.10 107 2.11 120 2.11 108 2.37
  24  0.999  0.666  0.749- 200 2.09 119 2.10  97 2.13 210 2.13 101 2.14 214 2.14
  25  0.504  0.170  0.127- 122 2.10 128 2.11 121 2.11 123 2.12 124 2.13 127 2.14
  26  0.346  0.005  0.000- 123 2.04 153 2.09 165 2.09  74 2.15  86 2.15 108 2.26
  27  0.500  0.167  0.375- 126 2.10 125 2.10 131 2.13 132 2.13 128 2.13 127 2.14
  28  0.335  1.000  0.250- 127 2.11 112 2.12 157 2.12  78 2.13  74 2.14 153 2.14
  29  0.500  0.167  0.625- 130 2.10 129 2.10 131 2.13 132 2.13 136 2.13 135 2.14
  30  0.335  0.000  0.500- 131 2.09 116 2.10 161 2.13 157 2.13  78 2.14  82 2.14
  31  0.504  0.170  0.874- 134 2.10 136 2.11 133 2.11 123 2.12 124 2.13 135 2.14
  32  0.335  1.000  0.750- 135 2.11 120 2.12 161 2.12  82 2.13  86 2.14 165 2.14
  33  0.499  0.500  0.125- 138 2.10 137 2.11 143 2.12 140 2.13 144 2.13 139 2.13
  34  0.333  0.333  0.000- 139 2.10  90 2.13 102 2.13 133 2.13 121 2.13  76 2.14
  35  0.499  0.501  0.375- 141 2.10 142 2.10 148 2.13 147 2.13 144 2.13 143 2.13
  36  0.334  0.334  0.251- 143 2.09  80 2.10  94 2.13 125 2.13  90 2.14 121 2.14
  37  0.499  0.501  0.625- 145 2.10 146 2.10 148 2.13 147 2.13 152 2.13 151 2.13
  38  0.333  0.333  0.500- 147 2.11  84 2.11  98 2.13  94 2.13 129 2.13 125 2.13
  39  0.499  0.500  0.875- 150 2.10 149 2.11 151 2.12 140 2.13 152 2.13 139 2.13
  40  0.334  0.334  0.749- 151 2.09  88 2.10  98 2.13 129 2.13 102 2.14 133 2.14
  41  0.501  0.832  0.125- 154 2.10 153 2.12 159 2.13 160 2.13 155 2.13 156 2.13
  42  0.333  0.667  0.000-  92 2.10 155 2.10 137 2.13 149 2.13 118 2.14 106 2.14
  43  0.501  0.833  0.375- 158 2.10 157 2.11 163 2.13 164 2.13 159 2.13 160 2.13
  44  0.332  0.668  0.250- 159 2.10  96 2.10 110 2.13 137 2.13 141 2.14 106 2.16
  45  0.501  0.833  0.625- 162 2.10 161 2.11 163 2.13 164 2.13 167 2.13 168 2.13
  46  0.333  0.667  0.500- 100 2.10 163 2.10 145 2.13 141 2.13 110 2.14 114 2.14
  47  0.501  0.832  0.875- 166 2.10 165 2.12 167 2.13 168 2.13 155 2.13 156 2.13
  48  0.332  0.668  0.750- 167 2.10 104 2.10 114 2.13 149 2.13 145 2.14 118 2.16
  49  0.832  0.168  0.125- 169 2.10 170 2.12 176 2.13 175 2.13 172 2.13 171 2.13
  50  0.667  1.000  0.000- 171 2.11 156 2.11 201 2.13 213 2.13 134 2.13 122 2.13
  51  0.833  0.167  0.375- 173 2.10 174 2.11 180 2.13 179 2.13 176 2.13 175 2.13
  52  0.667  1.000  0.250- 175 2.11 160 2.11 126 2.13 205 2.13 201 2.13 122 2.13
  53  0.833  0.167  0.625- 177 2.10 178 2.11 180 2.13 179 2.13 184 2.13 183 2.13
  54  0.667  1.000  0.500- 164 2.10 179 2.10 205 2.13 209 2.13 126 2.13 130 2.13
  55  0.832  0.168  0.875- 181 2.10 182 2.12 184 2.13 183 2.13 172 2.13 171 2.13
  56  0.667  1.000  0.750- 183 2.11 168 2.11 130 2.13 209 2.13 213 2.13 134 2.13
  57  0.835  0.500  0.125- 185 2.10 186 2.11 192 2.12 187 2.13 191 2.13 188 2.13
  58  0.667  0.336  0.000- 124 2.09 187 2.09 138 2.13 150 2.13 169 2.14 181 2.14
  59  0.834  0.499  0.375- 190 2.10 189 2.10 195 2.13 196 2.13 191 2.13 192 2.13
  60  0.667  0.335  0.251- 191 2.09 128 2.10 142 2.13 173 2.13 138 2.13 169 2.14
  61  0.834  0.499  0.625- 194 2.10 193 2.10 195 2.13 196 2.13 199 2.13 200 2.13
  62  0.666  0.334  0.500- 132 2.10 195 2.10 142 2.13 146 2.13 173 2.13 177 2.13
  63  0.835  0.500  0.875- 197 2.10 198 2.11 200 2.12 187 2.13 199 2.13 188 2.13
  64  0.667  0.335  0.750- 199 2.09 136 2.10 146 2.13 177 2.13 150 2.13 181 2.14
  65  0.830  0.830  0.127- 201 2.10 202 2.11 207 2.11 204 2.12 203 2.13 208 2.14
  66  0.666  0.664  0.000- 203 2.09 140 2.09 197 2.13 185 2.13 166 2.14 154 2.14
  67  0.833  0.833  0.375- 205 2.10 206 2.10 212 2.13 211 2.13 207 2.13 208 2.13
  68  0.666  0.665  0.251- 144 2.09 207 2.10 189 2.13 158 2.13 185 2.13 154 2.14
  69  0.833  0.833  0.625- 209 2.10 210 2.10 212 2.13 211 2.13 215 2.13 216 2.13
  70  0.667  0.666  0.500- 211 2.10 148 2.10 193 2.13 189 2.13 162 2.13 158 2.13
  71  0.830  0.830  0.874- 213 2.10 214 2.11 215 2.11 204 2.12 203 2.13 216 2.14
  72  0.666  0.665  0.750- 152 2.09 215 2.10 193 2.13 162 2.13 197 2.13 166 2.14
  73  0.064  0.262  0.123-   1 2.09  10 2.14  12 2.17
  74  0.276  0.070  0.124-   1 2.10  28 2.14  26 2.15
  75  0.124  0.067  0.000- 217 1.17   2 2.26   1 2.37   7 2.37
  76  0.228  0.231  0.000-   1 2.11   7 2.11  34 2.14
  77  0.064  0.266  0.375-   3 2.10  12 2.13  14 2.14
  78  0.270  0.066  0.375-   3 2.10  28 2.13  30 2.14
  79  0.105  0.098  0.248-   1 2.11   4 2.12   3 2.15
  80  0.232  0.234  0.253-   1 2.09  36 2.10   3 2.13
  81  0.064  0.266  0.625-   5 2.10  16 2.13  14 2.14
  82  0.270  0.066  0.625-   5 2.10  32 2.13  30 2.14
  83  0.102  0.099  0.500-   6 2.10   5 2.12   3 2.12
  84  0.231  0.232  0.500-  38 2.11   5 2.13   3 2.13
  85  0.064  0.262  0.877-   7 2.09  10 2.14  16 2.17
  86  0.276  0.070  0.876-   7 2.10  32 2.14  26 2.15
  87  0.105  0.098  0.752-   7 2.11   8 2.12   5 2.15
  88  0.232  0.234  0.747-   7 2.09  40 2.10   5 2.13
  89  0.065  0.602  0.125-   9 2.11  18 2.13  20 2.14
  90  0.268  0.398  0.125-   9 2.11  34 2.13  36 2.14
  91  0.103  0.433  0.000-  10 2.10   9 2.13  15 2.13
  92  0.231  0.567  0.000-  42 2.10   9 2.13  15 2.13
  93  0.064  0.600  0.375-  11 2.10  20 2.13  22 2.13
  94  0.270  0.400  0.375-  11 2.10  36 2.13  38 2.13
  95  0.103  0.433  0.250-  12 2.10   9 2.13  11 2.14
  96  0.230  0.567  0.250-  44 2.10   9 2.13  11 2.14
  97  0.064  0.600  0.625-  13 2.10  24 2.13  22 2.13
  98  0.270  0.400  0.625-  13 2.10  40 2.13  38 2.13
  99  0.103  0.433  0.500-  14 2.10  13 2.13  11 2.13
 100  0.230  0.567  0.500-  46 2.10  13 2.13  11 2.13
 101  0.065  0.602  0.875-  15 2.11  18 2.13  24 2.14
 102  0.268  0.398  0.875-  15 2.11  34 2.13  40 2.14
 103  0.103  0.433  0.750-  16 2.10  15 2.13  13 2.14
 104  0.230  0.567  0.750-  48 2.10  15 2.13  13 2.14
 105  0.057  0.930  0.124-  17 2.10   4 2.14   2 2.15
 106  0.269  0.738  0.123-  17 2.09  42 2.14  44 2.16
 107  0.106  0.769  0.000-  23 2.11  17 2.11  18 2.14
 108  0.209  0.933  0.000- 217 1.17  26 2.26  23 2.37  17 2.37
 109  0.063  0.934  0.375-  19 2.10   4 2.13   6 2.14
 110  0.269  0.734  0.375-  19 2.10  44 2.13  46 2.14
 111  0.102  0.766  0.253-  17 2.09  20 2.10  19 2.13
 112  0.228  0.902  0.248-  17 2.11  28 2.12  19 2.15
 113  0.063  0.934  0.625-  21 2.10   8 2.13   6 2.14
 114  0.269  0.734  0.625-  21 2.10  48 2.13  46 2.14
 115  0.102  0.768  0.500-  22 2.11  19 2.13  21 2.13
 116  0.231  0.901  0.500-  30 2.10  19 2.12  21 2.12
 117  0.057  0.930  0.876-  23 2.10   8 2.14   2 2.15
 118  0.269  0.738  0.877-  23 2.09  42 2.14  48 2.16
 119  0.102  0.766  0.747-  23 2.09  24 2.10  21 2.13
 120  0.228  0.902  0.752-  23 2.11  32 2.12  21 2.15
 121  0.397  0.267  0.125-  25 2.11  34 2.13  36 2.14
 122  0.605  0.068  0.125-  25 2.10  52 2.13  50 2.13
 123  0.444  0.103  0.000-  26 2.04  31 2.12  25 2.12
 124  0.565  0.236  0.000-  58 2.09  25 2.13  31 2.13
 125  0.398  0.267  0.375-  27 2.10  36 2.13  38 2.13
 126  0.603  0.066  0.375-  27 2.10  52 2.13  54 2.13
 127  0.438  0.100  0.249-  28 2.11  27 2.14  25 2.14
 128  0.565  0.235  0.252-  60 2.10  25 2.11  27 2.13
 129  0.398  0.267  0.625-  29 2.10  40 2.13  38 2.13
 130  0.603  0.066  0.625-  29 2.10  56 2.13  54 2.13
 131  0.436  0.100  0.500-  30 2.09  27 2.13  29 2.13
 132  0.565  0.233  0.500-  62 2.10  27 2.13  29 2.13
 133  0.397  0.267  0.875-  31 2.11  34 2.13  40 2.14
 134  0.605  0.068  0.875-  31 2.10  56 2.13  50 2.13
 135  0.438  0.100  0.751-  32 2.11  29 2.14  31 2.14
 136  0.565  0.235  0.748-  64 2.10  31 2.11  29 2.13
 137  0.396  0.601  0.125-  33 2.11  42 2.13  44 2.13
 138  0.602  0.401  0.125-  33 2.10  58 2.13  60 2.13
 139  0.434  0.434  0.000-  34 2.10  39 2.13  33 2.13
 140  0.563  0.566  0.000-  66 2.09  39 2.13  33 2.13
 141  0.397  0.601  0.375-  35 2.10  46 2.13  44 2.14
 142  0.603  0.401  0.376-  35 2.10  60 2.13  62 2.13
 143  0.436  0.434  0.250-  36 2.09  33 2.12  35 2.13
 144  0.563  0.566  0.250-  68 2.09  33 2.13  35 2.13
 145  0.397  0.601  0.625-  37 2.10  46 2.13  48 2.14
 146  0.603  0.401  0.625-  37 2.10  64 2.13  62 2.13
 147  0.435  0.434  0.500-  38 2.11  37 2.13  35 2.13
 148  0.563  0.567  0.500-  70 2.10  35 2.13  37 2.13
 149  0.396  0.601  0.875-  39 2.11  42 2.13  48 2.13
 150  0.602  0.401  0.875-  39 2.10  58 2.13  64 2.13
 151  0.436  0.434  0.750-  40 2.09  39 2.12  37 2.13
 152  0.563  0.566  0.750-  72 2.09  39 2.13  37 2.13
 153  0.395  0.931  0.124-  26 2.09  41 2.12  28 2.14
 154  0.603  0.732  0.125-  41 2.10  68 2.14  66 2.14
 155  0.437  0.766  0.000-  42 2.10  41 2.13  47 2.13
 156  0.562  0.901  0.000-  50 2.11  41 2.13  47 2.13
 157  0.398  0.933  0.375-  43 2.11  28 2.12  30 2.13
 158  0.602  0.732  0.375-  43 2.10  68 2.13  70 2.13
 159  0.436  0.767  0.250-  44 2.10  41 2.13  43 2.13
 160  0.564  0.900  0.250-  52 2.11  41 2.13  43 2.13
 161  0.398  0.933  0.625-  45 2.11  32 2.12  30 2.13
 162  0.602  0.732  0.625-  45 2.10  72 2.13  70 2.13
 163  0.436  0.767  0.500-  46 2.10  45 2.13  43 2.13
 164  0.564  0.899  0.500-  54 2.10  45 2.13  43 2.13
 165  0.395  0.931  0.876-  26 2.09  47 2.12  32 2.14
 166  0.603  0.732  0.875-  47 2.10  72 2.14  66 2.14
 167  0.436  0.767  0.750-  48 2.10  47 2.13  45 2.13
 168  0.564  0.900  0.750-  56 2.11  47 2.13  45 2.13
 169  0.730  0.268  0.125-  49 2.10  60 2.14  58 2.14
 170  0.938  0.069  0.124-   2 2.09  49 2.12   4 2.14
 171  0.771  0.099  0.000-  50 2.11  49 2.13  55 2.13
 172  0.897  0.234  0.000-  10 2.10  49 2.13  55 2.13
 173  0.731  0.268  0.375-  51 2.10  60 2.13  62 2.13
 174  0.936  0.067  0.375-  51 2.11   4 2.12   6 2.13
 175  0.770  0.100  0.250-  52 2.11  49 2.13  51 2.13
 176  0.897  0.233  0.250-  12 2.10  49 2.13  51 2.13
 177  0.731  0.268  0.625-  53 2.10  64 2.13  62 2.13
 178  0.936  0.067  0.625-  53 2.11   8 2.12   6 2.13
 179  0.769  0.101  0.500-  54 2.10  53 2.13  51 2.13
 180  0.898  0.233  0.500-  14 2.10  51 2.13  53 2.13
 181  0.730  0.268  0.875-  55 2.10  64 2.14  58 2.14
 182  0.938  0.069  0.876-   2 2.09  55 2.12   8 2.14
 183  0.770  0.100  0.750-  56 2.11  55 2.13  53 2.13
 184  0.897  0.233  0.750-  16 2.10  55 2.13  53 2.13
 185  0.731  0.599  0.125-  57 2.10  66 2.13  68 2.13
 186  0.937  0.399  0.125-  57 2.11  10 2.13  12 2.13
 187  0.771  0.434  0.000-  58 2.09  57 2.13  63 2.13
 188  0.899  0.566  0.000-  18 2.10  63 2.13  57 2.13
 189  0.731  0.599  0.376-  59 2.10  68 2.13  70 2.13
 190  0.937  0.399  0.375-  59 2.10  14 2.13  12 2.14
 191  0.770  0.434  0.250-  60 2.09  57 2.13  59 2.13
 192  0.898  0.566  0.250-  20 2.09  57 2.12  59 2.13
 193  0.731  0.599  0.625-  61 2.10  72 2.13  70 2.13
 194  0.937  0.399  0.625-  61 2.10  14 2.13  16 2.14
 195  0.770  0.433  0.500-  62 2.10  61 2.13  59 2.13
 196  0.898  0.566  0.500-  22 2.11  59 2.13  61 2.13
 197  0.731  0.599  0.875-  63 2.10  66 2.13  72 2.13
 198  0.937  0.399  0.875-  63 2.11  10 2.13  16 2.13
 199  0.770  0.434  0.750-  64 2.09  63 2.13  61 2.13
 200  0.898  0.566  0.750-  24 2.09  63 2.12  61 2.13
 201  0.729  0.932  0.125-  65 2.10  52 2.13  50 2.13
 202  0.937  0.733  0.125-  65 2.11  18 2.13  20 2.14
 203  0.768  0.764  0.000-  66 2.09  65 2.13  71 2.13
 204  0.889  0.897  0.000-   2 2.04  65 2.12  71 2.12
 205  0.731  0.934  0.375-  67 2.10  52 2.13  54 2.13
 206  0.935  0.732  0.375-  67 2.10  20 2.13  22 2.13
 207  0.769  0.765  0.252-  68 2.10  65 2.11  67 2.13
 208  0.895  0.900  0.249-   4 2.11  67 2.13  65 2.14
 209  0.731  0.934  0.625-  69 2.10  56 2.13  54 2.13
 210  0.935  0.732  0.625-  69 2.10  24 2.13  22 2.13
 211  0.769  0.767  0.500-  70 2.10  67 2.13  69 2.13
 212  0.897  0.899  0.500-   6 2.09  69 2.13  67 2.13
 213  0.729  0.932  0.875-  71 2.10  56 2.13  50 2.13
 214  0.937  0.733  0.875-  71 2.11  18 2.13  24 2.14
 215  0.769  0.765  0.748-  72 2.10  71 2.11  69 2.13
 216  0.895  0.900  0.751-   8 2.11  69 2.13  71 2.14
 217  0.167  1.000  0.000-  75 1.17 108 1.17
 

IMPORTANT INFORMATION: All symmetrisations will be switched off!
NOSYMM: (Re-)initialisation of all symmetry stuff for point group C_1.

 
 
 KPOINTS: KPOINTS created by Atomic Simulation Env

Automatic generation of k-mesh.
Space group operators:
 irot       det(A)        alpha          n_x          n_y          n_z        tau_x        tau_y        tau_z
    1     1.000000     0.000000     1.000000     0.000000     0.000000     0.000000     0.000000     0.000000
 
 Subroutine IBZKPT returns following result:
 ===========================================
 
 Found      4 irreducible k-points:
 
 Following reciprocal coordinates:
            Coordinates               Weight
  0.250000  0.250000  0.250000      2.000000
 -0.250000  0.250000  0.250000      2.000000
  0.250000 -0.250000  0.250000      2.000000
 -0.250000 -0.250000  0.250000      2.000000
 
 Following cartesian coordinates:
            Coordinates               Weight
  0.017066  0.017066  0.018935      2.000000
 -0.017066  0.017066  0.018935      2.000000
  0.017066 -0.017066  0.018935      2.000000
 -0.017066 -0.017066  0.018935      2.000000
 


--------------------------------------------------------------------------------------------------------




 Dimension of arrays:
   k-points           NKPTS =      4   k-points in BZ     NKDIM =      4   number of bands    NBANDS=   1168
   number of dos      NEDOS =    301   number of ions     NIONS =    217
   non local maximal  LDIM  =      6   non local SUM 2l+1 LMDIM =     18
   total plane-waves  NPLWV = 829440
   max r-space proj   IRMAX =      1   max aug-charges    IRDMAX=  71248
   dimension x,y,z NGX =    96 NGY =   96 NGZ =   90
   dimension x,y,z NGXF=   192 NGYF=  192 NGZF=  180
   support grid    NGXF=   384 NGYF=  384 NGZF=  360
   ions per type =              72 144   1
   NGX,Y,Z   is equivalent  to a cutoff of  10.89, 10.89, 11.33 a.u.
   NGXF,Y,Z  is equivalent  to a cutoff of  21.79, 21.79, 22.66 a.u.

 SYSTEM =  unknown system                          
 POSCAR =  Mn  F  H                                

 Startparameter for this run:
   NWRITE =      2    write-flag & timer
   PREC   = normal    normal or accurate (medium, high low for compatibility)
   ISTART =      1    job   : 0-new  1-cont  2-samecut
   ICHARG =      1    charge: 1-file 2-atom 10-const
   ISPIN  =      2    spin polarized calculation?
   LNONCOLLINEAR =      F non collinear calculations
   LSORBIT =      F    spin-orbit coupling
   INIWAV =      1    electr: 0-lowe 1-rand  2-diag
   LASPH  =      T    aspherical Exc in radial PAW
   METAGGA=      F    non-selfconsistent MetaGGA calc.

 Electronic Relaxation 1
   ENCUT  =  700.0 eV  51.45 Ry    7.17 a.u.  31.60 31.60 28.48*2*pi/ulx,y,z
   ENINI  =  700.0     initial cutoff
   ENAUG  =  613.6 eV  augmentation charge cutoff
   NELM   =     60;   NELMIN=  2; NELMDL=  0     # of ELM steps 
   EDIFF  = 0.1E-06   stopping-criterion for ELM
   LREAL  =      F    real-space projection
   NLSPLINE    = F    spline interpolate recip. space projectors
   LCOMPAT=      F    compatible to vasp.4.4
   GGA_COMPAT  = T    GGA compatible to vasp.4.4-vasp.4.6
   LMAXPAW     = -100 max onsite density
   LMAXMIX     =    4 max onsite mixed and CHGCAR
   VOSKOWN=      0    Vosko Wilk Nusair interpolation
   ROPT   =    0.00000   0.00000   0.00000
 Ionic relaxation
   EDIFFG = -.5E-02   stopping-criterion for IOM
   NSW    =      0    number of steps for IOM
   NBLOCK =      1;   KBLOCK =      1    inner block; outer block 
   IBRION =     -1    ionic relax: 0-MD 1-quasi-New 2-CG
   NFREE  =      1    steps in history (QN), initial steepest desc. (CG)
   ISIF   =      2    stress and relaxation
   IWAVPR =     10    prediction:  0-non 1-charg 2-wave 3-comb
   ISYM   =      0    0-nonsym 1-usesym 2-fastsym
   LCORR  =      T    Harris-Foulkes like correction to forces

   POTIM  = 0.5000    time-step for ionic-motion
   TEIN   =    0.0    initial temperature
   TEBEG  =    0.0;   TEEND  =   0.0 temperature during run
   SMASS  =  -3.00    Nose mass-parameter (am)
   estimated Nose-frequenzy (Omega)   =  0.10E-29 period in steps =****** mass=  -0.490E-26a.u.
   SCALEE = 1.0000    scale energy and forces
   NPACO  =    256;   APACO  = 16.0  distance and # of slots for P.C.
   PSTRESS=    0.0 pullay stress

  Mass of Ions in am
   POMASS =  54.94 19.00  1.00
  Ionic Valenz
   ZVAL   =  13.00  7.00  1.00
  Atomic Wigner-Seitz radii
   RWIGS  =  -1.00 -1.00 -1.00
  virtual crystal weights 
   VCA    =   1.00  1.00  1.00
   NELECT =    1946.0000    total number of electrons
   NUPDOWN=      -1.0000    fix difference up-down

 DOS related values:
   EMIN   =  10.00;   EMAX   =-10.00  energy-range for DOS
   EFERMI =   0.00
   ISMEAR =     0;   SIGMA  =   0.01  broadening in eV -4-tet -1-fermi 0-gaus

 Electronic relaxation 2 (details)
   IALGO  =     68    algorithm
   LDIAG  =      T    sub-space diagonalisation (order eigenvalues)
   LSUBROT=      F    optimize rotation matrix (better conditioning)
   TURBO    =      0    0=normal 1=particle mesh
   IRESTART =      0    0=no restart 2=restart with 2 vectors
   NREBOOT  =      0    no. of reboots
   NMIN     =      0    reboot dimension
   EREF     =   0.00    reference energy to select bands
   IMIX   =      4    mixing-type and parameters
     AMIX     =   0.40;   BMIX     =  1.00
     AMIX_MAG =   1.60;   BMIX_MAG =  1.00
     AMIN     =   0.10
     WC   =   100.;   INIMIX=   1;  MIXPRE=   1;  MAXMIX= -45

 Intra band minimization:
   WEIMIN = 0.0000     energy-eigenvalue tresh-hold
   EBREAK =  0.21E-10  absolut break condition
   DEPER  =   0.30     relativ break condition  

   TIME   =   0.40     timestep for ELM

  volume/ion in A,a.u.               =      13.06        88.12
  Fermi-wavevector in a.u.,A,eV,Ry     =   1.444383  2.729488 28.385037  2.086241
  Thomas-Fermi vector in A             =   2.562684
 
 Write flags
   LWAVE        =      T    write WAVECAR
   LDOWNSAMPLE  =      F    k-point downsampling of WAVECAR
   LCHARG       =      T    write CHGCAR
   LVTOT        =      F    write LOCPOT, total local potential
   LVHAR        =      F    write LOCPOT, Hartree potential only
   LELF         =      F    write electronic localiz. function (ELF)
   LORBIT       =     11    0 simple, 1 ext, 2 COOP (PROOUT), +10 PAW based schemes


 Dipole corrections
   LMONO  =      F    monopole corrections only (constant potential shift)
   LDIPOL =      F    correct potential (dipole corrections)
   IDIPOL =      0    1-x, 2-y, 3-z, 4-all directions 
   EPSILON=  1.0000000 bulk dielectric constant

 LDA+U is selected, type is set to LDAUTYPE =  2
   angular momentum for each species LDAUL =     2   -1   -1
   U (eV)           for each species LDAUU =   4.0  0.0  0.0
   J (eV)           for each species LDAUJ =   0.0  0.0  0.0
 Exchange correlation treatment:
   GGA     =    PS    GGA type
   LEXCH   =    14    internal setting for exchange type
   VOSKOWN=      0    Vosko Wilk Nusair interpolation
   LHFCALC =     F    Hartree Fock is set to
   LHFONE  =     F    Hartree Fock one center treatment
   AEXX    =    0.0000 exact exchange contribution

 Linear response parameters
   LEPSILON=     F    determine dielectric tensor
   LRPA    =     F    only Hartree local field effects (RPA)
   LNABLA  =     F    use nabla operator in PAW spheres
   LVEL    =     F    velocity operator in full k-point grid
   LINTERFAST=   F  fast interpolation
   KINTER  =     0    interpolate to denser k-point grid
   CSHIFT  =0.1000    complex shift for real part using Kramers Kronig
   OMEGAMAX=  -1.0    maximum frequency
   DEG_THRESHOLD= 0.2000000E-02 threshold for treating states as degnerate
   RTIME   =   -0.100 relaxation time in fs
  (WPLASMAI=    0.000 imaginary part of plasma frequency in eV, 0.658/RTIME)
   DFIELD  = 0.0000000 0.0000000 0.0000000 field for delta impulse in time
 
 Orbital magnetization related:
   ORBITALMAG=     F  switch on orbital magnetization
   LCHIMAG   =     F  perturbation theory with respect to B field
   DQ        =  0.001000  dq finite difference perturbation B field
   LLRAUG    =     F  two centre corrections for induced B field



--------------------------------------------------------------------------------------------------------


 Static calculation
 charge density and potential will be updated during run
 spin polarized calculation
 RMM-DIIS sequential band-by-band and
  variant of blocked Davidson during initial phase
 perform sub-space diagonalisation
    before iterative eigenvector-optimisation
 modified Broyden-mixing scheme, WC =      100.0
 initial mixing is a Kerker type mixing with AMIX =  0.4000 and BMIX =      1.0000
 Hartree-type preconditioning will be used
 using additional bands          195
 reciprocal scheme for non local part
 use partial core corrections
 calculate Harris-corrections to forces 
   (improved forces if not selfconsistent)
 use gradient corrections 
 use of overlap-Matrix (Vanderbilt PP)
 Gauss-broadening in eV      SIGMA  =   0.01


--------------------------------------------------------------------------------------------------------


  energy-cutoff  :      700.00
  volume of cell :     2833.48
      direct lattice vectors                 reciprocal lattice vectors
    14.649432430  0.000000000  0.000000000     0.068262030  0.000000000  0.000000000
     0.000000000 14.649432430  0.000000000     0.000000000  0.068262030  0.000000000
     0.000000000  0.000000000 13.203190708     0.000000000  0.000000000  0.075739268

  length of vectors
    14.649432430 14.649432430 13.203190708     0.068262030  0.068262030  0.075739268


 
 old parameters found on file WAVECAR:
  energy-cutoff  :      700.00
  volume of cell :     2833.48
      direct lattice vectors                 reciprocal lattice vectors
    14.649432430  0.000000000  0.000000000     0.068262030  0.000000000  0.000000000
     0.000000000 14.649432430  0.000000000     0.000000000  0.068262030  0.000000000
     0.000000000  0.000000000 13.203190708     0.000000000  0.000000000  0.075739268

  length of vectors

 
 k-points in units of 2pi/SCALE and weight: KPOINTS created by Atomic Simulation Env
   0.01706551  0.01706551  0.01893482       0.250
  -0.01706551  0.01706551  0.01893482       0.250
   0.01706551 -0.01706551  0.01893482       0.250
  -0.01706551 -0.01706551  0.01893482       0.250
 
 k-points in reciprocal lattice and weights: KPOINTS created by Atomic Simulation Env
   0.25000000  0.25000000  0.25000000       0.250
  -0.25000000  0.25000000  0.25000000       0.250
   0.25000000 -0.25000000  0.25000000       0.250
  -0.25000000 -0.25000000  0.25000000       0.250
 
 position of ions in fractional coordinates (direct lattice) 
   0.17154379  0.16844827  0.12947203
   0.98785973  0.99496702  0.00002465
   0.16648611  0.16502858  0.37605892
   0.99853147  0.00016607  0.25028355
   0.16648551  0.16502727  0.62398840
   0.99888452  0.99983028  0.50002439
   0.17154421  0.16844790  0.87057612
   0.99853065  0.00016552  0.74976480
   0.16668275  0.49995139  0.12503632
   0.00050857  0.33279158  0.00002332
   0.16670136  0.49993401  0.37504396
   0.00102682  0.33194601  0.24987692
   0.16670084  0.49993333  0.62500192
   0.00042698  0.33277461  0.50002352
   0.16668271  0.49995028  0.87500896
   0.00102610  0.33194484  0.75017013
   0.16188132  0.83151209  0.12946230
   0.00057963  0.66709816  0.00002431
   0.16689362  0.83486374  0.37606353
   0.99925398  0.66574758  0.25072123
   0.16689465  0.83486483  0.62398614
   0.00020649  0.66676575  0.50002347
   0.16188076  0.83151221  0.87058612
   0.99925515  0.66574861  0.74932709
   0.50353701  0.17007769  0.12652318
   0.34551114  0.00490938  0.00002320
   0.50029543  0.16661925  0.37530847
   0.33484316  0.99975302  0.25028510
   0.50029613  0.16662015  0.62474226
   0.33451474  0.00005649  0.50002337
   0.50353681  0.17007737  0.87352803
   0.33484424  0.99975329  0.74976165
   0.49863388  0.50029521  0.12504167
   0.33282192  0.33285006  0.00002361
   0.49924633  0.50063349  0.37539619
   0.33414930  0.33416582  0.25070605
   0.49924564  0.50063305  0.62464996
   0.33317898  0.33307996  0.50002384
   0.49863384  0.50029539  0.87500405
   0.33414893  0.33416493  0.74934077
   0.50101916  0.83186226  0.12515182
   0.33283424  0.66710269  0.00002320
   0.50053313  0.83272794  0.37507987
   0.33233518  0.66794200  0.24987148
   0.50053169  0.83272703  0.62496568
   0.33296647  0.66710091  0.50002283
   0.50101886  0.83186176  0.87489365
   0.33233386  0.66794071  0.75017433
   0.83235131  0.16803970  0.12516820
   0.66672400  0.99993981  0.00002357
   0.83282782  0.16714588  0.37510284
   0.66669566  0.99994166  0.25010521
   0.83282704  0.16714489  0.62494552
   0.66665848  0.99993934  0.50002348
   0.83235122  0.16803897  0.87487996
   0.66669582  0.99994088  0.74994194
   0.83476362  0.49963154  0.12504783
   0.66711781  0.33583329  0.00002526
   0.83410849  0.49924173  0.37539776
   0.66694006  0.33523201  0.25050528
   0.83410963  0.49924179  0.62465078
   0.66643357  0.33374970  0.50002465
   0.83476419  0.49963201  0.87500099
   0.66693990  0.33523198  0.74954551
   0.82986295  0.82981250  0.12654491
   0.66629453  0.66408294  0.00002252
   0.83308057  0.83326464  0.37532887
   0.66644181  0.66466448  0.25050019
   0.83308012  0.83326390  0.62471954
   0.66691112  0.66613063  0.50002314
   0.82986295  0.82981187  0.87350300
   0.66644237  0.66466312  0.74954468
   0.06420830  0.26213376  0.12348458
   0.27601546  0.07017942  0.12388145
   0.12412252  0.06716019  0.00002431
   0.22784940  0.23087262  0.00002409
   0.06420208  0.26550486  0.37493084
   0.27023506  0.06592746  0.37462761
   0.10497435  0.09814378  0.24810481
   0.23164819  0.23382097  0.25345753
   0.06420155  0.26550343  0.62511630
   0.27023389  0.06592661  0.62541996
   0.10247933  0.09890447  0.50002332
   0.23105986  0.23194869  0.50002431
   0.06420823  0.26213308  0.87656327
   0.27601631  0.07018009  0.87616456
   0.10497360  0.09814325  0.75194371
   0.23164843  0.23382056  0.74658969
   0.06509801  0.60177919  0.12497433
   0.26827509  0.39812930  0.12496705
   0.10281380  0.43321559  0.00002332
   0.23054080  0.56666494  0.00002235
   0.06377681  0.59978497  0.37530571
   0.26962209  0.40008815  0.37531135
   0.10313030  0.43279219  0.24969553
   0.23026036  0.56707221  0.24970966
   0.06377601  0.59978440  0.62474250
   0.26962200  0.40008761  0.62473526
   0.10312864  0.43302406  0.50002277
   0.23029807  0.56683150  0.50002341
   0.06509767  0.60177883  0.87507334
   0.26827435  0.39812790  0.87507946
   0.10313099  0.43279125  0.75035025
   0.23025899  0.56707149  0.75033595
   0.05734963  0.92972199  0.12388431
   0.26910487  0.73770448  0.12348901
   0.10553332  0.76908310  0.00002412
   0.20936620  0.93257611  0.00002402
   0.06317096  0.93399239  0.37461781
   0.26920221  0.73441111  0.37493716
   0.10175838  0.76610406  0.25343145
   0.22842069  0.90178102  0.24813380
   0.06317174  0.93399369  0.62543099
   0.26920339  0.73441159  0.62510968
   0.10235015  0.76789809  0.50002493
   0.23090037  0.90099699  0.50002390
   0.05734866  0.92972128  0.87616450
   0.26910425  0.73770393  0.87655764
   0.10175911  0.76610416  0.74661605
   0.22842061  0.90178143  0.75191550
   0.39685451  0.26674638  0.12499678
   0.60472343  0.06810469  0.12515462
   0.44387538  0.10321268  0.00002554
   0.56502321  0.23618614  0.00002580
   0.39811423  0.26740524  0.37523802
   0.60283373  0.06627443  0.37501998
   0.43809797  0.10001950  0.24911001
   0.56471556  0.23484669  0.25198522
   0.39811425  0.26740626  0.62480918
   0.60283478  0.06627552  0.62502816
   0.43641028  0.10038738  0.50002587
   0.56457735  0.23283506  0.50002459
   0.39685382  0.26674565  0.87505109
   0.60472363  0.06810403  0.87489256
   0.43809928  0.10001927  0.75093925
   0.56471519  0.23484731  0.74806647
   0.39596587  0.60114727  0.12532000
   0.60223026  0.40078704  0.12537092
   0.43445566  0.43408618  0.00002278
   0.56281801  0.56569015  0.00002289
   0.39659775  0.60109369  0.37464883
   0.60255648  0.40080065  0.37552258
   0.43559070  0.43439284  0.25015103
   0.56322471  0.56587509  0.24987498
   0.39659707  0.60109347  0.62539693
   0.60255557  0.40079979  0.62452762
   0.43529132  0.43418765  0.50002300
   0.56335357  0.56679091  0.50002338
   0.39596539  0.60114697  0.87472540
   0.60222987  0.40078670  0.87467923
   0.43558975  0.43439270  0.74989530
   0.56322482  0.56587424  0.75017026
   0.39531458  0.93073803  0.12373244
   0.60334361  0.73176378  0.12514598
   0.43679932  0.76602698  0.00002310
   0.56206365  0.90110384  0.00002264
   0.39766045  0.93318166  0.37479648
   0.60244744  0.73187353  0.37491705
   0.43597632  0.76692981  0.24998917
   0.56355731  0.89971770  0.24970163
   0.39765933  0.93318067  0.62525020
   0.60244724  0.73187286  0.62512843
   0.43589086  0.76711246  0.50002224
   0.56434375  0.89915841  0.50002362
   0.39531498  0.93073803  0.87631362
   0.60334345  0.73176314  0.87489921
   0.43597456  0.76692829  0.75005687
   0.56355670  0.89971765  0.75034343
   0.73004259  0.26815127  0.12515959
   0.93801825  0.06912502  0.12372900
   0.77133563  0.09880974  0.00002441
   0.89650832  0.23391414  0.00002437
   0.73092485  0.26801907  0.37493294
   0.93572436  0.06671247  0.37480846
   0.76981975  0.10017554  0.24972436
   0.89736967  0.23297644  0.25002637
   0.73092412  0.26801795  0.62511795
   0.93572480  0.06671199  0.62524038
   0.76896693  0.10073593  0.50002389
   0.89753744  0.23271537  0.50002458
   0.73004252  0.26815046  0.87489084
   0.93801814  0.06912413  0.87632000
   0.76982045  0.10017414  0.75032407
   0.89736813  0.23297501  0.75002161
   0.73117186  0.59914160  0.12537251
   0.93737173  0.39872553  0.12533311
   0.77056727  0.43425435  0.00002419
   0.89892609  0.56586595  0.00002443
   0.73081301  0.59909333  0.37552906
   0.93676969  0.39878747  0.37467003
   0.77014265  0.43403799  0.24985974
   0.89777600  0.56553461  0.25017222
   0.73081390  0.59909378  0.62451619
   0.93677036  0.39878781  0.62537733
   0.76997501  0.43310270  0.50002484
   0.89806187  0.56568430  0.50002370
   0.73117246  0.59914167  0.87467323
   0.93737204  0.39872569  0.87471399
   0.77014269  0.43403783  0.75018889
   0.89777683  0.56553506  0.74987561
   0.72871995  0.93181612  0.12517376
   0.93656139  0.73318365  0.12502408
   0.76840701  0.76369619  0.00002419
   0.88944787  0.89671383  0.00002439
   0.73053288  0.93361673  0.37504456
   0.93526145  0.73245791  0.37526357
   0.76865563  0.76505761  0.25199818
   0.89528069  0.89987640  0.24915424
   0.73053240  0.93361604  0.62500253
   0.93526103  0.73245799  0.62478509
   0.76874012  0.76708633  0.50002369
   0.89701267  0.89947388  0.50002486
   0.72871933  0.93181527  0.87487293
   0.93656218  0.73318387  0.87502444
   0.76865619  0.76505811  0.74805004
   0.89528069  0.89987572  0.75089366
   0.16670334  0.99991122  0.00002274
 
 position of ions in cartesian coordinates  (Angst):
   2.51301911  2.46767162  1.70944384
  14.47158439 14.57570208  0.00032550
   2.43892705  2.41757496  4.96517759
  14.62791936  0.00243282  3.30454141
   2.43891820  2.41755579  8.23863783
  14.63309135 14.64694613  6.60191739
   2.51302528  2.46766618 11.49438259
  14.62790734  0.00242471  9.89928768
   2.44180774  7.32400410  1.65087844
   0.00745032  4.87520777  0.00030795
   2.44208029  7.32374956  4.95177697
   0.01504231  4.86282057  3.29917257
   2.44207273  7.32373955  8.25201958
   0.00625506  4.87495910  6.60190589
   2.44180711  7.32398787 11.55291011
   0.01503177  4.86280348  9.90463928
   2.37146943 12.18118017  1.70931547
   0.00849122  9.77260937  0.00032103
   2.44489679 12.23027995  4.96523854
  14.63850370  9.75282424  3.31032022
   2.44491194 12.23029596  8.23860797
   0.00302500  9.76773987  6.60190527
   2.37146121 12.18118186 11.49451460
  14.63852079  9.75283934  9.89350849
   7.37653146  2.49154170  1.67050964
   5.06154208  0.07191962  0.00030628
   7.32904406  2.44087744  4.95526935
   4.90526224 14.64581429  3.30456191
   7.32905429  2.44089058  8.24859123
   4.90045102  0.00082762  6.60190393
   7.37652843  2.49153690 11.53335718
   4.90527802 14.64581824  9.89924605
   7.30470336  7.32904093  1.65094896
   4.87565227  4.87606447  0.00031173
   7.31367536  7.33399647  4.95642742
   4.89509764  4.89533960  3.31011981
   7.31366533  7.33399003  8.24737259
   4.88088288  4.87943242  6.60191008
   7.30470274  7.32904349 11.55284531
   4.89509213  4.89532662  9.89368905
   7.33964628 12.18630999  1.65240330
   4.87583277  9.77267583  0.00030637
   7.33252623 12.19899175  4.95225099
   4.86852182  9.78497120  3.29910085
   7.33250513 12.19897841  8.25154105
   4.87776984  9.77264976  6.60189675
   7.33964193 12.18630262 11.55138765
   4.86850245  9.78495228  9.90469476
  12.19347425  2.46168624  1.65261959
   9.76712812 14.64855071  0.00031115
  12.20045485  2.44859221  4.95255434
   9.76671297 14.64857782  3.30218675
  12.20044345  2.44857778  8.25127489
   9.76616842 14.64854373  6.60190533
  12.19347295  2.46167552 11.55120692
   9.76671538 14.64856637  9.90162645
  12.22881323  7.31931844  1.65103034
   9.77289728  4.91976708  0.00033357
  12.21921599  7.31360796  4.95644817
   9.77029330  4.91095861  3.30746893
  12.21923261  7.31360881  8.24738332
   9.76287360  4.88924365  6.60192077
  12.22882167  7.31932536 11.55280499
   9.77029104  4.91095829  9.89639233
  12.15702125 12.15628219  1.67079651
   9.76083672  9.72843821  0.00029739
  12.20415752 12.20685402  4.95553869
   9.76299432  9.73695740  3.30740183
  12.20415095 12.20684319  8.24829128
   9.76986938  9.75843558  6.60190094
  12.15702120 12.15627299 11.53302664
   9.76300253  9.73693749  9.89638135
   0.94061513  3.84011079  1.63039049
   4.04346980  1.02808863  1.63563047
   1.81832446  0.98385861  0.00032097
   3.33786433  3.38215289  0.00031804
   0.94052400  3.88949558  4.95028333
   3.95879026  0.96579986  4.94627981
   1.53781464  1.43775074  3.27577514
   3.39351457  3.42534452  3.34644809
   0.94051633  3.88947460  8.25352972
   3.95877307  0.96578747  8.25753905
   1.50126403  1.44889437  6.60190319
   3.38489588  3.39791665  6.60191630
   0.94061407  3.84010087 11.57343202
   4.04348230  1.02809855 11.56816783
   1.53780371  1.43774288  9.92805627
   3.39351807  3.42533855  9.85736609
   0.95364895  8.81572359  1.65005992
   3.93007785  5.83236834  1.64996382
   1.50616382  6.34636256  0.00030796
   3.37729180  8.30131972  0.00029508
   0.93429408  8.78650942  4.95523288
   3.94981061  5.86106434  4.95530735
   1.51080040  6.34015995  3.29677769
   3.37318356  8.30728603  3.29696430
   0.93428229  8.78650101  8.24859431
   3.94980927  5.86105641  8.24849883
   1.51077610  6.34355671  6.60189598
   3.37373598  8.30375970  6.60190450
   0.95364395  8.81571827 11.55376021
   3.93006690  5.83234779 11.55384098
   1.51081040  6.34014615  9.90701741
   3.37316351  8.30727554  9.90682869
   0.84013958 13.61989945  1.63566815
   3.94223356 10.80695197  1.63044892
   1.54600323 11.26663091  0.00031846
   3.06709602 13.66171072  0.00031708
   0.92541865 13.68245835  4.94615038
   3.94365959 10.75870596  4.95036688
   1.49070247 11.22298964  3.34610373
   3.34623353 13.21058007  3.27615791
   0.92543014 13.68247748  8.25768465
   3.94367681 10.75871297  8.25344227
   1.49937160 11.24927117  6.60192452
   3.38255941 13.19909455  6.60191089
   0.84012531 13.61988909 11.56816703
   3.94222447 10.80694383 11.57335764
   1.49071325 11.22299114  9.85771413
   3.34623230 13.21058609  9.92768379
   5.81369333  3.90768307  1.65035629
   8.85885501  0.99769512  1.65244026
   6.50252235  1.51200722  0.00033724
   8.27726936  3.45999296  0.00034067
   5.83214751  3.91733504  4.95433911
   8.83117204  0.97088283  4.95146031
   6.41788668  1.46522884  3.28904703
   8.27276250  3.44037071  3.32700894
   5.83214786  3.91734998  8.24947482
   8.83118733  0.97089877  8.25236601
   6.39316298  1.47061813  6.60193690
   8.27073776  3.41090146  6.60192003
   5.81368321  3.90767240 11.55346641
   8.85885803  0.99768538 11.55137326
   6.41790583  1.46522554  9.91479411
   8.27275701  3.44037979  9.87686425
   5.80067527  8.80646636  1.65462384
   8.82233149  5.87130271  1.65529619
   6.36452880  6.35911615  0.00030074
   8.24496441  8.28703962  0.00030220
   5.80993198  8.80568146  4.94655998
   8.82711051  5.87150204  4.95809619
   6.38115647  6.36360853  3.30279182
   8.25092239  8.28974882  3.29914708
   5.80992199  8.80567821  8.25723491
   8.82709704  5.87148945  8.24575730
   6.37677071  6.36060258  6.60189905
   8.25281003  8.30316518  6.60190401
   5.80066816  8.80646199 11.54916625
   8.82232575  5.87129768 11.54855665
   6.38114265  6.36360646  9.90101072
   8.25092396  8.28973650  9.90464107
   5.79113421 13.63478392  1.63366301
   8.83864140 10.71992405  1.65232625
   6.39886216 11.22186050  0.00030496
   8.23391343 13.20065986  0.00029889
   5.82549994 13.67058167  4.94850935
   8.82551303 10.72153185  4.95010135
   6.38680571 11.23508648  3.30065470
   8.25579466 13.18035358  3.29685820
   5.82548342 13.67056713  8.25529766
   8.82551010 10.72152194  8.25368983
   6.38555375 11.23776211  6.60188905
   8.26731564 13.17216031  6.60190724
   5.79114008 13.63478389 11.57013585
   8.83863914 10.71991462 11.55146106
   6.38677979 11.23506418  9.90314385
   8.25578580 13.18035293  9.90692747
  10.69470963  3.92826389  1.65250597
  13.74143502  1.01264225  1.63361761
  11.29962925  1.44750657  0.00032229
  13.13333804  3.42670938  0.00032179
  10.70763423  3.92632726  4.95031105
  13.70783073  0.97729976  4.94866759
  11.27742240  1.46751482  3.29715836
  13.14595636  3.41297261  3.30114581
  10.70762346  3.92631078  8.25355150
  13.70783723  0.97729285  8.25516801
  11.26492910  1.47572413  6.60191076
  13.14841406  3.40914806  6.60191985
  10.69470849  3.92825209 11.55135056
  13.74143343  1.01262928 11.57022014
  11.27743263  1.46749432  9.90667173
  13.14593380  3.41295173  9.90267831
  10.71125282  8.77708442  1.65531722
  13.73196380  5.84110273  1.65479699
  11.28837320  6.36157970  0.00031944
  13.16875708  8.28961495  0.00032255
  10.70599577  8.77637721  4.95818186
  13.72314431  5.84201003  4.94683988
  11.28215265  6.35841018  3.29894574
  13.15190888  8.28476100  3.30307159
  10.70600889  8.77638392  8.24560629
  13.72315411  5.84201502  8.25697616
  11.27969690  6.34470874  6.60192331
  13.15609668  8.28695389  6.60190827
  10.71126159  8.77708538 11.54847745
  13.73196841  5.84110506 11.54901562
  11.28215335  6.35840780  9.90488695
  13.15192096  8.28476762  9.90075074
  10.67533366 13.65057731  1.65269304
  13.72009276 10.74072428  1.65071680
  11.25672652 11.18771573  0.00031944
  13.02990641 13.13634861  0.00032201
  10.70189209 13.67695525  4.95178488
  13.70104945 10.73009260  4.95467651
  11.26036864 11.20765980  3.32718008
  13.11535400 13.18267854  3.28963092
  10.70188506 13.67694507  8.25202757
  13.70104321 10.73009383  8.24915670
  11.26160646 11.23737940  6.60190811
  13.14072645 13.17678190  6.60192358
  10.67532465 13.65056487 11.55111409
  13.72010438 10.74072750 11.55311462
  11.26037698 11.20766710  9.87664728
  13.11535403 13.18266854  9.91419216
   2.44210938 14.64813185  0.00030024
 


--------------------------------------------------------------------------------------------------------


 k-point  1 :   0.2500 0.2500 0.2500  plane waves:  119170
 k-point  2 :  -0.2500 0.2500 0.2500  plane waves:  119170
 k-point  3 :   0.2500-0.2500 0.2500  plane waves:  119170
 k-point  4 :  -0.2500-0.2500 0.2500  plane waves:  119170

 maximum and minimum number of plane-waves per node :      9968     9893

 maximum number of plane-waves:    119170
 maximum index in each direction: 
   IXMAX=   31   IYMAX=   31   IZMAX=   28
   IXMIN=  -31   IYMIN=  -31   IZMIN=  -28


 parallel 3D FFT for wavefunctions:
    minimum data exchange during FFTs selected (reduces bandwidth)
 parallel 3D FFT for charge:
    minimum data exchange during FFTs selected (reduces bandwidth)


 total amount of memory used by VASP MPI-rank0   501409. kBytes
=======================================================================

   base      :      30000. kBytes
   nonl-proj :      51625. kBytes
   fftplans  :      22373. kBytes
   grid      :      17829. kBytes
   one-center:        590. kBytes
   wavefun   :     378992. kBytes
 
     INWAV:  cpu time   76.1994: real time   76.3174
 Broyden mixing: mesh for mixing (old mesh)
   NGX = 63   NGY = 63   NGZ = 57
  (NGX  =192   NGY  =192   NGZ  =180)
  gives a total of 226233 points

 initial charge density was supplied:
 number of electron    1946.0000062 magnetization      -0.0000005
 keeping initial charge density in first step


--------------------------------------------------------------------------------------------------------


 Maximum index for augmentation-charges         2065 (set IRDMAX)


--------------------------------------------------------------------------------------------------------


 First call to EWALD:  gamma=   0.125
 Maximum number of real-space cells 3x 3x 3
 Maximum number of reciprocal cells 3x 3x 3

    FEWALD:  cpu time    0.1557: real time    0.1557


--------------------------------------- Iteration      1(   1)  ---------------------------------------


    POTLOK:  cpu time    0.2192: real time    0.2478
    SETDIJ:  cpu time    4.8779: real time    4.8781
atom =   1  type =  1  l = 2
 
 onsite density matrix
 
spin component  1
 
  0.9686 -0.0027  0.0183 -0.0042 -0.0029
 -0.0027  0.9647 -0.0019  0.0135 -0.0008
  0.0183 -0.0019  0.9583 -0.0027 -0.0023
 -0.0042  0.0135 -0.0027  0.9582 -0.0016
 -0.0029 -0.0008 -0.0023 -0.0016  0.9483
 
spin component  2
 
  0.0465 -0.0027  0.0255 -0.0034 -0.0035
 -0.0027  0.0384 -0.0030  0.0188 -0.0002
  0.0255 -0.0030  0.0327 -0.0034 -0.0027
 -0.0034  0.0188 -0.0034  0.0333 -0.0010
 -0.0035 -0.0002 -0.0027 -0.0010  0.0150
 
 occupancies and eigenvectors
 
  o =  0.0132  v =  0.0000  0.0000  0.0000  0.0000  0.0000  0.6043 -0.0208 -0.7961 -0.0114 -0.0208      0.0000  0.0000  0.0000  0.0000  0.0000  0.0000  0.0000  0.0000  0.0000  0.0000
  o =  0.0144  v =  0.0000  0.0000  0.0000  0.0000  0.0000  0.0835 -0.1512  0.0391  0.2226  0.9587      0.0000  0.0000  0.0000  0.0000  0.0000  0.0000  0.0000  0.0000  0.0000  0.0000
  o =  0.0171  v =  0.0000  0.0000  0.0000  0.0000  0.0000 -0.0110 -0.6385  0.0050  0.7216 -0.2675      0.0000  0.0000  0.0000  0.0000  0.0000  0.0000  0.0000  0.0000  0.0000  0.0000
  o =  0.0523  v =  0.0000  0.0000  0.0000  0.0000  0.0000  0.3219  0.6983  0.2192  0.5970 -0.0654      0.0000  0.0000  0.0000  0.0000  0.0000  0.0000  0.0000  0.0000  0.0000  0.0000
  o =  0.0690  v =  0.0000  0.0000  0.0000  0.0000  0.0000 -0.7240  0.2854 -0.5626  0.2706  0.0682      0.0000  0.0000  0.0000  0.0000  0.0000  0.0000  0.0000  0.0000  0.0000  0.0000
  o =  0.9444  v =  0.6081 -0.0412 -0.7890  0.0755  0.0167  0.0000  0.0000  0.0000  0.0000  0.0000      0.0000  0.0000  0.0000  0.0000  0.0000  0.0000  0.0000  0.0000  0.0000  0.0000
  o =  0.9466  v =  0.0464 -0.4121  0.1302  0.6163  0.6567  0.0000  0.0000  0.0000  0.0000  0.0000      0.0000  0.0000  0.0000  0.0000  0.0000  0.0000  0.0000  0.0000  0.0000  0.0000
  o =  0.9486  v =  0.0681  0.4567 -0.0024 -0.4882  0.7405  0.0000  0.0000  0.0000  0.0000  0.0000      0.0000  0.0000  0.0000  0.0000  0.0000  0.0000  0.0000  0.0000  0.0000  0.0000
  o =  0.9727  v =  0.3559  0.7101  0.2844  0.5219 -0.1257  0.0000  0.0000  0.0000  0.0000  0.0000      0.0000  0.0000  0.0000  0.0000  0.0000  0.0000  0.0000  0.0000  0.0000  0.0000
  o =  0.9859  v = -0.7048  0.3400 -0.5288  0.3220  0.0657  0.0000  0.0000  0.0000  0.0000  0.0000      0.0000  0.0000  0.0000  0.0000  0.0000  0.0000  0.0000  0.0000  0.0000  0.0000
atom =   2  type =  1  l = 2
 
 onsite density matrix
 
spin component  1
 
  0.0415  0.0000 -0.0226 -0.0000  0.0042
  0.0000  0.0443 -0.0000 -0.0227 -0.0000
 -0.0226 -0.0000  0.0322  0.0000 -0.0037
 -0.0000 -0.0227  0.0000  0.0357  0.0000
  0.0042 -0.0000 -0.0037  0.0000  0.0162
 
spin component  2
 
  0.9656  0.0000 -0.0158 -0.0000  0.0047
  0.0000  0.9683 -0.0000 -0.0174 -0.0000
 -0.0158 -0.0000  0.9570  0.0000 -0.0033
 -0.0000 -0.0174  0.0000  0.9622  0.0000
  0.0047 -0.0000 -0.0033  0.0000  0.9486
 
 occupancies and eigenvectors
 
  o =  0.0138  v =  0.6164 -0.0000  0.7783 -0.0000  0.1197  0.0000  0.0000  0.0000  0.0000  0.0000      0.0000  0.0000  0.0000  0.0000  0.0000  0.0000  0.0000  0.0000  0.0000  0.0000
  o =  0.0155  v =  0.1712  0.0000  0.0159  0.0000 -0.9851  0.0000  0.0000  0.0000  0.0000  0.0000      0.0000  0.0000  0.0000  0.0000  0.0000  0.0000  0.0000  0.0000  0.0000  0.0000
  o =  0.0169  v = -0.0000 -0.6377 -0.0000 -0.7703 -0.0000  0.0000  0.0000  0.0000  0.0000  0.0000      0.0000  0.0000  0.0000  0.0000  0.0000  0.0000  0.0000  0.0000  0.0000  0.0000
  o =  0.0606  v =  0.7686 -0.0001 -0.6277  0.0000  0.1234  0.0000  0.0000  0.0000  0.0000  0.0000      0.0000  0.0000  0.0000  0.0000  0.0000  0.0000  0.0000  0.0000  0.0000  0.0000
  o =  0.0631  v =  0.0001  0.7703 -0.0000 -0.6377  0.0000  0.0000  0.0000  0.0000  0.0000  0.0000      0.0000  0.0000  0.0000  0.0000  0.0000  0.0000  0.0000  0.0000  0.0000  0.0000
  o =  0.9449  v =  0.0000  0.0000  0.0000  0.0000  0.0000 -0.6176 -0.0000 -0.7810 -0.0000  0.0929      0.0000  0.0000  0.0000  0.0000  0.0000  0.0000  0.0000  0.0000  0.0000  0.0000
  o =  0.9476  v =  0.0000  0.0000  0.0000  0.0000  0.0000  0.0907  0.0013 -0.1880  0.0015 -0.9780      0.0000  0.0000  0.0000  0.0000  0.0000  0.0000  0.0000  0.0000  0.0000  0.0000
  o =  0.9476  v =  0.0000  0.0000  0.0000  0.0000  0.0000  0.0002 -0.6434 -0.0004 -0.7655 -0.0019      0.0000  0.0000  0.0000  0.0000  0.0000  0.0000  0.0000  0.0000  0.0000  0.0000
  o =  0.9788  v =  0.0000  0.0000  0.0000  0.0000  0.0000 -0.7813  0.0000  0.5956 -0.0000 -0.1869      0.0000  0.0000  0.0000  0.0000  0.0000  0.0000  0.0000  0.0000  0.0000  0.0000
  o =  0.9829  v =  0.0000  0.0000  0.0000  0.0000  0.0000 -0.0000 -0.7655  0.0000  0.6434  0.0000      0.0000  0.0000  0.0000  0.0000  0.0000  0.0000  0.0000  0.0000  0.0000  0.0000
atom =   3  type =  1  l = 2
 
 onsite density matrix
 
spin component  1
 
  0.9703 -0.0006  0.0191 -0.0006 -0.0009
 -0.0006  0.9651  0.0002  0.0171 -0.0000
  0.0191  0.0002  0.9582  0.0002 -0.0006
 -0.0006  0.0171  0.0002  0.9633 -0.0001
 -0.0009 -0.0000 -0.0006 -0.0001  0.9477
 
spin component  2
 
  0.0463 -0.0007  0.0254 -0.0007 -0.0012
 -0.0007  0.0386  0.0001  0.0214  0.0000
  0.0254  0.0001  0.0318  0.0000 -0.0009
 -0.0007  0.0214  0.0000  0.0364 -0.0002
 -0.0012  0.0000 -0.0009 -0.0002  0.0140
 
 occupancies and eigenvectors
 
  o =  0.0126  v =  0.0000  0.0000  0.0000  0.0000  0.0000  0.6026  0.0183 -0.7977  0.0017 -0.0139      0.0000  0.0000  0.0000  0.0000  0.0000  0.0000  0.0000  0.0000  0.0000  0.0000
  o =  0.0139  v =  0.0000  0.0000  0.0000  0.0000  0.0000 -0.0315  0.0526 -0.0053 -0.0596 -0.9963      0.0000  0.0000  0.0000  0.0000  0.0000  0.0000  0.0000  0.0000  0.0000  0.0000
  o =  0.0160  v =  0.0000  0.0000  0.0000  0.0000  0.0000 -0.0050  0.6866  0.0090 -0.7226  0.0796      0.0000  0.0000  0.0000  0.0000  0.0000  0.0000  0.0000  0.0000  0.0000  0.0000
  o =  0.0589  v =  0.0000  0.0000  0.0000  0.0000  0.0000  0.0747  0.7210  0.0745  0.6849 -0.0056      0.0000  0.0000  0.0000  0.0000  0.0000  0.0000  0.0000  0.0000  0.0000  0.0000
  o =  0.0656  v =  0.0000  0.0000  0.0000  0.0000  0.0000 -0.7939  0.0753 -0.5983  0.0727  0.0279      0.0000  0.0000  0.0000  0.0000  0.0000  0.0000  0.0000  0.0000  0.0000  0.0000
  o =  0.9443  v =  0.5909  0.0147 -0.8065  0.0132  0.0043  0.0000  0.0000  0.0000  0.0000  0.0000      0.0000  0.0000  0.0000  0.0000  0.0000  0.0000  0.0000  0.0000  0.0000  0.0000
  o =  0.9471  v =  0.0051 -0.6771  0.0040  0.7135  0.1800  0.0000  0.0000  0.0000  0.0000  0.0000      0.0000  0.0000  0.0000  0.0000  0.0000  0.0000  0.0000  0.0000  0.0000  0.0000
  o =  0.9477  v =  0.0205  0.1264  0.0205 -0.1283  0.9832  0.0000  0.0000  0.0000  0.0000  0.0000      0.0000  0.0000  0.0000  0.0000  0.0000  0.0000  0.0000  0.0000  0.0000  0.0000
  o =  0.9813  v =  0.1146  0.7160  0.1081  0.6800 -0.0080  0.0000  0.0000  0.0000  0.0000  0.0000      0.0000  0.0000  0.0000  0.0000  0.0000  0.0000  0.0000  0.0000  0.0000  0.0000
  o =  0.9844  v = -0.7983  0.1126 -0.5809  0.1086  0.0285  0.0000  0.0000  0.0000  0.0000  0.0000      0.0000  0.0000  0.0000  0.0000  0.0000  0.0000  0.0000  0.0000  0.0000  0.0000
atom =   4  type =  1  l = 2
 
 onsite density matrix
 
spin component  1
 
  0.0443 -0.0003 -0.0246 -0.0002  0.0020
 -0.0003  0.0392  0.0004 -0.0214 -0.0004
 -0.0246  0.0004  0.0316  0.0001 -0.0016
 -0.0002 -0.0214  0.0001  0.0351  0.0002
  0.0020 -0.0004 -0.0016  0.0002  0.0136
 
spin component  2
 
  0.9691 -0.0003 -0.0188 -0.0001  0.0015
 -0.0003  0.9658  0.0002 -0.0169 -0.0003
 -0.0188  0.0002  0.9582  0.0000 -0.0011
 -0.0001 -0.0169  0.0000  0.9625  0.0002
  0.0015 -0.0003 -0.0011  0.0002  0.9475
 
 occupancies and eigenvectors
 
  o =  0.0125  v = -0.6107  0.0053 -0.7913  0.0028 -0.0292  0.0000  0.0000  0.0000  0.0000  0.0000      0.0000  0.0000  0.0000  0.0000  0.0000  0.0000  0.0000  0.0000  0.0000  0.0000
  o =  0.0134  v =  0.0570 -0.0314 -0.0075 -0.0216 -0.9976  0.0000  0.0000  0.0000  0.0000  0.0000      0.0000  0.0000  0.0000  0.0000  0.0000  0.0000  0.0000  0.0000  0.0000  0.0000
  o =  0.0156  v = -0.0133 -0.6721  0.0018 -0.7394  0.0363  0.0000  0.0000  0.0000  0.0000  0.0000      0.0000  0.0000  0.0000  0.0000  0.0000  0.0000  0.0000  0.0000  0.0000  0.0000
  o =  0.0586  v =  0.0473  0.7381 -0.0338 -0.6721 -0.0057  0.0000  0.0000  0.0000  0.0000  0.0000      0.0000  0.0000  0.0000  0.0000  0.0000  0.0000  0.0000  0.0000  0.0000  0.0000
  o =  0.0635  v = -0.7883  0.0493  0.6104 -0.0317 -0.0505  0.0000  0.0000  0.0000  0.0000  0.0000      0.0000  0.0000  0.0000  0.0000  0.0000  0.0000  0.0000  0.0000  0.0000  0.0000
  o =  0.9441  v =  0.0000  0.0000  0.0000  0.0000  0.0000 -0.6015 -0.0065 -0.7987 -0.0099  0.0111      0.0000  0.0000  0.0000  0.0000  0.0000  0.0000  0.0000  0.0000  0.0000  0.0000
  o =  0.9472  v =  0.0000  0.0000  0.0000  0.0000  0.0000 -0.0030  0.6692 -0.0108  0.7354  0.1062      0.0000  0.0000  0.0000  0.0000  0.0000  0.0000  0.0000  0.0000  0.0000  0.0000
  o =  0.9474  v =  0.0000  0.0000  0.0000  0.0000  0.0000 -0.0347 -0.0646  0.0414 -0.0841  0.9929      0.0000  0.0000  0.0000  0.0000  0.0000  0.0000  0.0000  0.0000  0.0000  0.0000
  o =  0.9812  v =  0.0000  0.0000  0.0000  0.0000  0.0000  0.0777  0.7362 -0.0563 -0.6699 -0.0037      0.0000  0.0000  0.0000  0.0000  0.0000  0.0000  0.0000  0.0000  0.0000  0.0000
  o =  0.9833  v =  0.0000  0.0000  0.0000  0.0000  0.0000 -0.7944  0.0772  0.5975 -0.0571 -0.0525      0.0000  0.0000  0.0000  0.0000  0.0000  0.0000  0.0000  0.0000  0.0000  0.0000
atom =   5  type =  1  l = 2
 
 onsite density matrix
 
spin component  1
 
  0.9703  0.0006  0.0191  0.0006 -0.0009
  0.0006  0.9651 -0.0002  0.0171  0.0000
  0.0191 -0.0002  0.9582 -0.0002 -0.0006
  0.0006  0.0171 -0.0002  0.9633  0.0001
 -0.0009  0.0000 -0.0006  0.0001  0.9477
 
spin component  2
 
  0.0463  0.0007  0.0254  0.0007 -0.0012
  0.0007  0.0386 -0.0001  0.0214 -0.0000
  0.0254 -0.0001  0.0319 -0.0000 -0.0009
  0.0007  0.0214 -0.0000  0.0364  0.0002
 -0.0012 -0.0000 -0.0009  0.0002  0.0140
 
 occupancies and eigenvectors
 
  o =  0.0126  v =  0.0000  0.0000  0.0000  0.0000  0.0000 -0.6026  0.0183  0.7977  0.0017  0.0139      0.0000  0.0000  0.0000  0.0000  0.0000  0.0000  0.0000  0.0000  0.0000  0.0000
  o =  0.0139  v =  0.0000  0.0000  0.0000  0.0000  0.0000  0.0314  0.0526  0.0053 -0.0596  0.9963      0.0000  0.0000  0.0000  0.0000  0.0000  0.0000  0.0000  0.0000  0.0000  0.0000
  o =  0.0160  v =  0.0000  0.0000  0.0000  0.0000  0.0000 -0.0050 -0.6866  0.0090  0.7226  0.0796      0.0000  0.0000  0.0000  0.0000  0.0000  0.0000  0.0000  0.0000  0.0000  0.0000
  o =  0.0589  v =  0.0000  0.0000  0.0000  0.0000  0.0000  0.0747 -0.7210  0.0745 -0.6849 -0.0056      0.0000  0.0000  0.0000  0.0000  0.0000  0.0000  0.0000  0.0000  0.0000  0.0000
  o =  0.0656  v =  0.0000  0.0000  0.0000  0.0000  0.0000 -0.7939 -0.0753 -0.5983 -0.0727  0.0279      0.0000  0.0000  0.0000  0.0000  0.0000  0.0000  0.0000  0.0000  0.0000  0.0000
  o =  0.9443  v = -0.5909  0.0147  0.8065  0.0132 -0.0043  0.0000  0.0000  0.0000  0.0000  0.0000      0.0000  0.0000  0.0000  0.0000  0.0000  0.0000  0.0000  0.0000  0.0000  0.0000
  o =  0.9471  v =  0.0051  0.6770  0.0040 -0.7135  0.1804  0.0000  0.0000  0.0000  0.0000  0.0000      0.0000  0.0000  0.0000  0.0000  0.0000  0.0000  0.0000  0.0000  0.0000  0.0000
  o =  0.9477  v = -0.0205  0.1267 -0.0205 -0.1286 -0.9831  0.0000  0.0000  0.0000  0.0000  0.0000      0.0000  0.0000  0.0000  0.0000  0.0000  0.0000  0.0000  0.0000  0.0000  0.0000
  o =  0.9813  v =  0.1146 -0.7160  0.1080 -0.6800 -0.0080  0.0000  0.0000  0.0000  0.0000  0.0000      0.0000  0.0000  0.0000  0.0000  0.0000  0.0000  0.0000  0.0000  0.0000  0.0000
  o =  0.9844  v = -0.7983 -0.1126 -0.5809 -0.1086  0.0285  0.0000  0.0000  0.0000  0.0000  0.0000      0.0000  0.0000  0.0000  0.0000  0.0000  0.0000  0.0000  0.0000  0.0000  0.0000
atom =   6  type =  1  l = 2
 
 onsite density matrix
 
spin component  1
 
  0.0462 -0.0000 -0.0257 -0.0000  0.0010
 -0.0000  0.0383  0.0000 -0.0213 -0.0000
 -0.0257  0.0000  0.0321  0.0000 -0.0008
 -0.0000 -0.0213  0.0000  0.0365  0.0000
  0.0010 -0.0000 -0.0008  0.0000  0.0139
 
spin component  2
 
  0.9701 -0.0000 -0.0195 -0.0000  0.0008
 -0.0000  0.9649  0.0000 -0.0170 -0.0000
 -0.0195  0.0000  0.9586  0.0000 -0.0006
 -0.0000 -0.0170  0.0000  0.9636  0.0000
  0.0008 -0.0000 -0.0006  0.0000  0.9476
 
 occupancies and eigenvectors
 
  o =  0.0125  v =  0.6065  0.0000  0.7951  0.0000  0.0087  0.0000  0.0000  0.0000  0.0000  0.0000      0.0000  0.0000  0.0000  0.0000  0.0000  0.0000  0.0000  0.0000  0.0000  0.0000
  o =  0.0139  v =  0.0252 -0.0000 -0.0083 -0.0000 -0.9996  0.0000  0.0000  0.0000  0.0000  0.0000      0.0000  0.0000  0.0000  0.0000  0.0000  0.0000  0.0000  0.0000  0.0000  0.0000
  o =  0.0161  v =  0.0000  0.6925 -0.0000  0.7214 -0.0000  0.0000  0.0000  0.0000  0.0000  0.0000      0.0000  0.0000  0.0000  0.0000  0.0000  0.0000  0.0000  0.0000  0.0000  0.0000
  o =  0.0587  v =  0.0000  0.7214 -0.0000 -0.6925 -0.0000  0.0000  0.0000  0.0000  0.0000  0.0000      0.0000  0.0000  0.0000  0.0000  0.0000  0.0000  0.0000  0.0000  0.0000  0.0000
  o =  0.0658  v = -0.7947  0.0000  0.6065 -0.0000 -0.0251  0.0000  0.0000  0.0000  0.0000  0.0000      0.0000  0.0000  0.0000  0.0000  0.0000  0.0000  0.0000  0.0000  0.0000  0.0000
  o =  0.9440  v =  0.0000  0.0000  0.0000  0.0000  0.0000  0.5987  0.0000  0.8009  0.0000 -0.0017      0.0000  0.0000  0.0000  0.0000  0.0000  0.0000  0.0000  0.0000  0.0000  0.0000
  o =  0.9473  v =  0.0000  0.0000  0.0000  0.0000  0.0000  0.0000  0.6929 -0.0000  0.7211  0.0000      0.0000  0.0000  0.0000  0.0000  0.0000  0.0000  0.0000  0.0000  0.0000  0.0000
  o =  0.9476  v =  0.0000  0.0000  0.0000  0.0000  0.0000  0.0194  0.0000 -0.0167  0.0000 -0.9997      0.0000  0.0000  0.0000  0.0000  0.0000  0.0000  0.0000  0.0000  0.0000  0.0000
  o =  0.9812  v =  0.0000  0.0000  0.0000  0.0000  0.0000 -0.0000 -0.7211  0.0000  0.6929  0.0000      0.0000  0.0000  0.0000  0.0000  0.0000  0.0000  0.0000  0.0000  0.0000  0.0000
  o =  0.9846  v =  0.0000  0.0000  0.0000  0.0000  0.0000 -0.8007  0.0000  0.5985 -0.0000 -0.0255      0.0000  0.0000  0.0000  0.0000  0.0000  0.0000  0.0000  0.0000  0.0000  0.0000
atom =   7  type =  1  l = 2
 
 onsite density matrix
 
spin component  1
 
  0.9686  0.0027  0.0183  0.0042 -0.0029
  0.0027  0.9647  0.0019  0.0135  0.0008
  0.0183  0.0019  0.9583  0.0027 -0.0023
  0.0042  0.0135  0.0027  0.9582  0.0016
 -0.0029  0.0008 -0.0023  0.0016  0.9483
 
spin component  2
 
  0.0465  0.0027  0.0255  0.0034 -0.0035
  0.0027  0.0384  0.0030  0.0188  0.0002
  0.0255  0.0030  0.0327  0.0034 -0.0027
  0.0034  0.0188  0.0034  0.0333  0.0010
 -0.0035  0.0002 -0.0027  0.0010  0.0150
 
 occupancies and eigenvectors
 
  o =  0.0132  v =  0.0000  0.0000  0.0000  0.0000  0.0000 -0.6043 -0.0208  0.7961 -0.0114  0.0209      0.0000  0.0000  0.0000  0.0000  0.0000  0.0000  0.0000  0.0000  0.0000  0.0000
  o =  0.0144  v =  0.0000  0.0000  0.0000  0.0000  0.0000 -0.0835 -0.1513 -0.0390  0.2226 -0.9587      0.0000  0.0000  0.0000  0.0000  0.0000  0.0000  0.0000  0.0000  0.0000  0.0000
  o =  0.0171  v =  0.0000  0.0000  0.0000  0.0000  0.0000 -0.0110  0.6385  0.0050 -0.7215 -0.2675      0.0000  0.0000  0.0000  0.0000  0.0000  0.0000  0.0000  0.0000  0.0000  0.0000
  o =  0.0523  v =  0.0000  0.0000  0.0000  0.0000  0.0000  0.3219 -0.6983  0.2192 -0.5970 -0.0654      0.0000  0.0000  0.0000  0.0000  0.0000  0.0000  0.0000  0.0000  0.0000  0.0000
  o =  0.0690  v =  0.0000  0.0000  0.0000  0.0000  0.0000 -0.7240 -0.2854 -0.5626 -0.2706  0.0682      0.0000  0.0000  0.0000  0.0000  0.0000  0.0000  0.0000  0.0000  0.0000  0.0000
  o =  0.9444  v = -0.6081 -0.0412  0.7890  0.0755 -0.0167  0.0000  0.0000  0.0000  0.0000  0.0000      0.0000  0.0000  0.0000  0.0000  0.0000  0.0000  0.0000  0.0000  0.0000  0.0000
  o =  0.9466  v =  0.0465  0.4120  0.1302 -0.6162  0.6568  0.0000  0.0000  0.0000  0.0000  0.0000      0.0000  0.0000  0.0000  0.0000  0.0000  0.0000  0.0000  0.0000  0.0000  0.0000
  o =  0.9486  v = -0.0681  0.4568  0.0024 -0.4884 -0.7404  0.0000  0.0000  0.0000  0.0000  0.0000      0.0000  0.0000  0.0000  0.0000  0.0000  0.0000  0.0000  0.0000  0.0000  0.0000
  o =  0.9727  v =  0.3558 -0.7102  0.2844 -0.5219 -0.1257  0.0000  0.0000  0.0000  0.0000  0.0000      0.0000  0.0000  0.0000  0.0000  0.0000  0.0000  0.0000  0.0000  0.0000  0.0000
  o =  0.9859  v = -0.7048 -0.3400 -0.5288 -0.3220  0.0658  0.0000  0.0000  0.0000  0.0000  0.0000      0.0000  0.0000  0.0000  0.0000  0.0000  0.0000  0.0000  0.0000  0.0000  0.0000
atom =   8  type =  1  l = 2
 
 onsite density matrix
 
spin component  1
 
  0.0443  0.0003 -0.0246  0.0002  0.0020
  0.0003  0.0392 -0.0004 -0.0214  0.0004
 -0.0246 -0.0004  0.0316 -0.0001 -0.0016
  0.0002 -0.0214 -0.0001  0.0351 -0.0002
  0.0020  0.0004 -0.0016 -0.0002  0.0136
 
spin component  2
 
  0.9691  0.0003 -0.0188  0.0001  0.0015
  0.0003  0.9658 -0.0002 -0.0169  0.0003
 -0.0188 -0.0002  0.9582 -0.0000 -0.0011
  0.0001 -0.0169 -0.0000  0.9626 -0.0002
  0.0015  0.0003 -0.0011 -0.0002  0.9475
 
 occupancies and eigenvectors
 
  o =  0.0125  v =  0.6107  0.0053  0.7913  0.0028  0.0292  0.0000  0.0000  0.0000  0.0000  0.0000      0.0000  0.0000  0.0000  0.0000  0.0000  0.0000  0.0000  0.0000  0.0000  0.0000
  o =  0.0134  v =  0.0570  0.0314 -0.0075  0.0216 -0.9976  0.0000  0.0000  0.0000  0.0000  0.0000      0.0000  0.0000  0.0000  0.0000  0.0000  0.0000  0.0000  0.0000  0.0000  0.0000
  o =  0.0156  v =  0.0133 -0.6721 -0.0018 -0.7394 -0.0363  0.0000  0.0000  0.0000  0.0000  0.0000      0.0000  0.0000  0.0000  0.0000  0.0000  0.0000  0.0000  0.0000  0.0000  0.0000
  o =  0.0586  v =  0.0474 -0.7381 -0.0338  0.6721 -0.0057  0.0000  0.0000  0.0000  0.0000  0.0000      0.0000  0.0000  0.0000  0.0000  0.0000  0.0000  0.0000  0.0000  0.0000  0.0000
  o =  0.0635  v = -0.7883 -0.0493  0.6104  0.0317 -0.0505  0.0000  0.0000  0.0000  0.0000  0.0000      0.0000  0.0000  0.0000  0.0000  0.0000  0.0000  0.0000  0.0000  0.0000  0.0000
  o =  0.9441  v =  0.0000  0.0000  0.0000  0.0000  0.0000  0.6014 -0.0065  0.7987 -0.0099 -0.0110      0.0000  0.0000  0.0000  0.0000  0.0000  0.0000  0.0000  0.0000  0.0000  0.0000
  o =  0.9472  v =  0.0000  0.0000  0.0000  0.0000  0.0000 -0.0030 -0.6691 -0.0108 -0.7354  0.1067      0.0000  0.0000  0.0000  0.0000  0.0000  0.0000  0.0000  0.0000  0.0000  0.0000
  o =  0.9474  v =  0.0000  0.0000  0.0000  0.0000  0.0000  0.0347 -0.0650 -0.0414 -0.0845 -0.9928      0.0000  0.0000  0.0000  0.0000  0.0000  0.0000  0.0000  0.0000  0.0000  0.0000
  o =  0.9812  v =  0.0000  0.0000  0.0000  0.0000  0.0000  0.0777 -0.7362 -0.0563  0.6699 -0.0038      0.0000  0.0000  0.0000  0.0000  0.0000  0.0000  0.0000  0.0000  0.0000  0.0000
  o =  0.9833  v =  0.0000  0.0000  0.0000  0.0000  0.0000 -0.7944 -0.0772  0.5975  0.0571 -0.0525      0.0000  0.0000  0.0000  0.0000  0.0000  0.0000  0.0000  0.0000  0.0000  0.0000
atom =   9  type =  1  l = 2
 
 onsite density matrix
 
spin component  1
 
  0.9699 -0.0000  0.0190 -0.0000 -0.0003
 -0.0000  0.9652 -0.0000  0.0171  0.0000
  0.0190 -0.0000  0.9582 -0.0000 -0.0001
 -0.0000  0.0171 -0.0000  0.9634  0.0000
 -0.0003  0.0000 -0.0001  0.0000  0.9475
 
spin component  2
 
  0.0455 -0.0000  0.0250 -0.0000 -0.0003
 -0.0000  0.0386 -0.0000  0.0217  0.0000
  0.0250 -0.0000  0.0316 -0.0000 -0.0002
 -0.0000  0.0217 -0.0000  0.0363  0.0000
 -0.0003  0.0000 -0.0002  0.0000  0.0137
 
 occupancies and eigenvectors
 
  o =  0.0126  v =  0.0000  0.0000  0.0000  0.0000  0.0000  0.6055 -0.0001 -0.7958  0.0001  0.0060      0.0000  0.0000  0.0000  0.0000  0.0000  0.0000  0.0000  0.0000  0.0000  0.0000
  o =  0.0137  v =  0.0000  0.0000  0.0000  0.0000  0.0000  0.0027 -0.0006  0.0096  0.0006  0.9999      0.0000  0.0000  0.0000  0.0000  0.0000  0.0000  0.0000  0.0000  0.0000  0.0000
  o =  0.0158  v =  0.0000  0.0000  0.0000  0.0000  0.0000 -0.0001 -0.6882  0.0001  0.7255 -0.0008      0.0000  0.0000  0.0000  0.0000  0.0000  0.0000  0.0000  0.0000  0.0000  0.0000
  o =  0.0592  v =  0.0000  0.0000  0.0000  0.0000  0.0000  0.0013  0.7255  0.0009  0.6882  0.0001      0.0000  0.0000  0.0000  0.0000  0.0000  0.0000  0.0000  0.0000  0.0000  0.0000
  o =  0.0645  v =  0.0000  0.0000  0.0000  0.0000  0.0000 -0.7958  0.0012 -0.6055  0.0010  0.0080      0.0000  0.0000  0.0000  0.0000  0.0000  0.0000  0.0000  0.0000  0.0000  0.0000
  o =  0.9442  v = -0.5939 -0.0000  0.8041 -0.0000 -0.0257  0.0000  0.0000  0.0000  0.0000  0.0000      0.0000  0.0000  0.0000  0.0000  0.0000  0.0000  0.0000  0.0000  0.0000  0.0000
  o =  0.9471  v =  0.0001  0.6881 -0.0000 -0.7256 -0.0037  0.0000  0.0000  0.0000  0.0000  0.0000      0.0000  0.0000  0.0000  0.0000  0.0000  0.0000  0.0000  0.0000  0.0000  0.0000
  o =  0.9474  v = -0.0077  0.0025  0.0262 -0.0027  0.9996  0.0000  0.0000  0.0000  0.0000  0.0000      0.0000  0.0000  0.0000  0.0000  0.0000  0.0000  0.0000  0.0000  0.0000  0.0000
  o =  0.9815  v =  0.0016  0.7256  0.0012  0.6881  0.0001  0.0000  0.0000  0.0000  0.0000  0.0000      0.0000  0.0000  0.0000  0.0000  0.0000  0.0000  0.0000  0.0000  0.0000  0.0000
  o =  0.9839  v = -0.8045  0.0015 -0.5939  0.0013  0.0094  0.0000  0.0000  0.0000  0.0000  0.0000      0.0000  0.0000  0.0000  0.0000  0.0000  0.0000  0.0000  0.0000  0.0000  0.0000
atom =  10  type =  1  l = 2
 
 onsite density matrix
 
[...]
    1        0.178   6.148   4.945  11.272
    2        0.180   6.153   4.953  11.286
    3        0.173   6.151   4.953  11.276
    4        0.172   6.148   4.948  11.268
    5        0.173   6.151   4.953  11.276
    6        0.172   6.151   4.953  11.276
    7        0.178   6.148   4.945  11.272
    8        0.172   6.148   4.948  11.268
    9        0.172   6.150   4.951  11.272
   10        0.173   6.150   4.951  11.274
   11        0.171   6.150   4.951  11.272
   12        0.171   6.149   4.950  11.270
   13        0.171   6.150   4.951  11.272
   14        0.171   6.150   4.952  11.272
   15        0.172   6.150   4.951  11.272
   16        0.171   6.149   4.950  11.270
   17        0.178   6.148   4.945  11.272
   18        0.172   6.148   4.949  11.269
   19        0.173   6.151   4.953  11.276
   20        0.172   6.151   4.953  11.277
   21        0.173   6.151   4.953  11.276
   22        0.171   6.150   4.952  11.274
   23        0.178   6.148   4.945  11.272
   24        0.172   6.151   4.953  11.277
   25        0.172   6.151   4.953  11.277
   26        0.180   6.153   4.953  11.286
   27        0.171   6.151   4.953  11.276
   28        0.172   6.148   4.948  11.268
   29        0.171   6.151   4.953  11.276
   30        0.172   6.151   4.953  11.276
   31        0.172   6.151   4.953  11.277
   32        0.172   6.148   4.948  11.268
   33        0.171   6.151   4.953  11.275
   34        0.172   6.148   4.949  11.269
   35        0.171   6.151   4.953  11.275
   36        0.172   6.151   4.954  11.277
   37        0.171   6.151   4.953  11.275
   38        0.171   6.150   4.952  11.274
   39        0.171   6.151   4.953  11.275
   40        0.172   6.151   4.954  11.277
   41        0.172   6.150   4.952  11.274
   42        0.173   6.150   4.951  11.274
   43        0.171   6.150   4.952  11.274
   44        0.171   6.149   4.950  11.270
   45        0.171   6.150   4.952  11.274
   46        0.171   6.150   4.952  11.272
   47        0.172   6.150   4.952  11.274
   48        0.171   6.149   4.950  11.270
   49        0.172   6.150   4.951  11.273
   50        0.171   6.149   4.951  11.271
   51        0.171   6.150   4.952  11.274
   52        0.171   6.150   4.952  11.274
   53        0.171   6.150   4.952  11.274
   54        0.171   6.151   4.953  11.274
   55        0.172   6.150   4.951  11.273
   56        0.171   6.150   4.952  11.274
   57        0.171   6.151   4.953  11.275
   58        0.172   6.152   4.955  11.279
   59        0.171   6.151   4.953  11.275
   60        0.171   6.152   4.954  11.277
   61        0.171   6.151   4.953  11.275
   62        0.170   6.151   4.954  11.275
   63        0.171   6.151   4.953  11.275
   64        0.171   6.152   4.954  11.277
   65        0.172   6.151   4.953  11.277
   66        0.172   6.152   4.955  11.279
   67        0.171   6.151   4.953  11.276
   68        0.171   6.152   4.954  11.277
   69        0.171   6.151   4.953  11.276
   70        0.170   6.151   4.954  11.275
   71        0.172   6.151   4.953  11.277
   72        0.171   6.152   4.954  11.277
   73        1.728   4.360   0.000   6.087
   74        1.729   4.363   0.000   6.091
   75        1.734   4.373   0.000   6.108
   76        1.728   4.362   0.000   6.091
   77        1.727   4.365   0.000   6.092
   78        1.727   4.364   0.000   6.092
   79        1.728   4.361   0.000   6.089
   80        1.728   4.368   0.000   6.095
   81        1.727   4.365   0.000   6.092
   82        1.727   4.364   0.000   6.092
   83        1.727   4.367   0.000   6.094
   84        1.727   4.365   0.000   6.092
   85        1.728   4.360   0.000   6.087
   86        1.729   4.363   0.000   6.091
   87        1.728   4.361   0.000   6.089
   88        1.728   4.368   0.000   6.095
   89        1.727   4.364   0.000   6.091
   90        1.727   4.364   0.000   6.091
   91        1.727   4.364   0.000   6.091
   92        1.727   4.364   0.000   6.091
   93        1.727   4.366   0.000   6.093
   94        1.727   4.366   0.000   6.093
   95        1.727   4.364   0.000   6.091
   96        1.727   4.364   0.000   6.091
   97        1.727   4.366   0.000   6.093
   98        1.727   4.366   0.000   6.093
   99        1.727   4.365   0.000   6.092
  100        1.727   4.365   0.000   6.092
  101        1.727   4.364   0.000   6.091
  102        1.727   4.364   0.000   6.091
  103        1.727   4.364   0.000   6.091
  104        1.727   4.364   0.000   6.091
  105        1.729   4.363   0.000   6.091
  106        1.728   4.360   0.000   6.088
  107        1.728   4.362   0.000   6.091
  108        1.734   4.373   0.000   6.108
  109        1.727   4.364   0.000   6.092
  110        1.727   4.365   0.000   6.092
  111        1.728   4.368   0.000   6.095
  112        1.728   4.361   0.000   6.089
  113        1.727   4.364   0.000   6.092
  114        1.727   4.365   0.000   6.092
  115        1.727   4.365   0.000   6.092
  116        1.727   4.367   0.000   6.094
  117        1.729   4.363   0.000   6.091
  118        1.728   4.360   0.000   6.088
  119        1.728   4.368   0.000   6.095
  120        1.728   4.361   0.000   6.089
  121        1.727   4.363   0.000   6.091
  122        1.727   4.365   0.000   6.092
  123        1.728   4.373   0.000   6.101
  124        1.727   4.367   0.000   6.094
  125        1.727   4.365   0.000   6.092
  126        1.727   4.366   0.000   6.092
  127        1.727   4.363   0.000   6.090
  128        1.727   4.368   0.000   6.095
  129        1.727   4.365   0.000   6.092
  130        1.727   4.366   0.000   6.092
  131        1.727   4.366   0.000   6.093
  132        1.727   4.366   0.000   6.093
  133        1.727   4.363   0.000   6.091
  134        1.727   4.365   0.000   6.092
  135        1.727   4.363   0.000   6.090
  136        1.727   4.368   0.000   6.095
  137        1.727   4.365   0.000   6.092
  138        1.727   4.365   0.000   6.092
  139        1.727   4.365   0.000   6.092
  140        1.727   4.367   0.000   6.094
  141        1.727   4.365   0.000   6.092
  142        1.727   4.366   0.000   6.092
  143        1.727   4.367   0.000   6.094
  144        1.727   4.367   0.000   6.094
  145        1.727   4.365   0.000   6.092
  146        1.727   4.366   0.000   6.092
  147        1.727   4.366   0.000   6.092
  148        1.727   4.366   0.000   6.093
  149        1.727   4.365   0.000   6.092
  150        1.727   4.365   0.000   6.092
  151        1.727   4.367   0.000   6.094
  152        1.727   4.367   0.000   6.094
  153        1.728   4.363   0.000   6.091
  154        1.727   4.365   0.000   6.092
  155        1.728   4.365   0.000   6.092
  156        1.727   4.363   0.000   6.091
  157        1.727   4.365   0.000   6.092
  158        1.727   4.366   0.000   6.092
  159        1.727   4.365   0.000   6.093
  160        1.727   4.365   0.000   6.092
  161        1.727   4.365   0.000   6.092
  162        1.727   4.366   0.000   6.092
  163        1.727   4.365   0.000   6.092
  164        1.727   4.365   0.000   6.092
  165        1.728   4.363   0.000   6.091
  166        1.727   4.365   0.000   6.092
  167        1.727   4.365   0.000   6.093
  168        1.727   4.364   0.000   6.092
  169        1.727   4.365   0.000   6.092
  170        1.728   4.363   0.000   6.091
  171        1.727   4.363   0.000   6.091
  172        1.728   4.365   0.000   6.092
  173        1.727   4.366   0.000   6.092
  174        1.727   4.365   0.000   6.092
  175        1.727   4.365   0.000   6.092
  176        1.727   4.365   0.000   6.093
  177        1.727   4.366   0.000   6.092
  178        1.727   4.365   0.000   6.092
  179        1.727   4.365   0.000   6.092
  180        1.727   4.365   0.000   6.092
  181        1.727   4.365   0.000   6.092
  182        1.728   4.363   0.000   6.091
  183        1.727   4.365   0.000   6.092
  184        1.727   4.365   0.000   6.093
  185        1.727   4.365   0.000   6.092
  186        1.727   4.365   0.000   6.092
  187        1.727   4.367   0.000   6.094
  188        1.727   4.365   0.000   6.092
  189        1.727   4.366   0.000   6.092
  190        1.727   4.365   0.000   6.092
  191        1.727   4.367   0.000   6.094
  192        1.727   4.367   0.000   6.094
  193        1.727   4.366   0.000   6.092
  194        1.727   4.365   0.000   6.092
  195        1.727   4.366   0.000   6.093
  196        1.727   4.366   0.000   6.092
  197        1.727   4.365   0.000   6.092
  198        1.727   4.365   0.000   6.092
  199        1.727   4.367   0.000   6.094
  200        1.727   4.367   0.000   6.094
  201        1.727   4.365   0.000   6.092
  202        1.727   4.363   0.000   6.091
  203        1.727   4.367   0.000   6.094
  204        1.728   4.373   0.000   6.101
  205        1.727   4.365   0.000   6.092
  206        1.727   4.365   0.000   6.092
  207        1.727   4.368   0.000   6.095
  208        1.727   4.363   0.000   6.090
  209        1.727   4.365   0.000   6.092
  210        1.727   4.365   0.000   6.092
  211        1.727   4.366   0.000   6.093
  212        1.727   4.366   0.000   6.093
  213        1.727   4.365   0.000   6.092
  214        1.727   4.363   0.000   6.091
  215        1.727   4.368   0.000   6.095
  216        1.727   4.363   0.000   6.090
  217        0.435   0.109   0.000   0.544
--------------------------------------------------
tot        261.5771071.494 356.5321689.603
 


 magnetization (x)
 
# of ion       s       p       d       tot
------------------------------------------
    1        0.023   0.020   4.622   4.665
    2       -0.022  -0.021  -4.622  -4.664
    3        0.020   0.018   4.628   4.666
    4       -0.020  -0.018  -4.630  -4.668
    5        0.020   0.018   4.628   4.666
    6       -0.020  -0.018  -4.628  -4.666
    7        0.023   0.020   4.622   4.665
    8       -0.020  -0.018  -4.630  -4.668
    9        0.019   0.018   4.629   4.666
   10       -0.019  -0.018  -4.628  -4.666
   11        0.019   0.018   4.628   4.666
   12       -0.019  -0.018  -4.629  -4.666
   13        0.019   0.018   4.628   4.666
   14       -0.019  -0.018  -4.628  -4.666
   15        0.019   0.018   4.629   4.666
   16       -0.019  -0.018  -4.629  -4.666
   17        0.023   0.020   4.622   4.665
   18       -0.020  -0.018  -4.629  -4.667
   19        0.020   0.018   4.628   4.666
   20       -0.019  -0.019  -4.627  -4.665
   21        0.020   0.018   4.628   4.666
   22       -0.019  -0.018  -4.628  -4.666
   23        0.023   0.020   4.622   4.665
   24       -0.019  -0.019  -4.627  -4.665
   25        0.019   0.019   4.627   4.665
   26       -0.022  -0.021  -4.622  -4.664
   27        0.019   0.018   4.628   4.665
   28       -0.020  -0.018  -4.630  -4.668
   29        0.019   0.018   4.628   4.665
   30       -0.020  -0.018  -4.628  -4.666
   31        0.019   0.019   4.627   4.665
   32       -0.020  -0.018  -4.630  -4.668
   33        0.019   0.019   4.628   4.665
   34       -0.020  -0.018  -4.629  -4.667
   35        0.019   0.019   4.628   4.665
   36       -0.019  -0.019  -4.627  -4.665
   37        0.019   0.019   4.628   4.665
   38       -0.019  -0.018  -4.628  -4.666
   39        0.019   0.019   4.628   4.665
   40       -0.019  -0.019  -4.627  -4.665
   41        0.019   0.018   4.628   4.666
   42       -0.019  -0.018  -4.628  -4.666
   43        0.019   0.018   4.628   4.666
   44       -0.019  -0.018  -4.629  -4.666
   45        0.019   0.018   4.628   4.666
   46       -0.019  -0.018  -4.628  -4.666
   47        0.019   0.018   4.628   4.666
   48       -0.019  -0.018  -4.629  -4.666
   49        0.019   0.018   4.628   4.666
   50       -0.020  -0.018  -4.629  -4.667
   51        0.019   0.018   4.628   4.666
   52       -0.019  -0.018  -4.628  -4.666
   53        0.019   0.018   4.628   4.666
   54       -0.019  -0.018  -4.628  -4.666
   55        0.019   0.018   4.628   4.666
   56       -0.019  -0.018  -4.628  -4.666
   57        0.019   0.019   4.628   4.665
   58       -0.019  -0.019  -4.627  -4.665
   59        0.019   0.019   4.628   4.665
   60       -0.019  -0.019  -4.627  -4.665
   61        0.019   0.019   4.628   4.665
   62       -0.019  -0.018  -4.628  -4.665
   63        0.019   0.019   4.628   4.665
   64       -0.019  -0.019  -4.627  -4.665
   65        0.019   0.019   4.627   4.665
   66       -0.019  -0.019  -4.627  -4.665
   67        0.019   0.018   4.628   4.665
   68       -0.019  -0.019  -4.627  -4.665
   69        0.019   0.018   4.628   4.665
   70       -0.019  -0.018  -4.628  -4.665
   71        0.019   0.019   4.627   4.665
   72       -0.019  -0.019  -4.627  -4.665
   73       -0.002  -0.012   0.000  -0.014
   74       -0.002  -0.013   0.000  -0.015
   75        0.002   0.006   0.000   0.007
   76        0.002   0.018   0.000   0.020
   77       -0.002  -0.014   0.000  -0.016
   78       -0.002  -0.015   0.000  -0.017
   79        0.002   0.016   0.000   0.018
   80        0.002   0.020   0.000   0.022
   81       -0.002  -0.014   0.000  -0.016
   82       -0.002  -0.015   0.000  -0.017
   83        0.002   0.016   0.000   0.018
   84        0.002   0.017   0.000   0.019
   85       -0.002  -0.012   0.000  -0.014
   86       -0.002  -0.013   0.000  -0.015
   87        0.002   0.016   0.000   0.018
   88        0.002   0.020   0.000   0.022
   89       -0.002  -0.015   0.000  -0.017
   90       -0.002  -0.015   0.000  -0.017
   91        0.002   0.015   0.000   0.017
   92        0.002   0.015   0.000   0.017
   93       -0.002  -0.015   0.000  -0.017
   94       -0.002  -0.015   0.000  -0.017
   95        0.002   0.015   0.000   0.017
   96        0.002   0.015   0.000   0.017
   97       -0.002  -0.015   0.000  -0.017
   98       -0.002  -0.015   0.000  -0.017
   99        0.002   0.015   0.000   0.017
  100        0.002   0.015   0.000   0.017
  101       -0.002  -0.015   0.000  -0.017
  102       -0.002  -0.015   0.000  -0.017
  103        0.002   0.015   0.000   0.017
  104        0.002   0.015   0.000   0.017
  105       -0.002  -0.013   0.000  -0.015
  106       -0.002  -0.012   0.000  -0.014
  107        0.002   0.018   0.000   0.020
  108        0.002   0.006   0.000   0.007
  109       -0.002  -0.015   0.000  -0.017
  110       -0.002  -0.014   0.000  -0.016
  111        0.002   0.020   0.000   0.022
  112        0.002   0.016   0.000   0.018
  113       -0.002  -0.015   0.000  -0.017
  114       -0.002  -0.014   0.000  -0.016
  115        0.002   0.017   0.000   0.019
  116        0.002   0.016   0.000   0.018
  117       -0.002  -0.013   0.000  -0.015
  118       -0.002  -0.012   0.000  -0.014
  119        0.002   0.020   0.000   0.022
  120        0.002   0.016   0.000   0.018
  121       -0.002  -0.015   0.000  -0.017
  122       -0.002  -0.015   0.000  -0.016
  123        0.002   0.007   0.000   0.009
  124        0.002   0.014   0.000   0.016
  125       -0.002  -0.015   0.000  -0.017
  126       -0.002  -0.015   0.000  -0.017
  127        0.002   0.015   0.000   0.016
  128        0.002   0.016   0.000   0.018
  129       -0.002  -0.015   0.000  -0.017
  130       -0.002  -0.015   0.000  -0.017
  131        0.002   0.015   0.000   0.017
  132        0.002   0.015   0.000   0.017
  133       -0.002  -0.015   0.000  -0.017
  134       -0.002  -0.015   0.000  -0.016
  135        0.002   0.015   0.000   0.016
  136        0.002   0.016   0.000   0.018
  137       -0.002  -0.016   0.000  -0.018
  138       -0.002  -0.015   0.000  -0.017
  139        0.002   0.014   0.000   0.016
  140        0.002   0.015   0.000   0.017
  141       -0.002  -0.015   0.000  -0.017
  142       -0.002  -0.015   0.000  -0.017
  143        0.002   0.014   0.000   0.016
  144        0.002   0.015   0.000   0.016
  145       -0.002  -0.015   0.000  -0.017
  146       -0.002  -0.015   0.000  -0.017
  147        0.002   0.015   0.000   0.017
  148        0.002   0.015   0.000   0.017
  149       -0.002  -0.016   0.000  -0.018
  150       -0.002  -0.015   0.000  -0.017
  151        0.002   0.014   0.000   0.016
  152        0.002   0.015   0.000   0.016
  153       -0.002  -0.017   0.000  -0.019
  154       -0.002  -0.014   0.000  -0.016
  155        0.002   0.015   0.000   0.017
  156        0.002   0.015   0.000   0.017
  157       -0.002  -0.016   0.000  -0.018
  158       -0.002  -0.015   0.000  -0.017
  159        0.002   0.015   0.000   0.017
  160        0.002   0.015   0.000   0.017
  161       -0.002  -0.016   0.000  -0.018
  162       -0.002  -0.015   0.000  -0.017
  163        0.002   0.015   0.000   0.017
  164        0.002   0.015   0.000   0.017
  165       -0.002  -0.017   0.000  -0.019
  166       -0.002  -0.014   0.000  -0.016
  167        0.002   0.015   0.000   0.017
  168        0.002   0.015   0.000   0.017
  169       -0.002  -0.014   0.000  -0.016
  170       -0.002  -0.017   0.000  -0.019
  171        0.002   0.015   0.000   0.017
  172        0.002   0.015   0.000   0.017
  173       -0.002  -0.015   0.000  -0.017
  174       -0.002  -0.016   0.000  -0.018
  175        0.002   0.015   0.000   0.017
  176        0.002   0.015   0.000   0.017
  177       -0.002  -0.015   0.000  -0.017
  178       -0.002  -0.016   0.000  -0.018
  179        0.002   0.015   0.000   0.017
  180        0.002   0.015   0.000   0.017
  181       -0.002  -0.014   0.000  -0.016
  182       -0.002  -0.017   0.000  -0.019
  183        0.002   0.015   0.000   0.017
  184        0.002   0.015   0.000   0.017
  185       -0.002  -0.015   0.000  -0.017
  186       -0.002  -0.016   0.000  -0.018
  187        0.002   0.015   0.000   0.017
  188        0.002   0.014   0.000   0.016
  189       -0.002  -0.015   0.000  -0.017
  190       -0.002  -0.015   0.000  -0.017
  191        0.002   0.015   0.000   0.016
  192        0.002   0.014   0.000   0.016
  193       -0.002  -0.015   0.000  -0.017
  194       -0.002  -0.015   0.000  -0.017
  195        0.002   0.015   0.000   0.017
  196        0.002   0.015   0.000   0.017
  197       -0.002  -0.015   0.000  -0.017
  198       -0.002  -0.016   0.000  -0.018
  199        0.002   0.015   0.000   0.016
  200        0.002   0.014   0.000   0.016
  201       -0.002  -0.015   0.000  -0.016
  202       -0.002  -0.015   0.000  -0.017
  203        0.002   0.014   0.000   0.016
  204        0.002   0.007   0.000   0.009
  205       -0.002  -0.015   0.000  -0.017
  206       -0.002  -0.015   0.000  -0.017
  207        0.002   0.016   0.000   0.018
  208        0.002   0.015   0.000   0.016
  209       -0.002  -0.015   0.000  -0.017
  210       -0.002  -0.015   0.000  -0.017
  211        0.002   0.015   0.000   0.017
  212        0.002   0.015   0.000   0.017
  213       -0.002  -0.015   0.000  -0.016
  214       -0.002  -0.015   0.000  -0.017
  215        0.002   0.016   0.000   0.018
  216        0.002   0.015   0.000   0.016
  217        0.001   0.000   0.000   0.001
--------------------------------------------------
tot          0.004   0.002  -0.016  -0.011
 

 total amount of memory used by VASP MPI-rank0   501409. kBytes
=======================================================================

   base      :      30000. kBytes
   nonl-proj :      51625. kBytes
   fftplans  :      22373. kBytes
   grid      :      17829. kBytes
   one-center:        590. kBytes
   wavefun   :     378992. kBytes
 
  
  
 General timing and accounting informations for this job:
 ========================================================
  
                  Total CPU time used (sec):     1000.788
                            User time (sec):      980.758
                          System time (sec):       20.030
                         Elapsed time (sec):     1156.767
  
                   Maximum memory used (kb):      720796.
                   Average memory used (kb):           0.
  
                          Minor page faults:       198530
                          Major page faults:           23
                 Voluntary context switches:        12750
