       N       E                     dE             d eps       ncg     rms          rms(c)
DAV:   1     0.755219623277E+03    0.75522E+03   -0.39580E+04  1296   0.230E+03
DAV:   2     0.184826807340E+02   -0.73674E+03   -0.70940E+03  1476   0.564E+02
DAV:   3    -0.392328476642E+02   -0.57716E+02   -0.57460E+02  1524   0.167E+02
DAV:   4    -0.401034485505E+02   -0.87060E+00   -0.87038E+00  1452   0.221E+01
DAV:   5    -0.401169654001E+02   -0.13517E-01   -0.13517E-01  1500   0.271E+00    0.225E+01
DAV:   6    -0.382307793226E+02    0.18862E+01   -0.15538E+01  1596   0.316E+01    0.143E+01
DAV:   7    -0.389477055642E+02   -0.71693E+00   -0.18345E+00  1548   0.108E+01    0.113E+01
DAV:   8    -0.390117328643E+02   -0.64027E-01   -0.41716E-01  1488   0.551E+00    0.523E+00
DAV:   9    -0.391699441557E+02   -0.15821E+00   -0.48592E-02  1332   0.218E+00    0.128E+00
DAV:  10    -0.391711509523E+02   -0.12068E-02   -0.20057E-02  1596   0.125E+00    0.283E-01
DAV:  11    -0.391713773644E+02   -0.22641E-03   -0.28339E-03  1380   0.357E-01    0.139E-01
DAV:  12    -0.391715280083E+02   -0.15064E-03   -0.10613E-04  1584   0.124E-01    0.555E-02
DAV:  13    -0.391715823914E+02   -0.54383E-04   -0.92367E-05  1368   0.558E-02    0.211E-02
DAV:  14    -0.391715910742E+02   -0.86829E-05   -0.82409E-06  1536   0.216E-02    0.899E-03
DAV:  15    -0.391715908866E+02    0.18765E-06   -0.14477E-06  1416   0.734E-03    0.266E-03
DAV:  16    -0.391715911604E+02   -0.27383E-06   -0.23532E-07  1440   0.287E-03    0.182E-03
DAV:  17    -0.391715911212E+02    0.39202E-07   -0.16878E-08   936   0.105E-03
   1 F= -.39171591E+02 E0= -.39171591E+02  d E =-.391716E+02  mag=     0.0000
       N       E                     dE             d eps       ncg     rms          rms(c)
DAV:   1    -0.391777224589E+02   -0.61313E-02   -0.12394E-01  1296   0.320E+00    0.676E-01
DAV:   2    -0.391719863836E+02    0.57361E-02   -0.17768E-02  1296   0.942E-01    0.382E-01
DAV:   3    -0.391718692485E+02    0.11714E-03   -0.14751E-03  1296   0.425E-01    0.150E-01
DAV:   4    -0.391717921903E+02    0.77058E-04   -0.13726E-04  1572   0.972E-02    0.101E-01
DAV:   5    -0.391717600151E+02    0.32175E-04   -0.29790E-05  1524   0.452E-02    0.358E-02
DAV:   6    -0.391717623302E+02   -0.23151E-05   -0.26530E-06  1740   0.189E-02    0.367E-03
DAV:   7    -0.391717623181E+02    0.12122E-07   -0.46292E-07  1512   0.494E-03
   2 F= -.39171762E+02 E0= -.39171762E+02  d E =-.171197E-03  mag=     0.0000
       N       E                     dE             d eps       ncg     rms          rms(c)
DAV:   1    -0.391717921673E+02   -0.29837E-04   -0.58074E-04  1296   0.220E-01    0.462E-02
DAV:   2    -0.391717652860E+02    0.26881E-04   -0.82677E-05  1296   0.648E-02    0.261E-02
DAV:   3    -0.391717647650E+02    0.52099E-06   -0.69970E-06  1296   0.290E-02    0.102E-02
DAV:   4    -0.391717643853E+02    0.37966E-06   -0.63245E-07  1536   0.658E-03    0.685E-03
DAV:   5    -0.391717643671E+02    0.18236E-07   -0.12741E-07  1092   0.308E-03
   3 F= -.39171764E+02 E0= -.39171764E+02  d E =-.173246E-03  mag=     0.0000
       N       E                     dE             d eps       ncg     rms          rms(c)
DAV:   1    -0.391717739602E+02   -0.95749E-05   -0.19562E-04  1296   0.127E-01    0.269E-02
DAV:   2    -0.391717648587E+02    0.91015E-05   -0.28069E-05  1296   0.375E-02    0.151E-02
DAV:   3    -0.391717646973E+02    0.16138E-06   -0.23852E-06  1308   0.170E-02    0.598E-03
DAV:   4    -0.391717645802E+02    0.11716E-06   -0.20866E-07  1236   0.382E-03    0.398E-03
DAV:   5    -0.391717646105E+02   -0.30287E-07   -0.52748E-08   900   0.204E-03
   4 F= -.39171765E+02 E0= -.39171765E+02  d E =-.173489E-03  mag=     0.0000
       N       E                     dE             d eps       ncg     rms          rms(c)
DAV:   1    -0.391717819616E+02   -0.17381E-04   -0.29459E-03  1296   0.367E-01    0.343E-02
DAV:   2    -0.391717770076E+02    0.49540E-05   -0.80048E-05  1512   0.632E-02    0.209E-02
DAV:   3    -0.391717738220E+02    0.31856E-05   -0.28319E-06  1536   0.148E-02    0.112E-02
DAV:   4    -0.391717725762E+02    0.12458E-05   -0.16553E-06  1572   0.931E-03    0.355E-03
DAV:   5    -0.391717725264E+02    0.49751E-07   -0.28800E-07  1356   0.385E-03
   5 F= -.39171773E+02 E0= -.39171773E+02  d E =-.791594E-05  mag=     0.0000
