 vasp.5.4.4.18Apr17-6-g9f103f2a35 (build Apr 27 2017 11:13:10) complex          
  
 executed on           IFC91_ompi date 2020.05.13  11:26:05
 running on   12 total cores
 distrk:  each k-point on   12 cores,    1 groups
 distr:  one band on NCORES_PER_BAND=   1 cores,   12 groups


--------------------------------------------------------------------------------------------------------


 INCAR:
 POTCAR:    PAW_PBE Mn_pv 02Aug2007               
 POTCAR:    PAW_PBE F 08Apr2002                   

 ----------------------------------------------------------------------------- 
|                                                                             |
|           W    W    AA    RRRRR   N    N  II  N    N   GGGG   !!!           |
|           W    W   A  A   R    R  NN   N  II  NN   N  G    G  !!!           |
|           W    W  A    A  R    R  N N  N  II  N N  N  G       !!!           |
|           W WW W  AAAAAA  RRRRR   N  N N  II  N  N N  G  GGG   !            |
|           WW  WW  A    A  R   R   N   NN  II  N   NN  G    G                |
|           W    W  A    A  R    R  N    N  II  N    N   GGGG   !!!           |
|                                                                             |
|      For optimal performance we recommend to set                            |
|        NCORE= 4 - approx SQRT( number of cores)                             |
|      NCORE specifies how many cores store one orbital (NPAR=cpu/NCORE).     |
|      This setting can  greatly improve the performance of VASP for DFT.     |
|      The default,   NCORE=1            might be grossly inefficient         |
|      on modern multi-core architectures or massively parallel machines.     |
|      Do your own testing !!!!                                               |
|      Unfortunately you need to use the default for GW and RPA calculations. |
|      (for HF NCORE is supported but not extensively tested yet)             |
|                                                                             |
 ----------------------------------------------------------------------------- 

 POTCAR:    PAW_PBE Mn_pv 02Aug2007               
   VRHFIN =Mn: 3p4s3d                                                           
   LEXCH  = PE                                                                  
   EATOM  =  2025.2664 eV,  148.8529 Ry                                         
                                                                                
   TITEL  = PAW_PBE Mn_pv 02Aug2007                                             
   LULTRA =        F    use ultrasoft PP ?                                      
   IUNSCR =        1    unscreen: 0-lin 1-nonlin 2-no                           
   RPACOR =    2.080    partial core radius                                     
   POMASS =   54.938; ZVAL   =   13.000    mass and valenz                      
   RCORE  =    2.300    outmost cutoff radius                                   
   RWIGS  =    2.500; RWIGS  =    1.323    wigner-seitz radius (au A)           
   ENMAX  =  269.864; ENMIN  =  202.398 eV                                      
   ICORE  =        3    local potential                                         
   LCOR   =        T    correct aug charges                                     
   LPAW   =        T    paw PP                                                  
   EAUG   =  569.085                                                            
   DEXC   =    0.000                                                            
   RMAX   =    2.343    core radius for proj-oper                               
   RAUG   =    1.300    factor for augmentation sphere                          
   RDEP   =    2.338    radius for radial grids                                 
   RDEPT  =    1.798    core radius for aug-charge                              
                                                                                
   Atomic configuration                                                         
    8 entries                                                                   
     n  l   j            E        occ.                                          
     1  0  0.50     -6424.8287   2.0000                                         
     2  0  0.50      -739.1154   2.0000                                         
     2  1  1.50      -625.3949   6.0000                                         
     3  0  0.50       -81.6100   2.0000                                         
     3  1  1.50       -50.4667   6.0000                                         
     3  2  2.50        -3.3745   6.0000                                         
     4  0  0.50        -4.1331   1.0000                                         
     4  3  2.50        -1.3606   0.0000                                         
   Description                                                                  
     l       E           TYP  RCUT    TYP  RCUT                                 
     1    -50.4666628     23  2.000                                             
     1     -1.3605826     23  2.000                                             
     2     -3.3744729     23  2.300                                             
     2     -4.7350555     23  2.300                                             
     0     -4.1331431     23  2.300                                             
     0      7.6656591     23  2.300                                             
     3      9.5240782     23  2.300                                             
  local pseudopotential read in
  partial core-charges read in
  partial kinetic energy density read in
  atomic valenz-charges read in
  non local Contribution for L=           1  read in
    real space projection operators read in
  non local Contribution for L=           1  read in
    real space projection operators read in
  non local Contribution for L=           2  read in
    real space projection operators read in
  non local Contribution for L=           2  read in
    real space projection operators read in
  non local Contribution for L=           0  read in
    real space projection operators read in
  non local Contribution for L=           0  read in
    real space projection operators read in
    PAW grid and wavefunctions read in
 
   number of l-projection  operators is LMAX  =           6
   number of lm-projection operators is LMMAX =          18
 
 POTCAR:    PAW_PBE F 08Apr2002                   
   VRHFIN =F: s2p5                                                              
   LEXCH  = PE                                                                  
   EATOM  =   659.6475 eV,   48.4827 Ry                                         
                                                                                
   TITEL  = PAW_PBE F 08Apr2002                                                 
   LULTRA =        F    use ultrasoft PP ?                                      
   IUNSCR =        1    unscreen: 0-lin 1-nonlin 2-no                           
   RPACOR =    1.200    partial core radius                                     
   POMASS =   18.998; ZVAL   =    7.000    mass and valenz                      
   RCORE  =    1.520    outmost cutoff radius                                   
   RWIGS  =    1.500; RWIGS  =    0.794    wigner-seitz radius (au A)           
   ENMAX  =  400.000; ENMIN  =  300.000 eV                                      
   ICORE  =        2    local potential                                         
   LCOR   =        T    correct aug charges                                     
   LPAW   =        T    paw PP                                                  
   EAUG   =  613.614                                                            
   RMAX   =    1.555    core radius for proj-oper                               
   RAUG   =    1.300    factor for augmentation sphere                          
   RDEP   =    1.539    radius for radial grids                                 
   RDEPT  =    1.299    core radius for aug-charge                              
                                                                                
   Atomic configuration                                                         
    4 entries                                                                   
     n  l   j            E        occ.                                          
     1  0  0.50      -663.3661   2.0000                                         
     2  0  0.50       -29.8995   2.0000                                         
     2  1  0.50       -11.1114   5.0000                                         
     3  2  1.50       -10.8847   0.0000                                         
   Description                                                                  
     l       E           TYP  RCUT    TYP  RCUT                                 
     0    -29.8995018     23  1.200                                             
     0     -9.5240782     23  1.200                                             
     1    -11.1113914     23  1.520                                             
     1      1.3605826     23  1.520                                             
     2    -10.8846608      7  1.500                                             
  local pseudopotential read in
  partial core-charges read in
  partial kinetic energy density read in
  atomic valenz-charges read in
  non local Contribution for L=           0  read in
    real space projection operators read in
  non local Contribution for L=           0  read in
    real space projection operators read in
  non local Contribution for L=           1  read in
    real space projection operators read in
  non local Contribution for L=           1  read in
    real space projection operators read in
    PAW grid and wavefunctions read in
 
   number of l-projection  operators is LMAX  =           4
   number of lm-projection operators is LMMAX =           8
 

 ----------------------------------------------------------------------------- 
|                                                                             |
|  ADVICE TO THIS USER RUNNING 'VASP/VAMP'   (HEAR YOUR MASTER'S VOICE ...):  |
|                                                                             |
|      You enforced a specific xc-type in the INCAR file,                     |
|      a different type was found on the POTCAR file                          |
|          I HOPE YOU KNOW, WHAT YOU ARE  DOING                               |
|                                                                             |
 ----------------------------------------------------------------------------- 

  PAW_PBE Mn_pv 02Aug2007               :
 energy of atom  1       EATOM=-2025.2664
 kinetic energy error for atom=    0.0011 (will be added to EATOM!!)
  PAW_PBE F 08Apr2002                   :
 energy of atom  2       EATOM= -659.6475
 kinetic energy error for atom=    0.0063 (will be added to EATOM!!)
 
 
 POSCAR: Mn  F                                   
  positions in cartesian coordinates
  No initial velocities read in
 exchange correlation table for  LEXCH =       14
   RHO(1)=    0.500       N(1)  =     2000
   RHO(2)=  100.500       N(2)  =     4000
 


--------------------------------------------------------------------------------------------------------


 ion  position               nearest neighbor table
   1  0.500  0.500  0.500-   3 2.10   4 2.10   5 2.13   6 2.13   5 2.13   6 2.13
   2  0.000  0.000  0.000-   5 2.10   6 2.10   3 2.13   4 2.13   3 2.13   4 2.13
   3  0.195  0.805  0.500-   1 2.10   2 2.13   2 2.13
   4  0.805  0.195  0.500-   1 2.10   2 2.13   2 2.13
   5  0.305  0.305  0.000-   2 2.10   1 2.13   1 2.13
   6  0.695  0.695  0.000-   2 2.10   1 2.13   1 2.13
 
  LATTYP: Found a simple tetragonal cell.
 ALAT       =     4.8831441434
 C/A-ratio  =     0.6759574529
  
  Lattice vectors:
  
 A1 = (   4.8831441434,   0.0000000000,   0.0000000000)
 A2 = (   0.0000000000,   4.8831441434,   0.0000000000)
 A3 = (   0.0000000000,   0.0000000000,   3.3007976771)


Analysis of symmetry for initial positions (statically):
=====================================================================
 Subroutine PRICEL returns:
 Original cell was already a primitive cell.
 

 Routine SETGRP: Setting up the symmetry group for a 
 simple tetragonal supercell.


 Subroutine GETGRP returns: Found 16 space group operations
 (whereof  8 operations were pure point group operations)
 out of a pool of 16 trial point group operations.


The static configuration has the point symmetry D_2h.
 The point group associated with its full space group is D_4h.


Analysis of symmetry for dynamics (positions and initial velocities):
=====================================================================
 Subroutine PRICEL returns:
 Original cell was already a primitive cell.
 

 Routine SETGRP: Setting up the symmetry group for a 
 simple tetragonal supercell.


 Subroutine GETGRP returns: Found 16 space group operations
 (whereof  8 operations were pure point group operations)
 out of a pool of 16 trial point group operations.


The dynamic configuration has the point symmetry D_2h.
 The point group associated with its full space group is D_4h.


Analysis of structural, dynamic, and magnetic symmetry:
=====================================================================
 Subroutine PRICEL returns:
 Original cell was already a primitive cell.
 

 Routine SETGRP: Setting up the symmetry group for a 
 simple tetragonal supercell.


 Subroutine GETGRP returns: Found 16 space group operations
 (whereof  8 operations were pure point group operations)
 out of a pool of 16 trial point group operations.


The magnetic configuration has the point symmetry D_2h.
 The point group associated with its full space group is D_4h.


 Subroutine INISYM returns: Found 16 space group operations
 (whereof  8 operations are pure point group operations),
 and found     1 'primitive' translations

 
 
 KPOINTS: KPOINTS created by Atomic Simulation Env

Automatic generation of k-mesh.
Space group operators:
 irot       det(A)        alpha          n_x          n_y          n_z        tau_x        tau_y        tau_z
    1     1.000000     0.000001     1.000000     0.000000     0.000000     0.000000     0.000000     0.000000
    2    -1.000000     0.000001     1.000000     0.000000     0.000000     0.000000     0.000000     0.000000
    3     1.000000   179.999999     0.000000     0.000000     1.000000     0.000000     0.000000     0.000000
    4    -1.000000   179.999999     0.000000     0.000000     1.000000     0.000000     0.000000     0.000000
    5     1.000000   180.000000     0.707107     0.707107     0.000000     0.000000     0.000000     0.000000
    6    -1.000000   180.000000     0.707107     0.707107     0.000000     0.000000     0.000000     0.000000
    7     1.000000   180.000000     0.707107    -0.707107     0.000000     0.000000     0.000000     0.000000
    8    -1.000000   180.000000     0.707107    -0.707107     0.000000     0.000000     0.000000     0.000000
    9     1.000000    90.000000     0.000000     0.000000    -1.000000     0.500000     0.500000     0.500000
   10    -1.000000    90.000000     0.000000     0.000000    -1.000000     0.500000     0.500000     0.500000
   11     1.000000    90.000000     0.000000     0.000000     1.000000     0.500000     0.500000     0.500000
   12    -1.000000    90.000000     0.000000     0.000000     1.000000     0.500000     0.500000     0.500000
   13     1.000000   180.000000     0.000000     1.000000     0.000000     0.500000     0.500000     0.500000
   14    -1.000000   180.000000     0.000000     1.000000     0.000000     0.500000     0.500000     0.500000
   15     1.000000   180.000000     1.000000     0.000000     0.000000     0.500000     0.500000     0.500000
   16    -1.000000   180.000000     1.000000     0.000000     0.000000     0.500000     0.500000     0.500000
 
 Subroutine IBZKPT returns following result:
 ===========================================
 
 Found      9 irreducible k-points:
 
 Following reciprocal coordinates:
            Coordinates               Weight
  0.125000  0.125000  0.083333      8.000000
  0.375000  0.125000  0.083333     16.000000
  0.375000  0.375000  0.083333      8.000000
  0.125000  0.125000  0.250000      8.000000
  0.375000  0.125000  0.250000     16.000000
  0.375000  0.375000  0.250000      8.000000
  0.125000  0.125000  0.416667      8.000000
  0.375000  0.125000  0.416667     16.000000
  0.375000  0.375000  0.416667      8.000000
 
 Following cartesian coordinates:
            Coordinates               Weight
  0.025598  0.025598  0.025246      8.000000
  0.076795  0.025598  0.025246     16.000000
  0.076795  0.076795  0.025246      8.000000
  0.025598  0.025598  0.075739      8.000000
  0.076795  0.025598  0.075739     16.000000
  0.076795  0.076795  0.075739      8.000000
  0.025598  0.025598  0.126232      8.000000
  0.076795  0.025598  0.126232     16.000000
  0.076795  0.076795  0.126232      8.000000
 


--------------------------------------------------------------------------------------------------------




 Dimension of arrays:
   k-points           NKPTS =      9   k-points in BZ     NKDIM =      9   number of bands    NBANDS=     36
   number of dos      NEDOS =    301   number of ions     NIONS =      6
   non local maximal  LDIM  =      6   non local SUM 2l+1 LMDIM =     18
   total plane-waves  NPLWV =  31104
   max r-space proj   IRMAX =      1   max aug-charges    IRDMAX=  96115
   dimension x,y,z NGX =    36 NGY =   36 NGZ =   24
   dimension x,y,z NGXF=    72 NGYF=   72 NGZF=   48
   support grid    NGXF=   144 NGYF=  144 NGZF=   96
   ions per type =               2   4
   NGX,Y,Z   is equivalent  to a cutoff of  12.26, 12.26, 12.09 a.u.
   NGXF,Y,Z  is equivalent  to a cutoff of  24.51, 24.51, 24.18 a.u.

 SYSTEM =  unknown system                          
 POSCAR =  Mn  F                                   

 Startparameter for this run:
   NWRITE =      2    write-flag & timer
   PREC   = normal    normal or accurate (medium, high low for compatibility)
   ISTART =      0    job   : 0-new  1-cont  2-samecut
   ICHARG =      2    charge: 1-file 2-atom 10-const
   ISPIN  =      2    spin polarized calculation?
   LNONCOLLINEAR =      F non collinear calculations
   LSORBIT =      F    spin-orbit coupling
   INIWAV =      1    electr: 0-lowe 1-rand  2-diag
   LASPH  =      T    aspherical Exc in radial PAW
   METAGGA=      F    non-selfconsistent MetaGGA calc.

 Electronic Relaxation 1
   ENCUT  =  800.0 eV  58.80 Ry    7.67 a.u.  11.26 11.26  7.61*2*pi/ulx,y,z
   ENINI  =  800.0     initial cutoff
   ENAUG  =  613.6 eV  augmentation charge cutoff
   NELM   =     60;   NELMIN=  2; NELMDL= -5     # of ELM steps 
   EDIFF  = 0.1E-06   stopping-criterion for ELM
   LREAL  =      F    real-space projection
   NLSPLINE    = F    spline interpolate recip. space projectors
   LCOMPAT=      F    compatible to vasp.4.4
   GGA_COMPAT  = T    GGA compatible to vasp.4.4-vasp.4.6
   LMAXPAW     = -100 max onsite density
   LMAXMIX     =    4 max onsite mixed and CHGCAR
   VOSKOWN=      0    Vosko Wilk Nusair interpolation
   ROPT   =    0.00000   0.00000
 Ionic relaxation
   EDIFFG = -.5E-02   stopping-criterion for IOM
   NSW    =     50    number of steps for IOM
   NBLOCK =      1;   KBLOCK =     50    inner block; outer block 
   IBRION =      2    ionic relax: 0-MD 1-quasi-New 2-CG
   NFREE  =      1    steps in history (QN), initial steepest desc. (CG)
   ISIF   =      3    stress and relaxation
   IWAVPR =     11    prediction:  0-non 1-charg 2-wave 3-comb
   ISYM   =      2    0-nonsym 1-usesym 2-fastsym
   LCORR  =      T    Harris-Foulkes like correction to forces

   POTIM  = 0.5000    time-step for ionic-motion
   TEIN   =    0.0    initial temperature
   TEBEG  =    0.0;   TEEND  =   0.0 temperature during run
   SMASS  =  -3.00    Nose mass-parameter (am)
   estimated Nose-frequenzy (Omega)   =  0.10E-29 period in steps =****** mass=  -0.545E-27a.u.
   SCALEE = 1.0000    scale energy and forces
   NPACO  =    256;   APACO  = 16.0  distance and # of slots for P.C.
   PSTRESS=    0.0 pullay stress

  Mass of Ions in am
   POMASS =  54.94 19.00
  Ionic Valenz
   ZVAL   =  13.00  7.00
  Atomic Wigner-Seitz radii
   RWIGS  =  -1.00 -1.00
  virtual crystal weights 
   VCA    =   1.00  1.00
   NELECT =      54.0000    total number of electrons
   NUPDOWN=      -1.0000    fix difference up-down

 DOS related values:
   EMIN   =  10.00;   EMAX   =-10.00  energy-range for DOS
   EFERMI =   0.00
   ISMEAR =     0;   SIGMA  =   0.02  broadening in eV -4-tet -1-fermi 0-gaus

 Electronic relaxation 2 (details)
   IALGO  =     38    algorithm
   LDIAG  =      T    sub-space diagonalisation (order eigenvalues)
   LSUBROT=      F    optimize rotation matrix (better conditioning)
   TURBO    =      0    0=normal 1=particle mesh
   IRESTART =      0    0=no restart 2=restart with 2 vectors
   NREBOOT  =      0    no. of reboots
   NMIN     =      0    reboot dimension
   EREF     =   0.00    reference energy to select bands
   IMIX   =      4    mixing-type and parameters
     AMIX     =   0.40;   BMIX     =  1.00
     AMIX_MAG =   1.60;   BMIX_MAG =  1.00
     AMIN     =   0.10
     WC   =   100.;   INIMIX=   1;  MIXPRE=   1;  MAXMIX= -45

 Intra band minimization:
   WEIMIN = 0.0010     energy-eigenvalue tresh-hold
   EBREAK =  0.69E-09  absolut break condition
   DEPER  =   0.30     relativ break condition  

   TIME   =   0.40     timestep for ELM

  volume/ion in A,a.u.               =      13.12        88.52
  Fermi-wavevector in a.u.,A,eV,Ry     =   1.443888  2.728552 28.365585  2.084812
  Thomas-Fermi vector in A             =   2.562245
 
 Write flags
   LWAVE        =      F    write WAVECAR
   LDOWNSAMPLE  =      F    k-point downsampling of WAVECAR
   LCHARG       =      F    write CHGCAR
   LVTOT        =      F    write LOCPOT, total local potential
   LVHAR        =      F    write LOCPOT, Hartree potential only
   LELF         =      F    write electronic localiz. function (ELF)
   LORBIT       =     11    0 simple, 1 ext, 2 COOP (PROOUT), +10 PAW based schemes


 Dipole corrections
   LMONO  =      F    monopole corrections only (constant potential shift)
   LDIPOL =      F    correct potential (dipole corrections)
   IDIPOL =      0    1-x, 2-y, 3-z, 4-all directions 
   EPSILON=  1.0000000 bulk dielectric constant

 LDA+U is selected, type is set to LDAUTYPE =  2
   angular momentum for each species LDAUL =     2   -1
   U (eV)           for each species LDAUU =   4.0  0.0
   J (eV)           for each species LDAUJ =   0.0  0.0
 Exchange correlation treatment:
   GGA     =    PS    GGA type
   LEXCH   =    14    internal setting for exchange type
   VOSKOWN=      0    Vosko Wilk Nusair interpolation
   LHFCALC =     F    Hartree Fock is set to
   LHFONE  =     F    Hartree Fock one center treatment
   AEXX    =    0.0000 exact exchange contribution

 Linear response parameters
   LEPSILON=     F    determine dielectric tensor
   LRPA    =     F    only Hartree local field effects (RPA)
   LNABLA  =     F    use nabla operator in PAW spheres
   LVEL    =     F    velocity operator in full k-point grid
   LINTERFAST=   F  fast interpolation
   KINTER  =     0    interpolate to denser k-point grid
   CSHIFT  =0.1000    complex shift for real part using Kramers Kronig
   OMEGAMAX=  -1.0    maximum frequency
   DEG_THRESHOLD= 0.2000000E-02 threshold for treating states as degnerate
   RTIME   =   -0.100 relaxation time in fs
  (WPLASMAI=    0.000 imaginary part of plasma frequency in eV, 0.658/RTIME)
   DFIELD  = 0.0000000 0.0000000 0.0000000 field for delta impulse in time
 
 Orbital magnetization related:
   ORBITALMAG=     F  switch on orbital magnetization
   LCHIMAG   =     F  perturbation theory with respect to B field
   DQ        =  0.001000  dq finite difference perturbation B field
   LLRAUG    =     F  two centre corrections for induced B field



--------------------------------------------------------------------------------------------------------


 conjugate gradient relaxation of ions
 charge density and potential will be updated during run
 spin polarized calculation
 Variant of blocked Davidson
 Davidson routine will perform the subspace rotation
 perform sub-space diagonalisation
    after iterative eigenvector-optimisation
 modified Broyden-mixing scheme, WC =      100.0
 initial mixing is a Kerker type mixing with AMIX =  0.4000 and BMIX =      1.0000
 Hartree-type preconditioning will be used
 using additional bands            9
 reciprocal scheme for non local part
 use partial core corrections
 calculate Harris-corrections to forces 
   (improved forces if not selfconsistent)
 use gradient corrections 
 use of overlap-Matrix (Vanderbilt PP)
 Gauss-broadening in eV      SIGMA  =   0.02


--------------------------------------------------------------------------------------------------------


  energy-cutoff  :      800.00
  volume of cell :       78.71
      direct lattice vectors                 reciprocal lattice vectors
     4.883144143  0.000000000  0.000000000     0.204786091  0.000000000  0.000000000
     0.000000000  4.883144143  0.000000000     0.000000000  0.204786091  0.000000000
     0.000000000  0.000000000  3.300797677     0.000000000  0.000000000  0.302957072

  length of vectors
     4.883144143  4.883144143  3.300797677     0.204786091  0.204786091  0.302957072


 
 k-points in units of 2pi/SCALE and weight: KPOINTS created by Atomic Simulation Env
   0.02559826  0.02559826  0.02524642       0.083
   0.07679478  0.02559826  0.02524642       0.167
   0.07679478  0.07679478  0.02524642       0.083
   0.02559826  0.02559826  0.07573927       0.083
   0.07679478  0.02559826  0.07573927       0.167
   0.07679478  0.07679478  0.07573927       0.083
   0.02559826  0.02559826  0.12623211       0.083
   0.07679478  0.02559826  0.12623211       0.167
   0.07679478  0.07679478  0.12623211       0.083
 
 k-points in reciprocal lattice and weights: KPOINTS created by Atomic Simulation Env
   0.12500000  0.12500000  0.08333333       0.083
   0.37500000  0.12500000  0.08333333       0.167
   0.37500000  0.37500000  0.08333333       0.083
   0.12500000  0.12500000  0.25000000       0.083
   0.37500000  0.12500000  0.25000000       0.167
   0.37500000  0.37500000  0.25000000       0.083
   0.12500000  0.12500000  0.41666667       0.083
   0.37500000  0.12500000  0.41666667       0.167
   0.37500000  0.37500000  0.41666667       0.083
 
 position of ions in fractional coordinates (direct lattice) 
   0.50000000  0.50000000  0.50000000
   0.00000000  0.00000000  0.00000000
   0.19544394  0.80455606  0.50000000
   0.80455606  0.19544394  0.50000000
   0.30455606  0.30455606  0.00000000
   0.69544394  0.69544394  0.00000000
 
 position of ions in cartesian coordinates  (Angst):
   2.44157207  2.44157207  1.65039884
   0.00000000  0.00000000  0.00000000
   0.95438093  3.92876321  1.65039884
   3.92876321  0.95438093  1.65039884
   1.48719114  1.48719114  0.00000000
   3.39595300  3.39595300  0.00000000
 


--------------------------------------------------------------------------------------------------------


 k-point  1 :   0.1250 0.1250 0.0833  plane waves:    4048
 k-point  2 :   0.3750 0.1250 0.0833  plane waves:    4056
 k-point  3 :   0.3750 0.3750 0.0833  plane waves:    4040
 k-point  4 :   0.1250 0.1250 0.2500  plane waves:    4052
 k-point  5 :   0.3750 0.1250 0.2500  plane waves:    4042
 k-point  6 :   0.3750 0.3750 0.2500  plane waves:    4049
 k-point  7 :   0.1250 0.1250 0.4167  plane waves:    4023
 k-point  8 :   0.3750 0.1250 0.4167  plane waves:    4044
 k-point  9 :   0.3750 0.3750 0.4167  plane waves:    4039

 maximum and minimum number of plane-waves per node :      4056     4023

 maximum number of plane-waves:      4056
 maximum index in each direction: 
   IXMAX=   11   IYMAX=   11   IZMAX=    7
   IXMIN=  -11   IYMIN=  -11   IZMIN=   -8


 serial   3D FFT for wavefunctions
 parallel 3D FFT for charge:
    minimum data exchange during FFTs selected (reduces bandwidth)


 total amount of memory used by VASP MPI-rank0    52117. kBytes
=======================================================================

   base      :      30000. kBytes
   nonl-proj :      10902. kBytes
   fftplans  :       3220. kBytes
   grid      :       4243. kBytes
   one-center:        186. kBytes
   wavefun   :       3566. kBytes
 
     INWAV:  cpu time    0.0000: real time    0.0000
 Broyden mixing: mesh for mixing (old mesh)
   NGX = 23   NGY = 23   NGZ = 15
  (NGX  = 72   NGY  = 72   NGZ  = 48)
  gives a total of   7935 points

 initial charge density was supplied:
 charge density of overlapping atoms calculated
 number of electron      54.0000000 magnetization       0.0000000
 keeping initial charge density in first step


--------------------------------------------------------------------------------------------------------


 Maximum index for augmentation-charges         7871 (set IRDMAX)


--------------------------------------------------------------------------------------------------------


 First call to EWALD:  gamma=   0.414
 Maximum number of real-space cells 2x 2x 3
 Maximum number of reciprocal cells 3x 3x 2

    FEWALD:  cpu time    0.0010: real time    0.0010


--------------------------------------- Iteration      1(   1)  ---------------------------------------


    POTLOK:  cpu time    0.0295: real time    0.0295
    SETDIJ:  cpu time    0.6920: real time    0.6920
atom =   1  type =  1  l = 2
 
 onsite density matrix
 
spin component  1
 
  0.2835  0.0000  0.0000  0.0000  0.0000
  0.0000  0.2835  0.0000  0.0000  0.0000
  0.0000  0.0000  0.2835  0.0000  0.0000
  0.0000  0.0000  0.0000  0.2835  0.0000
  0.0000  0.0000  0.0000  0.0000  0.2835
 
spin component  2
 
  0.7694  0.0000  0.0000  0.0000  0.0000
  0.0000  0.7694  0.0000  0.0000  0.0000
  0.0000  0.0000  0.7694  0.0000  0.0000
  0.0000  0.0000  0.0000  0.7694  0.0000
  0.0000  0.0000  0.0000  0.0000  0.7694
 
 occupancies and eigenvectors
 
  o =  0.2835  v =  1.0000  0.0000  0.0000  0.0000  0.0000  0.0000  0.0000  0.0000  0.0000  0.0000      0.0000  0.0000  0.0000  0.0000  0.0000  0.0000  0.0000  0.0000  0.0000  0.0000
  o =  0.2835  v =  0.0000  1.0000  0.0000  0.0000  0.0000  0.0000  0.0000  0.0000  0.0000  0.0000      0.0000  0.0000  0.0000  0.0000  0.0000  0.0000  0.0000  0.0000  0.0000  0.0000
  o =  0.2835  v =  0.0000  0.0000  1.0000  0.0000  0.0000  0.0000  0.0000  0.0000  0.0000  0.0000      0.0000  0.0000  0.0000  0.0000  0.0000  0.0000  0.0000  0.0000  0.0000  0.0000
  o =  0.2835  v =  0.0000  0.0000  0.0000  1.0000  0.0000  0.0000  0.0000  0.0000  0.0000  0.0000      0.0000  0.0000  0.0000  0.0000  0.0000  0.0000  0.0000  0.0000  0.0000  0.0000
  o =  0.2835  v =  0.0000  0.0000  0.0000  0.0000  1.0000  0.0000  0.0000  0.0000  0.0000  0.0000      0.0000  0.0000  0.0000  0.0000  0.0000  0.0000  0.0000  0.0000  0.0000  0.0000
  o =  0.7694  v =  0.0000  0.0000  0.0000  0.0000  0.0000  1.0000  0.0000  0.0000  0.0000  0.0000      0.0000  0.0000  0.0000  0.0000  0.0000  0.0000  0.0000  0.0000  0.0000  0.0000
  o =  0.7694  v =  0.0000  0.0000  0.0000  0.0000  0.0000  0.0000  1.0000  0.0000  0.0000  0.0000      0.0000  0.0000  0.0000  0.0000  0.0000  0.0000  0.0000  0.0000  0.0000  0.0000
  o =  0.7694  v =  0.0000  0.0000  0.0000  0.0000  0.0000  0.0000  0.0000  1.0000  0.0000  0.0000      0.0000  0.0000  0.0000  0.0000  0.0000  0.0000  0.0000  0.0000  0.0000  0.0000
  o =  0.7694  v =  0.0000  0.0000  0.0000  0.0000  0.0000  0.0000  0.0000  0.0000  1.0000  0.0000      0.0000  0.0000  0.0000  0.0000  0.0000  0.0000  0.0000  0.0000  0.0000  0.0000
  o =  0.7694  v =  0.0000  0.0000  0.0000  0.0000  0.0000  0.0000  0.0000  0.0000  0.0000  1.0000      0.0000  0.0000  0.0000  0.0000  0.0000  0.0000  0.0000  0.0000  0.0000  0.0000
atom =   2  type =  1  l = 2
 
 onsite density matrix
 
spin component  1
 
  0.7694  0.0000  0.0000  0.0000  0.0000
  0.0000  0.7694  0.0000  0.0000  0.0000
  0.0000  0.0000  0.7694  0.0000  0.0000
  0.0000  0.0000  0.0000  0.7694  0.0000
  0.0000  0.0000  0.0000  0.0000  0.7694
 
spin component  2
 
  0.2835  0.0000  0.0000  0.0000  0.0000
  0.0000  0.2835  0.0000  0.0000  0.0000
  0.0000  0.0000  0.2835  0.0000  0.0000
  0.0000  0.0000  0.0000  0.2835  0.0000
  0.0000  0.0000  0.0000  0.0000  0.2835
 
 occupancies and eigenvectors
 
  o =  0.2835  v =  0.0000  0.0000  0.0000  0.0000  0.0000  1.0000  0.0000  0.0000  0.0000  0.0000      0.0000  0.0000  0.0000  0.0000  0.0000  0.0000  0.0000  0.0000  0.0000  0.0000
  o =  0.2835  v =  0.0000  0.0000  0.0000  0.0000  0.0000  0.0000  1.0000  0.0000  0.0000  0.0000      0.0000  0.0000  0.0000  0.0000  0.0000  0.0000  0.0000  0.0000  0.0000  0.0000
  o =  0.2835  v =  0.0000  0.0000  0.0000  0.0000  0.0000  0.0000  0.0000  1.0000  0.0000  0.0000      0.0000  0.0000  0.0000  0.0000  0.0000  0.0000  0.0000  0.0000  0.0000  0.0000
  o =  0.2835  v =  0.0000  0.0000  0.0000  0.0000  0.0000  0.0000  0.0000  0.0000  1.0000  0.0000      0.0000  0.0000  0.0000  0.0000  0.0000  0.0000  0.0000  0.0000  0.0000  0.0000
  o =  0.2835  v =  0.0000  0.0000  0.0000  0.0000  0.0000  0.0000  0.0000  0.0000  0.0000  1.0000      0.0000  0.0000  0.0000  0.0000  0.0000  0.0000  0.0000  0.0000  0.0000  0.0000
  o =  0.7694  v =  1.0000  0.0000  0.0000  0.0000  0.0000  0.0000  0.0000  0.0000  0.0000  0.0000      0.0000  0.0000  0.0000  0.0000  0.0000  0.0000  0.0000  0.0000  0.0000  0.0000
  o =  0.7694  v =  0.0000  1.0000  0.0000  0.0000  0.0000  0.0000  0.0000  0.0000  0.0000  0.0000      0.0000  0.0000  0.0000  0.0000  0.0000  0.0000  0.0000  0.0000  0.0000  0.0000
  o =  0.7694  v =  0.0000  0.0000  1.0000  0.0000  0.0000  0.0000  0.0000  0.0000  0.0000  0.0000      0.0000  0.0000  0.0000  0.0000  0.0000  0.0000  0.0000  0.0000  0.0000  0.0000
  o =  0.7694  v =  0.0000  0.0000  0.0000  1.0000  0.0000  0.0000  0.0000  0.0000  0.0000  0.0000      0.0000  0.0000  0.0000  0.0000  0.0000  0.0000  0.0000  0.0000  0.0000  0.0000
  o =  0.7694  v =  0.0000  0.0000  0.0000  0.0000  1.0000  0.0000  0.0000  0.0000  0.0000  0.0000      0.0000  0.0000  0.0000  0.0000  0.0000  0.0000  0.0000  0.0000  0.0000  0.0000
     EDDAV:  cpu time    0.5826: real time    0.6020
       DOS:  cpu time    0.0004: real time    0.0004
    --------------------------------------------
      LOOP:  cpu time    1.3045: real time    1.3239

 eigenvalue-minimisations  :  1296
 total energy-change (2. order) : 0.7552196E+03  (-0.3958012E+04)
 number of electron      54.0000000 magnetization      -0.0000000
 augmentation part       54.0000000 magnetization      -0.0000000

 Free energy of the ion-electron system (eV)
  ---------------------------------------------------
  alpha Z        PSCENC =       196.13658257
  Ewald energy   TEWEN  =     -4178.31221721
  -Hartree energ DENC   =     -2146.41896643
  -exchange      EXHF   =         0.00000000
  -V(xc)+E(xc)   XCENC  =       293.25934317
  PAW double counting   =      5439.83165491    -5546.16339751
  entropy T*S    EENTRO =        -0.00129060
  eigenvalues    EBANDS =        19.15485199
  atomic energy  EATOM  =      6677.73306238
  Solvation  Ediel_sol  =         0.00000000
  ---------------------------------------------------
  free energy    TOTEN  =       755.21962328 eV

  energy without entropy =      755.22091387  energy(sigma->0) =      755.22026857


--------------------------------------------------------------------------------------------------------




--------------------------------------- Iteration      1(   2)  ---------------------------------------


     EDDAV:  cpu time    0.6364: real time    0.6364
       DOS:  cpu time    0.0002: real time    0.0002
    --------------------------------------------
      LOOP:  cpu time    0.6366: real time    0.6366

 eigenvalue-minimisations  :  1476
 total energy-change (2. order) :-0.7367369E+03  (-0.7093965E+03)
 number of electron      54.0000000 magnetization      -0.0000000
 augmentation part       54.0000000 magnetization      -0.0000000

 Free energy of the ion-electron system (eV)
  ---------------------------------------------------
  alpha Z        PSCENC =       196.13658257
  Ewald energy   TEWEN  =     -4178.31221721
  -Hartree energ DENC   =     -2146.41896643
  -exchange      EXHF   =         0.00000000
  -V(xc)+E(xc)   XCENC  =       293.25934317
  PAW double counting   =      5439.83165491    -5546.16339751
  entropy T*S    EENTRO =        -0.00000000
  eigenvalues    EBANDS =      -717.58338115
  atomic energy  EATOM  =      6677.73306238
  Solvation  Ediel_sol  =         0.00000000
  ---------------------------------------------------
  free energy    TOTEN  =        18.48268073 eV

  energy without entropy =       18.48268073  energy(sigma->0) =       18.48268073


--------------------------------------------------------------------------------------------------------




--------------------------------------- Iteration      1(   3)  ---------------------------------------


     EDDAV:  cpu time    0.6555: real time    0.6555
       DOS:  cpu time    0.0002: real time    0.0002
    --------------------------------------------
      LOOP:  cpu time    0.6557: real time    0.6557

 eigenvalue-minimisations  :  1524
 total energy-change (2. order) :-0.5771553E+02  (-0.5745971E+02)
 number of electron      54.0000000 magnetization      -0.0000000
 augmentation part       54.0000000 magnetization      -0.0000000

 Free energy of the ion-electron system (eV)
  ---------------------------------------------------
  alpha Z        PSCENC =       196.13658257
  Ewald energy   TEWEN  =     -4178.31221721
  -Hartree energ DENC   =     -2146.41896643
  -exchange      EXHF   =         0.00000000
  -V(xc)+E(xc)   XCENC  =       293.25934317
  PAW double counting   =      5439.83165491    -5546.16339751
  entropy T*S    EENTRO =        -0.00000000
  eigenvalues    EBANDS =      -775.29890955
  atomic energy  EATOM  =      6677.73306238
  Solvation  Ediel_sol  =         0.00000000
  ---------------------------------------------------
  free energy    TOTEN  =       -39.23284766 eV

  energy without entropy =      -39.23284766  energy(sigma->0) =      -39.23284766


--------------------------------------------------------------------------------------------------------




--------------------------------------- Iteration      1(   4)  ---------------------------------------


     EDDAV:  cpu time    0.6306: real time    0.6306
       DOS:  cpu time    0.0002: real time    0.0002
    --------------------------------------------
      LOOP:  cpu time    0.6308: real time    0.6308

 eigenvalue-minimisations  :  1452
 total energy-change (2. order) :-0.8706009E+00  (-0.8703789E+00)
 number of electron      54.0000000 magnetization      -0.0000000
 augmentation part       54.0000000 magnetization      -0.0000000

 Free energy of the ion-electron system (eV)
  ---------------------------------------------------
  alpha Z        PSCENC =       196.13658257
  Ewald energy   TEWEN  =     -4178.31221721
  -Hartree energ DENC   =     -2146.41896643
  -exchange      EXHF   =         0.00000000
  -V(xc)+E(xc)   XCENC  =       293.25934317
  PAW double counting   =      5439.83165491    -5546.16339751
  entropy T*S    EENTRO =        -0.00000000
  eigenvalues    EBANDS =      -776.16951043
  atomic energy  EATOM  =      6677.73306238
  Solvation  Ediel_sol  =         0.00000000
  ---------------------------------------------------
  free energy    TOTEN  =       -40.10344855 eV

  energy without entropy =      -40.10344855  energy(sigma->0) =      -40.10344855


--------------------------------------------------------------------------------------------------------




--------------------------------------- Iteration      1(   5)  ---------------------------------------


     EDDAV:  cpu time    0.6470: real time    0.6470
       DOS:  cpu time    0.0002: real time    0.0002
    CHARGE:  cpu time    0.0708: real time    0.0708
    MIXING:  cpu time    0.0008: real time    0.0008
    --------------------------------------------
      LOOP:  cpu time    0.7187: real time    0.7187

 eigenvalue-minimisations  :  1500
 total energy-change (2. order) :-0.1351685E-01  (-0.1351669E-01)
 number of electron      54.0000001 magnetization      -0.0000000
 augmentation part       20.0544666 magnetization      -0.0000000

 Broyden mixing:
  rms(total) = 0.22516E+01    rms(broyden)= 0.22516E+01
  rms(prec ) = 0.30205E+01
  weight for this iteration     100.00

 Free energy of the ion-electron system (eV)
  ---------------------------------------------------
  alpha Z        PSCENC =       196.13658257
  Ewald energy   TEWEN  =     -4178.31221721
  -Hartree energ DENC   =     -2146.41896643
  -exchange      EXHF   =         0.00000000
  -V(xc)+E(xc)   XCENC  =       293.25934317
  PAW double counting   =      5439.83165491    -5546.16339751
  entropy T*S    EENTRO =        -0.00000000
  eigenvalues    EBANDS =      -776.18302728
  atomic energy  EATOM  =      6677.73306238
  Solvation  Ediel_sol  =         0.00000000
  ---------------------------------------------------
  free energy    TOTEN  =       -40.11696540 eV

  energy without entropy =      -40.11696540  energy(sigma->0) =      -40.11696540


--------------------------------------------------------------------------------------------------------




--------------------------------------- Iteration      1(   6)  ---------------------------------------


    POTLOK:  cpu time    0.0282: real time    0.0282
    SETDIJ:  cpu time    0.3861: real time    0.3861
atom =   1  type =  1  l = 2
 
 onsite density matrix
 
spin component  1
 
 -0.0782  0.0000  0.0027  0.0000  0.0000
  0.0000 -0.0807  0.0000  0.0019  0.0000
  0.0027  0.0000 -0.0785  0.0000 -0.0000
  0.0000  0.0019  0.0000 -0.0807  0.0000
  0.0000  0.0000 -0.0000  0.0000 -0.0851
 
spin component  2
 
  1.1020  0.0000  0.0138  0.0000 -0.0000
  0.0000  1.0997  0.0000  0.0122  0.0000
  0.0138  0.0000  1.0934  0.0000 -0.0000
  0.0000  0.0122  0.0000  1.0997  0.0000
 -0.0000  0.0000 -0.0000  0.0000  1.0894
 
 occupancies and eigenvectors
 
  o = -0.0851  v = -0.0000 -0.0000  0.0000  0.0000  1.0000  0.0000  0.0000  0.0000  0.0000  0.0000      0.0000  0.0000  0.0000  0.0000  0.0000  0.0000  0.0000  0.0000  0.0000  0.0000
  o = -0.0826  v = -0.0000 -0.7071  0.0000  0.7071 -0.0000  0.0000  0.0000  0.0000  0.0000  0.0000      0.0000  0.0000  0.0000  0.0000  0.0000  0.0000  0.0000  0.0000  0.0000  0.0000
  o = -0.0811  v =  0.6860 -0.0000 -0.7276  0.0000  0.0000  0.0000  0.0000  0.0000  0.0000  0.0000      0.0000  0.0000  0.0000  0.0000  0.0000  0.0000  0.0000  0.0000  0.0000  0.0000
  o = -0.0788  v = -0.0000  0.7071  0.0000  0.7071  0.0000  0.0000  0.0000  0.0000  0.0000  0.0000      0.0000  0.0000  0.0000  0.0000  0.0000  0.0000  0.0000  0.0000  0.0000  0.0000
  o = -0.0756  v =  0.7276  0.0000  0.6860  0.0000 -0.0000  0.0000  0.0000  0.0000  0.0000  0.0000      0.0000  0.0000  0.0000  0.0000  0.0000  0.0000  0.0000  0.0000  0.0000  0.0000
  o =  1.0833  v =  0.0000  0.0000  0.0000  0.0000  0.0000 -0.5926 -0.0000  0.8055  0.0000  0.0000      0.0000  0.0000  0.0000  0.0000  0.0000  0.0000  0.0000  0.0000  0.0000  0.0000
  o =  1.0875  v =  0.0000  0.0000  0.0000  0.0000  0.0000 -0.0000  0.7071  0.0000 -0.7071  0.0000      0.0000  0.0000  0.0000  0.0000  0.0000  0.0000  0.0000  0.0000  0.0000  0.0000
  o =  1.0894  v =  0.0000  0.0000  0.0000  0.0000  0.0000  0.0000 -0.0000 -0.0000  0.0000  1.0000      0.0000  0.0000  0.0000  0.0000  0.0000  0.0000  0.0000  0.0000  0.0000  0.0000
  o =  1.1119  v =  0.0000  0.0000  0.0000  0.0000  0.0000 -0.0000  0.7071 -0.0000  0.7071 -0.0000      0.0000  0.0000  0.0000  0.0000  0.0000  0.0000  0.0000  0.0000  0.0000  0.0000
  o =  1.1121  v =  0.0000  0.0000  0.0000  0.0000  0.0000 -0.8055 -0.0000 -0.5926 -0.0000  0.0000      0.0000  0.0000  0.0000  0.0000  0.0000  0.0000  0.0000  0.0000  0.0000  0.0000
atom =   2  type =  1  l = 2
 
 onsite density matrix
 
spin component  1
 
  1.1020  0.0000 -0.0138  0.0000 -0.0000
  0.0000  1.0997  0.0000 -0.0122  0.0000
 -0.0138  0.0000  1.0934  0.0000  0.0000
  0.0000 -0.0122  0.0000  1.0997  0.0000
 -0.0000  0.0000  0.0000  0.0000  1.0894
 
spin component  2
 
 -0.0782  0.0000 -0.0027  0.0000 -0.0000
  0.0000 -0.0807  0.0000 -0.0019  0.0000
 -0.0027  0.0000 -0.0785  0.0000  0.0000
  0.0000 -0.0019  0.0000 -0.0807  0.0000
 -0.0000  0.0000  0.0000  0.0000 -0.0851
 
 occupancies and eigenvectors
 
  o = -0.0851  v =  0.0000  0.0000  0.0000  0.0000  0.0000 -0.0000 -0.0000 -0.0000 -0.0000  1.0000      0.0000  0.0000  0.0000  0.0000  0.0000  0.0000  0.0000  0.0000  0.0000  0.0000
  o = -0.0826  v =  0.0000  0.0000  0.0000  0.0000  0.0000  0.0000  0.7071  0.0000  0.7071  0.0000      0.0000  0.0000  0.0000  0.0000  0.0000  0.0000  0.0000  0.0000  0.0000  0.0000
  o = -0.0811  v =  0.0000  0.0000  0.0000  0.0000  0.0000  0.6860 -0.0000  0.7276 -0.0000  0.0000      0.0000  0.0000  0.0000  0.0000  0.0000  0.0000  0.0000  0.0000  0.0000  0.0000
  o = -0.0788  v =  0.0000  0.0000  0.0000  0.0000  0.0000  0.0000 -0.7071  0.0000  0.7071 -0.0000      0.0000  0.0000  0.0000  0.0000  0.0000  0.0000  0.0000  0.0000  0.0000  0.0000
  o = -0.0756  v =  0.0000  0.0000  0.0000  0.0000  0.0000  0.7276  0.0000 -0.6860 -0.0000 -0.0000      0.0000  0.0000  0.0000  0.0000  0.0000  0.0000  0.0000  0.0000  0.0000  0.0000
  o =  1.0833  v = -0.5926  0.0000 -0.8055  0.0000  0.0000  0.0000  0.0000  0.0000  0.0000  0.0000      0.0000  0.0000  0.0000  0.0000  0.0000  0.0000  0.0000  0.0000  0.0000  0.0000
  o =  1.0875  v = -0.0000 -0.7071 -0.0000 -0.7071 -0.0000  0.0000  0.0000  0.0000  0.0000  0.0000      0.0000  0.0000  0.0000  0.0000  0.0000  0.0000  0.0000  0.0000  0.0000  0.0000
  o =  1.0894  v =  0.0000 -0.0000  0.0000 -0.0000  1.0000  0.0000  0.0000  0.0000  0.0000  0.0000      0.0000  0.0000  0.0000  0.0000  0.0000  0.0000  0.0000  0.0000  0.0000  0.0000
  o =  1.1119  v = -0.0000 -0.7071  0.0000  0.7071  0.0000  0.0000  0.0000  0.0000  0.0000  0.0000      0.0000  0.0000  0.0000  0.0000  0.0000  0.0000  0.0000  0.0000  0.0000  0.0000
  o =  1.1121  v = -0.8055  0.0000  0.5926 -0.0000  0.0000  0.0000  0.0000  0.0000  0.0000  0.0000      0.0000  0.0000  0.0000  0.0000  0.0000  0.0000  0.0000  0.0000  0.0000  0.0000
     EDDAV:  cpu time    0.6770: real time    0.6770
       DOS:  cpu time    0.0002: real time    0.0002
    CHARGE:  cpu time    0.0707: real time    0.0708
    MIXING:  cpu time    0.0008: real time    0.0008
    --------------------------------------------
      LOOP:  cpu time    1.1631: real time    1.1631

 eigenvalue-minimisations  :  1596
 total energy-change (2. order) : 0.1886186E+01  (-0.1553792E+01)
 number of electron      54.0000001 magnetization      -0.0000000
 augmentation part       19.9245508 magnetization      -0.0000000

 Broyden mixing:
  rms(total) = 0.14272E+01    rms(broyden)= 0.14272E+01
  rms(prec ) = 0.14917E+01
  weight for this iteration     100.00

 eigenvalues of (default mixing * dielectric matrix)
  average eigenvalue GAMMA=   0.7883
  0.7883

 Free energy of the ion-electron system (eV)
  ---------------------------------------------------
  alpha Z        PSCENC =       196.13658257
  Ewald energy   TEWEN  =     -4178.31221721
  -Hartree energ DENC   =     -2166.60819835
  -exchange      EXHF   =         0.00000000
  -V(xc)+E(xc)   XCENC  =       293.70377608
  PAW double counting   =      5692.50862906    -5789.65545469
  entropy T*S    EENTRO =        -0.00000000
  eigenvalues    EBANDS =      -763.73695917
  atomic energy  EATOM  =      6677.73306238
  Solvation  Ediel_sol  =         0.00000000
  ---------------------------------------------------
  free energy    TOTEN  =       -38.23077932 eV

  energy without entropy =      -38.23077932  energy(sigma->0) =      -38.23077932


--------------------------------------------------------------------------------------------------------




--------------------------------------- Iteration      1(   7)  ---------------------------------------


    POTLOK:  cpu time    0.0273: real time    0.0273
    SETDIJ:  cpu time    0.3866: real time    0.3866
atom =   1  type =  1  l = 2
 
 onsite density matrix
 
spin component  1
 
  0.1157  0.0000  0.0189  0.0000 -0.0000
  0.0000  0.1099  0.0000  0.0162  0.0000
  0.0189  0.0000  0.1052  0.0000  0.0000
  0.0000  0.0162  0.0000  0.1099  0.0000
 -0.0000  0.0000  0.0000  0.0000  0.0928
 
spin component  2
 
  0.9011  0.0000  0.0067  0.0000  0.0000
  0.0000  0.8994  0.0000  0.0059  0.0000
  0.0067  0.0000  0.8976  0.0000  0.0000
  0.0000  0.0059  0.0000  0.8994  0.0000
  0.0000  0.0000  0.0000  0.0000  0.8933
 
 occupancies and eigenvectors
 
  o =  0.0908  v = -0.6050 -0.0000  0.7962  0.0000 -0.0000  0.0000  0.0000  0.0000  0.0000  0.0000      0.0000  0.0000  0.0000  0.0000  0.0000  0.0000  0.0000  0.0000  0.0000  0.0000
  o =  0.0928  v = -0.0000  0.0000  0.0000  0.0000  1.0000  0.0000  0.0000  0.0000  0.0000  0.0000      0.0000  0.0000  0.0000  0.0000  0.0000  0.0000  0.0000  0.0000  0.0000  0.0000
  o =  0.0937  v =  0.0000  0.7071  0.0000 -0.7071 -0.0000  0.0000  0.0000  0.0000  0.0000  0.0000      0.0000  0.0000  0.0000  0.0000  0.0000  0.0000  0.0000  0.0000  0.0000  0.0000
  o =  0.1260  v =  0.0000 -0.7071  0.0000 -0.7071  0.0000  0.0000  0.0000  0.0000  0.0000  0.0000      0.0000  0.0000  0.0000  0.0000  0.0000  0.0000  0.0000  0.0000  0.0000  0.0000
  o =  0.1301  v = -0.7962 -0.0000 -0.6050  0.0000 -0.0000  0.0000  0.0000  0.0000  0.0000  0.0000      0.0000  0.0000  0.0000  0.0000  0.0000  0.0000  0.0000  0.0000  0.0000  0.0000
  o =  0.8924  v =  0.0000  0.0000  0.0000  0.0000  0.0000 -0.6105  0.0000  0.7920  0.0000  0.0000      0.0000  0.0000  0.0000  0.0000  0.0000  0.0000  0.0000  0.0000  0.0000  0.0000
  o =  0.8933  v =  0.0000  0.0000  0.0000  0.0000  0.0000  0.0000  0.0000 -0.0000 -0.0000  1.0000      0.0000  0.0000  0.0000  0.0000  0.0000  0.0000  0.0000  0.0000  0.0000  0.0000
  o =  0.8935  v =  0.0000  0.0000  0.0000  0.0000  0.0000  0.0000 -0.7071 -0.0000  0.7071  0.0000      0.0000  0.0000  0.0000  0.0000  0.0000  0.0000  0.0000  0.0000  0.0000  0.0000
  o =  0.9053  v =  0.0000  0.0000  0.0000  0.0000  0.0000  0.0000 -0.7071 -0.0000 -0.7071  0.0000      0.0000  0.0000  0.0000  0.0000  0.0000  0.0000  0.0000  0.0000  0.0000  0.0000
  o =  0.9063  v =  0.0000  0.0000  0.0000  0.0000  0.0000 -0.7920  0.0000 -0.6105  0.0000 -0.0000      0.0000  0.0000  0.0000  0.0000  0.0000  0.0000  0.0000  0.0000  0.0000  0.0000
atom =   2  type =  1  l = 2
 
 onsite density matrix
 
spin component  1
 
  0.9011  0.0000 -0.0067  0.0000 -0.0000
  0.0000  0.8994  0.0000 -0.0059  0.0000
 -0.0067  0.0000  0.8976  0.0000 -0.0000
  0.0000 -0.0059  0.0000  0.8994  0.0000
 -0.0000  0.0000 -0.0000  0.0000  0.8933
 
spin component  2
 
  0.1157  0.0000 -0.0189  0.0000 -0.0000
  0.0000  0.1099  0.0000 -0.0162  0.0000
 -0.0189  0.0000  0.1052  0.0000 -0.0000
  0.0000 -0.0162  0.0000  0.1099  0.0000
 -0.0000  0.0000 -0.0000  0.0000  0.0928
 
 occupancies and eigenvectors
 
  o =  0.0908  v =  0.0000  0.0000  0.0000  0.0000  0.0000 -0.6050 -0.0000 -0.7962  0.0000 -0.0000      0.0000  0.0000  0.0000  0.0000  0.0000  0.0000  0.0000  0.0000  0.0000  0.0000
  o =  0.0928  v =  0.0000  0.0000  0.0000  0.0000  0.0000 -0.0000  0.0000 -0.0000  0.0000  1.0000      0.0000  0.0000  0.0000  0.0000  0.0000  0.0000  0.0000  0.0000  0.0000  0.0000
  o =  0.0937  v =  0.0000  0.0000  0.0000  0.0000  0.0000  0.0000 -0.7071  0.0000 -0.7071  0.0000      0.0000  0.0000  0.0000  0.0000  0.0000  0.0000  0.0000  0.0000  0.0000  0.0000
  o =  0.1260  v =  0.0000  0.0000  0.0000  0.0000  0.0000  0.0000  0.7071  0.0000 -0.7071 -0.0000      0.0000  0.0000  0.0000  0.0000  0.0000  0.0000  0.0000  0.0000  0.0000  0.0000
  o =  0.1301  v =  0.0000  0.0000  0.0000  0.0000  0.0000 -0.7962 -0.0000  0.6050  0.0000 -0.0000      0.0000  0.0000  0.0000  0.0000  0.0000  0.0000  0.0000  0.0000  0.0000  0.0000
  o =  0.8924  v = -0.6105  0.0000 -0.7920  0.0000 -0.0000  0.0000  0.0000  0.0000  0.0000  0.0000      0.0000  0.0000  0.0000  0.0000  0.0000  0.0000  0.0000  0.0000  0.0000  0.0000
  o =  0.8933  v =  0.0000 -0.0000 -0.0000 -0.0000  1.0000  0.0000  0.0000  0.0000  0.0000  0.0000      0.0000  0.0000  0.0000  0.0000  0.0000  0.0000  0.0000  0.0000  0.0000  0.0000
  o =  0.8935  v =  0.0000  0.7071 -0.0000  0.7071  0.0000  0.0000  0.0000  0.0000  0.0000  0.0000      0.0000  0.0000  0.0000  0.0000  0.0000  0.0000  0.0000  0.0000  0.0000  0.0000
  o =  0.9053  v =  0.0000  0.7071 -0.0000 -0.7071  0.0000  0.0000  0.0000  0.0000  0.0000  0.0000      0.0000  0.0000  0.0000  0.0000  0.0000  0.0000  0.0000  0.0000  0.0000  0.0000
  o =  0.9063  v = -0.7920  0.0000  0.6105  0.0000  0.0000  0.0000  0.0000  0.0000  0.0000  0.0000      0.0000  0.0000  0.0000  0.0000  0.0000  0.0000  0.0000  0.0000  0.0000  0.0000
     EDDAV:  cpu time    0.6633: real time    0.6634
       DOS:  cpu time    0.0002: real time    0.0002
    CHARGE:  cpu time    0.0708: real time    0.0708
    MIXING:  cpu time    0.0009: real time    0.0009
    --------------------------------------------
      LOOP:  cpu time    1.1491: real time    1.1492

 eigenvalue-minimisations  :  1548
 total energy-change (2. order) :-0.7169262E+00  (-0.1834543E+00)
 number of electron      54.0000001 magnetization      -0.0000000
 augmentation part       19.9206309 magnetization      -0.0000000

 Broyden mixing:
  rms(total) = 0.11270E+01    rms(broyden)= 0.11270E+01
  rms(prec ) = 0.11610E+01
  weight for this iteration     100.00

 eigenvalues of (default mixing * dielectric matrix)
  average eigenvalue GAMMA=   1.4028
  0.6943  2.1113

 Free energy of the ion-electron system (eV)
  ---------------------------------------------------
  alpha Z        PSCENC =       196.13658257
  Ewald energy   TEWEN  =     -4178.31221721
  -Hartree energ DENC   =     -2162.24035684
  -exchange      EXHF   =         0.00000000
  -V(xc)+E(xc)   XCENC  =       294.26100876
  PAW double counting   =      5914.94844840    -6021.87151412
  entropy T*S    EENTRO =        -0.00000000
  eigenvalues    EBANDS =      -759.60271951
  atomic energy  EATOM  =      6677.73306238
  Solvation  Ediel_sol  =         0.00000000
  ---------------------------------------------------
  free energy    TOTEN  =       -38.94770556 eV

  energy without entropy =      -38.94770556  energy(sigma->0) =      -38.94770556


--------------------------------------------------------------------------------------------------------




--------------------------------------- Iteration      1(   8)  ---------------------------------------


    POTLOK:  cpu time    0.0274: real time    0.0274
    SETDIJ:  cpu time    0.3864: real time    0.3864
atom =   1  type =  1  l = 2
 
 onsite density matrix
 
spin component  1
 
 -0.0140  0.0000  0.0196  0.0000  0.0000
  0.0000 -0.0203  0.0000  0.0160  0.0000
  0.0196  0.0000 -0.0234  0.0000  0.0000
  0.0000  0.0160  0.0000 -0.0203  0.0000
  0.0000  0.0000  0.0000  0.0000 -0.0393
 
spin component  2
 
  1.0300  0.0000  0.0172  0.0000 -0.0000
  0.0000  1.0252  0.0000  0.0157  0.0000
  0.0172  0.0000  1.0189  0.0000  0.0000
  0.0000  0.0157  0.0000  1.0252  0.0000
 -0.0000  0.0000  0.0000  0.0000  1.0108
 
 occupancies and eigenvectors
 
  o = -0.0393  v = -0.0000  0.0000  0.0000 -0.0000 -1.0000  0.0000  0.0000  0.0000  0.0000  0.0000      0.0000  0.0000  0.0000  0.0000  0.0000  0.0000  0.0000  0.0000  0.0000  0.0000
  o = -0.0388  v =  0.6188  0.0000 -0.7855 -0.0000 -0.0000  0.0000  0.0000  0.0000  0.0000  0.0000      0.0000  0.0000  0.0000  0.0000  0.0000  0.0000  0.0000  0.0000  0.0000  0.0000
  o = -0.0363  v =  0.0000 -0.7071 -0.0000  0.7071 -0.0000  0.0000  0.0000  0.0000  0.0000  0.0000      0.0000  0.0000  0.0000  0.0000  0.0000  0.0000  0.0000  0.0000  0.0000  0.0000
  o = -0.0043  v =  0.0000 -0.7071  0.0000 -0.7071 -0.0000  0.0000  0.0000  0.0000  0.0000  0.0000      0.0000  0.0000  0.0000  0.0000  0.0000  0.0000  0.0000  0.0000  0.0000  0.0000
  o =  0.0014  v =  0.7855  0.0000  0.6188  0.0000  0.0000  0.0000  0.0000  0.0000  0.0000  0.0000      0.0000  0.0000  0.0000  0.0000  0.0000  0.0000  0.0000  0.0000  0.0000  0.0000
  o =  1.0064  v =  0.0000  0.0000  0.0000  0.0000  0.0000 -0.5887 -0.0000  0.8083  0.0000 -0.0000      0.0000  0.0000  0.0000  0.0000  0.0000  0.0000  0.0000  0.0000  0.0000  0.0000
  o =  1.0095  v =  0.0000  0.0000  0.0000  0.0000  0.0000 -0.0000  0.7071  0.0000 -0.7071 -0.0000      0.0000  0.0000  0.0000  0.0000  0.0000  0.0000  0.0000  0.0000  0.0000  0.0000
  o =  1.0108  v =  0.0000  0.0000  0.0000  0.0000  0.0000  0.0000 -0.0000 -0.0000  0.0000 -1.0000      0.0000  0.0000  0.0000  0.0000  0.0000  0.0000  0.0000  0.0000  0.0000  0.0000
  o =  1.0409  v =  0.0000  0.0000  0.0000  0.0000  0.0000 -0.0000  0.7071 -0.0000  0.7071 -0.0000      0.0000  0.0000  0.0000  0.0000  0.0000  0.0000  0.0000  0.0000  0.0000  0.0000
  o =  1.0424  v =  0.0000  0.0000  0.0000  0.0000  0.0000 -0.8083 -0.0000 -0.5887 -0.0000 -0.0000      0.0000  0.0000  0.0000  0.0000  0.0000  0.0000  0.0000  0.0000  0.0000  0.0000
atom =   2  type =  1  l = 2
 
 onsite density matrix
 
spin component  1
 
  1.0300  0.0000 -0.0172  0.0000 -0.0000
  0.0000  1.0252  0.0000 -0.0157  0.0000
 -0.0172  0.0000  1.0189  0.0000 -0.0000
  0.0000 -0.0157  0.0000  1.0252  0.0000
 -0.0000  0.0000 -0.0000  0.0000  1.0108
 
spin component  2
 
 -0.0140  0.0000 -0.0196  0.0000  0.0000
  0.0000 -0.0203  0.0000 -0.0160  0.0000
 -0.0196  0.0000 -0.0234  0.0000  0.0000
  0.0000 -0.0160  0.0000 -0.0203  0.0000
  0.0000  0.0000  0.0000  0.0000 -0.0393
 
 occupancies and eigenvectors
 
  o = -0.0393  v =  0.0000  0.0000  0.0000  0.0000  0.0000  0.0000  0.0000  0.0000  0.0000 -1.0000      0.0000  0.0000  0.0000  0.0000  0.0000  0.0000  0.0000  0.0000  0.0000  0.0000
  o = -0.0388  v =  0.0000  0.0000  0.0000  0.0000  0.0000 -0.6188  0.0000 -0.7855  0.0000 -0.0000      0.0000  0.0000  0.0000  0.0000  0.0000  0.0000  0.0000  0.0000  0.0000  0.0000
  o = -0.0363  v =  0.0000  0.0000  0.0000  0.0000  0.0000  0.0000 -0.7071  0.0000 -0.7071 -0.0000      0.0000  0.0000  0.0000  0.0000  0.0000  0.0000  0.0000  0.0000  0.0000  0.0000
  o = -0.0043  v =  0.0000  0.0000  0.0000  0.0000  0.0000  0.0000  0.7071  0.0000 -0.7071  0.0000      0.0000  0.0000  0.0000  0.0000  0.0000  0.0000  0.0000  0.0000  0.0000  0.0000
  o =  0.0014  v =  0.0000  0.0000  0.0000  0.0000  0.0000  0.7855  0.0000 -0.6188  0.0000 -0.0000      0.0000  0.0000  0.0000  0.0000  0.0000  0.0000  0.0000  0.0000  0.0000  0.0000
  o =  1.0064  v = -0.5887  0.0000 -0.8083  0.0000 -0.0000  0.0000  0.0000  0.0000  0.0000  0.0000      0.0000  0.0000  0.0000  0.0000  0.0000  0.0000  0.0000  0.0000  0.0000  0.0000
  o =  1.0095  v = -0.0000 -0.7071 -0.0000 -0.7071  0.0000  0.0000  0.0000  0.0000  0.0000  0.0000      0.0000  0.0000  0.0000  0.0000  0.0000  0.0000  0.0000  0.0000  0.0000  0.0000
  o =  1.0108  v =  0.0000 -0.0000  0.0000 -0.0000 -1.0000  0.0000  0.0000  0.0000  0.0000  0.0000      0.0000  0.0000  0.0000  0.0000  0.0000  0.0000  0.0000  0.0000  0.0000  0.0000
  o =  1.0409  v = -0.0000 -0.7071  0.0000  0.7071  0.0000  0.0000  0.0000  0.0000  0.0000  0.0000      0.0000  0.0000  0.0000  0.0000  0.0000  0.0000  0.0000  0.0000  0.0000  0.0000
  o =  1.0424  v = -0.8083  0.0000  0.5887 -0.0000 -0.0000  0.0000  0.0000  0.0000  0.0000  0.0000      0.0000  0.0000  0.0000  0.0000  0.0000  0.0000  0.0000  0.0000  0.0000  0.0000
     EDDAV:  cpu time    0.6422: real time    0.6422
       DOS:  cpu time    0.0002: real time    0.0002
    CHARGE:  cpu time    0.0709: real time    0.0709
    MIXING:  cpu time    0.0009: real time    0.0009
    --------------------------------------------
      LOOP:  cpu time    1.1280: real time    1.1280

 eigenvalue-minimisations  :  1488
 total energy-change (2. order) :-0.6402730E-01  (-0.4171599E-01)
 number of electron      54.0000001 magnetization       0.0000000
 augmentation part       19.9521166 magnetization       0.0000000

 Broyden mixing:
  rms(total) = 0.52288E+00    rms(broyden)= 0.52288E+00
  rms(prec ) = 0.54719E+00
  weight for this iteration     100.00

 eigenvalues of (default mixing * dielectric matrix)
  average eigenvalue GAMMA=   1.1916
  2.0902  0.8854  0.5993

 Free energy of the ion-electron system (eV)
  ---------------------------------------------------
  alpha Z        PSCENC =       196.13658257
  Ewald energy   TEWEN  =     -4178.31221721
  -Hartree energ DENC   =     -2157.59466610
  -exchange      EXHF   =         0.00000000
  -V(xc)+E(xc)   XCENC  =       293.76891587
  PAW double counting   =      6126.57742865    -6230.74520686
  entropy T*S    EENTRO =        -0.00000000
  eigenvalues    EBANDS =      -766.57563216
  atomic energy  EATOM  =      6677.73306238
  Solvation  Ediel_sol  =         0.00000000
  ---------------------------------------------------
  free energy    TOTEN  =       -39.01173286 eV

  energy without entropy =      -39.01173286  energy(sigma->0) =      -39.01173286


--------------------------------------------------------------------------------------------------------




--------------------------------------- Iteration      1(   9)  ---------------------------------------


    POTLOK:  cpu time    0.0280: real time    0.0279
    SETDIJ:  cpu time    0.3866: real time    0.3866
atom =   1  type =  1  l = 2
 
 onsite density matrix
 
spin component  1
 
  0.0379  0.0000  0.0233  0.0000  0.0000
  0.0000  0.0302  0.0000  0.0201  0.0000
  0.0233  0.0000  0.0251  0.0000  0.0000
  0.0000  0.0201  0.0000  0.0302  0.0000
  0.0000  0.0000  0.0000  0.0000  0.0081
 
spin component  2
 
  0.9760  0.0000  0.0213  0.0000  0.0000
  0.0000  0.9701  0.0000  0.0185  0.0000
  0.0213  0.0000  0.9637  0.0000  0.0000
  0.0000  0.0185  0.0000  0.9701  0.0000
  0.0000  0.0000  0.0000  0.0000  0.9514
 
 occupancies and eigenvectors
 
  o =  0.0074  v = -0.6058  0.0000  0.7956  0.0000 -0.0000  0.0000  0.0000  0.0000  0.0000  0.0000      0.0000  0.0000  0.0000  0.0000  0.0000  0.0000  0.0000  0.0000  0.0000  0.0000
  o =  0.0081  v = -0.0000 -0.0000  0.0000  0.0000  1.0000  0.0000  0.0000  0.0000  0.0000  0.0000      0.0000  0.0000  0.0000  0.0000  0.0000  0.0000  0.0000  0.0000  0.0000  0.0000
  o =  0.0101  v =  0.0000  0.7071  0.0000 -0.7071  0.0000  0.0000  0.0000  0.0000  0.0000  0.0000      0.0000  0.0000  0.0000  0.0000  0.0000  0.0000  0.0000  0.0000  0.0000  0.0000
  o =  0.0503  v =  0.0000 -0.7071  0.0000 -0.7071 -0.0000  0.0000  0.0000  0.0000  0.0000  0.0000      0.0000  0.0000  0.0000  0.0000  0.0000  0.0000  0.0000  0.0000  0.0000  0.0000
  o =  0.0556  v = -0.7956  0.0000 -0.6058  0.0000 -0.0000  0.0000  0.0000  0.0000  0.0000  0.0000      0.0000  0.0000  0.0000  0.0000  0.0000  0.0000  0.0000  0.0000  0.0000  0.0000
  o =  0.9477  v =  0.0000  0.0000  0.0000  0.0000  0.0000 -0.6011  0.0000  0.7992  0.0000 -0.0000      0.0000  0.0000  0.0000  0.0000  0.0000  0.0000  0.0000  0.0000  0.0000  0.0000
  o =  0.9514  v =  0.0000  0.0000  0.0000  0.0000  0.0000 -0.0000 -0.0000  0.0000  0.0000  1.0000      0.0000  0.0000  0.0000  0.0000  0.0000  0.0000  0.0000  0.0000  0.0000  0.0000
  o =  0.9515  v =  0.0000  0.0000  0.0000  0.0000  0.0000  0.0000 -0.7071  0.0000  0.7071  0.0000      0.0000  0.0000  0.0000  0.0000  0.0000  0.0000  0.0000  0.0000  0.0000  0.0000
  o =  0.9886  v =  0.0000  0.0000  0.0000  0.0000  0.0000  0.0000 -0.7071  0.0000 -0.7071  0.0000      0.0000  0.0000  0.0000  0.0000  0.0000  0.0000  0.0000  0.0000  0.0000  0.0000
  o =  0.9920  v =  0.0000  0.0000  0.0000  0.0000  0.0000 -0.7992  0.0000 -0.6011  0.0000 -0.0000      0.0000  0.0000  0.0000  0.0000  0.0000  0.0000  0.0000  0.0000  0.0000  0.0000
atom =   2  type =  1  l = 2
 
 onsite density matrix
 
spin component  1
 
  0.9760  0.0000 -0.0213  0.0000  0.0000
  0.0000  0.9701  0.0000 -0.0185  0.0000
 -0.0213  0.0000  0.9637  0.0000  0.0000
  0.0000 -0.0185  0.0000  0.9701  0.0000
  0.0000  0.0000  0.0000  0.0000  0.9514
 
spin component  2
 
  0.0379  0.0000 -0.0233  0.0000 -0.0000
  0.0000  0.0302  0.0000 -0.0201  0.0000
 -0.0233  0.0000  0.0251  0.0000 -0.0000
  0.0000 -0.0201  0.0000  0.0302  0.0000
 -0.0000  0.0000 -0.0000  0.0000  0.0081
 
 occupancies and eigenvectors
 
  o =  0.0074  v =  0.0000  0.0000  0.0000  0.0000  0.0000 -0.6058  0.0000 -0.7956  0.0000 -0.0000      0.0000  0.0000  0.0000  0.0000  0.0000  0.0000  0.0000  0.0000  0.0000  0.0000
  o =  0.0081  v =  0.0000  0.0000  0.0000  0.0000  0.0000 -0.0000  0.0000 -0.0000  0.0000  1.0000      0.0000  0.0000  0.0000  0.0000  0.0000  0.0000  0.0000  0.0000  0.0000  0.0000
  o =  0.0101  v =  0.0000  0.0000  0.0000  0.0000  0.0000  0.0000  0.7071  0.0000  0.7071 -0.0000      0.0000  0.0000  0.0000  0.0000  0.0000  0.0000  0.0000  0.0000  0.0000  0.0000
  o =  0.0503  v =  0.0000  0.0000  0.0000  0.0000  0.0000 -0.0000 -0.7071  0.0000  0.7071  0.0000      0.0000  0.0000  0.0000  0.0000  0.0000  0.0000  0.0000  0.0000  0.0000  0.0000
  o =  0.0556  v =  0.0000  0.0000  0.0000  0.0000  0.0000 -0.7956  0.0000  0.6058 -0.0000 -0.0000      0.0000  0.0000  0.0000  0.0000  0.0000  0.0000  0.0000  0.0000  0.0000  0.0000
  o =  0.9477  v = -0.6011  0.0000 -0.7992  0.0000  0.0000  0.0000  0.0000  0.0000  0.0000  0.0000      0.0000  0.0000  0.0000  0.0000  0.0000  0.0000  0.0000  0.0000  0.0000  0.0000
  o =  0.9514  v =  0.0000 -0.0000  0.0000 -0.0000  1.0000  0.0000  0.0000  0.0000  0.0000  0.0000      0.0000  0.0000  0.0000  0.0000  0.0000  0.0000  0.0000  0.0000  0.0000  0.0000
  o =  0.9515  v = -0.0000 -0.7071 -0.0000 -0.7071 -0.0000  0.0000  0.0000  0.0000  0.0000  0.0000      0.0000  0.0000  0.0000  0.0000  0.0000  0.0000  0.0000  0.0000  0.0000  0.0000
  o =  0.9886  v = -0.0000 -0.7071  0.0000  0.7071 -0.0000  0.0000  0.0000  0.0000  0.0000  0.0000      0.0000  0.0000  0.0000  0.0000  0.0000  0.0000  0.0000  0.0000  0.0000  0.0000
  o =  0.9920  v = -0.7992  0.0000  0.6011 -0.0000  0.0000  0.0000  0.0000  0.0000  0.0000  0.0000      0.0000  0.0000  0.0000  0.0000  0.0000  0.0000  0.0000  0.0000  0.0000  0.0000
     EDDAV:  cpu time    0.5873: real time    0.5873
       DOS:  cpu time    0.0002: real time    0.0002
    CHARGE:  cpu time    0.0711: real time    0.0711
    MIXING:  cpu time    0.0010: real time    0.0010
    --------------------------------------------
      LOOP:  cpu time    1.0742: real time    1.0742

 eigenvalue-minimisations  :  1332
 total energy-change (2. order) :-0.1582113E+00  (-0.4859216E-02)
 number of electron      54.0000001 magnetization       0.0000000
 augmentation part       19.9450251 magnetization       0.0000000

 Broyden mixing:
  rms(total) = 0.12750E+00    rms(broyden)= 0.12750E+00
  rms(prec ) = 0.14290E+00
  weight for this iteration     100.00

 eigenvalues of (default mixing * dielectric matrix)
  average eigenvalue GAMMA=   1.2247
  2.6194  0.8277  0.8277  0.6240

 Free energy of the ion-electron system (eV)
  ---------------------------------------------------
  alpha Z        PSCENC =       196.13658257
  Ewald energy   TEWEN  =     -4178.31221721
  -Hartree energ DENC   =     -2157.27173082
  -exchange      EXHF   =         0.00000000
  -V(xc)+E(xc)   XCENC  =       293.95042589
  PAW double counting   =      6281.70725416    -6389.57842396
  entropy T*S    EENTRO =        -0.00000000
  eigenvalues    EBANDS =      -763.53489717
  atomic energy  EATOM  =      6677.73306238
  Solvation  Ediel_sol  =         0.00000000
  ---------------------------------------------------
  free energy    TOTEN  =       -39.16994416 eV

  energy without entropy =      -39.16994416  energy(sigma->0) =      -39.16994416


--------------------------------------------------------------------------------------------------------




--------------------------------------- Iteration      1(  10)  ---------------------------------------


    POTLOK:  cpu time    0.0273: real time    0.0273
    SETDIJ:  cpu time    0.3866: real time    0.3866
atom =   1  type =  1  l = 2
 
 onsite density matrix
 
spin component  1
 
  0.0462  0.0000  0.0255  0.0000  0.0000
  0.0000  0.0380  0.0000  0.0217  0.0000
  0.0255  0.0000  0.0324  0.0000  0.0000
  0.0000  0.0217  0.0000  0.0380  0.0000
  0.0000  0.0000  0.0000  0.0000  0.0140
 
spin component  2
 
  0.9679  0.0000  0.0190  0.0000  0.0000
  0.0000  0.9624  0.0000  0.0170  0.0000
  0.0190  0.0000  0.9566  0.0000  0.0000
  0.0000  0.0170  0.0000  0.9624  0.0000
  0.0000  0.0000  0.0000  0.0000  0.9457
 
 occupancies and eigenvectors
 
  o =  0.0128  v = -0.6078  0.0000  0.7941  0.0000 -0.0000  0.0000  0.0000  0.0000  0.0000  0.0000      0.0000  0.0000  0.0000  0.0000  0.0000  0.0000  0.0000  0.0000  0.0000  0.0000
  o =  0.0140  v = -0.0000 -0.0000  0.0000  0.0000  1.0000  0.0000  0.0000  0.0000  0.0000  0.0000      0.0000  0.0000  0.0000  0.0000  0.0000  0.0000  0.0000  0.0000  0.0000  0.0000
  o =  0.0163  v =  0.0000  0.7071  0.0000 -0.7071  0.0000  0.0000  0.0000  0.0000  0.0000  0.0000      0.0000  0.0000  0.0000  0.0000  0.0000  0.0000  0.0000  0.0000  0.0000  0.0000
  o =  0.0597  v =  0.0000 -0.7071  0.0000 -0.7071 -0.0000  0.0000  0.0000  0.0000  0.0000  0.0000      0.0000  0.0000  0.0000  0.0000  0.0000  0.0000  0.0000  0.0000  0.0000  0.0000
  o =  0.0657  v = -0.7941  0.0000 -0.6078  0.0000 -0.0000  0.0000  0.0000  0.0000  0.0000  0.0000      0.0000  0.0000  0.0000  0.0000  0.0000  0.0000  0.0000  0.0000  0.0000  0.0000
  o =  0.9424  v =  0.0000  0.0000  0.0000  0.0000  0.0000 -0.5972  0.0000  0.8021  0.0000  0.0000      0.0000  0.0000  0.0000  0.0000  0.0000  0.0000  0.0000  0.0000  0.0000  0.0000
  o =  0.9455  v =  0.0000  0.0000  0.0000  0.0000  0.0000  0.0000  0.7071  0.0000 -0.7071  0.0000      0.0000  0.0000  0.0000  0.0000  0.0000  0.0000  0.0000  0.0000  0.0000  0.0000
  o =  0.9457  v =  0.0000  0.0000  0.0000  0.0000  0.0000  0.0000 -0.0000 -0.0000  0.0000  1.0000      0.0000  0.0000  0.0000  0.0000  0.0000  0.0000  0.0000  0.0000  0.0000  0.0000
  o =  0.9794  v =  0.0000  0.0000  0.0000  0.0000  0.0000  0.0000 -0.7071  0.0000 -0.7071 -0.0000      0.0000  0.0000  0.0000  0.0000  0.0000  0.0000  0.0000  0.0000  0.0000  0.0000
  o =  0.9821  v =  0.0000  0.0000  0.0000  0.0000  0.0000 -0.8021  0.0000 -0.5972  0.0000 -0.0000      0.0000  0.0000  0.0000  0.0000  0.0000  0.0000  0.0000  0.0000  0.0000  0.0000
atom =   2  type =  1  l = 2
 
 onsite density matrix
 
spin component  1
 
  0.9679  0.0000 -0.0190  0.0000  0.0000
  0.0000  0.9624  0.0000 -0.0170  0.0000
 -0.0190  0.0000  0.9566  0.0000 -0.0000
  0.0000 -0.0170  0.0000  0.9624  0.0000
  0.0000  0.0000 -0.0000  0.0000  0.9457
 
spin component  2
 
  0.0462  0.0000 -0.0255  0.0000  0.0000
  0.0000  0.0380  0.0000 -0.0217  0.0000
 -0.0255  0.0000  0.0324  0.0000  0.0000
  0.0000 -0.0217  0.0000  0.0380  0.0000
  0.0000  0.0000  0.0000  0.0000  0.0140
 
 occupancies and eigenvectors
 
  o =  0.0128  v =  0.0000  0.0000  0.0000  0.0000  0.0000 -0.6078 -0.0000 -0.7941  0.0000  0.0000      0.0000  0.0000  0.0000  0.0000  0.0000  0.0000  0.0000  0.0000  0.0000  0.0000
  o =  0.0140  v =  0.0000  0.0000  0.0000  0.0000  0.0000 -0.0000  0.0000 -0.0000  0.0000 -1.0000      0.0000  0.0000  0.0000  0.0000  0.0000  0.0000  0.0000  0.0000  0.0000  0.0000
  o =  0.0163  v =  0.0000  0.0000  0.0000  0.0000  0.0000  0.0000  0.7071  0.0000  0.7071  0.0000      0.0000  0.0000  0.0000  0.0000  0.0000  0.0000  0.0000  0.0000  0.0000  0.0000
  o =  0.0597  v =  0.0000  0.0000  0.0000  0.0000  0.0000  0.0000  0.7071  0.0000 -0.7071  0.0000      0.0000  0.0000  0.0000  0.0000  0.0000  0.0000  0.0000  0.0000  0.0000  0.0000
  o =  0.0657  v =  0.0000  0.0000  0.0000  0.0000  0.0000 -0.7941 -0.0000  0.6078  0.0000  0.0000      0.0000  0.0000  0.0000  0.0000  0.0000  0.0000  0.0000  0.0000  0.0000  0.0000
  o =  0.9424  v = -0.5972  0.0000 -0.8021  0.0000 -0.0000  0.0000  0.0000  0.0000  0.0000  0.0000      0.0000  0.0000  0.0000  0.0000  0.0000  0.0000  0.0000  0.0000  0.0000  0.0000
  o =  0.9455  v =  0.0000 -0.7071  0.0000 -0.7071 -0.0000  0.0000  0.0000  0.0000  0.0000  0.0000      0.0000  0.0000  0.0000  0.0000  0.0000  0.0000  0.0000  0.0000  0.0000  0.0000
  o =  0.9457  v = -0.0000 -0.0000 -0.0000  0.0000  1.0000  0.0000  0.0000  0.0000  0.0000  0.0000      0.0000  0.0000  0.0000  0.0000  0.0000  0.0000  0.0000  0.0000  0.0000  0.0000
  o =  0.9794  v =  0.0000  0.7071  0.0000 -0.7071  0.0000  0.0000  0.0000  0.0000  0.0000  0.0000      0.0000  0.0000  0.0000  0.0000  0.0000  0.0000  0.0000  0.0000  0.0000  0.0000
  o =  0.9821  v = -0.8021  0.0000  0.5972  0.0000 -0.0000  0.0000  0.0000  0.0000  0.0000  0.0000      0.0000  0.0000  0.0000  0.0000  0.0000  0.0000  0.0000  0.0000  0.0000  0.0000
     EDDAV:  cpu time    0.6788: real time    0.6788
       DOS:  cpu time    0.0002: real time    0.0002
    CHARGE:  cpu time    0.0712: real time    0.0712
    MIXING:  cpu time    0.0010: real time    0.0010
    --------------------------------------------
      LOOP:  cpu time    1.1652: real time    1.1652

 eigenvalue-minimisations  :  1596
 total energy-change (2. order) :-0.1206797E-02  (-0.2005673E-02)
 number of electron      54.0000001 magnetization      -0.0000000
 augmentation part       19.9433311 magnetization      -0.0000000

 Broyden mixing:
  rms(total) = 0.28263E-01    rms(broyden)= 0.28262E-01
  rms(prec ) = 0.31211E-01
  weight for this iteration     100.00

 eigenvalues of (default mixing * dielectric matrix)
  average eigenvalue GAMMA=   1.1584
  2.5202  0.9576  0.9576  0.7450  0.6115

 Free energy of the ion-electron system (eV)
  ---------------------------------------------------
  alpha Z        PSCENC =       196.13658257
  Ewald energy   TEWEN  =     -4178.31221721
  -Hartree energ DENC   =     -2158.05558223
  -exchange      EXHF   =         0.00000000
  -V(xc)+E(xc)   XCENC  =       294.06434644
  PAW double counting   =      6273.99731817    -6382.08809429
  entropy T*S    EENTRO =        -0.00000000
  eigenvalues    EBANDS =      -762.64656677
  atomic energy  EATOM  =      6677.73306238
  Solvation  Ediel_sol  =         0.00000000
  ---------------------------------------------------
  free energy    TOTEN  =       -39.17115095 eV

  energy without entropy =      -39.17115095  energy(sigma->0) =      -39.17115095


--------------------------------------------------------------------------------------------------------




--------------------------------------- Iteration      1(  11)  ---------------------------------------


    POTLOK:  cpu time    0.0273: real time    0.0273
    SETDIJ:  cpu time    0.3865: real time    0.3865
atom =   1  type =  1  l = 2
 
 onsite density matrix
 
spin component  1
 
  0.0445  0.0000  0.0252  0.0000 -0.0000
  0.0000  0.0363  0.0000  0.0215  0.0000
  0.0252  0.0000  0.0307  0.0000  0.0000
  0.0000  0.0215  0.0000  0.0363  0.0000
 -0.0000  0.0000  0.0000  0.0000  0.0127
 
spin component  2
 
  0.9705  0.0000  0.0191  0.0000  0.0000
  0.0000  0.9650  0.0000  0.0170  0.0000
  0.0191  0.0000  0.9591  0.0000  0.0000
  0.0000  0.0170  0.0000  0.9650  0.0000
  0.0000  0.0000  0.0000  0.0000  0.9483
 
 occupancies and eigenvectors
 
  o =  0.0115  v = -0.6069 -0.0000  0.7948  0.0000 -0.0000  0.0000  0.0000  0.0000  0.0000  0.0000      0.0000  0.0000  0.0000  0.0000  0.0000  0.0000  0.0000  0.0000  0.0000  0.0000
  o =  0.0127  v = -0.0000  0.0000  0.0000  0.0000  1.0000  0.0000  0.0000  0.0000  0.0000  0.0000      0.0000  0.0000  0.0000  0.0000  0.0000  0.0000  0.0000  0.0000  0.0000  0.0000
  o =  0.0148  v =  0.0000  0.7071  0.0000 -0.7071 -0.0000  0.0000  0.0000  0.0000  0.0000  0.0000      0.0000  0.0000  0.0000  0.0000  0.0000  0.0000  0.0000  0.0000  0.0000  0.0000
  o =  0.0578  v =  0.0000 -0.7071  0.0000 -0.7071  0.0000  0.0000  0.0000  0.0000  0.0000  0.0000      0.0000  0.0000  0.0000  0.0000  0.0000  0.0000  0.0000  0.0000  0.0000  0.0000
  o =  0.0637  v = -0.7948 -0.0000 -0.6069  0.0000 -0.0000  0.0000  0.0000  0.0000  0.0000  0.0000      0.0000  0.0000  0.0000  0.0000  0.0000  0.0000  0.0000  0.0000  0.0000  0.0000
  o =  0.9449  v =  0.0000  0.0000  0.0000  0.0000  0.0000 -0.5976  0.0000  0.8018  0.0000 -0.0000      0.0000  0.0000  0.0000  0.0000  0.0000  0.0000  0.0000  0.0000  0.0000  0.0000
  o =  0.9481  v =  0.0000  0.0000  0.0000  0.0000  0.0000  0.0000  0.7071  0.0000 -0.7071  0.0000      0.0000  0.0000  0.0000  0.0000  0.0000  0.0000  0.0000  0.0000  0.0000  0.0000
  o =  0.9483  v =  0.0000  0.0000  0.0000  0.0000  0.0000 -0.0000 -0.0000  0.0000  0.0000  1.0000      0.0000  0.0000  0.0000  0.0000  0.0000  0.0000  0.0000  0.0000  0.0000  0.0000
  o =  0.9820  v =  0.0000  0.0000  0.0000  0.0000  0.0000  0.0000 -0.7071  0.0000 -0.7071 -0.0000      0.0000  0.0000  0.0000  0.0000  0.0000  0.0000  0.0000  0.0000  0.0000  0.0000
  o =  0.9847  v =  0.0000  0.0000  0.0000  0.0000  0.0000 -0.8018  0.0000 -0.5976  0.0000 -0.0000      0.0000  0.0000  0.0000  0.0000  0.0000  0.0000  0.0000  0.0000  0.0000  0.0000
atom =   2  type =  1  l = 2
 
 onsite density matrix
 
spin component  1
 
  0.9705  0.0000 -0.0191  0.0000  0.0000
  0.0000  0.9650  0.0000 -0.0170  0.0000
 -0.0191  0.0000  0.9591  0.0000  0.0000
  0.0000 -0.0170  0.0000  0.9650  0.0000
  0.0000  0.0000  0.0000  0.0000  0.9483
 
spin component  2
 
  0.0445  0.0000 -0.0252  0.0000  0.0000
  0.0000  0.0363  0.0000 -0.0215  0.0000
 -0.0252  0.0000  0.0307  0.0000 -0.0000
  0.0000 -0.0215  0.0000  0.0363  0.0000
  0.0000  0.0000 -0.0000  0.0000  0.0127
 
 occupancies and eigenvectors
 
  o =  0.0115  v =  0.0000  0.0000  0.0000  0.0000  0.0000 -0.6069  0.0000 -0.7948  0.0000 -0.0000      0.0000  0.0000  0.0000  0.0000  0.0000  0.0000  0.0000  0.0000  0.0000  0.0000
  o =  0.0127  v =  0.0000  0.0000  0.0000  0.0000  0.0000 -0.0000 -0.0000 -0.0000  0.0000  1.0000      0.0000  0.0000  0.0000  0.0000  0.0000  0.0000  0.0000  0.0000  0.0000  0.0000
  o =  0.0148  v =  0.0000  0.0000  0.0000  0.0000  0.0000  0.0000 -0.7071  0.0000 -0.7071 -0.0000      0.0000  0.0000  0.0000  0.0000  0.0000  0.0000  0.0000  0.0000  0.0000  0.0000
  o =  0.0578  v =  0.0000  0.0000  0.0000  0.0000  0.0000  0.0000  0.7071  0.0000 -0.7071  0.0000      0.0000  0.0000  0.0000  0.0000  0.0000  0.0000  0.0000  0.0000  0.0000  0.0000
  o =  0.0637  v =  0.0000  0.0000  0.0000  0.0000  0.0000 -0.7948  0.0000  0.6069  0.0000 -0.0000      0.0000  0.0000  0.0000  0.0000  0.0000  0.0000  0.0000  0.0000  0.0000  0.0000
  o =  0.9449  v = -0.5976 -0.0000 -0.8018  0.0000  0.0000  0.0000  0.0000  0.0000  0.0000  0.0000      0.0000  0.0000  0.0000  0.0000  0.0000  0.0000  0.0000  0.0000  0.0000  0.0000
  o =  0.9481  v =  0.0000  0.7071  0.0000  0.7071  0.0000  0.0000  0.0000  0.0000  0.0000  0.0000      0.0000  0.0000  0.0000  0.0000  0.0000  0.0000  0.0000  0.0000  0.0000  0.0000
  o =  0.9483  v = -0.0000  0.0000 -0.0000  0.0000 -1.0000  0.0000  0.0000  0.0000  0.0000  0.0000      0.0000  0.0000  0.0000  0.0000  0.0000  0.0000  0.0000  0.0000  0.0000  0.0000
  o =  0.9820  v =  0.0000  0.7071  0.0000 -0.7071  0.0000  0.0000  0.0000  0.0000  0.0000  0.0000      0.0000  0.0000  0.0000  0.0000  0.0000  0.0000  0.0000  0.0000  0.0000  0.0000
  o =  0.9847  v = -0.8018 -0.0000  0.5976  0.0000  0.0000  0.0000  0.0000  0.0000  0.0000  0.0000      0.0000  0.0000  0.0000  0.0000  0.0000  0.0000  0.0000  0.0000  0.0000  0.0000
     EDDAV:  cpu time    0.6031: real time    0.6031
       DOS:  cpu time    0.0002: real time    0.0002
    CHARGE:  cpu time    0.0724: real time    0.0724
    MIXING:  cpu time    0.0011: real time    0.0011
    --------------------------------------------
[...]
     13      -3.5813      1.00000
     14      -3.5197      1.00000
     15      -3.4026      1.00000
     16      -3.1563      1.00000
     17      -2.6912      1.00000
     18      -2.4843      1.00000
     19      -2.4596      1.00000
     20      -1.9951      1.00000
     21      -1.8201      1.00000
     22      -1.7569      1.00000
     23      -0.5366      1.00000
     24      -0.3008      1.00000
     25       0.0375      1.00000
     26       0.5566      1.00000
     27       0.8684      1.00000
     28       7.0993      0.00000
     29       7.1297      0.00000
     30       7.2245      0.00000
     31       7.9013      0.00000
     32       8.0412      0.00000
     33       8.5433      0.00000
     34      10.7021      0.00000
     35      11.9869      0.00000
     36      12.4587      0.00000

 k-point     8 :       0.3750    0.1250    0.4167
  band No.  band energies     occupation 
      1     -46.7399      1.00000
      2     -46.7011      1.00000
      3     -46.6851      1.00000
      4     -41.7581      1.00000
      5     -41.7248      1.00000
      6     -41.7026      1.00000
      7     -20.7736      1.00000
      8     -20.7175      1.00000
      9     -20.6689      1.00000
     10     -20.5951      1.00000
     11      -4.1080      1.00000
     12      -3.9943      1.00000
     13      -3.8901      1.00000
     14      -3.6004      1.00000
     15      -3.4135      1.00000
     16      -2.9713      1.00000
     17      -2.8193      1.00000
     18      -2.6474      1.00000
     19      -2.2479      1.00000
     20      -1.9496      1.00000
     21      -1.7094      1.00000
     22      -1.5914      1.00000
     23      -0.5279      1.00000
     24      -0.3625      1.00000
     25      -0.0663      1.00000
     26       0.5089      1.00000
     27       1.0776      1.00000
     28       7.0967      0.00000
     29       7.1246      0.00000
     30       7.3523      0.00000
     31       7.8089      0.00000
     32       8.3033      0.00000
     33       9.0399      0.00000
     34      10.5059      0.00000
     35      10.9988      0.00000
     36      12.1896      0.00000

 k-point     9 :       0.3750    0.3750    0.4167
  band No.  band energies     occupation 
      1     -46.7399      1.00000
      2     -46.7011      1.00000
      3     -46.6852      1.00000
      4     -41.7581      1.00000
      5     -41.7248      1.00000
      6     -41.7026      1.00000
      7     -20.7527      1.00000
      8     -20.7423      1.00000
      9     -20.6702      1.00000
     10     -20.5861      1.00000
     11      -4.3691      1.00000
     12      -4.1183      1.00000
     13      -3.8653      1.00000
     14      -3.7857      1.00000
     15      -3.4681      1.00000
     16      -2.9842      1.00000
     17      -2.6734      1.00000
     18      -2.4380      1.00000
     19      -2.0555      1.00000
     20      -1.7680      1.00000
     21      -1.6478      1.00000
     22      -1.5449      1.00000
     23      -0.5290      1.00000
     24      -0.3535      1.00000
     25      -0.1117      1.00000
     26       0.5579      1.00000
     27       1.0256      1.00000
     28       7.1031      0.00000
     29       7.1490      0.00000
     30       7.3815      0.00000
     31       7.8013      0.00000
     32       8.1768      0.00000
     33       9.4601      0.00000
     34      10.9808      0.00000
     35      11.1940      0.00000
     36      11.2303      0.00000


--------------------------------------------------------------------------------------------------------


 soft charge-density along one line, spin component           1
         0         1         2         3         4         5         6         7         8         9
 total charge-density along one line
 
 soft charge-density along one line, spin component           2
         0         1         2         3         4         5         6         7         8         9
 total charge-density along one line
 
 pseudopotential strength for first ion, spin component:           1
-42.493  -0.000  -0.028   7.867   0.000   0.012   0.000   0.000
 -0.000 -42.464  -0.000   0.000   7.855   0.000  -0.000   0.000
 -0.028  -0.000 -42.493   0.012   0.000   7.867   0.000  -0.000
  7.867   0.000   0.012   5.257  -0.000  -0.002  -0.000  -0.000
  0.000   7.855   0.000  -0.000   5.259  -0.000   0.000  -0.000
  0.012   0.000   7.867  -0.002  -0.000   5.257  -0.000   0.000
  0.000  -0.000   0.000  -0.000   0.000  -0.000  -1.462  -0.000
  0.000   0.000  -0.000  -0.000  -0.000   0.000  -0.000  -1.421
 -0.000   0.000  -0.000   0.000  -0.000   0.000  -0.065   0.000
 -0.000   0.000   0.000   0.000  -0.000  -0.000  -0.000  -0.082
 -0.000  -0.000   0.000   0.000   0.000  -0.000  -0.000   0.000
  0.000  -0.000   0.000  -0.000   0.000  -0.000  -1.903  -0.000
  0.000   0.000  -0.000  -0.000  -0.000   0.000  -0.000  -1.862
 -0.000   0.000  -0.000   0.000  -0.000   0.000  -0.068   0.000
 -0.000   0.000   0.000   0.000  -0.000  -0.000  -0.000  -0.084
 -0.000  -0.000   0.000   0.000   0.000  -0.000  -0.000   0.000
 -0.000  -0.000  -0.000  -0.000  -0.000  -0.000   0.007   0.000
 -0.000  -0.000  -0.000  -0.000  -0.000  -0.000   0.013   0.000
 pseudopotential strength for first ion, spin component:           2
-45.834  -0.000  -0.020   9.398   0.000   0.007   0.000   0.000
 -0.000 -45.815  -0.000   0.000   9.391   0.000  -0.000   0.000
 -0.020  -0.000 -45.834   0.007   0.000   9.398   0.000  -0.000
  9.398   0.000   0.007   4.742  -0.000  -0.001  -0.000  -0.000
  0.000   9.391   0.000  -0.000   4.743  -0.000   0.000  -0.000
  0.007   0.000   9.398  -0.001  -0.000   4.742  -0.000   0.000
  0.000  -0.000   0.000  -0.000   0.000  -0.000  -7.755  -0.000
  0.000   0.000  -0.000  -0.000  -0.000   0.000  -0.000  -7.726
 -0.000   0.000  -0.000   0.000  -0.000   0.000  -0.045   0.000
 -0.000   0.000   0.000   0.000  -0.000  -0.000  -0.000  -0.065
 -0.000  -0.000   0.000   0.000   0.000  -0.000   0.000   0.000
  0.000  -0.000   0.000  -0.000   0.000  -0.000  -8.251  -0.000
  0.000   0.000  -0.000  -0.000  -0.000   0.000  -0.000  -8.222
 -0.000   0.000  -0.000   0.000  -0.000   0.000  -0.047   0.000
 -0.000   0.000   0.000   0.000  -0.000  -0.000  -0.000  -0.067
 -0.000  -0.000   0.000   0.000   0.000  -0.000   0.000   0.000
 -0.000  -0.000  -0.000  -0.000  -0.000  -0.000   0.003   0.000
 -0.000  -0.000  -0.000  -0.000  -0.000  -0.000   0.005   0.000
 total augmentation occupancy for first ion, spin component:           1
  1.998   0.000   0.000  -0.013   0.000   0.000   0.000   0.000   0.000   0.000   0.000   0.000   0.000   0.000   0.000   0.000
  0.000   1.998   0.000   0.000  -0.013   0.000   0.000   0.000   0.000   0.000   0.000   0.000   0.000   0.000   0.000   0.000
  0.000   0.000   1.998   0.000   0.000  -0.013   0.000   0.000   0.000   0.000   0.000   0.000   0.000   0.000   0.000   0.000
 -0.013   0.000   0.000   0.086   0.000  -0.008   0.000   0.000   0.000   0.000   0.000   0.000   0.000   0.000   0.000   0.000
  0.000  -0.013   0.000   0.000   0.098   0.000   0.000   0.000   0.000   0.000   0.000   0.000   0.000   0.000   0.000   0.000
  0.000   0.000  -0.013  -0.008   0.000   0.086   0.000   0.000   0.000   0.000   0.000   0.000   0.000   0.000   0.000   0.000
  0.000   0.000   0.000   0.000   0.000   0.000   7.578   0.000   2.881   0.000   0.000  -5.630   0.000  -2.720   0.000   0.000
  0.000   0.000   0.000   0.000   0.000   0.000   0.000   6.499   0.000   2.544   0.000   0.000  -4.604   0.000  -2.397   0.000
  0.000   0.000   0.000   0.000   0.000   0.000   2.881   0.000   5.874   0.000  -0.000  -2.721   0.000  -4.038   0.000   0.000
  0.000   0.000   0.000   0.000   0.000   0.000   0.000   2.544   0.000   6.499   0.000   0.000  -2.397   0.000  -4.604   0.000
  0.000   0.000   0.000   0.000   0.000   0.000   0.000   0.000  -0.000   0.000   3.838   0.000   0.000  -0.000   0.000  -2.074
  0.000   0.000   0.000   0.000   0.000   0.000  -5.630   0.000  -2.721   0.000   0.000   4.850   0.000   2.599   0.000  -0.000
  0.000   0.000   0.000   0.000   0.000   0.000   0.000  -4.604   0.000  -2.397   0.000   0.000   3.867   0.000   2.284   0.000
  0.000   0.000   0.000   0.000   0.000   0.000  -2.720   0.000  -4.038   0.000   0.000   2.599   0.000   3.347   0.000  -0.000
  0.000   0.000   0.000   0.000   0.000   0.000   0.000  -2.397   0.000  -4.604   0.000   0.000   2.284   0.000   3.867   0.000
  0.000   0.000   0.000   0.000   0.000   0.000   0.000   0.000   0.000   0.000  -2.074  -0.000   0.000   0.000   0.000   1.434
  0.000   0.000   0.000   0.000   0.000   0.000   0.195   0.000  -0.216   0.000   0.000  -0.226   0.000   0.231   0.000   0.000
  0.000   0.000   0.000   0.000   0.000   0.000   0.003   0.000   0.015   0.000  -0.000   0.022   0.000  -0.030   0.000   0.000
 total augmentation occupancy for first ion, spin component:           2
  0.003   0.000  -0.000   0.011   0.000  -0.000   0.000   0.000   0.000   0.000   0.000   0.000   0.000   0.000   0.000   0.000
  0.000   0.003   0.000   0.000   0.012   0.000   0.000   0.000   0.000   0.000   0.000   0.000   0.000   0.000   0.000   0.000
 -0.000   0.000   0.003  -0.000   0.000   0.011   0.000   0.000   0.000   0.000   0.000   0.000   0.000   0.000   0.000   0.000
  0.011   0.000  -0.000  -0.011   0.000  -0.000   0.000   0.000   0.000   0.000   0.000   0.000   0.000   0.000   0.000   0.000
  0.000   0.012   0.000   0.000  -0.011   0.000   0.000   0.000   0.000   0.000   0.000   0.000   0.000   0.000   0.000   0.000
 -0.000   0.000   0.011  -0.000   0.000  -0.011   0.000   0.000   0.000   0.000   0.000   0.000   0.000   0.000   0.000   0.000
  0.000   0.000   0.000   0.000   0.000   0.000  -5.360   0.000  -1.624   0.000   0.000   3.074   0.000   1.277   0.000   0.000
  0.000   0.000   0.000   0.000   0.000   0.000   0.000  -4.759   0.000  -1.448   0.000   0.000   2.588   0.000   1.140   0.000
  0.000   0.000   0.000   0.000   0.000   0.000  -1.624   0.000  -4.326   0.000   0.000   1.278   0.000   2.254   0.000  -0.000
  0.000   0.000   0.000   0.000   0.000   0.000   0.000  -1.448   0.000  -4.759   0.000   0.000   1.140   0.000   2.588   0.000
  0.000   0.000   0.000   0.000   0.000   0.000   0.000   0.000   0.000   0.000  -3.300   0.000   0.000   0.000   0.000   1.437
  0.000   0.000   0.000   0.000   0.000   0.000   3.074   0.000   1.278   0.000   0.000  -1.897   0.000  -0.937   0.000  -0.000
  0.000   0.000   0.000   0.000   0.000   0.000   0.000   2.588   0.000   1.140   0.000   0.000  -1.526   0.000  -0.838   0.000
  0.000   0.000   0.000   0.000   0.000   0.000   1.277   0.000   2.254   0.000   0.000  -0.937   0.000  -1.286   0.000   0.000
  0.000   0.000   0.000   0.000   0.000   0.000   0.000   1.140   0.000   2.588   0.000   0.000  -0.838   0.000  -1.526   0.000
  0.000   0.000   0.000   0.000   0.000   0.000   0.000   0.000  -0.000   0.000   1.437   0.000   0.000   0.000   0.000  -0.679
  0.000   0.000   0.000   0.000   0.000   0.000   0.024   0.000   0.009   0.000   0.000  -0.025   0.000   0.004   0.000  -0.000
  0.000   0.000   0.000   0.000   0.000   0.000  -0.048   0.000   0.025   0.000   0.000   0.028   0.000  -0.014   0.000  -0.000


------------------------ aborting loop because EDIFF is reached ----------------------------------------


 


 total charge     
 
# of ion       s       p       d       tot
------------------------------------------
    1        0.163   6.152   4.949  11.265
    2        0.168   6.147   4.955  11.271
    3        1.726   4.368   0.000   6.094
    4        1.726   4.368   0.000   6.094
    5        1.726   4.364   0.000   6.089
    6        1.726   4.364   0.000   6.089
--------------------------------------------------
tot          7.235  29.762   9.904  46.901
 


 magnetization (x)
 
# of ion       s       p       d       tot
------------------------------------------
    1       -0.018  -0.019  -4.630  -4.667
    2        0.018   0.018   4.628   4.664
    3        0.002   0.017   0.000   0.018
    4        0.002   0.017   0.000   0.018
    5       -0.002  -0.013   0.000  -0.015
    6       -0.002  -0.013   0.000  -0.015
--------------------------------------------------
tot         -0.001   0.006  -0.002   0.003
 
    CHARGE:  cpu time    0.0626: real time    0.0627
    FORLOC:  cpu time    0.0021: real time    0.0021
    FORNL :  cpu time    0.3285: real time    0.3286
    STRESS:  cpu time    0.9983: real time    1.0065
    FORCOR:  cpu time    0.0270: real time    0.0270
    FORHAR:  cpu time    0.0037: real time    0.0037
    MIXING:  cpu time    0.0008: real time    0.0008
    OFIELD:  cpu time    0.0000: real time    0.0000

  FORCE on cell =-STRESS in cart. coord.  units (eV):
  Direction    XX          YY          ZZ          XY          YZ          ZX
  --------------------------------------------------------------------------------------
  Alpha Z   195.59937   195.59937   195.59937
  Ewald   -1581.30248 -1581.30248 -1011.70646    -0.00000     0.00000     0.00000
  Hartree   591.94485   591.94485   977.14022    -0.00000    -0.00000    -0.00000
  E(xc)    -314.08362  -314.08362  -313.86312    -0.00000    -0.00000    -0.00000
  Local     159.78242   159.78242  -788.06197    -0.00000    -0.00000     0.00000
  n-local  -242.22348  -242.56077  -241.34437     0.02254     0.11743     0.11955
  augment   265.52585   265.52585   265.01217     0.00000     0.00000     0.00000
  Kinetic   924.51360   925.35175   917.21160    -0.46710    -0.87367    -0.93170
  Fock        0.00000     0.00000     0.00000     0.00000     0.00000     0.00000
  -------------------------------------------------------------------------------------
  Total       0.00695     0.00695    -0.01257    -0.00000     0.00000     0.00000
  in kB       0.14113     0.14113    -0.25516    -0.00000     0.00000     0.00000
  external pressure =        0.01 kB  Pullay stress =        0.00 kB


 VOLUME and BASIS-vectors are now :
 -----------------------------------------------------------------------------
  energy-cutoff  :      800.00
  volume of cell :       78.92
      direct lattice vectors                 reciprocal lattice vectors
     4.888062804 -0.000000000  0.000000000     0.204580023  0.000000000  0.000000000
    -0.000000000  4.888062804  0.000000000     0.000000000  0.204580023  0.000000000
     0.000000000  0.000000000  3.303205531     0.000000000  0.000000000  0.302736233

  length of vectors
     4.888062804  4.888062804  3.303205531     0.204580023  0.204580023  0.302736233


 FORCES acting on ions
    electron-ion (+dipol)            ewald-force                    non-local-force                 convergence-correction
 -----------------------------------------------------------------------------------------------
   0.213E-11 0.517E-11 0.445E-11   0.568E-13 -.284E-13 -.410E-14   0.914E-29 0.000E+00 0.000E+00   -.270E-12 0.198E-12 0.550E-12
   -.337E-13 -.232E-13 -.112E-13   0.114E-12 0.171E-12 -.362E-14   0.659E-29 0.000E+00 0.000E+00   -.594E-12 -.191E-12 -.530E-12
   -.346E+02 0.346E+02 -.141E-11   0.360E+02 -.360E+02 -.217E-14   -.141E+01 0.141E+01 -.217E-18   -.615E-03 0.615E-03 0.981E-13
   0.346E+02 -.346E+02 0.102E-11   -.360E+02 0.360E+02 -.245E-14   0.141E+01 -.141E+01 0.217E-18   0.615E-03 -.615E-03 0.961E-12
   0.346E+02 0.346E+02 -.243E-07   -.360E+02 -.360E+02 0.188E-14   0.141E+01 0.141E+01 -.325E-18   0.615E-03 0.615E-03 -.447E-11
   -.346E+02 -.346E+02 0.243E-07   0.360E+02 0.360E+02 0.160E-14   -.141E+01 -.141E+01 0.325E-18   -.615E-03 -.615E-03 0.332E-11
 -----------------------------------------------------------------------------------------------
   0.826E-11 -.178E-11 0.745E-11   -.355E-13 0.000E+00 -.886E-14   0.000E+00 -.222E-15 0.000E+00   -.114E-11 0.241E-12 -.659E-13
 
 
 POSITION                                       TOTAL-FORCE (eV/Angst)
 -----------------------------------------------------------------------------------
      2.44403      2.44403      1.65160        -0.000000      0.000000      0.000000
     -0.00000      0.00000      0.00000        -0.000000      0.000000      0.000000
      0.95506      3.93300      1.65160        -0.001932      0.001932      0.000000
      3.93300      0.95506      1.65160         0.001932     -0.001932     -0.000000
      1.48897      1.48897     -0.00000         0.001932      0.001932      0.000000
      3.39909      3.39909      0.00000        -0.001932     -0.001932     -0.000000
 -----------------------------------------------------------------------------------
    total drift:                                0.000000     -0.000000      0.000000


--------------------------------------------------------------------------------------------------------



  FREE ENERGIE OF THE ION-ELECTRON SYSTEM (eV)
  ---------------------------------------------------
  free  energy   TOTEN  =       -39.17177253 eV

  energy  without entropy=      -39.17177253  energy(sigma->0) =      -39.17177253
 
 d Force = 0.4153921E-05[ 0.281E-05, 0.550E-05]  d Energy = 0.7915939E-05-0.376E-05
 d Force =-0.5214062E-01[-0.523E-01,-0.520E-01]  d Ewald  =-0.2104074E+00 0.158E+00


--------------------------------------------------------------------------------------------------------


    POTLOK:  cpu time    0.4576: real time    0.4576


--------------------------------------------------------------------------------------------------------


 Conjugate gradient step on ions:
 trial-energy change:   -0.000008  1 .order   -0.000008   -0.000010   -0.000006
  (g-gl).g = 0.107E-04      g.g   = 0.105E-04  gl.gl    = 0.381E-03
 g(Force)  = 0.553E-05   g(Stress)= 0.496E-05 ortho     =-0.247E-06
 gamma     =   0.02819
 trial     =   0.97839
 opt step  =   2.32696  (harmonic =   2.32696) maximal distance =0.00043205
 next E    =   -39.171777   (d E  =  -0.00001)


--------------------------------------------------------------------------------------------------------


  
 reached required accuracy - stopping structural energy minimisation
     LOOP+:  cpu time    7.5771: real time    7.5855
    4ORBIT:  cpu time    0.0000: real time    0.0000
 


 total charge     
 
# of ion       s       p       d       tot
------------------------------------------
    1        0.163   6.152   4.949  11.265
    2        0.168   6.147   4.955  11.271
    3        1.726   4.368   0.000   6.094
    4        1.726   4.368   0.000   6.094
    5        1.726   4.364   0.000   6.089
    6        1.726   4.364   0.000   6.089
--------------------------------------------------
tot          7.235  29.762   9.904  46.901
 


 magnetization (x)
 
# of ion       s       p       d       tot
------------------------------------------
    1       -0.018  -0.019  -4.630  -4.667
    2        0.018   0.018   4.628   4.664
    3        0.002   0.017   0.000   0.018
    4        0.002   0.017   0.000   0.018
    5       -0.002  -0.013   0.000  -0.015
    6       -0.002  -0.013   0.000  -0.015
--------------------------------------------------
tot         -0.001   0.006  -0.002   0.003
 

 total amount of memory used by VASP MPI-rank0    52117. kBytes
=======================================================================

   base      :      30000. kBytes
   nonl-proj :      10902. kBytes
   fftplans  :       3220. kBytes
   grid      :       4243. kBytes
   one-center:        186. kBytes
   wavefun   :       3566. kBytes
 
  
  
 General timing and accounting informations for this job:
 ========================================================
  
                  Total CPU time used (sec):       52.897
                            User time (sec):       40.748
                          System time (sec):       12.149
                         Elapsed time (sec):       52.969
  
                   Maximum memory used (kb):       78788.
                   Average memory used (kb):           0.
  
                          Minor page faults:        15404
                          Major page faults:            5
                 Voluntary context switches:          262
