       N       E                     dE             d eps       ncg     rms          rms(c)
DAV:   1     0.622537849543E+03    0.62254E+03   -0.31289E+04  1296   0.167E+03
DAV:   2     0.279541285555E+01   -0.61974E+03   -0.60284E+03  1452   0.476E+02
DAV:   3    -0.408530310588E+02   -0.43648E+02   -0.43472E+02  1548   0.141E+02
DAV:   4    -0.414042382754E+02   -0.55121E+00   -0.55110E+00  1440   0.175E+01
DAV:   5    -0.414129064854E+02   -0.86682E-02   -0.86680E-02  1572   0.212E+00    0.248E+01
DAV:   6    -0.393300076211E+02    0.20829E+01   -0.15687E+01  1620   0.317E+01    0.159E+01
DAV:   7    -0.399698272191E+02   -0.63982E+00   -0.15549E+00  1512   0.106E+01    0.118E+01
DAV:   8    -0.398826500073E+02    0.87177E-01   -0.51793E-01  1512   0.593E+00    0.471E+00
DAV:   9    -0.401610782760E+02   -0.27843E+00   -0.74103E-02  1428   0.258E+00    0.137E+00
DAV:  10    -0.401615127487E+02   -0.43447E-03   -0.15658E-02  1524   0.100E+00    0.248E-01
DAV:  11    -0.401614769969E+02    0.35752E-04   -0.15179E-03  1416   0.263E-01    0.133E-01
DAV:  12    -0.401615204605E+02   -0.43464E-04   -0.36929E-05  1740   0.819E-02    0.612E-02
DAV:  13    -0.401615268222E+02   -0.63617E-05   -0.36389E-05  1404   0.330E-02    0.216E-02
DAV:  14    -0.401615283462E+02   -0.15240E-05   -0.19092E-06  1464   0.137E-02    0.388E-03
DAV:  15    -0.401615285286E+02   -0.18242E-06   -0.11838E-07  1044   0.298E-03    0.128E-03
DAV:  16    -0.401615285430E+02   -0.14384E-07   -0.17781E-08   648   0.133E-03
   1 F= -.40161529E+02 E0= -.40161529E+02  d E =-.401615E+02  mag=    -0.0000
       N       E                     dE             d eps       ncg     rms          rms(c)
DAV:   1    -0.401618893750E+02   -0.36085E-03   -0.81546E-03  1296   0.803E-01    0.162E-01
DAV:   2    -0.401615527529E+02    0.33662E-03   -0.10528E-03  1296   0.233E-01    0.956E-02
DAV:   3    -0.401615442447E+02    0.85083E-05   -0.76471E-05  1380   0.923E-02    0.374E-02
DAV:   4    -0.401615392800E+02    0.49647E-05   -0.63065E-06  1584   0.208E-02    0.242E-02
DAV:   5    -0.401615372753E+02    0.20047E-05   -0.14714E-06  1536   0.961E-03    0.794E-03
DAV:   6    -0.401615373532E+02   -0.77845E-07   -0.10533E-07  1068   0.359E-03
   2 F= -.40161537E+02 E0= -.40161537E+02  d E =-.881015E-05  mag=    -0.0000
