 vasp.5.4.4.18Apr17-6-g9f103f2a35 (build Apr 27 2017 11:13:10) complex          
  
 executed on           IFC91_ompi date 2020.05.13  11:10:10
 running on   12 total cores
 distrk:  each k-point on   12 cores,    1 groups
 distr:  one band on NCORES_PER_BAND=   1 cores,   12 groups


--------------------------------------------------------------------------------------------------------


 INCAR:
 POTCAR:    PAW Mn_pv 02Aug2007                   
 POTCAR:    PAW F 31May2000                       

 ----------------------------------------------------------------------------- 
|                                                                             |
|           W    W    AA    RRRRR   N    N  II  N    N   GGGG   !!!           |
|           W    W   A  A   R    R  NN   N  II  NN   N  G    G  !!!           |
|           W    W  A    A  R    R  N N  N  II  N N  N  G       !!!           |
|           W WW W  AAAAAA  RRRRR   N  N N  II  N  N N  G  GGG   !            |
|           WW  WW  A    A  R   R   N   NN  II  N   NN  G    G                |
|           W    W  A    A  R    R  N    N  II  N    N   GGGG   !!!           |
|                                                                             |
|      For optimal performance we recommend to set                            |
|        NCORE= 4 - approx SQRT( number of cores)                             |
|      NCORE specifies how many cores store one orbital (NPAR=cpu/NCORE).     |
|      This setting can  greatly improve the performance of VASP for DFT.     |
|      The default,   NCORE=1            might be grossly inefficient         |
|      on modern multi-core architectures or massively parallel machines.     |
|      Do your own testing !!!!                                               |
|      Unfortunately you need to use the default for GW and RPA calculations. |
|      (for HF NCORE is supported but not extensively tested yet)             |
|                                                                             |
 ----------------------------------------------------------------------------- 

 POTCAR:    PAW Mn_pv 02Aug2007                   
   VRHFIN =Mn: 3p4s3d                                                           
   LEXCH  = CA                                                                  
   EATOM  =  2028.0466 eV,  149.0572 Ry                                         
                                                                                
   TITEL  = PAW Mn_pv 02Aug2007                                                 
   LULTRA =        F    use ultrasoft PP ?                                      
   IUNSCR =        1    unscreen: 0-lin 1-nonlin 2-no                           
   RPACOR =    2.080    partial core radius                                     
   POMASS =   54.938; ZVAL   =   13.000    mass and valenz                      
   RCORE  =    2.300    outmost cutoff radius                                   
   RWIGS  =    2.500; RWIGS  =    1.323    wigner-seitz radius (au A)           
   ENMAX  =  269.944; ENMIN  =  202.458 eV                                      
   ICORE  =        3    local potential                                         
   LCOR   =        T    correct aug charges                                     
   LPAW   =        T    paw PP                                                  
   EAUG   =  569.085                                                            
   DEXC   =    0.000                                                            
   RMAX   =    2.343    core radius for proj-oper                               
   RAUG   =    1.300    factor for augmentation sphere                          
   RDEP   =    2.338    radius for radial grids                                 
   RDEPT  =    1.798    core radius for aug-charge                              
                                                                                
   Atomic configuration                                                         
    8 entries                                                                   
     n  l   j            E        occ.                                          
     1  0  0.50     -6393.6057   2.0000                                         
     2  0  0.50      -735.9993   2.0000                                         
     2  1  1.50      -624.3417   6.0000                                         
     3  0  0.50       -80.9782   2.0000                                         
     3  1  1.50       -50.3144   6.0000                                         
     3  2  2.50        -3.6171   6.0000                                         
     4  0  0.50        -4.3304   1.0000                                         
     4  3  2.50        -1.3606   0.0000                                         
   Description                                                                  
     l       E           TYP  RCUT    TYP  RCUT                                 
     1    -50.3143634     23  2.000                                             
     1     -1.3605826     23  2.000                                             
     2     -3.6171470     23  2.300                                             
     2     -4.9777296     23  2.300                                             
     0     -4.3303688     23  2.300                                             
     0      7.3408788     23  2.300                                             
     3      9.5240782     23  2.300                                             
  local pseudopotential read in
  partial core-charges read in
  partial kinetic energy density read in
  atomic valenz-charges read in
  non local Contribution for L=           1  read in
    real space projection operators read in
  non local Contribution for L=           1  read in
    real space projection operators read in
  non local Contribution for L=           2  read in
    real space projection operators read in
  non local Contribution for L=           2  read in
    real space projection operators read in
  non local Contribution for L=           0  read in
    real space projection operators read in
  non local Contribution for L=           0  read in
    real space projection operators read in
    PAW grid and wavefunctions read in
 
   number of l-projection  operators is LMAX  =           6
   number of lm-projection operators is LMMAX =          18
 
 POTCAR:    PAW F 31May2000                       
   VRHFIN =F: s2p5                                                              
   LEXCH  = CA                                                                  
   EATOM  =   658.3685 eV,   48.3887 Ry                                         
                                                                                
   TITEL  = PAW F 31May2000                                                     
   LULTRA =        F    use ultrasoft PP ?                                      
   IUNSCR =        1    unscreen: 0-lin 1-nonlin 2-no                           
   RPACOR =    1.200    partial core radius                                     
   POMASS =   18.998; ZVAL   =    7.000    mass and valenz                      
   RCORE  =    1.520    outmost cutoff radius                                   
   RWIGS  =    1.500; RWIGS  =    0.794    wigner-seitz radius (au A)           
   ENMAX  =  400.000; ENMIN  =  300.000 eV                                      
   ICORE  =        2    local potential                                         
   LCOR   =        T    correct aug charges                                     
   LPAW   =        T    paw PP                                                  
   EAUG   =  613.614                                                            
   DEXC   =    0.000                                                            
   RMAX   =    1.555    core radius for proj-oper                               
   RAUG   =    1.300    factor for augmentation sphere                          
   RDEP   =    1.539    radius for radial grids                                 
   RDEPT  =    1.299    core radius for aug-charge                              
                                                                                
   Atomic configuration                                                         
    4 entries                                                                   
     n  l   j            E        occ.                                          
     1  0  0.50      -658.3386   2.0000                                         
     2  0  0.50       -29.6221   2.0000                                         
     2  1  0.50       -11.2952   5.0000                                         
     3  2  1.50       -12.2452   0.0000                                         
   Description                                                                  
     l       E           TYP  RCUT    TYP  RCUT                                 
     0    -29.6221019     23  1.200                                             
     0     -9.5240782     23  1.200                                             
     1    -11.2951545     23  1.520                                             
     1      1.3605826     23  1.520                                             
     2    -12.2452434      7  1.500                                             
  local pseudopotential read in
  partial core-charges read in
  partial kinetic energy density read in
  kinetic energy density of atom read in
  atomic valenz-charges read in
  non local Contribution for L=           0  read in
    real space projection operators read in
  non local Contribution for L=           0  read in
    real space projection operators read in
  non local Contribution for L=           1  read in
    real space projection operators read in
  non local Contribution for L=           1  read in
    real space projection operators read in
    PAW grid and wavefunctions read in
 
   number of l-projection  operators is LMAX  =           4
   number of lm-projection operators is LMMAX =           8
 
  PAW Mn_pv 02Aug2007                   :
 energy of atom  1       EATOM=-2028.0466
 kinetic energy error for atom=    0.0061 (will be added to EATOM!!)
  PAW F 31May2000                       :
 energy of atom  2       EATOM= -658.3685
 kinetic energy error for atom=    0.0346 (will be added to EATOM!!)
 
 
 POSCAR: Mn  F                                   
  positions in cartesian coordinates
  No initial velocities read in
 exchange correlation table for  LEXCH =        2
   RHO(1)=    0.500       N(1)  =     2000
   RHO(2)=  100.500       N(2)  =     4000
 


--------------------------------------------------------------------------------------------------------


 ion  position               nearest neighbor table
   1  0.500  0.500  0.500-   3 2.06   4 2.06   5 2.10   6 2.10   5 2.10   6 2.10
   2  0.000  0.000  0.000-   5 2.06   6 2.06   3 2.10   4 2.10   3 2.10   4 2.10
   3  0.196  0.804  0.500-   1 2.06   2 2.10   2 2.10
   4  0.804  0.196  0.500-   1 2.06   2 2.10   2 2.10
   5  0.304  0.304  0.000-   2 2.06   1 2.10   1 2.10
   6  0.696  0.696  0.000-   2 2.06   1 2.10   1 2.10
 
  LATTYP: Found a simple tetragonal cell.
 ALAT       =     4.7959042861
 C/A-ratio  =     0.6772201529
  
  Lattice vectors:
  
 A1 = (   4.7959042861,   0.0000000000,   0.0000000000)
 A2 = (   0.0000000000,   4.7959042861,   0.0000000000)
 A3 = (   0.0000000000,   0.0000000000,   3.2478830338)


Analysis of symmetry for initial positions (statically):
=====================================================================
 Subroutine PRICEL returns:
 Original cell was already a primitive cell.
 

 Routine SETGRP: Setting up the symmetry group for a 
 simple tetragonal supercell.


 Subroutine GETGRP returns: Found 16 space group operations
 (whereof  8 operations were pure point group operations)
 out of a pool of 16 trial point group operations.


The static configuration has the point symmetry D_2h.
 The point group associated with its full space group is D_4h.


Analysis of symmetry for dynamics (positions and initial velocities):
=====================================================================
 Subroutine PRICEL returns:
 Original cell was already a primitive cell.
 

 Routine SETGRP: Setting up the symmetry group for a 
 simple tetragonal supercell.


 Subroutine GETGRP returns: Found 16 space group operations
 (whereof  8 operations were pure point group operations)
 out of a pool of 16 trial point group operations.


The dynamic configuration has the point symmetry D_2h.
 The point group associated with its full space group is D_4h.


Analysis of structural, dynamic, and magnetic symmetry:
=====================================================================
 Subroutine PRICEL returns:
 Original cell was already a primitive cell.
 

 Routine SETGRP: Setting up the symmetry group for a 
 simple tetragonal supercell.


 Subroutine GETGRP returns: Found 16 space group operations
 (whereof  8 operations were pure point group operations)
 out of a pool of 16 trial point group operations.


The magnetic configuration has the point symmetry D_2h.
 The point group associated with its full space group is D_4h.


 Subroutine INISYM returns: Found 16 space group operations
 (whereof  8 operations are pure point group operations),
 and found     1 'primitive' translations

 
 
 KPOINTS: KPOINTS created by Atomic Simulation Env

Automatic generation of k-mesh.
Space group operators:
 irot       det(A)        alpha          n_x          n_y          n_z        tau_x        tau_y        tau_z
    1     1.000000     0.000000     1.000000     0.000000     0.000000     0.000000     0.000000     0.000000
    2    -1.000000     0.000000     1.000000     0.000000     0.000000     0.000000     0.000000     0.000000
    3     1.000000   180.000000     0.000000     0.000000     1.000000     0.000000     0.000000     0.000000
    4    -1.000000   180.000000     0.000000     0.000000     1.000000     0.000000     0.000000     0.000000
    5     1.000000   180.000000     0.707107     0.707107     0.000000     0.000000     0.000000     0.000000
    6    -1.000000   180.000000     0.707107     0.707107     0.000000     0.000000     0.000000     0.000000
    7     1.000000   180.000000     0.707107    -0.707107     0.000000     0.000000     0.000000     0.000000
    8    -1.000000   180.000000     0.707107    -0.707107     0.000000     0.000000     0.000000     0.000000
    9     1.000000    90.000000     0.000000     0.000000    -1.000000     0.500000     0.500000     0.500000
   10    -1.000000    90.000000     0.000000     0.000000    -1.000000     0.500000     0.500000     0.500000
   11     1.000000    90.000000     0.000000     0.000000     1.000000     0.500000     0.500000     0.500000
   12    -1.000000    90.000000     0.000000     0.000000     1.000000     0.500000     0.500000     0.500000
   13     1.000000   180.000000     0.000000     1.000000     0.000000     0.500000     0.500000     0.500000
   14    -1.000000   180.000000     0.000000     1.000000     0.000000     0.500000     0.500000     0.500000
   15     1.000000   180.000000     1.000000     0.000000     0.000000     0.500000     0.500000     0.500000
   16    -1.000000   180.000000     1.000000     0.000000     0.000000     0.500000     0.500000     0.500000
 
 Subroutine IBZKPT returns following result:
 ===========================================
 
 Found      9 irreducible k-points:
 
 Following reciprocal coordinates:
            Coordinates               Weight
  0.125000  0.125000  0.083333      8.000000
  0.375000  0.125000  0.083333     16.000000
  0.375000  0.375000  0.083333      8.000000
  0.125000  0.125000  0.250000      8.000000
  0.375000  0.125000  0.250000     16.000000
  0.375000  0.375000  0.250000      8.000000
  0.125000  0.125000  0.416667      8.000000
  0.375000  0.125000  0.416667     16.000000
  0.375000  0.375000  0.416667      8.000000
 
 Following cartesian coordinates:
            Coordinates               Weight
  0.026064  0.026064  0.025658      8.000000
  0.078192  0.026064  0.025658     16.000000
  0.078192  0.078192  0.025658      8.000000
  0.026064  0.026064  0.076973      8.000000
  0.078192  0.026064  0.076973     16.000000
  0.078192  0.078192  0.076973      8.000000
  0.026064  0.026064  0.128289      8.000000
  0.078192  0.026064  0.128289     16.000000
  0.078192  0.078192  0.128289      8.000000
 


--------------------------------------------------------------------------------------------------------




 Dimension of arrays:
   k-points           NKPTS =      9   k-points in BZ     NKDIM =      9   number of bands    NBANDS=     36
   number of dos      NEDOS =    301   number of ions     NIONS =      6
   non local maximal  LDIM  =      6   non local SUM 2l+1 LMDIM =     18
   total plane-waves  NPLWV =  14112
   max r-space proj   IRMAX =      1   max aug-charges    IRDMAX=  46050
   dimension x,y,z NGX =    28 NGY =   28 NGZ =   18
   dimension x,y,z NGXF=    56 NGYF=   56 NGZF=   36
   support grid    NGXF=   112 NGYF=  112 NGZF=   72
   ions per type =               2   4
   NGX,Y,Z   is equivalent  to a cutoff of   9.71,  9.71,  9.21 a.u.
   NGXF,Y,Z  is equivalent  to a cutoff of  19.41, 19.41, 18.43 a.u.

 SYSTEM =  unknown system                          
 POSCAR =  Mn  F                                   

 Startparameter for this run:
   NWRITE =      2    write-flag & timer
   PREC   = normal    normal or accurate (medium, high low for compatibility)
   ISTART =      0    job   : 0-new  1-cont  2-samecut
   ICHARG =      2    charge: 1-file 2-atom 10-const
   ISPIN  =      2    spin polarized calculation?
   LNONCOLLINEAR =      F non collinear calculations
   LSORBIT =      F    spin-orbit coupling
   INIWAV =      1    electr: 0-lowe 1-rand  2-diag
   LASPH  =      T    aspherical Exc in radial PAW
   METAGGA=      F    non-selfconsistent MetaGGA calc.

 Electronic Relaxation 1
   ENCUT  =  500.0 eV  36.75 Ry    6.06 a.u.   8.74  8.74  5.92*2*pi/ulx,y,z
   ENINI  =  500.0     initial cutoff
   ENAUG  =  613.6 eV  augmentation charge cutoff
   NELM   =     60;   NELMIN=  2; NELMDL= -5     # of ELM steps 
   EDIFF  = 0.1E-06   stopping-criterion for ELM
   LREAL  =      F    real-space projection
   NLSPLINE    = F    spline interpolate recip. space projectors
   LCOMPAT=      F    compatible to vasp.4.4
   GGA_COMPAT  = T    GGA compatible to vasp.4.4-vasp.4.6
   LMAXPAW     = -100 max onsite density
   LMAXMIX     =    4 max onsite mixed and CHGCAR
   VOSKOWN=      0    Vosko Wilk Nusair interpolation
   ROPT   =    0.00000   0.00000
 Ionic relaxation
   EDIFFG = -.5E-02   stopping-criterion for IOM
   NSW    =     50    number of steps for IOM
   NBLOCK =      1;   KBLOCK =     50    inner block; outer block 
   IBRION =      2    ionic relax: 0-MD 1-quasi-New 2-CG
   NFREE  =      1    steps in history (QN), initial steepest desc. (CG)
   ISIF   =      3    stress and relaxation
   IWAVPR =     11    prediction:  0-non 1-charg 2-wave 3-comb
   ISYM   =      2    0-nonsym 1-usesym 2-fastsym
   LCORR  =      T    Harris-Foulkes like correction to forces

   POTIM  = 0.5000    time-step for ionic-motion
   TEIN   =    0.0    initial temperature
   TEBEG  =    0.0;   TEEND  =   0.0 temperature during run
   SMASS  =  -3.00    Nose mass-parameter (am)
   estimated Nose-frequenzy (Omega)   =  0.10E-29 period in steps =****** mass=  -0.526E-27a.u.
   SCALEE = 1.0000    scale energy and forces
   NPACO  =    256;   APACO  = 16.0  distance and # of slots for P.C.
   PSTRESS=    0.0 pullay stress

  Mass of Ions in am
   POMASS =  54.94 19.00
  Ionic Valenz
   ZVAL   =  13.00  7.00
  Atomic Wigner-Seitz radii
   RWIGS  =  -1.00 -1.00
  virtual crystal weights 
   VCA    =   1.00  1.00
   NELECT =      54.0000    total number of electrons
   NUPDOWN=      -1.0000    fix difference up-down

 DOS related values:
   EMIN   =  10.00;   EMAX   =-10.00  energy-range for DOS
   EFERMI =   0.00
   ISMEAR =     0;   SIGMA  =   0.02  broadening in eV -4-tet -1-fermi 0-gaus

 Electronic relaxation 2 (details)
   IALGO  =     38    algorithm
   LDIAG  =      T    sub-space diagonalisation (order eigenvalues)
   LSUBROT=      F    optimize rotation matrix (better conditioning)
   TURBO    =      0    0=normal 1=particle mesh
   IRESTART =      0    0=no restart 2=restart with 2 vectors
   NREBOOT  =      0    no. of reboots
   NMIN     =      0    reboot dimension
   EREF     =   0.00    reference energy to select bands
   IMIX   =      4    mixing-type and parameters
     AMIX     =   0.40;   BMIX     =  1.00
     AMIX_MAG =   1.60;   BMIX_MAG =  1.00
     AMIN     =   0.10
     WC   =   100.;   INIMIX=   1;  MIXPRE=   1;  MAXMIX= -45

 Intra band minimization:
   WEIMIN = 0.0010     energy-eigenvalue tresh-hold
   EBREAK =  0.69E-09  absolut break condition
   DEPER  =   0.30     relativ break condition  

   TIME   =   0.40     timestep for ELM

  volume/ion in A,a.u.               =      12.45        84.02
  Fermi-wavevector in a.u.,A,eV,Ry     =   1.469238  2.776458 29.370375  2.158662
  Thomas-Fermi vector in A             =   2.584640
 
 Write flags
   LWAVE        =      F    write WAVECAR
   LDOWNSAMPLE  =      F    k-point downsampling of WAVECAR
   LCHARG       =      F    write CHGCAR
   LVTOT        =      F    write LOCPOT, total local potential
   LVHAR        =      F    write LOCPOT, Hartree potential only
   LELF         =      F    write electronic localiz. function (ELF)
   LORBIT       =     11    0 simple, 1 ext, 2 COOP (PROOUT), +10 PAW based schemes


 Dipole corrections
   LMONO  =      F    monopole corrections only (constant potential shift)
   LDIPOL =      F    correct potential (dipole corrections)
   IDIPOL =      0    1-x, 2-y, 3-z, 4-all directions 
   EPSILON=  1.0000000 bulk dielectric constant

 LDA+U is selected, type is set to LDAUTYPE =  2
   angular momentum for each species LDAUL =     2   -1
   U (eV)           for each species LDAUU =   4.0  0.0
   J (eV)           for each species LDAUJ =   0.0  0.0
 Exchange correlation treatment:
   GGA     =    --    GGA type
   LEXCH   =     2    internal setting for exchange type
   VOSKOWN=      0    Vosko Wilk Nusair interpolation
   LHFCALC =     F    Hartree Fock is set to
   LHFONE  =     F    Hartree Fock one center treatment
   AEXX    =    0.0000 exact exchange contribution

 Linear response parameters
   LEPSILON=     F    determine dielectric tensor
   LRPA    =     F    only Hartree local field effects (RPA)
   LNABLA  =     F    use nabla operator in PAW spheres
   LVEL    =     F    velocity operator in full k-point grid
   LINTERFAST=   F  fast interpolation
   KINTER  =     0    interpolate to denser k-point grid
   CSHIFT  =0.1000    complex shift for real part using Kramers Kronig
   OMEGAMAX=  -1.0    maximum frequency
   DEG_THRESHOLD= 0.2000000E-02 threshold for treating states as degnerate
   RTIME   =   -0.100 relaxation time in fs
  (WPLASMAI=    0.000 imaginary part of plasma frequency in eV, 0.658/RTIME)
   DFIELD  = 0.0000000 0.0000000 0.0000000 field for delta impulse in time
 
 Orbital magnetization related:
   ORBITALMAG=     F  switch on orbital magnetization
   LCHIMAG   =     F  perturbation theory with respect to B field
   DQ        =  0.001000  dq finite difference perturbation B field
   LLRAUG    =     F  two centre corrections for induced B field



--------------------------------------------------------------------------------------------------------


 conjugate gradient relaxation of ions
 charge density and potential will be updated during run
 spin polarized calculation
 Variant of blocked Davidson
 Davidson routine will perform the subspace rotation
 perform sub-space diagonalisation
    after iterative eigenvector-optimisation
 modified Broyden-mixing scheme, WC =      100.0
 initial mixing is a Kerker type mixing with AMIX =  0.4000 and BMIX =      1.0000
 Hartree-type preconditioning will be used
 using additional bands            9
 reciprocal scheme for non local part
 use partial core corrections
 calculate Harris-corrections to forces 
   (improved forces if not selfconsistent)
 use of overlap-Matrix (Vanderbilt PP)
 Gauss-broadening in eV      SIGMA  =   0.02


--------------------------------------------------------------------------------------------------------


  energy-cutoff  :      500.00
  volume of cell :       74.70
      direct lattice vectors                 reciprocal lattice vectors
     4.795904286  0.000000000  0.000000000     0.208511251  0.000000000  0.000000000
     0.000000000  4.795904286  0.000000000     0.000000000  0.208511251  0.000000000
     0.000000000  0.000000000  3.247883034     0.000000000  0.000000000  0.307892861

  length of vectors
     4.795904286  4.795904286  3.247883034     0.208511251  0.208511251  0.307892861


 
 k-points in units of 2pi/SCALE and weight: KPOINTS created by Atomic Simulation Env
   0.02606391  0.02606391  0.02565774       0.083
   0.07819172  0.02606391  0.02565774       0.167
   0.07819172  0.07819172  0.02565774       0.083
   0.02606391  0.02606391  0.07697322       0.083
   0.07819172  0.02606391  0.07697322       0.167
   0.07819172  0.07819172  0.07697322       0.083
   0.02606391  0.02606391  0.12828869       0.083
   0.07819172  0.02606391  0.12828869       0.167
   0.07819172  0.07819172  0.12828869       0.083
 
 k-points in reciprocal lattice and weights: KPOINTS created by Atomic Simulation Env
   0.12500000  0.12500000  0.08333333       0.083
   0.37500000  0.12500000  0.08333333       0.167
   0.37500000  0.37500000  0.08333333       0.083
   0.12500000  0.12500000  0.25000000       0.083
   0.37500000  0.12500000  0.25000000       0.167
   0.37500000  0.37500000  0.25000000       0.083
   0.12500000  0.12500000  0.41666667       0.083
   0.37500000  0.12500000  0.41666667       0.167
   0.37500000  0.37500000  0.41666667       0.083
 
 position of ions in fractional coordinates (direct lattice) 
   0.50000000  0.50000000  0.50000000
   0.00000000  0.00000000  0.00000000
   0.19593145  0.80406855  0.50000000
   0.80406855  0.19593145  0.50000000
   0.30406855  0.30406855  0.00000000
   0.69593145  0.69593145  0.00000000
 
 position of ions in cartesian coordinates  (Angst):
   2.39795214  2.39795214  1.62394152
   0.00000000  0.00000000  0.00000000
   0.93966849  3.85623580  1.62394152
   3.85623580  0.93966849  1.62394152
   1.45828365  1.45828365  0.00000000
   3.33762063  3.33762063  0.00000000
 


--------------------------------------------------------------------------------------------------------


 k-point  1 :   0.1250 0.1250 0.0833  plane waves:    1898
 k-point  2 :   0.3750 0.1250 0.0833  plane waves:    1888
 k-point  3 :   0.3750 0.3750 0.0833  plane waves:    1881
 k-point  4 :   0.1250 0.1250 0.2500  plane waves:    1894
 k-point  5 :   0.3750 0.1250 0.2500  plane waves:    1898
 k-point  6 :   0.3750 0.3750 0.2500  plane waves:    1900
 k-point  7 :   0.1250 0.1250 0.4167  plane waves:    1895
 k-point  8 :   0.3750 0.1250 0.4167  plane waves:    1905
 k-point  9 :   0.3750 0.3750 0.4167  plane waves:    1906

 maximum and minimum number of plane-waves per node :      1906     1881

 maximum number of plane-waves:      1906
 maximum index in each direction: 
   IXMAX=    8   IYMAX=    8   IZMAX=    5
   IXMIN=   -9   IYMIN=   -9   IZMIN=   -6


 serial   3D FFT for wavefunctions
 parallel 3D FFT for charge:
    minimum data exchange during FFTs selected (reduces bandwidth)


 total amount of memory used by VASP MPI-rank0    40571. kBytes
=======================================================================

   base      :      30000. kBytes
   nonl-proj :       5128. kBytes
   fftplans  :       1551. kBytes
   grid      :       1996. kBytes
   one-center:        186. kBytes
   wavefun   :       1710. kBytes
 
     INWAV:  cpu time    0.0000: real time    0.0000
 Broyden mixing: mesh for mixing (old mesh)
   NGX = 17   NGY = 17   NGZ = 11
  (NGX  = 56   NGY  = 56   NGZ  = 36)
  gives a total of   3179 points

 initial charge density was supplied:
 charge density of overlapping atoms calculated
 number of electron      54.0000000 magnetization       0.0000000
 keeping initial charge density in first step


--------------------------------------------------------------------------------------------------------


 Maximum index for augmentation-charges         4718 (set IRDMAX)


--------------------------------------------------------------------------------------------------------


 First call to EWALD:  gamma=   0.421
 Maximum number of real-space cells 2x 2x 3
 Maximum number of reciprocal cells 3x 3x 2

    FEWALD:  cpu time    0.0010: real time    0.0010


--------------------------------------- Iteration      1(   1)  ---------------------------------------


    POTLOK:  cpu time    0.0059: real time    0.0059
    SETDIJ:  cpu time    0.4241: real time    0.4241
atom =   1  type =  1  l = 2
 
 onsite density matrix
 
spin component  1
 
  0.2837  0.0000  0.0000  0.0000  0.0000
  0.0000  0.2837  0.0000  0.0000  0.0000
  0.0000  0.0000  0.2837  0.0000  0.0000
  0.0000  0.0000  0.0000  0.2837  0.0000
  0.0000  0.0000  0.0000  0.0000  0.2837
 
spin component  2
 
  0.7701  0.0000  0.0000  0.0000  0.0000
  0.0000  0.7701  0.0000  0.0000  0.0000
  0.0000  0.0000  0.7701  0.0000  0.0000
  0.0000  0.0000  0.0000  0.7701  0.0000
  0.0000  0.0000  0.0000  0.0000  0.7701
 
 occupancies and eigenvectors
 
  o =  0.2837  v =  1.0000  0.0000  0.0000  0.0000  0.0000  0.0000  0.0000  0.0000  0.0000  0.0000      0.0000  0.0000  0.0000  0.0000  0.0000  0.0000  0.0000  0.0000  0.0000  0.0000
  o =  0.2837  v =  0.0000  1.0000  0.0000  0.0000  0.0000  0.0000  0.0000  0.0000  0.0000  0.0000      0.0000  0.0000  0.0000  0.0000  0.0000  0.0000  0.0000  0.0000  0.0000  0.0000
  o =  0.2837  v =  0.0000  0.0000  1.0000  0.0000  0.0000  0.0000  0.0000  0.0000  0.0000  0.0000      0.0000  0.0000  0.0000  0.0000  0.0000  0.0000  0.0000  0.0000  0.0000  0.0000
  o =  0.2837  v =  0.0000  0.0000  0.0000  1.0000  0.0000  0.0000  0.0000  0.0000  0.0000  0.0000      0.0000  0.0000  0.0000  0.0000  0.0000  0.0000  0.0000  0.0000  0.0000  0.0000
  o =  0.2837  v =  0.0000  0.0000  0.0000  0.0000  1.0000  0.0000  0.0000  0.0000  0.0000  0.0000      0.0000  0.0000  0.0000  0.0000  0.0000  0.0000  0.0000  0.0000  0.0000  0.0000
  o =  0.7701  v =  0.0000  0.0000  0.0000  0.0000  0.0000  1.0000  0.0000  0.0000  0.0000  0.0000      0.0000  0.0000  0.0000  0.0000  0.0000  0.0000  0.0000  0.0000  0.0000  0.0000
  o =  0.7701  v =  0.0000  0.0000  0.0000  0.0000  0.0000  0.0000  1.0000  0.0000  0.0000  0.0000      0.0000  0.0000  0.0000  0.0000  0.0000  0.0000  0.0000  0.0000  0.0000  0.0000
  o =  0.7701  v =  0.0000  0.0000  0.0000  0.0000  0.0000  0.0000  0.0000  1.0000  0.0000  0.0000      0.0000  0.0000  0.0000  0.0000  0.0000  0.0000  0.0000  0.0000  0.0000  0.0000
  o =  0.7701  v =  0.0000  0.0000  0.0000  0.0000  0.0000  0.0000  0.0000  0.0000  1.0000  0.0000      0.0000  0.0000  0.0000  0.0000  0.0000  0.0000  0.0000  0.0000  0.0000  0.0000
  o =  0.7701  v =  0.0000  0.0000  0.0000  0.0000  0.0000  0.0000  0.0000  0.0000  0.0000  1.0000      0.0000  0.0000  0.0000  0.0000  0.0000  0.0000  0.0000  0.0000  0.0000  0.0000
atom =   2  type =  1  l = 2
 
 onsite density matrix
 
spin component  1
 
  0.7701  0.0000  0.0000  0.0000  0.0000
  0.0000  0.7701  0.0000  0.0000  0.0000
  0.0000  0.0000  0.7701  0.0000  0.0000
  0.0000  0.0000  0.0000  0.7701  0.0000
  0.0000  0.0000  0.0000  0.0000  0.7701
 
spin component  2
 
  0.2837  0.0000  0.0000  0.0000  0.0000
  0.0000  0.2837  0.0000  0.0000  0.0000
  0.0000  0.0000  0.2837  0.0000  0.0000
  0.0000  0.0000  0.0000  0.2837  0.0000
  0.0000  0.0000  0.0000  0.0000  0.2837
 
 occupancies and eigenvectors
 
  o =  0.2837  v =  0.0000  0.0000  0.0000  0.0000  0.0000  1.0000  0.0000  0.0000  0.0000  0.0000      0.0000  0.0000  0.0000  0.0000  0.0000  0.0000  0.0000  0.0000  0.0000  0.0000
  o =  0.2837  v =  0.0000  0.0000  0.0000  0.0000  0.0000  0.0000  1.0000  0.0000  0.0000  0.0000      0.0000  0.0000  0.0000  0.0000  0.0000  0.0000  0.0000  0.0000  0.0000  0.0000
  o =  0.2837  v =  0.0000  0.0000  0.0000  0.0000  0.0000  0.0000  0.0000  1.0000  0.0000  0.0000      0.0000  0.0000  0.0000  0.0000  0.0000  0.0000  0.0000  0.0000  0.0000  0.0000
  o =  0.2837  v =  0.0000  0.0000  0.0000  0.0000  0.0000  0.0000  0.0000  0.0000  1.0000  0.0000      0.0000  0.0000  0.0000  0.0000  0.0000  0.0000  0.0000  0.0000  0.0000  0.0000
  o =  0.2837  v =  0.0000  0.0000  0.0000  0.0000  0.0000  0.0000  0.0000  0.0000  0.0000  1.0000      0.0000  0.0000  0.0000  0.0000  0.0000  0.0000  0.0000  0.0000  0.0000  0.0000
  o =  0.7701  v =  1.0000  0.0000  0.0000  0.0000  0.0000  0.0000  0.0000  0.0000  0.0000  0.0000      0.0000  0.0000  0.0000  0.0000  0.0000  0.0000  0.0000  0.0000  0.0000  0.0000
  o =  0.7701  v =  0.0000  1.0000  0.0000  0.0000  0.0000  0.0000  0.0000  0.0000  0.0000  0.0000      0.0000  0.0000  0.0000  0.0000  0.0000  0.0000  0.0000  0.0000  0.0000  0.0000
  o =  0.7701  v =  0.0000  0.0000  1.0000  0.0000  0.0000  0.0000  0.0000  0.0000  0.0000  0.0000      0.0000  0.0000  0.0000  0.0000  0.0000  0.0000  0.0000  0.0000  0.0000  0.0000
  o =  0.7701  v =  0.0000  0.0000  0.0000  1.0000  0.0000  0.0000  0.0000  0.0000  0.0000  0.0000      0.0000  0.0000  0.0000  0.0000  0.0000  0.0000  0.0000  0.0000  0.0000  0.0000
  o =  0.7701  v =  0.0000  0.0000  0.0000  0.0000  1.0000  0.0000  0.0000  0.0000  0.0000  0.0000      0.0000  0.0000  0.0000  0.0000  0.0000  0.0000  0.0000  0.0000  0.0000  0.0000
     EDDAV:  cpu time    0.2667: real time    0.2875
       DOS:  cpu time    0.0004: real time    0.0004
    --------------------------------------------
      LOOP:  cpu time    0.6971: real time    0.7178

 eigenvalue-minimisations  :  1296
 total energy-change (2. order) : 0.6225378E+03  (-0.3128882E+04)
 number of electron      54.0000000 magnetization      -0.0000000
 augmentation part       54.0000000 magnetization      -0.0000000

 Free energy of the ion-electron system (eV)
  ---------------------------------------------------
  alpha Z        PSCENC =       203.95051221
  Ewald energy   TEWEN  =     -4253.05950503
  -Hartree energ DENC   =     -2091.75274382
  -exchange      EXHF   =         0.00000000
  -V(xc)+E(xc)   XCENC  =       295.21113917
  PAW double counting   =      5431.03059579    -5549.10764102
  entropy T*S    EENTRO =        -0.00068044
  eigenvalues    EBANDS =      -103.15024285
  atomic energy  EATOM  =      6689.41641552
  Solvation  Ediel_sol  =         0.00000000
  ---------------------------------------------------
  free energy    TOTEN  =       622.53784954 eV

  energy without entropy =      622.53852998  energy(sigma->0) =      622.53818976


--------------------------------------------------------------------------------------------------------




--------------------------------------- Iteration      1(   2)  ---------------------------------------


     EDDAV:  cpu time    0.2873: real time    0.2873
       DOS:  cpu time    0.0002: real time    0.0002
    --------------------------------------------
      LOOP:  cpu time    0.2875: real time    0.2875

 eigenvalue-minimisations  :  1452
 total energy-change (2. order) :-0.6197424E+03  (-0.6028423E+03)
 number of electron      54.0000000 magnetization      -0.0000000
 augmentation part       54.0000000 magnetization      -0.0000000

 Free energy of the ion-electron system (eV)
  ---------------------------------------------------
  alpha Z        PSCENC =       203.95051221
  Ewald energy   TEWEN  =     -4253.05950503
  -Hartree energ DENC   =     -2091.75274382
  -exchange      EXHF   =         0.00000000
  -V(xc)+E(xc)   XCENC  =       295.21113917
  PAW double counting   =      5431.03059579    -5549.10764102
  entropy T*S    EENTRO =        -0.00000000
  eigenvalues    EBANDS =      -722.89335998
  atomic energy  EATOM  =      6689.41641552
  Solvation  Ediel_sol  =         0.00000000
  ---------------------------------------------------
  free energy    TOTEN  =         2.79541286 eV

  energy without entropy =        2.79541286  energy(sigma->0) =        2.79541286


--------------------------------------------------------------------------------------------------------




--------------------------------------- Iteration      1(   3)  ---------------------------------------


     EDDAV:  cpu time    0.3080: real time    0.3080
       DOS:  cpu time    0.0002: real time    0.0002
    --------------------------------------------
      LOOP:  cpu time    0.3082: real time    0.3082

 eigenvalue-minimisations  :  1548
 total energy-change (2. order) :-0.4364844E+02  (-0.4347169E+02)
 number of electron      54.0000000 magnetization      -0.0000000
 augmentation part       54.0000000 magnetization      -0.0000000

 Free energy of the ion-electron system (eV)
  ---------------------------------------------------
  alpha Z        PSCENC =       203.95051221
  Ewald energy   TEWEN  =     -4253.05950503
  -Hartree energ DENC   =     -2091.75274382
  -exchange      EXHF   =         0.00000000
  -V(xc)+E(xc)   XCENC  =       295.21113917
  PAW double counting   =      5431.03059579    -5549.10764102
  entropy T*S    EENTRO =        -0.00000000
  eigenvalues    EBANDS =      -766.54180389
  atomic energy  EATOM  =      6689.41641552
  Solvation  Ediel_sol  =         0.00000000
  ---------------------------------------------------
  free energy    TOTEN  =       -40.85303106 eV

  energy without entropy =      -40.85303106  energy(sigma->0) =      -40.85303106


--------------------------------------------------------------------------------------------------------




--------------------------------------- Iteration      1(   4)  ---------------------------------------


     EDDAV:  cpu time    0.2874: real time    0.2874
       DOS:  cpu time    0.0002: real time    0.0002
    --------------------------------------------
      LOOP:  cpu time    0.2876: real time    0.2876

 eigenvalue-minimisations  :  1440
 total energy-change (2. order) :-0.5512072E+00  (-0.5511022E+00)
 number of electron      54.0000000 magnetization      -0.0000000
 augmentation part       54.0000000 magnetization      -0.0000000

 Free energy of the ion-electron system (eV)
  ---------------------------------------------------
  alpha Z        PSCENC =       203.95051221
  Ewald energy   TEWEN  =     -4253.05950503
  -Hartree energ DENC   =     -2091.75274382
  -exchange      EXHF   =         0.00000000
  -V(xc)+E(xc)   XCENC  =       295.21113917
  PAW double counting   =      5431.03059579    -5549.10764102
  entropy T*S    EENTRO =        -0.00000000
  eigenvalues    EBANDS =      -767.09301111
  atomic energy  EATOM  =      6689.41641552
  Solvation  Ediel_sol  =         0.00000000
  ---------------------------------------------------
  free energy    TOTEN  =       -41.40423828 eV

  energy without entropy =      -41.40423828  energy(sigma->0) =      -41.40423828


--------------------------------------------------------------------------------------------------------




--------------------------------------- Iteration      1(   5)  ---------------------------------------


     EDDAV:  cpu time    0.3130: real time    0.3130
       DOS:  cpu time    0.0002: real time    0.0002
    CHARGE:  cpu time    0.0281: real time    0.0281
    MIXING:  cpu time    0.0004: real time    0.0004
    --------------------------------------------
      LOOP:  cpu time    0.3417: real time    0.3417

 eigenvalue-minimisations  :  1572
 total energy-change (2. order) :-0.8668210E-02  (-0.8667979E-02)
 number of electron      53.9999995 magnetization       0.0000000
 augmentation part       20.1243603 magnetization       0.0000000

 Broyden mixing:
  rms(total) = 0.24772E+01    rms(broyden)= 0.24770E+01
  rms(prec ) = 0.32119E+01
  weight for this iteration     100.00

 Free energy of the ion-electron system (eV)
  ---------------------------------------------------
  alpha Z        PSCENC =       203.95051221
  Ewald energy   TEWEN  =     -4253.05950503
  -Hartree energ DENC   =     -2091.75274382
  -exchange      EXHF   =         0.00000000
  -V(xc)+E(xc)   XCENC  =       295.21113917
  PAW double counting   =      5431.03059579    -5549.10764102
  entropy T*S    EENTRO =        -0.00000000
  eigenvalues    EBANDS =      -767.10167932
  atomic energy  EATOM  =      6689.41641552
  Solvation  Ediel_sol  =         0.00000000
  ---------------------------------------------------
  free energy    TOTEN  =       -41.41290649 eV

  energy without entropy =      -41.41290649  energy(sigma->0) =      -41.41290649


--------------------------------------------------------------------------------------------------------




--------------------------------------- Iteration      1(   6)  ---------------------------------------


    POTLOK:  cpu time    0.0041: real time    0.0041
    SETDIJ:  cpu time    0.2258: real time    0.2258
atom =   1  type =  1  l = 2
 
 onsite density matrix
 
spin component  1
 
 -0.0728  0.0000  0.0050  0.0000 -0.0000
  0.0000 -0.0763  0.0000  0.0034  0.0000
  0.0050  0.0000 -0.0740  0.0000  0.0000
  0.0000  0.0034  0.0000 -0.0763  0.0000
 -0.0000  0.0000  0.0000  0.0000 -0.0828
 
spin component  2
 
  1.1007  0.0000  0.0137  0.0000  0.0000
  0.0000  1.0985  0.0000  0.0123  0.0000
  0.0137  0.0000  1.0919  0.0000 -0.0000
  0.0000  0.0123  0.0000  1.0985  0.0000
  0.0000  0.0000 -0.0000  0.0000  1.0886
 
 occupancies and eigenvectors
 
  o = -0.0828  v =  0.0000  0.0000 -0.0000 -0.0000  1.0000  0.0000  0.0000  0.0000  0.0000  0.0000      0.0000  0.0000  0.0000  0.0000  0.0000  0.0000  0.0000  0.0000  0.0000  0.0000
  o = -0.0797  v = -0.0000 -0.7071  0.0000  0.7071  0.0000  0.0000  0.0000  0.0000  0.0000  0.0000      0.0000  0.0000  0.0000  0.0000  0.0000  0.0000  0.0000  0.0000  0.0000  0.0000
  o = -0.0784  v =  0.6619 -0.0000 -0.7496  0.0000 -0.0000  0.0000  0.0000  0.0000  0.0000  0.0000      0.0000  0.0000  0.0000  0.0000  0.0000  0.0000  0.0000  0.0000  0.0000  0.0000
  o = -0.0730  v = -0.0000  0.7071 -0.0000  0.7071 -0.0000  0.0000  0.0000  0.0000  0.0000  0.0000      0.0000  0.0000  0.0000  0.0000  0.0000  0.0000  0.0000  0.0000  0.0000  0.0000
  o = -0.0684  v =  0.7496  0.0000  0.6619  0.0000  0.0000  0.0000  0.0000  0.0000  0.0000  0.0000      0.0000  0.0000  0.0000  0.0000  0.0000  0.0000  0.0000  0.0000  0.0000  0.0000
  o =  1.0819  v =  0.0000  0.0000  0.0000  0.0000  0.0000 -0.5887  0.0000  0.8083 -0.0000  0.0000      0.0000  0.0000  0.0000  0.0000  0.0000  0.0000  0.0000  0.0000  0.0000  0.0000
  o =  1.0863  v =  0.0000  0.0000  0.0000  0.0000  0.0000 -0.0000 -0.7071  0.0000  0.7071  0.0000      0.0000  0.0000  0.0000  0.0000  0.0000  0.0000  0.0000  0.0000  0.0000  0.0000
  o =  1.0886  v =  0.0000  0.0000  0.0000  0.0000  0.0000  0.0000  0.0000 -0.0000 -0.0000  1.0000      0.0000  0.0000  0.0000  0.0000  0.0000  0.0000  0.0000  0.0000  0.0000  0.0000
  o =  1.1107  v =  0.0000  0.0000  0.0000  0.0000  0.0000 -0.8083 -0.0000 -0.5887 -0.0000  0.0000      0.0000  0.0000  0.0000  0.0000  0.0000  0.0000  0.0000  0.0000  0.0000  0.0000
  o =  1.1108  v =  0.0000  0.0000  0.0000  0.0000  0.0000  0.0000 -0.7071  0.0000 -0.7071 -0.0000      0.0000  0.0000  0.0000  0.0000  0.0000  0.0000  0.0000  0.0000  0.0000  0.0000
atom =   2  type =  1  l = 2
 
 onsite density matrix
 
spin component  1
 
  1.1007  0.0000 -0.0137  0.0000 -0.0000
  0.0000  1.0985  0.0000 -0.0123  0.0000
 -0.0137  0.0000  1.0919  0.0000  0.0000
  0.0000 -0.0123  0.0000  1.0985  0.0000
 -0.0000  0.0000  0.0000  0.0000  1.0886
 
spin component  2
 
 -0.0728  0.0000 -0.0050  0.0000  0.0000
  0.0000 -0.0763  0.0000 -0.0034  0.0000
 -0.0050  0.0000 -0.0740  0.0000 -0.0000
  0.0000 -0.0034  0.0000 -0.0763  0.0000
  0.0000  0.0000 -0.0000  0.0000 -0.0828
 
 occupancies and eigenvectors
 
  o = -0.0828  v =  0.0000  0.0000  0.0000  0.0000  0.0000  0.0000 -0.0000  0.0000 -0.0000  1.0000      0.0000  0.0000  0.0000  0.0000  0.0000  0.0000  0.0000  0.0000  0.0000  0.0000
  o = -0.0797  v =  0.0000  0.0000  0.0000  0.0000  0.0000  0.0000  0.7071  0.0000  0.7071  0.0000      0.0000  0.0000  0.0000  0.0000  0.0000  0.0000  0.0000  0.0000  0.0000  0.0000
  o = -0.0784  v =  0.0000  0.0000  0.0000  0.0000  0.0000  0.6619 -0.0000  0.7496 -0.0000 -0.0000      0.0000  0.0000  0.0000  0.0000  0.0000  0.0000  0.0000  0.0000  0.0000  0.0000
  o = -0.0730  v =  0.0000  0.0000  0.0000  0.0000  0.0000  0.0000 -0.7071  0.0000  0.7071 -0.0000      0.0000  0.0000  0.0000  0.0000  0.0000  0.0000  0.0000  0.0000  0.0000  0.0000
  o = -0.0684  v =  0.0000  0.0000  0.0000  0.0000  0.0000  0.7496  0.0000 -0.6619 -0.0000  0.0000      0.0000  0.0000  0.0000  0.0000  0.0000  0.0000  0.0000  0.0000  0.0000  0.0000
  o =  1.0819  v = -0.5887  0.0000 -0.8083  0.0000  0.0000  0.0000  0.0000  0.0000  0.0000  0.0000      0.0000  0.0000  0.0000  0.0000  0.0000  0.0000  0.0000  0.0000  0.0000  0.0000
  o =  1.0863  v = -0.0000 -0.7071 -0.0000 -0.7071  0.0000  0.0000  0.0000  0.0000  0.0000  0.0000      0.0000  0.0000  0.0000  0.0000  0.0000  0.0000  0.0000  0.0000  0.0000  0.0000
  o =  1.0886  v =  0.0000  0.0000  0.0000  0.0000  1.0000  0.0000  0.0000  0.0000  0.0000  0.0000      0.0000  0.0000  0.0000  0.0000  0.0000  0.0000  0.0000  0.0000  0.0000  0.0000
  o =  1.1107  v = -0.8083 -0.0000  0.5887  0.0000  0.0000  0.0000  0.0000  0.0000  0.0000  0.0000      0.0000  0.0000  0.0000  0.0000  0.0000  0.0000  0.0000  0.0000  0.0000  0.0000
  o =  1.1108  v =  0.0000 -0.7071 -0.0000  0.7071 -0.0000  0.0000  0.0000  0.0000  0.0000  0.0000      0.0000  0.0000  0.0000  0.0000  0.0000  0.0000  0.0000  0.0000  0.0000  0.0000
     EDDAV:  cpu time    0.3181: real time    0.3181
       DOS:  cpu time    0.0002: real time    0.0002
    CHARGE:  cpu time    0.0279: real time    0.0279
    MIXING:  cpu time    0.0004: real time    0.0004
    --------------------------------------------
      LOOP:  cpu time    0.5765: real time    0.5766

 eigenvalue-minimisations  :  1620
 total energy-change (2. order) : 0.2082899E+01  (-0.1568730E+01)
 number of electron      53.9999996 magnetization      -0.0000000
 augmentation part       19.9739137 magnetization      -0.0000000

 Broyden mixing:
  rms(total) = 0.15930E+01    rms(broyden)= 0.15928E+01
  rms(prec ) = 0.16422E+01
  weight for this iteration     100.00

 eigenvalues of (default mixing * dielectric matrix)
  average eigenvalue GAMMA=   0.8130
  0.8130

 Free energy of the ion-electron system (eV)
  ---------------------------------------------------
  alpha Z        PSCENC =       203.95051221
  Ewald energy   TEWEN  =     -4253.05950503
  -Hartree energ DENC   =     -2114.63884878
  -exchange      EXHF   =         0.00000000
  -V(xc)+E(xc)   XCENC  =       295.83147320
  PAW double counting   =      5725.25218988    -5834.91719722
  entropy T*S    EENTRO =        -0.00000000
  eigenvalues    EBANDS =      -751.16504740
  atomic energy  EATOM  =      6689.41641552
  Solvation  Ediel_sol  =         0.00000000
  ---------------------------------------------------
  free energy    TOTEN  =       -39.33000762 eV

  energy without entropy =      -39.33000762  energy(sigma->0) =      -39.33000762


--------------------------------------------------------------------------------------------------------




--------------------------------------- Iteration      1(   7)  ---------------------------------------


    POTLOK:  cpu time    0.0040: real time    0.0040
    SETDIJ:  cpu time    0.2259: real time    0.2259
atom =   1  type =  1  l = 2
 
 onsite density matrix
 
spin component  1
 
  0.1244  0.0000  0.0222  0.0000  0.0000
  0.0000  0.1173  0.0000  0.0184  0.0000
  0.0222  0.0000  0.1119  0.0000 -0.0000
  0.0000  0.0184  0.0000  0.1173  0.0000
  0.0000  0.0000 -0.0000  0.0000  0.0978
 
spin component  2
 
  0.8990  0.0000  0.0074  0.0000 -0.0000
  0.0000  0.8969  0.0000  0.0064  0.0000
  0.0074  0.0000  0.8953  0.0000  0.0000
  0.0000  0.0064  0.0000  0.8969  0.0000
 -0.0000  0.0000  0.0000  0.0000  0.8901
 
 occupancies and eigenvectors
 
  o =  0.0951  v = -0.6041 -0.0000  0.7969  0.0000  0.0000  0.0000  0.0000  0.0000  0.0000  0.0000      0.0000  0.0000  0.0000  0.0000  0.0000  0.0000  0.0000  0.0000  0.0000  0.0000
  o =  0.0978  v = -0.0000  0.0000  0.0000 -0.0000 -1.0000  0.0000  0.0000  0.0000  0.0000  0.0000      0.0000  0.0000  0.0000  0.0000  0.0000  0.0000  0.0000  0.0000  0.0000  0.0000
  o =  0.0990  v = -0.0000 -0.7071  0.0000  0.7071 -0.0000  0.0000  0.0000  0.0000  0.0000  0.0000      0.0000  0.0000  0.0000  0.0000  0.0000  0.0000  0.0000  0.0000  0.0000  0.0000
  o =  0.1357  v =  0.0000  0.7071  0.0000  0.7071  0.0000  0.0000  0.0000  0.0000  0.0000  0.0000      0.0000  0.0000  0.0000  0.0000  0.0000  0.0000  0.0000  0.0000  0.0000  0.0000
  o =  0.1412  v = -0.7969  0.0000 -0.6041  0.0000  0.0000  0.0000  0.0000  0.0000  0.0000  0.0000      0.0000  0.0000  0.0000  0.0000  0.0000  0.0000  0.0000  0.0000  0.0000  0.0000
  o =  0.8895  v =  0.0000  0.0000  0.0000  0.0000  0.0000 -0.6136  0.0000  0.7896  0.0000 -0.0000      0.0000  0.0000  0.0000  0.0000  0.0000  0.0000  0.0000  0.0000  0.0000  0.0000
  o =  0.8901  v =  0.0000  0.0000  0.0000  0.0000  0.0000  0.0000  0.0000  0.0000  0.0000  1.0000      0.0000  0.0000  0.0000  0.0000  0.0000  0.0000  0.0000  0.0000  0.0000  0.0000
  o =  0.8904  v =  0.0000  0.0000  0.0000  0.0000  0.0000  0.0000  0.7071  0.0000 -0.7071 -0.0000      0.0000  0.0000  0.0000  0.0000  0.0000  0.0000  0.0000  0.0000  0.0000  0.0000
  o =  0.9033  v =  0.0000  0.0000  0.0000  0.0000  0.0000  0.0000  0.7071  0.0000  0.7071 -0.0000      0.0000  0.0000  0.0000  0.0000  0.0000  0.0000  0.0000  0.0000  0.0000  0.0000
  o =  0.9048  v =  0.0000  0.0000  0.0000  0.0000  0.0000 -0.7896  0.0000 -0.6136  0.0000  0.0000      0.0000  0.0000  0.0000  0.0000  0.0000  0.0000  0.0000  0.0000  0.0000  0.0000
atom =   2  type =  1  l = 2
 
 onsite density matrix
 
spin component  1
 
  0.8990  0.0000 -0.0074  0.0000  0.0000
  0.0000  0.8969  0.0000 -0.0064  0.0000
 -0.0074  0.0000  0.8953  0.0000 -0.0000
  0.0000 -0.0064  0.0000  0.8969  0.0000
  0.0000  0.0000 -0.0000  0.0000  0.8901
 
spin component  2
 
  0.1244  0.0000 -0.0222  0.0000 -0.0000
  0.0000  0.1173  0.0000 -0.0184  0.0000
 -0.0222  0.0000  0.1119  0.0000  0.0000
  0.0000 -0.0184  0.0000  0.1173  0.0000
 -0.0000  0.0000  0.0000  0.0000  0.0978
 
 occupancies and eigenvectors
 
  o =  0.0951  v =  0.0000  0.0000  0.0000  0.0000  0.0000 -0.6041 -0.0000 -0.7969 -0.0000  0.0000      0.0000  0.0000  0.0000  0.0000  0.0000  0.0000  0.0000  0.0000  0.0000  0.0000
  o =  0.0978  v =  0.0000  0.0000  0.0000  0.0000  0.0000 -0.0000  0.0000 -0.0000  0.0000 -1.0000      0.0000  0.0000  0.0000  0.0000  0.0000  0.0000  0.0000  0.0000  0.0000  0.0000
  o =  0.0990  v =  0.0000  0.0000  0.0000  0.0000  0.0000 -0.0000 -0.7071 -0.0000 -0.7071 -0.0000      0.0000  0.0000  0.0000  0.0000  0.0000  0.0000  0.0000  0.0000  0.0000  0.0000
  o =  0.1357  v =  0.0000  0.0000  0.0000  0.0000  0.0000  0.0000  0.7071 -0.0000 -0.7071  0.0000      0.0000  0.0000  0.0000  0.0000  0.0000  0.0000  0.0000  0.0000  0.0000  0.0000
  o =  0.1412  v =  0.0000  0.0000  0.0000  0.0000  0.0000 -0.7969  0.0000  0.6041 -0.0000  0.0000      0.0000  0.0000  0.0000  0.0000  0.0000  0.0000  0.0000  0.0000  0.0000  0.0000
  o =  0.8895  v = -0.6136  0.0000 -0.7896  0.0000 -0.0000  0.0000  0.0000  0.0000  0.0000  0.0000      0.0000  0.0000  0.0000  0.0000  0.0000  0.0000  0.0000  0.0000  0.0000  0.0000
  o =  0.8901  v = -0.0000  0.0000 -0.0000  0.0000  1.0000  0.0000  0.0000  0.0000  0.0000  0.0000      0.0000  0.0000  0.0000  0.0000  0.0000  0.0000  0.0000  0.0000  0.0000  0.0000
  o =  0.8904  v = -0.0000 -0.7071 -0.0000 -0.7071  0.0000  0.0000  0.0000  0.0000  0.0000  0.0000      0.0000  0.0000  0.0000  0.0000  0.0000  0.0000  0.0000  0.0000  0.0000  0.0000
  o =  0.9033  v = -0.0000 -0.7071  0.0000  0.7071  0.0000  0.0000  0.0000  0.0000  0.0000  0.0000      0.0000  0.0000  0.0000  0.0000  0.0000  0.0000  0.0000  0.0000  0.0000  0.0000
  o =  0.9048  v = -0.7896  0.0000  0.6136 -0.0000 -0.0000  0.0000  0.0000  0.0000  0.0000  0.0000      0.0000  0.0000  0.0000  0.0000  0.0000  0.0000  0.0000  0.0000  0.0000  0.0000
     EDDAV:  cpu time    0.2997: real time    0.2997
       DOS:  cpu time    0.0002: real time    0.0002
    CHARGE:  cpu time    0.0281: real time    0.0281
    MIXING:  cpu time    0.0004: real time    0.0004
    --------------------------------------------
      LOOP:  cpu time    0.5583: real time    0.5583

 eigenvalue-minimisations  :  1512
 total energy-change (2. order) :-0.6398196E+00  (-0.1554921E+00)
 number of electron      53.9999997 magnetization      -0.0000000
 augmentation part       19.9500203 magnetization      -0.0000000

 Broyden mixing:
  rms(total) = 0.11814E+01    rms(broyden)= 0.11814E+01
  rms(prec ) = 0.12093E+01
  weight for this iteration     100.00

 eigenvalues of (default mixing * dielectric matrix)
  average eigenvalue GAMMA=   1.4355
  0.7017  2.1692

 Free energy of the ion-electron system (eV)
  ---------------------------------------------------
  alpha Z        PSCENC =       203.95051221
  Ewald energy   TEWEN  =     -4253.05950503
  -Hartree energ DENC   =     -2111.02247061
  -exchange      EXHF   =         0.00000000
  -V(xc)+E(xc)   XCENC  =       296.47040750
  PAW double counting   =      5977.95719039    -6097.47066561
  entropy T*S    EENTRO =        -0.00000000
  eigenvalues    EBANDS =      -746.21171159
  atomic energy  EATOM  =      6689.41641552
  Solvation  Ediel_sol  =         0.00000000
  ---------------------------------------------------
  free energy    TOTEN  =       -39.96982722 eV

  energy without entropy =      -39.96982722  energy(sigma->0) =      -39.96982722


--------------------------------------------------------------------------------------------------------




--------------------------------------- Iteration      1(   8)  ---------------------------------------


    POTLOK:  cpu time    0.0041: real time    0.0041
    SETDIJ:  cpu time    0.2258: real time    0.2258
atom =   1  type =  1  l = 2
 
 onsite density matrix
 
spin component  1
 
 -0.0255  0.0000  0.0237  0.0000  0.0000
  0.0000 -0.0334  0.0000  0.0183  0.0000
  0.0237  0.0000 -0.0364  0.0000  0.0000
  0.0000  0.0183  0.0000 -0.0334  0.0000
  0.0000  0.0000  0.0000  0.0000 -0.0563
 
spin component  2
 
  1.0503  0.0000  0.0209  0.0000 -0.0000
  0.0000  1.0441  0.0000  0.0192  0.0000
  0.0209  0.0000  1.0361  0.0000 -0.0000
  0.0000  0.0192  0.0000  1.0441  0.0000
 -0.0000  0.0000 -0.0000  0.0000  1.0271
 
 occupancies and eigenvectors
 
  o = -0.0563  v =  0.0000 -0.0000 -0.0000  0.0000  1.0000  0.0000  0.0000  0.0000  0.0000  0.0000      0.0000  0.0000  0.0000  0.0000  0.0000  0.0000  0.0000  0.0000  0.0000  0.0000
  o = -0.0552  v = -0.6233 -0.0000  0.7820  0.0000  0.0000  0.0000  0.0000  0.0000  0.0000  0.0000      0.0000  0.0000  0.0000  0.0000  0.0000  0.0000  0.0000  0.0000  0.0000  0.0000
  o = -0.0517  v =  0.0000 -0.7071  0.0000  0.7071 -0.0000  0.0000  0.0000  0.0000  0.0000  0.0000      0.0000  0.0000  0.0000  0.0000  0.0000  0.0000  0.0000  0.0000  0.0000  0.0000
  o = -0.0151  v =  0.0000 -0.7071  0.0000 -0.7071 -0.0000  0.0000  0.0000  0.0000  0.0000  0.0000      0.0000  0.0000  0.0000  0.0000  0.0000  0.0000  0.0000  0.0000  0.0000  0.0000
  o = -0.0066  v =  0.7820 -0.0000  0.6233  0.0000  0.0000  0.0000  0.0000  0.0000  0.0000  0.0000      0.0000  0.0000  0.0000  0.0000  0.0000  0.0000  0.0000  0.0000  0.0000  0.0000
  o =  1.0212  v =  0.0000  0.0000  0.0000  0.0000  0.0000  0.5824  0.0000 -0.8129 -0.0000 -0.0000      0.0000  0.0000  0.0000  0.0000  0.0000  0.0000  0.0000  0.0000  0.0000  0.0000
  o =  1.0250  v =  0.0000  0.0000  0.0000  0.0000  0.0000 -0.0000  0.7071  0.0000 -0.7071 -0.0000      0.0000  0.0000  0.0000  0.0000  0.0000  0.0000  0.0000  0.0000  0.0000  0.0000
  o =  1.0271  v =  0.0000  0.0000  0.0000  0.0000  0.0000 -0.0000 -0.0000  0.0000  0.0000 -1.0000      0.0000  0.0000  0.0000  0.0000  0.0000  0.0000  0.0000  0.0000  0.0000  0.0000
  o =  1.0633  v =  0.0000  0.0000  0.0000  0.0000  0.0000  0.0000  0.7071  0.0000  0.7071  0.0000      0.0000  0.0000  0.0000  0.0000  0.0000  0.0000  0.0000  0.0000  0.0000  0.0000
  o =  1.0652  v =  0.0000  0.0000  0.0000  0.0000  0.0000  0.8129 -0.0000  0.5824 -0.0000 -0.0000      0.0000  0.0000  0.0000  0.0000  0.0000  0.0000  0.0000  0.0000  0.0000  0.0000
atom =   2  type =  1  l = 2
 
 onsite density matrix
 
spin component  1
 
  1.0503  0.0000 -0.0209  0.0000 -0.0000
  0.0000  1.0441  0.0000 -0.0192  0.0000
 -0.0209  0.0000  1.0361  0.0000  0.0000
  0.0000 -0.0192  0.0000  1.0441  0.0000
 -0.0000  0.0000  0.0000  0.0000  1.0271
 
spin component  2
 
 -0.0255  0.0000 -0.0237  0.0000 -0.0000
  0.0000 -0.0334  0.0000 -0.0183  0.0000
 -0.0237  0.0000 -0.0364  0.0000 -0.0000
  0.0000 -0.0183  0.0000 -0.0334  0.0000
 -0.0000  0.0000 -0.0000  0.0000 -0.0563
 
 occupancies and eigenvectors
 
  o = -0.0563  v =  0.0000  0.0000  0.0000  0.0000  0.0000  0.0000  0.0000  0.0000  0.0000  1.0000      0.0000  0.0000  0.0000  0.0000  0.0000  0.0000  0.0000  0.0000  0.0000  0.0000
  o = -0.0552  v =  0.0000  0.0000  0.0000  0.0000  0.0000 -0.6233  0.0000 -0.7820  0.0000  0.0000      0.0000  0.0000  0.0000  0.0000  0.0000  0.0000  0.0000  0.0000  0.0000  0.0000
  o = -0.0517  v =  0.0000  0.0000  0.0000  0.0000  0.0000  0.0000  0.7071  0.0000  0.7071 -0.0000      0.0000  0.0000  0.0000  0.0000  0.0000  0.0000  0.0000  0.0000  0.0000  0.0000
  o = -0.0151  v =  0.0000  0.0000  0.0000  0.0000  0.0000  0.0000  0.7071  0.0000 -0.7071 -0.0000      0.0000  0.0000  0.0000  0.0000  0.0000  0.0000  0.0000  0.0000  0.0000  0.0000
  o = -0.0066  v =  0.0000  0.0000  0.0000  0.0000  0.0000  0.7820  0.0000 -0.6233  0.0000  0.0000      0.0000  0.0000  0.0000  0.0000  0.0000  0.0000  0.0000  0.0000  0.0000  0.0000
  o =  1.0212  v = -0.5824  0.0000 -0.8129  0.0000  0.0000  0.0000  0.0000  0.0000  0.0000  0.0000      0.0000  0.0000  0.0000  0.0000  0.0000  0.0000  0.0000  0.0000  0.0000  0.0000
  o =  1.0250  v =  0.0000 -0.7071  0.0000 -0.7071  0.0000  0.0000  0.0000  0.0000  0.0000  0.0000      0.0000  0.0000  0.0000  0.0000  0.0000  0.0000  0.0000  0.0000  0.0000  0.0000
  o =  1.0271  v = -0.0000 -0.0000 -0.0000  0.0000 -1.0000  0.0000  0.0000  0.0000  0.0000  0.0000      0.0000  0.0000  0.0000  0.0000  0.0000  0.0000  0.0000  0.0000  0.0000  0.0000
  o =  1.0633  v =  0.0000 -0.7071  0.0000  0.7071  0.0000  0.0000  0.0000  0.0000  0.0000  0.0000      0.0000  0.0000  0.0000  0.0000  0.0000  0.0000  0.0000  0.0000  0.0000  0.0000
  o =  1.0652  v = -0.8129  0.0000  0.5824  0.0000  0.0000  0.0000  0.0000  0.0000  0.0000  0.0000      0.0000  0.0000  0.0000  0.0000  0.0000  0.0000  0.0000  0.0000  0.0000  0.0000
     EDDAV:  cpu time    0.2998: real time    0.2999
       DOS:  cpu time    0.0002: real time    0.0002
    CHARGE:  cpu time    0.0278: real time    0.0278
    MIXING:  cpu time    0.0005: real time    0.0005
    --------------------------------------------
      LOOP:  cpu time    0.5582: real time    0.5582

 eigenvalue-minimisations  :  1512
 total energy-change (2. order) : 0.8717721E-01  (-0.5179260E-01)
 number of electron      53.9999996 magnetization      -0.0000000
 augmentation part       19.9838619 magnetization      -0.0000000

 Broyden mixing:
  rms(total) = 0.47140E+00    rms(broyden)= 0.47138E+00
  rms(prec ) = 0.50232E+00
  weight for this iteration     100.00

 eigenvalues of (default mixing * dielectric matrix)
  average eigenvalue GAMMA=   1.2531
  2.0942  1.0307  0.6344

 Free energy of the ion-electron system (eV)
  ---------------------------------------------------
  alpha Z        PSCENC =       203.95051221
  Ewald energy   TEWEN  =     -4253.05950503
  -Hartree energ DENC   =     -2105.48252123
  -exchange      EXHF   =         0.00000000
  -V(xc)+E(xc)   XCENC  =       295.78904480
  PAW double counting   =      6249.40986450    -6365.58341893
  entropy T*S    EENTRO =        -0.00000000
  eigenvalues    EBANDS =      -754.32304185
  atomic energy  EATOM  =      6689.41641552
  Solvation  Ediel_sol  =         0.00000000
  ---------------------------------------------------
  free energy    TOTEN  =       -39.88265001 eV

  energy without entropy =      -39.88265001  energy(sigma->0) =      -39.88265001


--------------------------------------------------------------------------------------------------------




--------------------------------------- Iteration      1(   9)  ---------------------------------------


    POTLOK:  cpu time    0.0040: real time    0.0040
    SETDIJ:  cpu time    0.2262: real time    0.2262
atom =   1  type =  1  l = 2
 
 onsite density matrix
 
spin component  1
 
  0.0499  0.0000  0.0276  0.0000 -0.0000
  0.0000  0.0403  0.0000  0.0230  0.0000
  0.0276  0.0000  0.0345  0.0000  0.0000
  0.0000  0.0230  0.0000  0.0403  0.0000
 -0.0000  0.0000  0.0000  0.0000  0.0149
 
spin component  2
 
  0.9741  0.0000  0.0241  0.0000  0.0000
  0.0000  0.9670  0.0000  0.0206  0.0000
  0.0241  0.0000  0.9601  0.0000 -0.0000
  0.0000  0.0206  0.0000  0.9670  0.0000
  0.0000  0.0000 -0.0000  0.0000  0.9461
 
 occupancies and eigenvectors
 
  o =  0.0136  v = -0.6049 -0.0000  0.7963  0.0000 -0.0000  0.0000  0.0000  0.0000  0.0000  0.0000      0.0000  0.0000  0.0000  0.0000  0.0000  0.0000  0.0000  0.0000  0.0000  0.0000
  o =  0.0149  v = -0.0000  0.0000  0.0000  0.0000  1.0000  0.0000  0.0000  0.0000  0.0000  0.0000      0.0000  0.0000  0.0000  0.0000  0.0000  0.0000  0.0000  0.0000  0.0000  0.0000
  o =  0.0173  v =  0.0000  0.7071  0.0000 -0.7071 -0.0000  0.0000  0.0000  0.0000  0.0000  0.0000      0.0000  0.0000  0.0000  0.0000  0.0000  0.0000  0.0000  0.0000  0.0000  0.0000
  o =  0.0634  v =  0.0000 -0.7071  0.0000 -0.7071  0.0000  0.0000  0.0000  0.0000  0.0000  0.0000      0.0000  0.0000  0.0000  0.0000  0.0000  0.0000  0.0000  0.0000  0.0000  0.0000
  o =  0.0709  v = -0.7963 -0.0000 -0.6049  0.0000 -0.0000  0.0000  0.0000  0.0000  0.0000  0.0000      0.0000  0.0000  0.0000  0.0000  0.0000  0.0000  0.0000  0.0000  0.0000  0.0000
  o =  0.9419  v =  0.0000  0.0000  0.0000  0.0000  0.0000 -0.6006  0.0000  0.7996  0.0000  0.0000      0.0000  0.0000  0.0000  0.0000  0.0000  0.0000  0.0000  0.0000  0.0000  0.0000
  o =  0.9461  v =  0.0000  0.0000  0.0000  0.0000  0.0000  0.0000  0.0000  0.0000  0.0000 -1.0000      0.0000  0.0000  0.0000  0.0000  0.0000  0.0000  0.0000  0.0000  0.0000  0.0000
  o =  0.9464  v =  0.0000  0.0000  0.0000  0.0000  0.0000  0.0000 -0.7071  0.0000  0.7071 -0.0000      0.0000  0.0000  0.0000  0.0000  0.0000  0.0000  0.0000  0.0000  0.0000  0.0000
  o =  0.9877  v =  0.0000  0.0000  0.0000  0.0000  0.0000  0.0000 -0.7071  0.0000 -0.7071 -0.0000      0.0000  0.0000  0.0000  0.0000  0.0000  0.0000  0.0000  0.0000  0.0000  0.0000
  o =  0.9922  v =  0.0000  0.0000  0.0000  0.0000  0.0000 -0.7996  0.0000 -0.6006  0.0000 -0.0000      0.0000  0.0000  0.0000  0.0000  0.0000  0.0000  0.0000  0.0000  0.0000  0.0000
atom =   2  type =  1  l = 2
 
 onsite density matrix
 
spin component  1
 
  0.9741  0.0000 -0.0241  0.0000 -0.0000
  0.0000  0.9670  0.0000 -0.0206  0.0000
 -0.0241  0.0000  0.9601  0.0000 -0.0000
  0.0000 -0.0206  0.0000  0.9670  0.0000
 -0.0000  0.0000 -0.0000  0.0000  0.9461
 
spin component  2
 
  0.0499  0.0000 -0.0276  0.0000  0.0000
  0.0000  0.0403  0.0000 -0.0230  0.0000
 -0.0276  0.0000  0.0345  0.0000 -0.0000
  0.0000 -0.0230  0.0000  0.0403  0.0000
  0.0000  0.0000 -0.0000  0.0000  0.0149
 
 occupancies and eigenvectors
 
  o =  0.0136  v =  0.0000  0.0000  0.0000  0.0000  0.0000 -0.6049  0.0000 -0.7963  0.0000 -0.0000      0.0000  0.0000  0.0000  0.0000  0.0000  0.0000  0.0000  0.0000  0.0000  0.0000
  o =  0.0149  v =  0.0000  0.0000  0.0000  0.0000  0.0000 -0.0000 -0.0000 -0.0000  0.0000  1.0000      0.0000  0.0000  0.0000  0.0000  0.0000  0.0000  0.0000  0.0000  0.0000  0.0000
  o =  0.0173  v =  0.0000  0.0000  0.0000  0.0000  0.0000  0.0000 -0.7071  0.0000 -0.7071 -0.0000      0.0000  0.0000  0.0000  0.0000  0.0000  0.0000  0.0000  0.0000  0.0000  0.0000
  o =  0.0634  v =  0.0000  0.0000  0.0000  0.0000  0.0000  0.0000  0.7071  0.0000 -0.7071  0.0000      0.0000  0.0000  0.0000  0.0000  0.0000  0.0000  0.0000  0.0000  0.0000  0.0000
  o =  0.0709  v =  0.0000  0.0000  0.0000  0.0000  0.0000 -0.7963  0.0000  0.6049  0.0000 -0.0000      0.0000  0.0000  0.0000  0.0000  0.0000  0.0000  0.0000  0.0000  0.0000  0.0000
  o =  0.9419  v = -0.6006  0.0000 -0.7996  0.0000 -0.0000  0.0000  0.0000  0.0000  0.0000  0.0000      0.0000  0.0000  0.0000  0.0000  0.0000  0.0000  0.0000  0.0000  0.0000  0.0000
  o =  0.9461  v =  0.0000  0.0000 -0.0000  0.0000  1.0000  0.0000  0.0000  0.0000  0.0000  0.0000      0.0000  0.0000  0.0000  0.0000  0.0000  0.0000  0.0000  0.0000  0.0000  0.0000
  o =  0.9464  v =  0.0000 -0.7071  0.0000 -0.7071  0.0000  0.0000  0.0000  0.0000  0.0000  0.0000      0.0000  0.0000  0.0000  0.0000  0.0000  0.0000  0.0000  0.0000  0.0000  0.0000
  o =  0.9877  v =  0.0000  0.7071  0.0000 -0.7071 -0.0000  0.0000  0.0000  0.0000  0.0000  0.0000      0.0000  0.0000  0.0000  0.0000  0.0000  0.0000  0.0000  0.0000  0.0000  0.0000
  o =  0.9922  v = -0.7996  0.0000  0.6006  0.0000  0.0000  0.0000  0.0000  0.0000  0.0000  0.0000      0.0000  0.0000  0.0000  0.0000  0.0000  0.0000  0.0000  0.0000  0.0000  0.0000
     EDDAV:  cpu time    0.2833: real time    0.2833
       DOS:  cpu time    0.0002: real time    0.0002
    CHARGE:  cpu time    0.0279: real time    0.0279
    MIXING:  cpu time    0.0005: real time    0.0005
    --------------------------------------------
      LOOP:  cpu time    0.5421: real time    0.5421

 eigenvalue-minimisations  :  1428
 total energy-change (2. order) :-0.2784283E+00  (-0.7410318E-02)
 number of electron      53.9999996 magnetization       0.0000000
 augmentation part       19.9735005 magnetization       0.0000000

 Broyden mixing:
  rms(total) = 0.13696E+00    rms(broyden)= 0.13696E+00
  rms(prec ) = 0.14624E+00
  weight for this iteration     100.00

 eigenvalues of (default mixing * dielectric matrix)
  average eigenvalue GAMMA=   1.2166
  2.6241  0.8085  0.8085  0.6254

 Free energy of the ion-electron system (eV)
  ---------------------------------------------------
  alpha Z        PSCENC =       203.95051221
  Ewald energy   TEWEN  =     -4253.05950503
  -Hartree energ DENC   =     -2105.60814776
  -exchange      EXHF   =         0.00000000
  -V(xc)+E(xc)   XCENC  =       296.07659073
  PAW double counting   =      6382.11384146    -6502.51153770
  entropy T*S    EENTRO =        -0.00000000
  eigenvalues    EBANDS =      -750.53924771
  atomic energy  EATOM  =      6689.41641552
  Solvation  Ediel_sol  =         0.00000000
  ---------------------------------------------------
  free energy    TOTEN  =       -40.16107828 eV

  energy without entropy =      -40.16107828  energy(sigma->0) =      -40.16107828


--------------------------------------------------------------------------------------------------------




--------------------------------------- Iteration      1(  10)  ---------------------------------------


    POTLOK:  cpu time    0.0040: real time    0.0040
    SETDIJ:  cpu time    0.2259: real time    0.2259
atom =   1  type =  1  l = 2
 
 onsite density matrix
 
spin component  1
 
  0.0546  0.0000  0.0299  0.0000  0.0000
  0.0000  0.0447  0.0000  0.0245  0.0000
  0.0299  0.0000  0.0384  0.0000 -0.0000
  0.0000  0.0245  0.0000  0.0447  0.0000
  0.0000  0.0000 -0.0000  0.0000  0.0173
 
spin component  2
 
  0.9697  0.0000  0.0216  0.0000 -0.0000
  0.0000  0.9631  0.0000  0.0190  0.0000
  0.0216  0.0000  0.9565  0.0000  0.0000
  0.0000  0.0190  0.0000  0.9631  0.0000
 -0.0000  0.0000  0.0000  0.0000  0.9443
 
 occupancies and eigenvectors
 
  o =  0.0156  v = -0.6077 -0.0000  0.7942  0.0000  0.0000  0.0000  0.0000  0.0000  0.0000  0.0000      0.0000  0.0000  0.0000  0.0000  0.0000  0.0000  0.0000  0.0000  0.0000  0.0000
  o =  0.0173  v = -0.0000  0.0000  0.0000  0.0000 -1.0000  0.0000  0.0000  0.0000  0.0000  0.0000      0.0000  0.0000  0.0000  0.0000  0.0000  0.0000  0.0000  0.0000  0.0000  0.0000
  o =  0.0202  v =  0.0000 -0.7071  0.0000  0.7071 -0.0000  0.0000  0.0000  0.0000  0.0000  0.0000      0.0000  0.0000  0.0000  0.0000  0.0000  0.0000  0.0000  0.0000  0.0000  0.0000
  o =  0.0692  v =  0.0000 -0.7071  0.0000 -0.7071 -0.0000  0.0000  0.0000  0.0000  0.0000  0.0000      0.0000  0.0000  0.0000  0.0000  0.0000  0.0000  0.0000  0.0000  0.0000  0.0000
  o =  0.0775  v = -0.7942 -0.0000 -0.6077  0.0000  0.0000  0.0000  0.0000  0.0000  0.0000  0.0000      0.0000  0.0000  0.0000  0.0000  0.0000  0.0000  0.0000  0.0000  0.0000  0.0000
  o =  0.9405  v =  0.0000  0.0000  0.0000  0.0000  0.0000 -0.5956  0.0000  0.8032  0.0000 -0.0000      0.0000  0.0000  0.0000  0.0000  0.0000  0.0000  0.0000  0.0000  0.0000  0.0000
  o =  0.9441  v =  0.0000  0.0000  0.0000  0.0000  0.0000  0.0000  0.7071  0.0000 -0.7071 -0.0000      0.0000  0.0000  0.0000  0.0000  0.0000  0.0000  0.0000  0.0000  0.0000  0.0000
  o =  0.9443  v =  0.0000  0.0000  0.0000  0.0000  0.0000  0.0000  0.0000  0.0000  0.0000  1.0000      0.0000  0.0000  0.0000  0.0000  0.0000  0.0000  0.0000  0.0000  0.0000  0.0000
  o =  0.9820  v =  0.0000  0.0000  0.0000  0.0000  0.0000  0.0000 -0.7071  0.0000 -0.7071  0.0000      0.0000  0.0000  0.0000  0.0000  0.0000  0.0000  0.0000  0.0000  0.0000  0.0000
  o =  0.9857  v =  0.0000  0.0000  0.0000  0.0000  0.0000 -0.8032  0.0000 -0.5956  0.0000  0.0000      0.0000  0.0000  0.0000  0.0000  0.0000  0.0000  0.0000  0.0000  0.0000  0.0000
atom =   2  type =  1  l = 2
 
 onsite density matrix
 
spin component  1
 
  0.9697  0.0000 -0.0216  0.0000 -0.0000
  0.0000  0.9631  0.0000 -0.0190  0.0000
 -0.0216  0.0000  0.9565  0.0000 -0.0000
  0.0000 -0.0190  0.0000  0.9631  0.0000
 -0.0000  0.0000 -0.0000  0.0000  0.9443
 
spin component  2
 
  0.0546  0.0000 -0.0299  0.0000  0.0000
  0.0000  0.0447  0.0000 -0.0245  0.0000
 -0.0299  0.0000  0.0384  0.0000 -0.0000
  0.0000 -0.0245  0.0000  0.0447  0.0000
  0.0000  0.0000 -0.0000  0.0000  0.0173
 
 occupancies and eigenvectors
 
  o =  0.0156  v =  0.0000  0.0000  0.0000  0.0000  0.0000 -0.6077  0.0000 -0.7942  0.0000 -0.0000      0.0000  0.0000  0.0000  0.0000  0.0000  0.0000  0.0000  0.0000  0.0000  0.0000
  o =  0.0173  v =  0.0000  0.0000  0.0000  0.0000  0.0000 -0.0000 -0.0000 -0.0000  0.0000  1.0000      0.0000  0.0000  0.0000  0.0000  0.0000  0.0000  0.0000  0.0000  0.0000  0.0000
  o =  0.0202  v =  0.0000  0.0000  0.0000  0.0000  0.0000  0.0000 -0.7071  0.0000 -0.7071 -0.0000      0.0000  0.0000  0.0000  0.0000  0.0000  0.0000  0.0000  0.0000  0.0000  0.0000
  o =  0.0692  v =  0.0000  0.0000  0.0000  0.0000  0.0000  0.0000  0.7071  0.0000 -0.7071  0.0000      0.0000  0.0000  0.0000  0.0000  0.0000  0.0000  0.0000  0.0000  0.0000  0.0000
  o =  0.0775  v =  0.0000  0.0000  0.0000  0.0000  0.0000 -0.7942  0.0000  0.6077  0.0000 -0.0000      0.0000  0.0000  0.0000  0.0000  0.0000  0.0000  0.0000  0.0000  0.0000  0.0000
  o =  0.9405  v = -0.5956 -0.0000 -0.8032  0.0000 -0.0000  0.0000  0.0000  0.0000  0.0000  0.0000      0.0000  0.0000  0.0000  0.0000  0.0000  0.0000  0.0000  0.0000  0.0000  0.0000
  o =  0.9441  v =  0.0000 -0.7071  0.0000 -0.7071  0.0000  0.0000  0.0000  0.0000  0.0000  0.0000      0.0000  0.0000  0.0000  0.0000  0.0000  0.0000  0.0000  0.0000  0.0000  0.0000
  o =  0.9443  v = -0.0000  0.0000 -0.0000  0.0000  1.0000  0.0000  0.0000  0.0000  0.0000  0.0000      0.0000  0.0000  0.0000  0.0000  0.0000  0.0000  0.0000  0.0000  0.0000  0.0000
  o =  0.9820  v =  0.0000  0.7071  0.0000 -0.7071 -0.0000  0.0000  0.0000  0.0000  0.0000  0.0000      0.0000  0.0000  0.0000  0.0000  0.0000  0.0000  0.0000  0.0000  0.0000  0.0000
  o =  0.9857  v = -0.8032 -0.0000  0.5956  0.0000 -0.0000  0.0000  0.0000  0.0000  0.0000  0.0000      0.0000  0.0000  0.0000  0.0000  0.0000  0.0000  0.0000  0.0000  0.0000  0.0000
     EDDAV:  cpu time    0.3029: real time    0.3029
       DOS:  cpu time    0.0002: real time    0.0002
    CHARGE:  cpu time    0.0280: real time    0.0280
    MIXING:  cpu time    0.0005: real time    0.0005
    --------------------------------------------
      LOOP:  cpu time    0.5616: real time    0.5616

 eigenvalue-minimisations  :  1524
 total energy-change (2. order) :-0.4344727E-03  (-0.1565754E-02)
 number of electron      53.9999996 magnetization       0.0000000
 augmentation part       19.9703203 magnetization       0.0000000

 Broyden mixing:
  rms(total) = 0.24831E-01    rms(broyden)= 0.24817E-01
  rms(prec ) = 0.27425E-01
  weight for this iteration     100.00

 eigenvalues of (default mixing * dielectric matrix)
  average eigenvalue GAMMA=   1.1585
  2.5397  0.9598  0.9598  0.7280  0.6054

 Free energy of the ion-electron system (eV)
  ---------------------------------------------------
  alpha Z        PSCENC =       203.95051221
  Ewald energy   TEWEN  =     -4253.05950503
  -Hartree energ DENC   =     -2106.29600362
  -exchange      EXHF   =         0.00000000
  -V(xc)+E(xc)   XCENC  =       296.17042815
  PAW double counting   =      6370.09169420    -6490.56460690
  entropy T*S    EENTRO =        -0.00000000
  eigenvalues    EBANDS =      -749.87044728
  atomic energy  EATOM  =      6689.41641552
  Solvation  Ediel_sol  =         0.00000000
  ---------------------------------------------------
  free energy    TOTEN  =       -40.16151275 eV

  energy without entropy =      -40.16151275  energy(sigma->0) =      -40.16151275


--------------------------------------------------------------------------------------------------------




--------------------------------------- Iteration      1(  11)  ---------------------------------------


    POTLOK:  cpu time    0.0041: real time    0.0041
    SETDIJ:  cpu time    0.2260: real time    0.2260
atom =   1  type =  1  l = 2
 
 onsite density matrix
 
spin component  1
 
  0.0533  0.0000  0.0296  0.0000  0.0000
  0.0000  0.0433  0.0000  0.0243  0.0000
  0.0296  0.0000  0.0371  0.0000  0.0000
  0.0000  0.0243  0.0000  0.0433  0.0000
  0.0000  0.0000  0.0000  0.0000  0.0162
 
spin component  2
 
  0.9718  0.0000  0.0217  0.0000  0.0000
  0.0000  0.9653  0.0000  0.0189  0.0000
  0.0217  0.0000  0.9587  0.0000 -0.0000
  0.0000  0.0189  0.0000  0.9653  0.0000
  0.0000  0.0000 -0.0000  0.0000  0.9465
 
 occupancies and eigenvectors
 
  o =  0.0145  v = -0.6069  0.0000  0.7948  0.0000 -0.0000  0.0000  0.0000  0.0000  0.0000  0.0000      0.0000  0.0000  0.0000  0.0000  0.0000  0.0000  0.0000  0.0000  0.0000  0.0000
  o =  0.0162  v = -0.0000 -0.0000  0.0000  0.0000  1.0000  0.0000  0.0000  0.0000  0.0000  0.0000      0.0000  0.0000  0.0000  0.0000  0.0000  0.0000  0.0000  0.0000  0.0000  0.0000
  o =  0.0190  v =  0.0000  0.7071  0.0000 -0.7071  0.0000  0.0000  0.0000  0.0000  0.0000  0.0000      0.0000  0.0000  0.0000  0.0000  0.0000  0.0000  0.0000  0.0000  0.0000  0.0000
  o =  0.0677  v =  0.0000 -0.7071  0.0000 -0.7071 -0.0000  0.0000  0.0000  0.0000  0.0000  0.0000      0.0000  0.0000  0.0000  0.0000  0.0000  0.0000  0.0000  0.0000  0.0000  0.0000
  o =  0.0759  v = -0.7948  0.0000 -0.6069  0.0000 -0.0000  0.0000  0.0000  0.0000  0.0000  0.0000      0.0000  0.0000  0.0000  0.0000  0.0000  0.0000  0.0000  0.0000  0.0000  0.0000
  o =  0.9426  v =  0.0000  0.0000  0.0000  0.0000  0.0000 -0.5960  0.0000  0.8030 -0.0000  0.0000      0.0000  0.0000  0.0000  0.0000  0.0000  0.0000  0.0000  0.0000  0.0000  0.0000
  o =  0.9464  v =  0.0000  0.0000  0.0000  0.0000  0.0000 -0.0000 -0.7071  0.0000  0.7071 -0.0000      0.0000  0.0000  0.0000  0.0000  0.0000  0.0000  0.0000  0.0000  0.0000  0.0000
  o =  0.9465  v =  0.0000  0.0000  0.0000  0.0000  0.0000  0.0000 -0.0000 -0.0000  0.0000  1.0000      0.0000  0.0000  0.0000  0.0000  0.0000  0.0000  0.0000  0.0000  0.0000  0.0000
  o =  0.9842  v =  0.0000  0.0000  0.0000  0.0000  0.0000 -0.0000 -0.7071 -0.0000 -0.7071 -0.0000      0.0000  0.0000  0.0000  0.0000  0.0000  0.0000  0.0000  0.0000  0.0000  0.0000
  o =  0.9879  v =  0.0000  0.0000  0.0000  0.0000  0.0000 -0.8030  0.0000 -0.5960  0.0000  0.0000      0.0000  0.0000  0.0000  0.0000  0.0000  0.0000  0.0000  0.0000  0.0000  0.0000
atom =   2  type =  1  l = 2
 
 onsite density matrix
 
spin component  1
 
  0.9718  0.0000 -0.0217  0.0000 -0.0000
  0.0000  0.9653  0.0000 -0.0189  0.0000
 -0.0217  0.0000  0.9587  0.0000  0.0000
  0.0000 -0.0189  0.0000  0.9653  0.0000
 -0.0000  0.0000  0.0000  0.0000  0.9465
 
spin component  2
 
  0.0533  0.0000 -0.0296  0.0000  0.0000
  0.0000  0.0433  0.0000 -0.0243  0.0000
 -0.0296  0.0000  0.0371  0.0000 -0.0000
  0.0000 -0.0243  0.0000  0.0433  0.0000
  0.0000  0.0000 -0.0000  0.0000  0.0162
 
 occupancies and eigenvectors
 
  o =  0.0145  v =  0.0000  0.0000  0.0000  0.0000  0.0000 -0.6069  0.0000 -0.7948  0.0000 -0.0000      0.0000  0.0000  0.0000  0.0000  0.0000  0.0000  0.0000  0.0000  0.0000  0.0000
  o =  0.0162  v =  0.0000  0.0000  0.0000  0.0000  0.0000  0.0000 -0.0000  0.0000 -0.0000 -1.0000      0.0000  0.0000  0.0000  0.0000  0.0000  0.0000  0.0000  0.0000  0.0000  0.0000
  o =  0.0190  v =  0.0000  0.0000  0.0000  0.0000  0.0000  0.0000  0.7071  0.0000  0.7071 -0.0000      0.0000  0.0000  0.0000  0.0000  0.0000  0.0000  0.0000  0.0000  0.0000  0.0000
  o =  0.0677  v =  0.0000  0.0000  0.0000  0.0000  0.0000  0.0000  0.7071 -0.0000 -0.7071 -0.0000      0.0000  0.0000  0.0000  0.0000  0.0000  0.0000  0.0000  0.0000  0.0000  0.0000
  o =  0.0759  v =  0.0000  0.0000  0.0000  0.0000  0.0000 -0.7948  0.0000  0.6069 -0.0000 -0.0000      0.0000  0.0000  0.0000  0.0000  0.0000  0.0000  0.0000  0.0000  0.0000  0.0000
  o =  0.9426  v = -0.5960  0.0000 -0.8030  0.0000 -0.0000  0.0000  0.0000  0.0000  0.0000  0.0000      0.0000  0.0000  0.0000  0.0000  0.0000  0.0000  0.0000  0.0000  0.0000  0.0000
  o =  0.9464  v =  0.0000 -0.7071  0.0000 -0.7071  0.0000  0.0000  0.0000  0.0000  0.0000  0.0000      0.0000  0.0000  0.0000  0.0000  0.0000  0.0000  0.0000  0.0000  0.0000  0.0000
  o =  0.9465  v =  0.0000 -0.0000  0.0000  0.0000 -1.0000  0.0000  0.0000  0.0000  0.0000  0.0000      0.0000  0.0000  0.0000  0.0000  0.0000  0.0000  0.0000  0.0000  0.0000  0.0000
  o =  0.9842  v =  0.0000 -0.7071  0.0000  0.7071  0.0000  0.0000  0.0000  0.0000  0.0000  0.0000      0.0000  0.0000  0.0000  0.0000  0.0000  0.0000  0.0000  0.0000  0.0000  0.0000
  o =  0.9879  v = -0.8030  0.0000  0.5960  0.0000  0.0000  0.0000  0.0000  0.0000  0.0000  0.0000      0.0000  0.0000  0.0000  0.0000  0.0000  0.0000  0.0000  0.0000  0.0000  0.0000
     EDDAV:  cpu time    0.2826: real time    0.2826
       DOS:  cpu time    0.0002: real time    0.0002
    CHARGE:  cpu time    0.0278: real time    0.0278
    MIXING:  cpu time    0.0006: real time    0.0006
    --------------------------------------------
      LOOP:  cpu time    0.5413: real time    0.5413

 eigenvalue-minimisations  :  1416
 total energy-change (2. order) : 0.3575180E-04  (-0.1517921E-03)
 number of electron      53.9999996 magnetization      -0.0000000
 augmentation part       19.9659925 magnetization      -0.0000000

 Broyden mixing:
  rms(total) = 0.13267E-01    rms(broyden)= 0.13263E-01
  rms(prec ) = 0.14541E-01
  weight for this iteration     100.00

 eigenvalues of (default mixing * dielectric matrix)
  average eigenvalue GAMMA=   1.1202
  2.5328  1.3080  0.8141  0.8141  0.6447  0.6073

 Free energy of the ion-electron system (eV)
[...]
     13      -3.6549      1.00000
     14      -3.5732      1.00000
     15      -3.4667      1.00000
     16      -3.1976      1.00000
     17      -2.7065      1.00000
     18      -2.4923      1.00000
     19      -2.4665      1.00000
     20      -1.9475      1.00000
     21      -1.8031      1.00000
     22      -1.7481      1.00000
     23      -0.0029      1.00000
     24       0.1941      1.00000
     25       0.5248      1.00000
     26       1.1035      1.00000
     27       1.4519      1.00000
     28       7.0800      0.00000
     29       7.0919      0.00000
     30       7.2067      0.00000
     31       8.0253      0.00000
     32       8.2396      0.00000
     33       8.9139      0.00000
     34      11.0855      0.00000
     35      12.4992      0.00000
     36      12.7298      0.00000

 k-point     8 :       0.3750    0.1250    0.4167
  band No.  band energies     occupation 
      1     -45.9546      1.00000
      2     -45.9246      1.00000
      3     -45.8977      1.00000
      4     -41.3675      1.00000
      5     -41.3474      1.00000
      6     -41.3124      1.00000
      7     -20.5040      1.00000
      8     -20.4372      1.00000
      9     -20.3867      1.00000
     10     -20.2964      1.00000
     11      -4.2104      1.00000
     12      -4.0727      1.00000
     13      -3.9913      1.00000
     14      -3.6763      1.00000
     15      -3.4339      1.00000
     16      -3.0158      1.00000
     17      -2.8351      1.00000
     18      -2.6676      1.00000
     19      -2.2068      1.00000
     20      -1.9055      1.00000
     21      -1.6822      1.00000
     22      -1.5559      1.00000
     23       0.0067      1.00000
     24       0.1250      1.00000
     25       0.4159      1.00000
     26       1.0506      1.00000
     27       1.6561      1.00000
     28       7.0743      0.00000
     29       7.0806      0.00000
     30       7.3260      0.00000
     31       7.9495      0.00000
     32       8.4746      0.00000
     33       9.4635      0.00000
     34      10.8432      0.00000
     35      11.4695      0.00000
     36      12.5237      0.00000

 k-point     9 :       0.3750    0.3750    0.4167
  band No.  band energies     occupation 
      1     -45.9546      1.00000
      2     -45.9246      1.00000
      3     -45.8977      1.00000
      4     -41.3675      1.00000
      5     -41.3474      1.00000
      6     -41.3125      1.00000
      7     -20.4763      1.00000
      8     -20.4672      1.00000
      9     -20.3897      1.00000
     10     -20.2857      1.00000
     11      -4.4836      1.00000
     12      -4.2435      1.00000
     13      -3.9569      1.00000
     14      -3.9023      1.00000
     15      -3.4753      1.00000
     16      -2.9955      1.00000
     17      -2.6976      1.00000
     18      -2.4420      1.00000
     19      -1.9845      1.00000
     20      -1.7183      1.00000
     21      -1.6031      1.00000
     22      -1.4955      1.00000
     23       0.0071      1.00000
     24       0.1231      1.00000
     25       0.3748      1.00000
     26       1.1016      1.00000
     27       1.6108      1.00000
     28       7.0768      0.00000
     29       7.0996      0.00000
     30       7.3587      0.00000
     31       7.9235      0.00000
     32       8.3558      0.00000
     33       9.9735      0.00000
     34      11.4231      0.00000
     35      11.4231      0.00000
     36      11.5940      0.00000


--------------------------------------------------------------------------------------------------------


 soft charge-density along one line, spin component           1
         0         1         2         3         4         5         6         7         8         9
 total charge-density along one line
 
 soft charge-density along one line, spin component           2
         0         1         2         3         4         5         6         7         8         9
 total charge-density along one line
 
 pseudopotential strength for first ion, spin component:           1
-41.882  -0.000  -0.031   7.896   0.000   0.013   0.000   0.000
 -0.000 -41.856  -0.000   0.000   7.886   0.000  -0.000  -0.000
 -0.031  -0.000 -41.882   0.013   0.000   7.896  -0.000  -0.000
  7.896   0.000   0.013   5.349  -0.000  -0.005  -0.000  -0.000
  0.000   7.886   0.000  -0.000   5.353  -0.000   0.000  -0.000
  0.013   0.000   7.896  -0.005  -0.000   5.349  -0.000   0.000
  0.000  -0.000  -0.000  -0.000   0.000  -0.000  -1.373  -0.000
  0.000  -0.000  -0.000  -0.000  -0.000   0.000  -0.000  -1.328
  0.000   0.000  -0.000   0.000  -0.000  -0.000  -0.075   0.000
 -0.000  -0.000   0.000   0.000  -0.000  -0.000  -0.000  -0.090
  0.000  -0.000  -0.000   0.000   0.000   0.000   0.000   0.000
  0.000  -0.000  -0.000  -0.000   0.000  -0.000  -1.816  -0.000
  0.000  -0.000  -0.000  -0.000  -0.000   0.000  -0.000  -1.770
  0.000   0.000  -0.000   0.000  -0.000  -0.000  -0.079   0.000
 -0.000  -0.000   0.000   0.000  -0.000  -0.000  -0.000  -0.093
  0.000  -0.000  -0.000   0.000   0.000   0.000   0.000   0.000
 -0.000  -0.000   0.000  -0.000  -0.000   0.000   0.006   0.000
 -0.000  -0.000   0.000  -0.000  -0.000   0.000   0.012   0.000
 pseudopotential strength for first ion, spin component:           2
-44.952  -0.000  -0.024   9.382   0.000   0.009   0.000   0.000
 -0.000 -44.933  -0.000   0.000   9.375   0.000  -0.000  -0.000
 -0.024  -0.000 -44.952   0.009   0.000   9.382  -0.000  -0.000
  9.382   0.000   0.009   4.854  -0.000  -0.003   0.000  -0.000
  0.000   9.375   0.000  -0.000   4.857  -0.000   0.000  -0.000
  0.009   0.000   9.382  -0.003  -0.000   4.854  -0.000   0.000
  0.000  -0.000  -0.000   0.000   0.000  -0.000  -7.376  -0.000
  0.000  -0.000  -0.000  -0.000  -0.000   0.000  -0.000  -7.344
  0.000   0.000  -0.000   0.000  -0.000  -0.000  -0.053   0.000
 -0.000  -0.000   0.000   0.000  -0.000  -0.000  -0.000  -0.073
  0.000  -0.000  -0.000   0.000   0.000  -0.000   0.000   0.000
  0.000  -0.000  -0.000   0.000   0.000  -0.000  -7.869  -0.000
  0.000  -0.000  -0.000  -0.000  -0.000   0.000  -0.000  -7.837
  0.000   0.000  -0.000   0.000  -0.000  -0.000  -0.055   0.000
 -0.000  -0.000   0.000   0.000  -0.000  -0.000  -0.000  -0.075
  0.000  -0.000  -0.000   0.000   0.000  -0.000   0.000   0.000
 -0.000  -0.000   0.000  -0.000  -0.000   0.000   0.004   0.000
 -0.000  -0.000   0.000  -0.000  -0.000   0.000   0.007   0.000
 total augmentation occupancy for first ion, spin component:           1
  1.998   0.000  -0.000  -0.013   0.000   0.000   0.000   0.000   0.000   0.000   0.000   0.000   0.000   0.000   0.000   0.000
  0.000   1.998   0.000   0.000  -0.013   0.000   0.000   0.000   0.000   0.000   0.000   0.000   0.000   0.000   0.000   0.000
 -0.000   0.000   1.998   0.000   0.000  -0.013   0.000   0.000   0.000   0.000   0.000   0.000   0.000   0.000   0.000   0.000
 -0.013   0.000   0.000   0.097   0.000  -0.010   0.000   0.000   0.000   0.000   0.000   0.000   0.000   0.000   0.000   0.000
  0.000  -0.013   0.000   0.000   0.108   0.000   0.000   0.000   0.000   0.000   0.000   0.000   0.000   0.000   0.000   0.000
  0.000   0.000  -0.013  -0.010   0.000   0.097   0.000   0.000   0.000   0.000   0.000   0.000   0.000   0.000   0.000   0.000
  0.000   0.000   0.000   0.000   0.000   0.000   8.384   0.000   3.393   0.000   0.000  -6.455   0.000  -3.219   0.000   0.000
  0.000   0.000   0.000   0.000   0.000   0.000   0.000   7.004   0.000   2.923   0.000   0.000  -5.138   0.000  -2.761   0.000
  0.000   0.000   0.000   0.000   0.000   0.000   3.393   0.000   6.318   0.000   0.000  -3.220   0.000  -4.516   0.000   0.000
  0.000   0.000   0.000   0.000   0.000   0.000   0.000   2.923   0.000   7.004   0.000   0.000  -2.761   0.000  -5.138   0.000
  0.000   0.000   0.000   0.000   0.000   0.000   0.000   0.000   0.000   0.000   3.961   0.000   0.000  -0.000   0.000  -2.235
  0.000   0.000   0.000   0.000   0.000   0.000  -6.455   0.000  -3.220   0.000   0.000   5.697   0.000   3.091   0.000   0.000
  0.000   0.000   0.000   0.000   0.000   0.000   0.000  -5.138   0.000  -2.761   0.000   0.000   4.431   0.000   2.637   0.000
  0.000   0.000   0.000   0.000   0.000   0.000  -3.219   0.000  -4.516   0.000   0.000   3.091   0.000   3.858   0.000   0.000
  0.000   0.000   0.000   0.000   0.000   0.000   0.000  -2.761   0.000  -5.138   0.000   0.000   2.637   0.000   4.431   0.000
  0.000   0.000   0.000   0.000   0.000   0.000   0.000   0.000   0.000   0.000  -2.235   0.000   0.000   0.000   0.000   1.629
  0.000   0.000   0.000   0.000   0.000   0.000   0.265   0.000  -0.231   0.000  -0.000  -0.295   0.000   0.239   0.000  -0.000
  0.000   0.000   0.000   0.000   0.000   0.000  -0.008   0.000   0.027   0.000  -0.000   0.034   0.000  -0.038   0.000   0.000
 total augmentation occupancy for first ion, spin component:           2
  0.004   0.000  -0.000   0.016   0.000  -0.000   0.000   0.000   0.000   0.000   0.000   0.000   0.000   0.000   0.000   0.000
  0.000   0.004   0.000   0.000   0.017   0.000   0.000   0.000   0.000   0.000   0.000   0.000   0.000   0.000   0.000   0.000
 -0.000   0.000   0.004  -0.000   0.000   0.016   0.000   0.000   0.000   0.000   0.000   0.000   0.000   0.000   0.000   0.000
  0.016   0.000  -0.000  -0.009   0.000  -0.000   0.000   0.000   0.000   0.000   0.000   0.000   0.000   0.000   0.000   0.000
  0.000   0.017   0.000   0.000  -0.009   0.000   0.000   0.000   0.000   0.000   0.000   0.000   0.000   0.000   0.000   0.000
 -0.000   0.000   0.016  -0.000   0.000  -0.009   0.000   0.000   0.000   0.000   0.000   0.000   0.000   0.000   0.000   0.000
  0.000   0.000   0.000   0.000   0.000   0.000  -5.676   0.000  -1.873   0.000   0.000   3.340   0.000   1.478   0.000   0.000
  0.000   0.000   0.000   0.000   0.000   0.000   0.000  -4.913   0.000  -1.641   0.000   0.000   2.718   0.000   1.295   0.000
  0.000   0.000   0.000   0.000   0.000   0.000  -1.873   0.000  -4.444   0.000   0.000   1.478   0.000   2.359   0.000   0.000
  0.000   0.000   0.000   0.000   0.000   0.000   0.000  -1.641   0.000  -4.913   0.000   0.000   1.295   0.000   2.718   0.000
  0.000   0.000   0.000   0.000   0.000   0.000  -0.000   0.000   0.000   0.000  -3.278   0.000   0.000  -0.000   0.000   1.426
  0.000   0.000   0.000   0.000   0.000   0.000   3.340   0.000   1.478   0.000   0.000  -2.104   0.000  -1.090   0.000  -0.000
  0.000   0.000   0.000   0.000   0.000   0.000   0.000   2.718   0.000   1.295   0.000   0.000  -1.623   0.000  -0.955   0.000
  0.000   0.000   0.000   0.000   0.000   0.000   1.478   0.000   2.359   0.000  -0.000  -1.090   0.000  -1.368   0.000   0.000
  0.000   0.000   0.000   0.000   0.000   0.000   0.000   1.295   0.000   2.718   0.000   0.000  -0.955   0.000  -1.623   0.000
  0.000   0.000   0.000   0.000   0.000   0.000  -0.000   0.000  -0.000   0.000   1.426   0.000   0.000  -0.000   0.000  -0.671
  0.000   0.000   0.000   0.000   0.000   0.000   0.006   0.000   0.024   0.000   0.000  -0.015   0.000  -0.004   0.000  -0.000
  0.000   0.000   0.000   0.000   0.000   0.000  -0.047   0.000   0.012   0.000   0.000   0.028   0.000  -0.006   0.000  -0.000


------------------------ aborting loop because EDIFF is reached ----------------------------------------


 


 total charge     
 
# of ion       s       p       d       tot
------------------------------------------
    1        0.179   6.173   4.981  11.333
    2        0.184   6.168   4.988  11.339
    3        1.728   4.362   0.000   6.090
    4        1.728   4.362   0.000   6.090
    5        1.728   4.358   0.000   6.085
    6        1.728   4.358   0.000   6.085
--------------------------------------------------
tot          7.274  29.780   9.968  47.022
 


 magnetization (x)
 
# of ion       s       p       d       tot
------------------------------------------
    1       -0.014  -0.015  -4.597  -4.626
    2        0.014   0.013   4.595   4.622
    3        0.002   0.021   0.000   0.023
    4        0.002   0.021   0.000   0.023
    5       -0.003  -0.017   0.000  -0.020
    6       -0.003  -0.017   0.000  -0.020
--------------------------------------------------
tot         -0.001   0.007  -0.003   0.003
 
    CHARGE:  cpu time    0.0281: real time    0.0282
    FORLOC:  cpu time    0.0007: real time    0.0007
    FORNL :  cpu time    0.1316: real time    0.1316
    STRESS:  cpu time    0.3857: real time    0.3857
    FORCOR:  cpu time    0.0035: real time    0.0035
    FORHAR:  cpu time    0.0018: real time    0.0018
    MIXING:  cpu time    0.0004: real time    0.0004
    OFIELD:  cpu time    0.0000: real time    0.0000

  FORCE on cell =-STRESS in cart. coord.  units (eV):
  Direction    XX          YY          ZZ          XY          YZ          ZX
  --------------------------------------------------------------------------------------
  Alpha Z   204.10001   204.10001   204.10001
  Ewald   -1606.90162 -1606.90162 -1040.28387     0.00000    -0.00000    -0.00000
  Hartree   575.45367   575.45367   955.17283    -0.00000    -0.00000    -0.00000
  E(xc)    -309.50723  -309.50723  -309.55190    -0.00000     0.00000     0.00000
  Local     186.34716   186.34716  -752.70739     0.00000    -0.00000    -0.00000
  n-local  -238.23997  -238.58814  -237.37206     0.02496     0.11750     0.11920
  augment   267.17944   267.17944   266.55957    -0.00000    -0.00001    -0.00001
  Kinetic   921.36427   922.13146   914.10341    -0.51232    -0.95608    -1.01465
  Fock        0.00000     0.00000     0.00000     0.00000     0.00000     0.00000
  -------------------------------------------------------------------------------------
  Total       0.00525     0.00525     0.02060    -0.00000     0.00000     0.00000
  in kB       0.11258     0.11258     0.44213    -0.00000     0.00000     0.00000
  external pressure =        0.22 kB  Pullay stress =        0.00 kB


 VOLUME and BASIS-vectors are now :
 -----------------------------------------------------------------------------
  energy-cutoff  :      500.00
  volume of cell :       74.65
      direct lattice vectors                 reciprocal lattice vectors
     4.794646507  0.000000000  0.000000000     0.208565949 -0.000000000  0.000000000
     0.000000000  4.794646507  0.000000000    -0.000000000  0.208565949  0.000000000
     0.000000000  0.000000000  3.247207054     0.000000000  0.000000000  0.307956956

  length of vectors
     4.794646507  4.794646507  3.247207054     0.208565949  0.208565949  0.307956956


 FORCES acting on ions
    electron-ion (+dipol)            ewald-force                    non-local-force                 convergence-correction
 -----------------------------------------------------------------------------------------------
   0.212E-11 0.524E-11 0.405E-11   0.853E-13 0.568E-13 0.219E-13   0.107E-26 0.000E+00 0.000E+00   0.155E-12 -.527E-14 0.779E-13
   -.639E-13 -.720E-13 0.499E-12   0.000E+00 -.853E-13 0.190E-13   -.971E-27 0.000E+00 0.000E+00   0.509E-13 0.119E-13 -.282E-13
   -.339E+02 0.339E+02 -.544E-12   0.352E+02 -.352E+02 -.632E-14   -.128E+01 0.128E+01 0.000E+00   -.988E-04 0.988E-04 -.189E-14
   0.339E+02 -.339E+02 -.982E-11   -.352E+02 0.352E+02 -.591E-14   0.128E+01 -.128E+01 0.000E+00   0.988E-04 -.988E-04 0.627E-13
   0.339E+02 0.339E+02 0.617E-09   -.352E+02 -.352E+02 -.128E-13   0.128E+01 0.128E+01 0.108E-18   0.988E-04 0.988E-04 -.269E-11
   -.339E+02 -.339E+02 -.607E-09   0.352E+02 0.352E+02 -.124E-13   -.128E+01 -.128E+01 -.108E-18   -.988E-04 -.988E-04 0.265E-11
 -----------------------------------------------------------------------------------------------
   -.604E-12 0.163E-10 0.413E-11   0.000E+00 0.711E-14 0.345E-14   -.222E-15 0.000E+00 0.000E+00   0.195E-12 -.203E-12 0.720E-13
 
 
 POSITION                                       TOTAL-FORCE (eV/Angst)
 -----------------------------------------------------------------------------------
      2.39732      2.39732      1.62360        -0.000000     -0.000000     -0.000000
     -0.00000     -0.00000      0.00000        -0.000000     -0.000000     -0.000000
      0.93930      3.85535      1.62360        -0.000905      0.000905     -0.000000
      3.85535      0.93930      1.62360         0.000905     -0.000905     -0.000000
      1.45803      1.45803      0.00000         0.000905      0.000905      0.000000
      3.33662      3.33662     -0.00000        -0.000905     -0.000905     -0.000000
 -----------------------------------------------------------------------------------
    total drift:                               -0.000000      0.000000      0.000000


--------------------------------------------------------------------------------------------------------



  FREE ENERGIE OF THE ION-ELECTRON SYSTEM (eV)
  ---------------------------------------------------
  free  energy   TOTEN  =       -40.16153735 eV

  energy  without entropy=      -40.16153735  energy(sigma->0) =      -40.16153735
 
 d Force = 0.1728568E-05[ 0.899E-06, 0.256E-05]  d Energy = 0.8810151E-05-0.708E-05
 d Force =-0.3494706E-01[-0.350E-01,-0.349E-01]  d Ewald  = 0.1024414E+01-0.106E+01


--------------------------------------------------------------------------------------------------------


    POTLOK:  cpu time    0.2293: real time    0.2294


--------------------------------------------------------------------------------------------------------


 Steepest descent step on ions:
 trial-energy change:   -0.000009  1 .order   -0.000009   -0.000025    0.000006
  (g-gl).g = 0.251E-04      g.g   = 0.251E-04  gl.gl    = 0.000E+00
 g(Force)  = 0.256E-05   g(Stress)= 0.225E-04 ortho     = 0.000E+00
 gamma     =   0.00000
 trial     =   1.00000
 opt step  =   0.78195  (harmonic =   0.80319) maximal distance =0.00009713
 next E    =   -40.161538   (d E  =  -0.00001)


--------------------------------------------------------------------------------------------------------


  
 reached required accuracy - stopping structural energy minimisation
     LOOP+:  cpu time    4.2005: real time    4.2005
    4ORBIT:  cpu time    0.0000: real time    0.0000
 


 total charge     
 
# of ion       s       p       d       tot
------------------------------------------
    1        0.179   6.173   4.981  11.333
    2        0.184   6.168   4.988  11.339
    3        1.728   4.362   0.000   6.090
    4        1.728   4.362   0.000   6.090
    5        1.728   4.358   0.000   6.085
    6        1.728   4.358   0.000   6.085
--------------------------------------------------
tot          7.274  29.780   9.968  47.022
 


 magnetization (x)
 
# of ion       s       p       d       tot
------------------------------------------
    1       -0.014  -0.015  -4.597  -4.626
    2        0.014   0.013   4.595   4.622
    3        0.002   0.021   0.000   0.023
    4        0.002   0.021   0.000   0.023
    5       -0.003  -0.017   0.000  -0.020
    6       -0.003  -0.017   0.000  -0.020
--------------------------------------------------
tot         -0.001   0.007  -0.003   0.003
 

 total amount of memory used by VASP MPI-rank0    40571. kBytes
=======================================================================

   base      :      30000. kBytes
   nonl-proj :       5128. kBytes
   fftplans  :       1551. kBytes
   grid      :       1996. kBytes
   one-center:        186. kBytes
   wavefun   :       1710. kBytes
 
  
  
 General timing and accounting informations for this job:
 ========================================================
  
                  Total CPU time used (sec):       14.095
                            User time (sec):       11.225
                          System time (sec):        2.870
                         Elapsed time (sec):       14.165
  
                   Maximum memory used (kb):       55748.
                   Average memory used (kb):           0.
  
                          Minor page faults:         8013
                          Major page faults:            7
                 Voluntary context switches:          297
