       N       E                     dE             d eps       ncg     rms          rms(c)
DAV:   1     0.101181732526E+04    0.10118E+04   -0.41436E+04  1296   0.224E+03
DAV:   2     0.417480214495E+03   -0.59434E+03   -0.57074E+03  1488   0.552E+02
DAV:   3     0.378476426013E+03   -0.39004E+02   -0.38334E+02  1440   0.147E+02
DAV:   4     0.377919962333E+03   -0.55646E+00   -0.55590E+00  1536   0.192E+01
DAV:   5     0.377910992659E+03   -0.89697E-02   -0.89692E-02  1476   0.233E+00    0.592E+01
DAV:   6    -0.684434711275E+02   -0.44635E+03   -0.30619E+02  1560   0.214E+02    0.634E+01
DAV:   7    -0.712484706297E+02   -0.28050E+01   -0.49933E+01  1380   0.449E+01    0.170E+01
DAV:   8    -0.686161891496E+02    0.26323E+01   -0.72745E+00  1512   0.223E+01    0.619E+00
DAV:   9    -0.681448657447E+02    0.47132E+00   -0.39031E+00  1452   0.172E+01    0.785E+00
DAV:  10    -0.680983286568E+02    0.46537E-01   -0.34474E-01  1440   0.475E+00    0.543E+00
DAV:  11    -0.680587132263E+02    0.39615E-01   -0.56464E-01  1500   0.628E+00    0.143E+00
DAV:  12    -0.680423350228E+02    0.16378E-01   -0.41058E-02  1416   0.198E+00    0.935E-01
DAV:  13    -0.680369616895E+02    0.53733E-02   -0.36704E-02  1560   0.115E+00    0.866E-01
DAV:  14    -0.680323862168E+02    0.45755E-02   -0.36982E-02  1296   0.215E+00    0.288E-01
DAV:  15    -0.680333506158E+02   -0.96440E-03   -0.31388E-03  1404   0.404E-01    0.315E-01
DAV:  16    -0.680330648692E+02    0.28575E-03   -0.33037E-03  1428   0.377E-01    0.105E-01
DAV:  17    -0.680330803748E+02   -0.15506E-04   -0.10111E-03  1320   0.297E-01    0.914E-02
DAV:  18    -0.680328216688E+02    0.25871E-03   -0.26876E-04  1428   0.105E-01    0.302E-02
DAV:  19    -0.680328011374E+02    0.20531E-04   -0.75341E-05  1344   0.699E-02    0.653E-03
DAV:  20    -0.680328269824E+02   -0.25845E-04   -0.85355E-06  1596   0.193E-02    0.797E-03
DAV:  21    -0.680328337754E+02   -0.67929E-05   -0.68699E-07  1296   0.736E-03    0.478E-03
DAV:  22    -0.680328301055E+02    0.36698E-05   -0.10031E-06  1416   0.625E-03    0.245E-03
DAV:  23    -0.680328312605E+02   -0.11550E-05   -0.15282E-07   804   0.237E-03    0.100E-03
DAV:  24    -0.680328322478E+02   -0.98729E-06   -0.31219E-08   648   0.134E-03    0.437E-04
DAV:  25    -0.680328324362E+02   -0.18836E-06   -0.99955E-09   648   0.734E-04    0.306E-04
DAV:  26    -0.680328324312E+02    0.49440E-08   -0.11636E-09   648   0.232E-04
   1 F= -.68032832E+02 E0= -.68032832E+02  d E =-.680328E+02  mag=    -0.0000
       N       E                     dE             d eps       ncg     rms          rms(c)
DAV:   1    -0.680370693177E+02   -0.42369E-02   -0.89883E-02  1296   0.272E+00    0.566E-01
DAV:   2    -0.680333502597E+02    0.37191E-02   -0.80790E-03  1296   0.740E-01    0.337E-01
DAV:   3    -0.680330465034E+02    0.30376E-03   -0.29926E-03  1332   0.385E-01    0.122E-01
DAV:   4    -0.680328824443E+02    0.16406E-03   -0.14415E-04  1500   0.111E-01    0.101E-01
DAV:   5    -0.680328851442E+02   -0.26999E-05   -0.35509E-04  1560   0.121E-01    0.647E-02
DAV:   6    -0.680328480983E+02    0.37046E-04   -0.79177E-05  1452   0.662E-02    0.195E-02
DAV:   7    -0.680328592004E+02   -0.11102E-04   -0.92158E-05  1512   0.572E-02    0.251E-02
DAV:   8    -0.680328593318E+02   -0.13139E-06   -0.15161E-05  1380   0.296E-02    0.738E-03
DAV:   9    -0.680328595361E+02   -0.20429E-06   -0.72217E-06  1572   0.151E-02    0.139E-03
DAV:  10    -0.680328599355E+02   -0.39942E-06   -0.92792E-07  1320   0.504E-03    0.304E-03
DAV:  11    -0.680328592878E+02    0.64773E-06   -0.46254E-08   660   0.187E-03    0.246E-03
DAV:  12    -0.680328595937E+02   -0.30597E-06   -0.87593E-08   648   0.174E-03    0.150E-03
DAV:  13    -0.680328595850E+02    0.87766E-08   -0.16083E-07   672   0.241E-03
   2 F= -.68032860E+02 E0= -.68032860E+02  d E =-.271538E-04  mag=    -0.0000
       N       E                     dE             d eps       ncg     rms          rms(c)
DAV:   1    -0.680340428873E+02   -0.11833E-02   -0.25205E-02  1296   0.144E+00    0.300E-01
DAV:   2    -0.680326906477E+02    0.13522E-02   -0.22590E-03  1296   0.391E-01    0.179E-01
DAV:   3    -0.680327904287E+02   -0.99781E-04   -0.83206E-04  1332   0.203E-01    0.645E-02
DAV:   4    -0.680328934034E+02   -0.10297E-03   -0.41018E-05  1500   0.594E-02    0.537E-02
DAV:   5    -0.680328953535E+02   -0.19501E-05   -0.97680E-05  1560   0.633E-02    0.340E-02
DAV:   6    -0.680328860893E+02    0.92642E-05   -0.22551E-05  1464   0.352E-02    0.102E-02
DAV:   7    -0.680328895988E+02   -0.35095E-05   -0.24184E-05  1512   0.292E-02    0.130E-02
DAV:   8    -0.680328824445E+02    0.71543E-05   -0.40899E-06  1392   0.153E-02    0.380E-03
DAV:   9    -0.680328824448E+02   -0.34743E-09   -0.19783E-06  1572   0.791E-03    0.825E-04
DAV:  10    -0.680328825199E+02   -0.75076E-07   -0.23736E-07   996   0.259E-03
   3 F= -.68032883E+02 E0= -.68032883E+02  d E =-.500887E-04  mag=     0.0000
       N       E                     dE             d eps       ncg     rms          rms(c)
DAV:   1    -0.680333549340E+02   -0.47249E-03   -0.10275E-02  1296   0.920E-01    0.190E-01
DAV:   2    -0.680330262821E+02    0.32865E-03   -0.90633E-04  1296   0.249E-01    0.114E-01
DAV:   3    -0.680329386382E+02    0.87644E-04   -0.33650E-04  1332   0.129E-01    0.411E-02
DAV:   4    -0.680328788807E+02    0.59758E-04   -0.16675E-05  1500   0.377E-02    0.341E-02
DAV:   5    -0.680328790442E+02   -0.16350E-06   -0.40204E-05  1560   0.406E-02    0.219E-02
DAV:   6    -0.680328746509E+02    0.43933E-05   -0.87262E-06  1452   0.220E-02    0.669E-03
DAV:   7    -0.680328755959E+02   -0.94492E-06   -0.10946E-05  1512   0.197E-02    0.852E-03
DAV:   8    -0.680328775769E+02   -0.19810E-05   -0.17342E-06  1380   0.100E-02    0.253E-03
DAV:   9    -0.680328775975E+02   -0.20675E-07   -0.81684E-07  1512   0.508E-03
   4 F= -.68032878E+02 E0= -.68032878E+02  d E =-.451663E-04  mag=    -0.0000
