 vasp.5.4.4.18Apr17-6-g9f103f2a35 (build Apr 27 2017 11:13:10) complex          
  
 executed on           IFC91_ompi date 2020.05.13  11:52:16
 running on   12 total cores
 distrk:  each k-point on   12 cores,    1 groups
 distr:  one band on NCORES_PER_BAND=   1 cores,   12 groups


--------------------------------------------------------------------------------------------------------


 INCAR:
 POTCAR:    PAW_PBE Mn_pv 02Aug2007               
 POTCAR:    PAW_PBE F 08Apr2002                   

 ----------------------------------------------------------------------------- 
|                                                                             |
|           W    W    AA    RRRRR   N    N  II  N    N   GGGG   !!!           |
|           W    W   A  A   R    R  NN   N  II  NN   N  G    G  !!!           |
|           W    W  A    A  R    R  N N  N  II  N N  N  G       !!!           |
|           W WW W  AAAAAA  RRRRR   N  N N  II  N  N N  G  GGG   !            |
|           WW  WW  A    A  R   R   N   NN  II  N   NN  G    G                |
|           W    W  A    A  R    R  N    N  II  N    N   GGGG   !!!           |
|                                                                             |
|      For optimal performance we recommend to set                            |
|        NCORE= 4 - approx SQRT( number of cores)                             |
|      NCORE specifies how many cores store one orbital (NPAR=cpu/NCORE).     |
|      This setting can  greatly improve the performance of VASP for DFT.     |
|      The default,   NCORE=1            might be grossly inefficient         |
|      on modern multi-core architectures or massively parallel machines.     |
|      Do your own testing !!!!                                               |
|      Unfortunately you need to use the default for GW and RPA calculations. |
|      (for HF NCORE is supported but not extensively tested yet)             |
|                                                                             |
 ----------------------------------------------------------------------------- 

 POTCAR:    PAW_PBE Mn_pv 02Aug2007               
   VRHFIN =Mn: 3p4s3d                                                           
   LEXCH  = PE                                                                  
   EATOM  =  2025.2664 eV,  148.8529 Ry                                         
                                                                                
   TITEL  = PAW_PBE Mn_pv 02Aug2007                                             
   LULTRA =        F    use ultrasoft PP ?                                      
   IUNSCR =        1    unscreen: 0-lin 1-nonlin 2-no                           
   RPACOR =    2.080    partial core radius                                     
   POMASS =   54.938; ZVAL   =   13.000    mass and valenz                      
   RCORE  =    2.300    outmost cutoff radius                                   
   RWIGS  =    2.500; RWIGS  =    1.323    wigner-seitz radius (au A)           
   ENMAX  =  269.864; ENMIN  =  202.398 eV                                      
   ICORE  =        3    local potential                                         
   LCOR   =        T    correct aug charges                                     
   LPAW   =        T    paw PP                                                  
   EAUG   =  569.085                                                            
   DEXC   =    0.000                                                            
   RMAX   =    2.343    core radius for proj-oper                               
   RAUG   =    1.300    factor for augmentation sphere                          
   RDEP   =    2.338    radius for radial grids                                 
   RDEPT  =    1.798    core radius for aug-charge                              
                                                                                
   Atomic configuration                                                         
    8 entries                                                                   
     n  l   j            E        occ.                                          
     1  0  0.50     -6424.8287   2.0000                                         
     2  0  0.50      -739.1154   2.0000                                         
     2  1  1.50      -625.3949   6.0000                                         
     3  0  0.50       -81.6100   2.0000                                         
     3  1  1.50       -50.4667   6.0000                                         
     3  2  2.50        -3.3745   6.0000                                         
     4  0  0.50        -4.1331   1.0000                                         
     4  3  2.50        -1.3606   0.0000                                         
   Description                                                                  
     l       E           TYP  RCUT    TYP  RCUT                                 
     1    -50.4666628     23  2.000                                             
     1     -1.3605826     23  2.000                                             
     2     -3.3744729     23  2.300                                             
     2     -4.7350555     23  2.300                                             
     0     -4.1331431     23  2.300                                             
     0      7.6656591     23  2.300                                             
     3      9.5240782     23  2.300                                             
  local pseudopotential read in
  partial core-charges read in
  partial kinetic energy density read in
  atomic valenz-charges read in
  non local Contribution for L=           1  read in
    real space projection operators read in
  non local Contribution for L=           1  read in
    real space projection operators read in
  non local Contribution for L=           2  read in
    real space projection operators read in
  non local Contribution for L=           2  read in
    real space projection operators read in
  non local Contribution for L=           0  read in
    real space projection operators read in
  non local Contribution for L=           0  read in
    real space projection operators read in
    PAW grid and wavefunctions read in
 
   number of l-projection  operators is LMAX  =           6
   number of lm-projection operators is LMMAX =          18
 
 POTCAR:    PAW_PBE F 08Apr2002                   
   VRHFIN =F: s2p5                                                              
   LEXCH  = PE                                                                  
   EATOM  =   659.6475 eV,   48.4827 Ry                                         
                                                                                
   TITEL  = PAW_PBE F 08Apr2002                                                 
   LULTRA =        F    use ultrasoft PP ?                                      
   IUNSCR =        1    unscreen: 0-lin 1-nonlin 2-no                           
   RPACOR =    1.200    partial core radius                                     
   POMASS =   18.998; ZVAL   =    7.000    mass and valenz                      
   RCORE  =    1.520    outmost cutoff radius                                   
   RWIGS  =    1.500; RWIGS  =    0.794    wigner-seitz radius (au A)           
   ENMAX  =  400.000; ENMIN  =  300.000 eV                                      
   ICORE  =        2    local potential                                         
   LCOR   =        T    correct aug charges                                     
   LPAW   =        T    paw PP                                                  
   EAUG   =  613.614                                                            
   RMAX   =    1.555    core radius for proj-oper                               
   RAUG   =    1.300    factor for augmentation sphere                          
   RDEP   =    1.539    radius for radial grids                                 
   RDEPT  =    1.299    core radius for aug-charge                              
                                                                                
   Atomic configuration                                                         
    4 entries                                                                   
     n  l   j            E        occ.                                          
     1  0  0.50      -663.3661   2.0000                                         
     2  0  0.50       -29.8995   2.0000                                         
     2  1  0.50       -11.1114   5.0000                                         
     3  2  1.50       -10.8847   0.0000                                         
   Description                                                                  
     l       E           TYP  RCUT    TYP  RCUT                                 
     0    -29.8995018     23  1.200                                             
     0     -9.5240782     23  1.200                                             
     1    -11.1113914     23  1.520                                             
     1      1.3605826     23  1.520                                             
     2    -10.8846608      7  1.500                                             
  local pseudopotential read in
  partial core-charges read in
  partial kinetic energy density read in
  atomic valenz-charges read in
  non local Contribution for L=           0  read in
    real space projection operators read in
  non local Contribution for L=           0  read in
    real space projection operators read in
  non local Contribution for L=           1  read in
    real space projection operators read in
  non local Contribution for L=           1  read in
    real space projection operators read in
    PAW grid and wavefunctions read in
 
   number of l-projection  operators is LMAX  =           4
   number of lm-projection operators is LMMAX =           8
 
  PAW_PBE Mn_pv 02Aug2007               :
 energy of atom  1       EATOM=-2025.2664
 kinetic energy error for atom=    0.0020 (will be added to EATOM!!)
  PAW_PBE F 08Apr2002                   :
 energy of atom  2       EATOM= -659.6475
 kinetic energy error for atom=    0.0140 (will be added to EATOM!!)
 
 
 POSCAR: Mn  F                                   
  positions in cartesian coordinates
  No initial velocities read in

 METAGGA = SCAN     LMAXTAU =  6    LMIXTAU =  F

 exchange correlation table for  LEXCH =        8
   RHO(1)=    0.500       N(1)  =     2000
   RHO(2)=  100.500       N(2)  =     4000
 


--------------------------------------------------------------------------------------------------------


 ion  position               nearest neighbor table
   1  0.500  0.500  0.500-   3 2.09   4 2.09   5 2.12   6 2.12   5 2.12   6 2.12
   2  0.000  0.000  0.000-   5 2.09   6 2.09   3 2.12   4 2.12   3 2.12   4 2.12
   3  0.196  0.804  0.500-   1 2.09   2 2.12   2 2.12
   4  0.804  0.196  0.500-   1 2.09   2 2.12   2 2.12
   5  0.304  0.304  0.000-   2 2.09   1 2.12   1 2.12
   6  0.696  0.696  0.000-   2 2.09   1 2.12   1 2.12
 
  LATTYP: Found a simple tetragonal cell.
 ALAT       =     4.8525685001
 C/A-ratio  =     0.6775817662
  
  Lattice vectors:
  
 A1 = (   4.8525685001,   0.0000000000,   0.0000000000)
 A2 = (   0.0000000000,   4.8525685001,   0.0000000000)
 A3 = (   0.0000000000,   0.0000000000,   3.2880119349)


Analysis of symmetry for initial positions (statically):
=====================================================================
 Subroutine PRICEL returns:
 Original cell was already a primitive cell.
 

 Routine SETGRP: Setting up the symmetry group for a 
 simple tetragonal supercell.


 Subroutine GETGRP returns: Found 16 space group operations
 (whereof  8 operations were pure point group operations)
 out of a pool of 16 trial point group operations.


The static configuration has the point symmetry D_2h.
 The point group associated with its full space group is D_4h.


Analysis of symmetry for dynamics (positions and initial velocities):
=====================================================================
 Subroutine PRICEL returns:
 Original cell was already a primitive cell.
 

 Routine SETGRP: Setting up the symmetry group for a 
 simple tetragonal supercell.


 Subroutine GETGRP returns: Found 16 space group operations
 (whereof  8 operations were pure point group operations)
 out of a pool of 16 trial point group operations.


The dynamic configuration has the point symmetry D_2h.
 The point group associated with its full space group is D_4h.


Analysis of structural, dynamic, and magnetic symmetry:
=====================================================================
 Subroutine PRICEL returns:
 Original cell was already a primitive cell.
 

 Routine SETGRP: Setting up the symmetry group for a 
 simple tetragonal supercell.


 Subroutine GETGRP returns: Found 16 space group operations
 (whereof  8 operations were pure point group operations)
 out of a pool of 16 trial point group operations.


The magnetic configuration has the point symmetry D_2h.
 The point group associated with its full space group is D_4h.


 Subroutine INISYM returns: Found 16 space group operations
 (whereof  8 operations are pure point group operations),
 and found     1 'primitive' translations

 
 
 KPOINTS: KPOINTS created by Atomic Simulation Env

Automatic generation of k-mesh.
Space group operators:
 irot       det(A)        alpha          n_x          n_y          n_z        tau_x        tau_y        tau_z
    1     1.000000     0.000000     1.000000     0.000000     0.000000     0.000000     0.000000     0.000000
    2    -1.000000     0.000000     1.000000     0.000000     0.000000     0.000000     0.000000     0.000000
    3     1.000000   180.000000     0.000000     0.000000     1.000000     0.000000     0.000000     0.000000
    4    -1.000000   180.000000     0.000000     0.000000     1.000000     0.000000     0.000000     0.000000
    5     1.000000   180.000000     0.707107     0.707107     0.000000     0.000000     0.000000     0.000000
    6    -1.000000   180.000000     0.707107     0.707107     0.000000     0.000000     0.000000     0.000000
    7     1.000000   180.000000     0.707107    -0.707107     0.000000     0.000000     0.000000     0.000000
    8    -1.000000   180.000000     0.707107    -0.707107     0.000000     0.000000     0.000000     0.000000
    9     1.000000    90.000000     0.000000     0.000000    -1.000000     0.500000     0.500000     0.500000
   10    -1.000000    90.000000     0.000000     0.000000    -1.000000     0.500000     0.500000     0.500000
   11     1.000000    90.000000     0.000000     0.000000     1.000000     0.500000     0.500000     0.500000
   12    -1.000000    90.000000     0.000000     0.000000     1.000000     0.500000     0.500000     0.500000
   13     1.000000   180.000000     0.000000     1.000000     0.000000     0.500000     0.500000     0.500000
   14    -1.000000   180.000000     0.000000     1.000000     0.000000     0.500000     0.500000     0.500000
   15     1.000000   180.000000     1.000000     0.000000     0.000000     0.500000     0.500000     0.500000
   16    -1.000000   180.000000     1.000000     0.000000     0.000000     0.500000     0.500000     0.500000
 
 Subroutine IBZKPT returns following result:
 ===========================================
 
 Found      9 irreducible k-points:
 
 Following reciprocal coordinates:
            Coordinates               Weight
  0.125000  0.125000  0.083333      8.000000
  0.375000  0.125000  0.083333     16.000000
  0.375000  0.375000  0.083333      8.000000
  0.125000  0.125000  0.250000      8.000000
  0.375000  0.125000  0.250000     16.000000
  0.375000  0.375000  0.250000      8.000000
  0.125000  0.125000  0.416667      8.000000
  0.375000  0.125000  0.416667     16.000000
  0.375000  0.375000  0.416667      8.000000
 
 Following cartesian coordinates:
            Coordinates               Weight
  0.025760  0.025760  0.025345      8.000000
  0.077279  0.025760  0.025345     16.000000
  0.077279  0.077279  0.025345      8.000000
  0.025760  0.025760  0.076034      8.000000
  0.077279  0.025760  0.076034     16.000000
  0.077279  0.077279  0.076034      8.000000
  0.025760  0.025760  0.126723      8.000000
  0.077279  0.025760  0.126723     16.000000
  0.077279  0.077279  0.126723      8.000000
 


--------------------------------------------------------------------------------------------------------




 Dimension of arrays:
   k-points           NKPTS =      9   k-points in BZ     NKDIM =      9   number of bands    NBANDS=     36
   number of dos      NEDOS =    301   number of ions     NIONS =      6
   non local maximal  LDIM  =      6   non local SUM 2l+1 LMDIM =     18
   total plane-waves  NPLWV =  24576
   max r-space proj   IRMAX =      1   max aug-charges    IRDMAX=  77241
   dimension x,y,z NGX =    32 NGY =   32 NGZ =   24
   dimension x,y,z NGXF=    64 NGYF=   64 NGZF=   48
   support grid    NGXF=   128 NGYF=  128 NGZF=   96
   ions per type =               2   4
   NGX,Y,Z   is equivalent  to a cutoff of  10.96, 10.96, 12.13 a.u.
   NGXF,Y,Z  is equivalent  to a cutoff of  21.93, 21.93, 24.27 a.u.

 SYSTEM =  unknown system                          
 POSCAR =  Mn  F                                   

 Startparameter for this run:
   NWRITE =      2    write-flag & timer
   PREC   = normal    normal or accurate (medium, high low for compatibility)
   ISTART =      0    job   : 0-new  1-cont  2-samecut
   ICHARG =      2    charge: 1-file 2-atom 10-const
   ISPIN  =      2    spin polarized calculation?
   LNONCOLLINEAR =      F non collinear calculations
   LSORBIT =      F    spin-orbit coupling
   INIWAV =      1    electr: 0-lowe 1-rand  2-diag
   LASPH  =      T    aspherical Exc in radial PAW
   METAGGA=      F    non-selfconsistent MetaGGA calc.

 Electronic Relaxation 1
   ENCUT  =  700.0 eV  51.45 Ry    7.17 a.u.  10.47 10.47  7.09*2*pi/ulx,y,z
   ENINI  =  700.0     initial cutoff
   ENAUG  =  613.6 eV  augmentation charge cutoff
   NELM   =     60;   NELMIN=  2; NELMDL= -5     # of ELM steps 
   EDIFF  = 0.1E-06   stopping-criterion for ELM
   LREAL  =      F    real-space projection
   NLSPLINE    = F    spline interpolate recip. space projectors
   LCOMPAT=      F    compatible to vasp.4.4
   GGA_COMPAT  = T    GGA compatible to vasp.4.4-vasp.4.6
   LMAXPAW     = -100 max onsite density
   LMAXMIX     =    4 max onsite mixed and CHGCAR
   VOSKOWN=      0    Vosko Wilk Nusair interpolation
   ROPT   =    0.00000   0.00000
 Ionic relaxation
   EDIFFG = -.5E-02   stopping-criterion for IOM
   NSW    =     50    number of steps for IOM
   NBLOCK =      1;   KBLOCK =     50    inner block; outer block 
   IBRION =      2    ionic relax: 0-MD 1-quasi-New 2-CG
   NFREE  =      1    steps in history (QN), initial steepest desc. (CG)
   ISIF   =      3    stress and relaxation
   IWAVPR =     11    prediction:  0-non 1-charg 2-wave 3-comb
   ISYM   =      2    0-nonsym 1-usesym 2-fastsym
   LCORR  =      T    Harris-Foulkes like correction to forces

   POTIM  = 0.5000    time-step for ionic-motion
   TEIN   =    0.0    initial temperature
   TEBEG  =    0.0;   TEEND  =   0.0 temperature during run
   SMASS  =  -3.00    Nose mass-parameter (am)
   estimated Nose-frequenzy (Omega)   =  0.10E-29 period in steps =****** mass=  -0.538E-27a.u.
   SCALEE = 1.0000    scale energy and forces
   NPACO  =    256;   APACO  = 16.0  distance and # of slots for P.C.
   PSTRESS=    0.0 pullay stress

  Mass of Ions in am
   POMASS =  54.94 19.00
  Ionic Valenz
   ZVAL   =  13.00  7.00
  Atomic Wigner-Seitz radii
   RWIGS  =  -1.00 -1.00
  virtual crystal weights 
   VCA    =   1.00  1.00
   NELECT =      54.0000    total number of electrons
   NUPDOWN=      -1.0000    fix difference up-down

 DOS related values:
   EMIN   =  10.00;   EMAX   =-10.00  energy-range for DOS
   EFERMI =   0.00
   ISMEAR =     0;   SIGMA  =   0.02  broadening in eV -4-tet -1-fermi 0-gaus

 Electronic relaxation 2 (details)
   IALGO  =     38    algorithm
   LDIAG  =      T    sub-space diagonalisation (order eigenvalues)
   LSUBROT=      F    optimize rotation matrix (better conditioning)
   TURBO    =      0    0=normal 1=particle mesh
   IRESTART =      0    0=no restart 2=restart with 2 vectors
   NREBOOT  =      0    no. of reboots
   NMIN     =      0    reboot dimension
   EREF     =   0.00    reference energy to select bands
   IMIX   =      4    mixing-type and parameters
     AMIX     =   0.40;   BMIX     =  1.00
     AMIX_MAG =   1.60;   BMIX_MAG =  1.00
     AMIN     =   0.10
     WC   =   100.;   INIMIX=   1;  MIXPRE=   1;  MAXMIX= -45

 Intra band minimization:
   WEIMIN = 0.0010     energy-eigenvalue tresh-hold
   EBREAK =  0.69E-09  absolut break condition
   DEPER  =   0.30     relativ break condition  

   TIME   =   0.40     timestep for ELM

  volume/ion in A,a.u.               =      12.90        87.08
  Fermi-wavevector in a.u.,A,eV,Ry     =   1.451824  2.743549 28.678246  2.107792
  Thomas-Fermi vector in A             =   2.569276
 
 Write flags
   LWAVE        =      F    write WAVECAR
   LDOWNSAMPLE  =      F    k-point downsampling of WAVECAR
   LCHARG       =      F    write CHGCAR
   LVTOT        =      F    write LOCPOT, total local potential
   LVHAR        =      F    write LOCPOT, Hartree potential only
   LELF         =      F    write electronic localiz. function (ELF)
   LORBIT       =     11    0 simple, 1 ext, 2 COOP (PROOUT), +10 PAW based schemes


 Dipole corrections
   LMONO  =      F    monopole corrections only (constant potential shift)
   LDIPOL =      F    correct potential (dipole corrections)
   IDIPOL =      0    1-x, 2-y, 3-z, 4-all directions 
   EPSILON=  1.0000000 bulk dielectric constant

 LDA+U is selected, type is set to LDAUTYPE =  2
   angular momentum for each species LDAUL =     2   -1
   U (eV)           for each species LDAUU =   0.0  0.0
   J (eV)           for each species LDAUJ =   0.0  0.0
 Exchange correlation treatment:
   GGA     =    --    GGA type
   LEXCH   =     8    internal setting for exchange type
   VOSKOWN=      0    Vosko Wilk Nusair interpolation
   LHFCALC =     F    Hartree Fock is set to
   LHFONE  =     F    Hartree Fock one center treatment
   AEXX    =    0.0000 exact exchange contribution

 Linear response parameters
   LEPSILON=     F    determine dielectric tensor
   LRPA    =     F    only Hartree local field effects (RPA)
   LNABLA  =     F    use nabla operator in PAW spheres
   LVEL    =     F    velocity operator in full k-point grid
   LINTERFAST=   F  fast interpolation
   KINTER  =     0    interpolate to denser k-point grid
   CSHIFT  =0.1000    complex shift for real part using Kramers Kronig
   OMEGAMAX=  -1.0    maximum frequency
   DEG_THRESHOLD= 0.2000000E-02 threshold for treating states as degnerate
   RTIME   =   -0.100 relaxation time in fs
  (WPLASMAI=    0.000 imaginary part of plasma frequency in eV, 0.658/RTIME)
   DFIELD  = 0.0000000 0.0000000 0.0000000 field for delta impulse in time
 
 Orbital magnetization related:
   ORBITALMAG=     F  switch on orbital magnetization
   LCHIMAG   =     F  perturbation theory with respect to B field
   DQ        =  0.001000  dq finite difference perturbation B field
   LLRAUG    =     F  two centre corrections for induced B field



--------------------------------------------------------------------------------------------------------


 conjugate gradient relaxation of ions
 charge density and potential will be updated during run
 spin polarized calculation
 Variant of blocked Davidson
 Davidson routine will perform the subspace rotation
 perform sub-space diagonalisation
    after iterative eigenvector-optimisation
 modified Broyden-mixing scheme, WC =      100.0
 initial mixing is a Kerker type mixing with AMIX =  0.4000 and BMIX =      1.0000
 Hartree-type preconditioning will be used
 using additional bands            9
 reciprocal scheme for non local part
 use partial core corrections
 calculate Harris-corrections to forces 
   (improved forces if not selfconsistent)
 use gradient corrections 
 use of overlap-Matrix (Vanderbilt PP)
 Gauss-broadening in eV      SIGMA  =   0.02


--------------------------------------------------------------------------------------------------------


  energy-cutoff  :      700.00
  volume of cell :       77.42
      direct lattice vectors                 reciprocal lattice vectors
     4.852568500  0.000000000  0.000000000     0.206076431  0.000000000  0.000000000
     0.000000000  4.852568500  0.000000000     0.000000000  0.206076431  0.000000000
     0.000000000  0.000000000  3.288011935     0.000000000  0.000000000  0.304135149

  length of vectors
     4.852568500  4.852568500  3.288011935     0.206076431  0.206076431  0.304135149


 
 k-points in units of 2pi/SCALE and weight: KPOINTS created by Atomic Simulation Env
   0.02575955  0.02575955  0.02534460       0.083
   0.07727866  0.02575955  0.02534460       0.167
   0.07727866  0.07727866  0.02534460       0.083
   0.02575955  0.02575955  0.07603379       0.083
   0.07727866  0.02575955  0.07603379       0.167
   0.07727866  0.07727866  0.07603379       0.083
   0.02575955  0.02575955  0.12672298       0.083
   0.07727866  0.02575955  0.12672298       0.167
   0.07727866  0.07727866  0.12672298       0.083
 
 k-points in reciprocal lattice and weights: KPOINTS created by Atomic Simulation Env
   0.12500000  0.12500000  0.08333333       0.083
   0.37500000  0.12500000  0.08333333       0.167
   0.37500000  0.37500000  0.08333333       0.083
   0.12500000  0.12500000  0.25000000       0.083
   0.37500000  0.12500000  0.25000000       0.167
   0.37500000  0.37500000  0.25000000       0.083
   0.12500000  0.12500000  0.41666667       0.083
   0.37500000  0.12500000  0.41666667       0.167
   0.37500000  0.37500000  0.41666667       0.083
 
 position of ions in fractional coordinates (direct lattice) 
   0.50000000  0.50000000  0.50000000
   0.00000000  0.00000000  0.00000000
   0.19609954  0.80390046  0.50000000
   0.80390046  0.19609954  0.50000000
   0.30390046  0.30390046  0.00000000
   0.69609954  0.69609954  0.00000000
 
 position of ions in cartesian coordinates  (Angst):
   2.42628425  2.42628425  1.64400597
   0.00000000  0.00000000  0.00000000
   0.95158645  3.90098205  1.64400597
   3.90098205  0.95158645  1.64400597
   1.47469780  1.47469780  0.00000000
   3.37787070  3.37787070  0.00000000
 


--------------------------------------------------------------------------------------------------------


 k-point  1 :   0.1250 0.1250 0.0833  plane waves:    3264
 k-point  2 :   0.3750 0.1250 0.0833  plane waves:    3240
 k-point  3 :   0.3750 0.3750 0.0833  plane waves:    3236
 k-point  4 :   0.1250 0.1250 0.2500  plane waves:    3251
 k-point  5 :   0.3750 0.1250 0.2500  plane waves:    3270
 k-point  6 :   0.3750 0.3750 0.2500  plane waves:    3246
 k-point  7 :   0.1250 0.1250 0.4167  plane waves:    3264
 k-point  8 :   0.3750 0.1250 0.4167  plane waves:    3267
 k-point  9 :   0.3750 0.3750 0.4167  plane waves:    3263

 maximum and minimum number of plane-waves per node :      3270     3236

 maximum number of plane-waves:      3270
 maximum index in each direction: 
   IXMAX=   10   IYMAX=   10   IZMAX=    7
   IXMIN=  -10   IYMIN=  -10   IZMIN=   -7


 serial   3D FFT for wavefunctions
 parallel 3D FFT for charge:
    minimum data exchange during FFTs selected (reduces bandwidth)


 total amount of memory used by VASP MPI-rank0    49910. kBytes
=======================================================================

   base      :      30000. kBytes
   nonl-proj :       8805. kBytes
   fftplans  :       2625. kBytes
   grid      :       5402. kBytes
   one-center:        186. kBytes
   wavefun   :       2892. kBytes
 
     INWAV:  cpu time    0.0000: real time    0.0000
 Broyden mixing: mesh for mixing (old mesh)
   NGX = 21   NGY = 21   NGZ = 15
  (NGX  = 64   NGY  = 64   NGZ  = 48)
  gives a total of   6615 points

 initial charge density was supplied:
 charge density of overlapping atoms calculated
 number of electron      54.0000000 magnetization       0.0000000
 keeping initial charge density in first step


--------------------------------------------------------------------------------------------------------


 Maximum index for augmentation-charges         6973 (set IRDMAX)


--------------------------------------------------------------------------------------------------------


 First call to EWALD:  gamma=   0.416
 Maximum number of real-space cells 2x 2x 3
 Maximum number of reciprocal cells 3x 3x 2

    FEWALD:  cpu time    0.0010: real time    0.0010


--------------------------------------- Iteration      1(   1)  ---------------------------------------


    POTLOK:  cpu time    0.0442: real time    0.0442
    SETDIJ:  cpu time    0.7836: real time    0.7836
atom =   1  type =  1  l = 2
 
 onsite density matrix
 
spin component  1
 
  0.2835  0.0000  0.0000  0.0000  0.0000
  0.0000  0.2835  0.0000  0.0000  0.0000
  0.0000  0.0000  0.2835  0.0000  0.0000
  0.0000  0.0000  0.0000  0.2835  0.0000
  0.0000  0.0000  0.0000  0.0000  0.2835
 
spin component  2
 
  0.7694  0.0000  0.0000  0.0000  0.0000
  0.0000  0.7694  0.0000  0.0000  0.0000
  0.0000  0.0000  0.7694  0.0000  0.0000
  0.0000  0.0000  0.0000  0.7694  0.0000
  0.0000  0.0000  0.0000  0.0000  0.7694
 
 occupancies and eigenvectors
 
  o =  0.2835  v =  1.0000  0.0000  0.0000  0.0000  0.0000  0.0000  0.0000  0.0000  0.0000  0.0000      0.0000  0.0000  0.0000  0.0000  0.0000  0.0000  0.0000  0.0000  0.0000  0.0000
  o =  0.2835  v =  0.0000  1.0000  0.0000  0.0000  0.0000  0.0000  0.0000  0.0000  0.0000  0.0000      0.0000  0.0000  0.0000  0.0000  0.0000  0.0000  0.0000  0.0000  0.0000  0.0000
  o =  0.2835  v =  0.0000  0.0000  1.0000  0.0000  0.0000  0.0000  0.0000  0.0000  0.0000  0.0000      0.0000  0.0000  0.0000  0.0000  0.0000  0.0000  0.0000  0.0000  0.0000  0.0000
  o =  0.2835  v =  0.0000  0.0000  0.0000  1.0000  0.0000  0.0000  0.0000  0.0000  0.0000  0.0000      0.0000  0.0000  0.0000  0.0000  0.0000  0.0000  0.0000  0.0000  0.0000  0.0000
  o =  0.2835  v =  0.0000  0.0000  0.0000  0.0000  1.0000  0.0000  0.0000  0.0000  0.0000  0.0000      0.0000  0.0000  0.0000  0.0000  0.0000  0.0000  0.0000  0.0000  0.0000  0.0000
  o =  0.7694  v =  0.0000  0.0000  0.0000  0.0000  0.0000  1.0000  0.0000  0.0000  0.0000  0.0000      0.0000  0.0000  0.0000  0.0000  0.0000  0.0000  0.0000  0.0000  0.0000  0.0000
  o =  0.7694  v =  0.0000  0.0000  0.0000  0.0000  0.0000  0.0000  1.0000  0.0000  0.0000  0.0000      0.0000  0.0000  0.0000  0.0000  0.0000  0.0000  0.0000  0.0000  0.0000  0.0000
  o =  0.7694  v =  0.0000  0.0000  0.0000  0.0000  0.0000  0.0000  0.0000  1.0000  0.0000  0.0000      0.0000  0.0000  0.0000  0.0000  0.0000  0.0000  0.0000  0.0000  0.0000  0.0000
  o =  0.7694  v =  0.0000  0.0000  0.0000  0.0000  0.0000  0.0000  0.0000  0.0000  1.0000  0.0000      0.0000  0.0000  0.0000  0.0000  0.0000  0.0000  0.0000  0.0000  0.0000  0.0000
  o =  0.7694  v =  0.0000  0.0000  0.0000  0.0000  0.0000  0.0000  0.0000  0.0000  0.0000  1.0000      0.0000  0.0000  0.0000  0.0000  0.0000  0.0000  0.0000  0.0000  0.0000  0.0000
atom =   2  type =  1  l = 2
 
 onsite density matrix
 
spin component  1
 
  0.7694  0.0000  0.0000  0.0000  0.0000
  0.0000  0.7694  0.0000  0.0000  0.0000
  0.0000  0.0000  0.7694  0.0000  0.0000
  0.0000  0.0000  0.0000  0.7694  0.0000
  0.0000  0.0000  0.0000  0.0000  0.7694
 
spin component  2
 
  0.2835  0.0000  0.0000  0.0000  0.0000
  0.0000  0.2835  0.0000  0.0000  0.0000
  0.0000  0.0000  0.2835  0.0000  0.0000
  0.0000  0.0000  0.0000  0.2835  0.0000
  0.0000  0.0000  0.0000  0.0000  0.2835
 
 occupancies and eigenvectors
 
  o =  0.2835  v =  0.0000  0.0000  0.0000  0.0000  0.0000  1.0000  0.0000  0.0000  0.0000  0.0000      0.0000  0.0000  0.0000  0.0000  0.0000  0.0000  0.0000  0.0000  0.0000  0.0000
  o =  0.2835  v =  0.0000  0.0000  0.0000  0.0000  0.0000  0.0000  1.0000  0.0000  0.0000  0.0000      0.0000  0.0000  0.0000  0.0000  0.0000  0.0000  0.0000  0.0000  0.0000  0.0000
  o =  0.2835  v =  0.0000  0.0000  0.0000  0.0000  0.0000  0.0000  0.0000  1.0000  0.0000  0.0000      0.0000  0.0000  0.0000  0.0000  0.0000  0.0000  0.0000  0.0000  0.0000  0.0000
  o =  0.2835  v =  0.0000  0.0000  0.0000  0.0000  0.0000  0.0000  0.0000  0.0000  1.0000  0.0000      0.0000  0.0000  0.0000  0.0000  0.0000  0.0000  0.0000  0.0000  0.0000  0.0000
  o =  0.2835  v =  0.0000  0.0000  0.0000  0.0000  0.0000  0.0000  0.0000  0.0000  0.0000  1.0000      0.0000  0.0000  0.0000  0.0000  0.0000  0.0000  0.0000  0.0000  0.0000  0.0000
  o =  0.7694  v =  1.0000  0.0000  0.0000  0.0000  0.0000  0.0000  0.0000  0.0000  0.0000  0.0000      0.0000  0.0000  0.0000  0.0000  0.0000  0.0000  0.0000  0.0000  0.0000  0.0000
  o =  0.7694  v =  0.0000  1.0000  0.0000  0.0000  0.0000  0.0000  0.0000  0.0000  0.0000  0.0000      0.0000  0.0000  0.0000  0.0000  0.0000  0.0000  0.0000  0.0000  0.0000  0.0000
  o =  0.7694  v =  0.0000  0.0000  1.0000  0.0000  0.0000  0.0000  0.0000  0.0000  0.0000  0.0000      0.0000  0.0000  0.0000  0.0000  0.0000  0.0000  0.0000  0.0000  0.0000  0.0000
  o =  0.7694  v =  0.0000  0.0000  0.0000  1.0000  0.0000  0.0000  0.0000  0.0000  0.0000  0.0000      0.0000  0.0000  0.0000  0.0000  0.0000  0.0000  0.0000  0.0000  0.0000  0.0000
  o =  0.7694  v =  0.0000  0.0000  0.0000  0.0000  1.0000  0.0000  0.0000  0.0000  0.0000  0.0000      0.0000  0.0000  0.0000  0.0000  0.0000  0.0000  0.0000  0.0000  0.0000  0.0000
     EDDAV:  cpu time    0.8872: real time    0.9053
       DOS:  cpu time    0.0004: real time    0.0004
    --------------------------------------------
      LOOP:  cpu time    1.7154: real time    1.7335

 eigenvalue-minimisations  :  1296
 total energy-change (2. order) : 0.1011817E+04  (-0.4143625E+04)
 number of electron      54.0000000 magnetization      -0.0000000
 augmentation part       54.0000000 magnetization      -0.0000000

 Free energy of the ion-electron system (eV)
  ---------------------------------------------------
  alpha Z        PSCENC =       199.38838823
  Ewald energy   TEWEN  =     -4203.06823030
  -Hartree energ DENC   =     -2130.62061718
  -exchange      EXHF   =         0.00000000
  -V(xc)+E(xc)   XCENC  =        -3.96114612
  PAW double counting   =      5566.43601843    -5528.13058630
  entropy T*S    EENTRO =        -0.00225980
  eigenvalues    EBANDS =       422.71295697
  atomic energy  EATOM  =      6689.06280133
  Solvation  Ediel_sol  =         0.00000000
  ---------------------------------------------------
  free energy    TOTEN  =      1011.81732526 eV

  energy without entropy =     1011.81958507  energy(sigma->0) =     1011.81845517


--------------------------------------------------------------------------------------------------------




--------------------------------------- Iteration      1(   2)  ---------------------------------------


     EDDAV:  cpu time    0.9738: real time    0.9739
       DOS:  cpu time    0.0005: real time    0.0005
    --------------------------------------------
      LOOP:  cpu time    0.9743: real time    0.9744

 eigenvalue-minimisations  :  1488
 total energy-change (2. order) :-0.5943371E+03  (-0.5707419E+03)
 number of electron      54.0000000 magnetization      -0.0000000
 augmentation part       54.0000000 magnetization      -0.0000000

 Free energy of the ion-electron system (eV)
  ---------------------------------------------------
  alpha Z        PSCENC =       199.38838823
  Ewald energy   TEWEN  =     -4203.06823030
  -Hartree energ DENC   =     -2130.62061718
  -exchange      EXHF   =         0.00000000
  -V(xc)+E(xc)   XCENC  =        -3.96114612
  PAW double counting   =      5566.43601843    -5528.13058630
  entropy T*S    EENTRO =        -0.00134568
  eigenvalues    EBANDS =      -171.62506792
  atomic energy  EATOM  =      6689.06280133
  Solvation  Ediel_sol  =         0.00000000
  ---------------------------------------------------
  free energy    TOTEN  =       417.48021449 eV

  energy without entropy =      417.48156017  energy(sigma->0) =      417.48088733


--------------------------------------------------------------------------------------------------------




--------------------------------------- Iteration      1(   3)  ---------------------------------------


     EDDAV:  cpu time    0.9574: real time    0.9574
       DOS:  cpu time    0.0002: real time    0.0002
    --------------------------------------------
      LOOP:  cpu time    0.9576: real time    0.9576

 eigenvalue-minimisations  :  1440
 total energy-change (2. order) :-0.3900379E+02  (-0.3833444E+02)
 number of electron      54.0000000 magnetization      -0.0000000
 augmentation part       54.0000000 magnetization      -0.0000000

 Free energy of the ion-electron system (eV)
  ---------------------------------------------------
  alpha Z        PSCENC =       199.38838823
  Ewald energy   TEWEN  =     -4203.06823030
  -Hartree energ DENC   =     -2130.62061718
  -exchange      EXHF   =         0.00000000
  -V(xc)+E(xc)   XCENC  =        -3.96114612
  PAW double counting   =      5566.43601843    -5528.13058630
  entropy T*S    EENTRO =        -0.00000000
  eigenvalues    EBANDS =      -210.63020209
  atomic energy  EATOM  =      6689.06280133
  Solvation  Ediel_sol  =         0.00000000
  ---------------------------------------------------
  free energy    TOTEN  =       378.47642601 eV

  energy without entropy =      378.47642601  energy(sigma->0) =      378.47642601


--------------------------------------------------------------------------------------------------------




--------------------------------------- Iteration      1(   4)  ---------------------------------------


     EDDAV:  cpu time    0.9944: real time    0.9944
       DOS:  cpu time    0.0002: real time    0.0002
    --------------------------------------------
      LOOP:  cpu time    0.9946: real time    0.9946

 eigenvalue-minimisations  :  1536
 total energy-change (2. order) :-0.5564637E+00  (-0.5559015E+00)
 number of electron      54.0000000 magnetization      -0.0000000
 augmentation part       54.0000000 magnetization      -0.0000000

 Free energy of the ion-electron system (eV)
  ---------------------------------------------------
  alpha Z        PSCENC =       199.38838823
  Ewald energy   TEWEN  =     -4203.06823030
  -Hartree energ DENC   =     -2130.62061718
  -exchange      EXHF   =         0.00000000
  -V(xc)+E(xc)   XCENC  =        -3.96114612
  PAW double counting   =      5566.43601843    -5528.13058630
  entropy T*S    EENTRO =        -0.00000000
  eigenvalues    EBANDS =      -211.18666577
  atomic energy  EATOM  =      6689.06280133
  Solvation  Ediel_sol  =         0.00000000
  ---------------------------------------------------
  free energy    TOTEN  =       377.91996233 eV

  energy without entropy =      377.91996233  energy(sigma->0) =      377.91996233


--------------------------------------------------------------------------------------------------------




--------------------------------------- Iteration      1(   5)  ---------------------------------------


     EDDAV:  cpu time    0.9696: real time    0.9696
       DOS:  cpu time    0.0002: real time    0.0002
    CHARGE:  cpu time    0.1941: real time    0.1941
    MIXING:  cpu time    0.0007: real time    0.0007
    --------------------------------------------
      LOOP:  cpu time    1.1646: real time    1.1646

 eigenvalue-minimisations  :  1476
 total energy-change (2. order) :-0.8969674E-02  (-0.8969156E-02)
 number of electron      54.0000000 magnetization      -0.0000000
 augmentation part       22.8132740 magnetization      -0.0000000

 Broyden mixing:
  rms(total) = 0.59216E+01    rms(broyden)= 0.59215E+01
  rms(prec ) = 0.61930E+01
  weight for this iteration     100.00

 Free energy of the ion-electron system (eV)
  ---------------------------------------------------
  alpha Z        PSCENC =       199.38838823
  Ewald energy   TEWEN  =     -4203.06823030
  -Hartree energ DENC   =     -2130.62061718
  -exchange      EXHF   =         0.00000000
  -V(xc)+E(xc)   XCENC  =        -3.96114612
  PAW double counting   =      5566.43601843    -5528.13058630
  entropy T*S    EENTRO =        -0.00000000
  eigenvalues    EBANDS =      -211.19563544
  atomic energy  EATOM  =      6689.06280133
  Solvation  Ediel_sol  =         0.00000000
  ---------------------------------------------------
  free energy    TOTEN  =       377.91099266 eV

  energy without entropy =      377.91099266  energy(sigma->0) =      377.91099266


--------------------------------------------------------------------------------------------------------




--------------------------------------- Iteration      1(   6)  ---------------------------------------


    POTLOK:  cpu time    0.0419: real time    0.0419
    SETDIJ:  cpu time    0.7964: real time    0.7964
atom =   1  type =  1  l = 2
 
 onsite density matrix
 
spin component  1
 
  0.0425  0.0000  0.0707  0.0000 -0.0000
  0.0000  0.0121  0.0000  0.0659  0.0000
  0.0707  0.0000  0.0006  0.0000  0.0000
  0.0000  0.0659  0.0000  0.0121  0.0000
 -0.0000  0.0000  0.0000  0.0000 -0.0725
 
spin component  2
 
  1.0526  0.0000 -0.0349  0.0000  0.0000
  0.0000  1.0688  0.0000 -0.0329  0.0000
 -0.0349  0.0000  1.0732  0.0000 -0.0000
  0.0000 -0.0329  0.0000  1.0688  0.0000
  0.0000  0.0000 -0.0000  0.0000  1.1113
 
 occupancies and eigenvectors
 
  o = -0.0725  v =  0.0000  0.0000 -0.0000  0.0000  1.0000  0.0000  0.0000  0.0000  0.0000  0.0000      0.0000  0.0000  0.0000  0.0000  0.0000  0.0000  0.0000  0.0000  0.0000  0.0000
  o = -0.0538  v =  0.0000  0.7071  0.0000 -0.7071 -0.0000  0.0000  0.0000  0.0000  0.0000  0.0000      0.0000  0.0000  0.0000  0.0000  0.0000  0.0000  0.0000  0.0000  0.0000  0.0000
  o = -0.0522  v = -0.5982  0.0000  0.8014  0.0000  0.0000  0.0000  0.0000  0.0000  0.0000  0.0000      0.0000  0.0000  0.0000  0.0000  0.0000  0.0000  0.0000  0.0000  0.0000  0.0000
  o =  0.0780  v =  0.0000 -0.7071  0.0000 -0.7071  0.0000  0.0000  0.0000  0.0000  0.0000  0.0000      0.0000  0.0000  0.0000  0.0000  0.0000  0.0000  0.0000  0.0000  0.0000  0.0000
  o =  0.0953  v =  0.8014  0.0000  0.5982  0.0000  0.0000  0.0000  0.0000  0.0000  0.0000  0.0000      0.0000  0.0000  0.0000  0.0000  0.0000  0.0000  0.0000  0.0000  0.0000  0.0000
  o =  1.0265  v =  0.0000  0.0000  0.0000  0.0000  0.0000  0.8011 -0.0000  0.5986  0.0000  0.0000      0.0000  0.0000  0.0000  0.0000  0.0000  0.0000  0.0000  0.0000  0.0000  0.0000
  o =  1.0359  v =  0.0000  0.0000  0.0000  0.0000  0.0000  0.0000 -0.7071  0.0000 -0.7071 -0.0000      0.0000  0.0000  0.0000  0.0000  0.0000  0.0000  0.0000  0.0000  0.0000  0.0000
  o =  1.0993  v =  0.0000  0.0000  0.0000  0.0000  0.0000  0.5986  0.0000 -0.8011  0.0000 -0.0000      0.0000  0.0000  0.0000  0.0000  0.0000  0.0000  0.0000  0.0000  0.0000  0.0000
  o =  1.1016  v =  0.0000  0.0000  0.0000  0.0000  0.0000  0.0000  0.7071  0.0000 -0.7071  0.0000      0.0000  0.0000  0.0000  0.0000  0.0000  0.0000  0.0000  0.0000  0.0000  0.0000
  o =  1.1113  v =  0.0000  0.0000  0.0000  0.0000  0.0000  0.0000 -0.0000 -0.0000  0.0000  1.0000      0.0000  0.0000  0.0000  0.0000  0.0000  0.0000  0.0000  0.0000  0.0000  0.0000
atom =   2  type =  1  l = 2
 
 onsite density matrix
 
spin component  1
 
  1.0526  0.0000  0.0349  0.0000  0.0000
  0.0000  1.0688  0.0000  0.0329  0.0000
  0.0349  0.0000  1.0732  0.0000  0.0000
  0.0000  0.0329  0.0000  1.0688  0.0000
  0.0000  0.0000  0.0000  0.0000  1.1113
 
spin component  2
 
  0.0425  0.0000 -0.0707  0.0000 -0.0000
  0.0000  0.0121  0.0000 -0.0659  0.0000
 -0.0707  0.0000  0.0006  0.0000 -0.0000
  0.0000 -0.0659  0.0000  0.0121  0.0000
 -0.0000  0.0000 -0.0000  0.0000 -0.0725
 
 occupancies and eigenvectors
 
  o = -0.0725  v =  0.0000  0.0000  0.0000  0.0000  0.0000  0.0000  0.0000  0.0000  0.0000  1.0000      0.0000  0.0000  0.0000  0.0000  0.0000  0.0000  0.0000  0.0000  0.0000  0.0000
  o = -0.0538  v =  0.0000  0.0000  0.0000  0.0000  0.0000 -0.0000  0.7071 -0.0000  0.7071 -0.0000      0.0000  0.0000  0.0000  0.0000  0.0000  0.0000  0.0000  0.0000  0.0000  0.0000
  o = -0.0522  v =  0.0000  0.0000  0.0000  0.0000  0.0000 -0.5982 -0.0000 -0.8014 -0.0000  0.0000      0.0000  0.0000  0.0000  0.0000  0.0000  0.0000  0.0000  0.0000  0.0000  0.0000
  o =  0.0780  v =  0.0000  0.0000  0.0000  0.0000  0.0000  0.0000  0.7071 -0.0000 -0.7071  0.0000      0.0000  0.0000  0.0000  0.0000  0.0000  0.0000  0.0000  0.0000  0.0000  0.0000
  o =  0.0953  v =  0.0000  0.0000  0.0000  0.0000  0.0000 -0.8014  0.0000  0.5982 -0.0000 -0.0000      0.0000  0.0000  0.0000  0.0000  0.0000  0.0000  0.0000  0.0000  0.0000  0.0000
  o =  1.0265  v =  0.8011 -0.0000 -0.5986  0.0000  0.0000  0.0000  0.0000  0.0000  0.0000  0.0000      0.0000  0.0000  0.0000  0.0000  0.0000  0.0000  0.0000  0.0000  0.0000  0.0000
  o =  1.0359  v =  0.0000  0.7071  0.0000 -0.7071  0.0000  0.0000  0.0000  0.0000  0.0000  0.0000      0.0000  0.0000  0.0000  0.0000  0.0000  0.0000  0.0000  0.0000  0.0000  0.0000
  o =  1.0993  v =  0.5986  0.0000  0.8011  0.0000 -0.0000  0.0000  0.0000  0.0000  0.0000  0.0000      0.0000  0.0000  0.0000  0.0000  0.0000  0.0000  0.0000  0.0000  0.0000  0.0000
  o =  1.1016  v =  0.0000 -0.7071  0.0000 -0.7071 -0.0000  0.0000  0.0000  0.0000  0.0000  0.0000      0.0000  0.0000  0.0000  0.0000  0.0000  0.0000  0.0000  0.0000  0.0000  0.0000
  o =  1.1113  v =  0.0000 -0.0000  0.0000  0.0000  1.0000  0.0000  0.0000  0.0000  0.0000  0.0000      0.0000  0.0000  0.0000  0.0000  0.0000  0.0000  0.0000  0.0000  0.0000  0.0000
     EDDAV:  cpu time    1.0072: real time    1.0072
       DOS:  cpu time    0.0004: real time    0.0004
    CHARGE:  cpu time    0.1905: real time    0.1905
    MIXING:  cpu time    0.0007: real time    0.0007
    --------------------------------------------
      LOOP:  cpu time    2.0372: real time    2.0372

 eigenvalue-minimisations  :  1560
 total energy-change (2. order) :-0.4463545E+03  (-0.3061875E+02)
 number of electron      54.0000000 magnetization      -0.0000000
 augmentation part       19.6188919 magnetization      -0.0000000

 Broyden mixing:
  rms(total) = 0.63410E+01    rms(broyden)= 0.63410E+01
  rms(prec ) = 0.68104E+01
  weight for this iteration     100.00

 eigenvalues of (default mixing * dielectric matrix)
  average eigenvalue GAMMA=   0.4164
  0.4164

 Free energy of the ion-electron system (eV)
  ---------------------------------------------------
  alpha Z        PSCENC =       199.38838823
  Ewald energy   TEWEN  =     -4203.06823030
  -Hartree energ DENC   =     -2211.66232252
  -exchange      EXHF   =         0.00000000
  -V(xc)+E(xc)   XCENC  =       144.97487185
  PAW double counting   =      6444.81293383    -6411.14336006
  entropy T*S    EENTRO =        -0.00139899
  eigenvalues    EBANDS =      -720.80715449
  atomic energy  EATOM  =      6689.06280133
  Solvation  Ediel_sol  =         0.00000000
  ---------------------------------------------------
  free energy    TOTEN  =       -68.44347113 eV

  energy without entropy =      -68.44207214  energy(sigma->0) =      -68.44277163


--------------------------------------------------------------------------------------------------------




--------------------------------------- Iteration      1(   7)  ---------------------------------------


    POTLOK:  cpu time    0.0413: real time    0.0413
    SETDIJ:  cpu time    0.7835: real time    0.7835
atom =   1  type =  1  l = 2
 
 onsite density matrix
 
spin component  1
 
  0.0880  0.0000  0.0384  0.0000  0.0000
  0.0000  0.0577  0.0000  0.0257  0.0000
  0.0384  0.0000  0.0630  0.0000  0.0000
  0.0000  0.0257  0.0000  0.0577  0.0000
  0.0000  0.0000  0.0000  0.0000  0.0202
 
spin component  2
 
  0.9738  0.0000 -0.0075  0.0000 -0.0000
  0.0000  1.0012  0.0000  0.0085  0.0000
 -0.0075  0.0000  0.9838  0.0000 -0.0000
  0.0000  0.0085  0.0000  1.0012  0.0000
 -0.0000  0.0000 -0.0000  0.0000  0.9976
 
 occupancies and eigenvectors
 
  o =  0.0202  v =  0.0000 -0.0000 -0.0000  0.0000  1.0000  0.0000  0.0000  0.0000  0.0000  0.0000      0.0000  0.0000  0.0000  0.0000  0.0000  0.0000  0.0000  0.0000  0.0000  0.0000
  o =  0.0320  v =  0.0000  0.7071  0.0000 -0.7071  0.0000  0.0000  0.0000  0.0000  0.0000  0.0000      0.0000  0.0000  0.0000  0.0000  0.0000  0.0000  0.0000  0.0000  0.0000  0.0000
  o =  0.0351  v = -0.5877 -0.0000  0.8091  0.0000  0.0000  0.0000  0.0000  0.0000  0.0000  0.0000      0.0000  0.0000  0.0000  0.0000  0.0000  0.0000  0.0000  0.0000  0.0000  0.0000
  o =  0.0835  v =  0.0000 -0.7071  0.0000 -0.7071 -0.0000  0.0000  0.0000  0.0000  0.0000  0.0000      0.0000  0.0000  0.0000  0.0000  0.0000  0.0000  0.0000  0.0000  0.0000  0.0000
  o =  0.1159  v = -0.8091  0.0000 -0.5877  0.0000 -0.0000  0.0000  0.0000  0.0000  0.0000  0.0000      0.0000  0.0000  0.0000  0.0000  0.0000  0.0000  0.0000  0.0000  0.0000  0.0000
  o =  0.9698  v =  0.0000  0.0000  0.0000  0.0000  0.0000  0.8817 -0.0000  0.4717  0.0000  0.0000      0.0000  0.0000  0.0000  0.0000  0.0000  0.0000  0.0000  0.0000  0.0000  0.0000
  o =  0.9878  v =  0.0000  0.0000  0.0000  0.0000  0.0000 -0.4717 -0.0000  0.8817  0.0000  0.0000      0.0000  0.0000  0.0000  0.0000  0.0000  0.0000  0.0000  0.0000  0.0000  0.0000
  o =  0.9927  v =  0.0000  0.0000  0.0000  0.0000  0.0000  0.0000 -0.7071 -0.0000  0.7071  0.0000      0.0000  0.0000  0.0000  0.0000  0.0000  0.0000  0.0000  0.0000  0.0000  0.0000
  o =  0.9976  v =  0.0000  0.0000  0.0000  0.0000  0.0000 -0.0000  0.0000  0.0000  0.0000 -1.0000      0.0000  0.0000  0.0000  0.0000  0.0000  0.0000  0.0000  0.0000  0.0000  0.0000
  o =  1.0097  v =  0.0000  0.0000  0.0000  0.0000  0.0000 -0.0000  0.7071  0.0000  0.7071  0.0000      0.0000  0.0000  0.0000  0.0000  0.0000  0.0000  0.0000  0.0000  0.0000  0.0000
atom =   2  type =  1  l = 2
 
 onsite density matrix
 
spin component  1
 
  0.9738  0.0000  0.0075  0.0000 -0.0000
  0.0000  1.0012  0.0000 -0.0085  0.0000
  0.0075  0.0000  0.9838  0.0000  0.0000
  0.0000 -0.0085  0.0000  1.0012  0.0000
 -0.0000  0.0000  0.0000  0.0000  0.9976
 
spin component  2
 
  0.0880  0.0000 -0.0384  0.0000  0.0000
  0.0000  0.0577  0.0000 -0.0257  0.0000
 -0.0384  0.0000  0.0630  0.0000  0.0000
  0.0000 -0.0257  0.0000  0.0577  0.0000
  0.0000  0.0000  0.0000  0.0000  0.0202
 
 occupancies and eigenvectors
 
  o =  0.0202  v =  0.0000  0.0000  0.0000  0.0000  0.0000  0.0000  0.0000  0.0000  0.0000 -1.0000      0.0000  0.0000  0.0000  0.0000  0.0000  0.0000  0.0000  0.0000  0.0000  0.0000
  o =  0.0320  v =  0.0000  0.0000  0.0000  0.0000  0.0000  0.0000 -0.7071  0.0000 -0.7071 -0.0000      0.0000  0.0000  0.0000  0.0000  0.0000  0.0000  0.0000  0.0000  0.0000  0.0000
  o =  0.0351  v =  0.0000  0.0000  0.0000  0.0000  0.0000 -0.5877  0.0000 -0.8091  0.0000 -0.0000      0.0000  0.0000  0.0000  0.0000  0.0000  0.0000  0.0000  0.0000  0.0000  0.0000
  o =  0.0835  v =  0.0000  0.0000  0.0000  0.0000  0.0000  0.0000  0.7071  0.0000 -0.7071  0.0000      0.0000  0.0000  0.0000  0.0000  0.0000  0.0000  0.0000  0.0000  0.0000  0.0000
  o =  0.1159  v =  0.0000  0.0000  0.0000  0.0000  0.0000 -0.8091 -0.0000  0.5877  0.0000  0.0000      0.0000  0.0000  0.0000  0.0000  0.0000  0.0000  0.0000  0.0000  0.0000  0.0000
  o =  0.9698  v =  0.8817  0.0000 -0.4717  0.0000  0.0000  0.0000  0.0000  0.0000  0.0000  0.0000      0.0000  0.0000  0.0000  0.0000  0.0000  0.0000  0.0000  0.0000  0.0000  0.0000
  o =  0.9878  v = -0.4717  0.0000 -0.8817  0.0000  0.0000  0.0000  0.0000  0.0000  0.0000  0.0000      0.0000  0.0000  0.0000  0.0000  0.0000  0.0000  0.0000  0.0000  0.0000  0.0000
  o =  0.9927  v =  0.0000 -0.7071  0.0000 -0.7071  0.0000  0.0000  0.0000  0.0000  0.0000  0.0000      0.0000  0.0000  0.0000  0.0000  0.0000  0.0000  0.0000  0.0000  0.0000  0.0000
  o =  0.9976  v =  0.0000  0.0000  0.0000  0.0000  1.0000  0.0000  0.0000  0.0000  0.0000  0.0000      0.0000  0.0000  0.0000  0.0000  0.0000  0.0000  0.0000  0.0000  0.0000  0.0000
  o =  1.0097  v =  0.0000 -0.7071  0.0000  0.7071  0.0000  0.0000  0.0000  0.0000  0.0000  0.0000      0.0000  0.0000  0.0000  0.0000  0.0000  0.0000  0.0000  0.0000  0.0000  0.0000
     EDDAV:  cpu time    0.9496: real time    0.9496
       DOS:  cpu time    0.0002: real time    0.0002
    CHARGE:  cpu time    0.1907: real time    0.1907
    MIXING:  cpu time    0.0008: real time    0.0008
    --------------------------------------------
      LOOP:  cpu time    1.9661: real time    1.9661

 eigenvalue-minimisations  :  1380
 total energy-change (2. order) :-0.2805000E+01  (-0.4993312E+01)
 number of electron      54.0000000 magnetization      -0.0000000
 augmentation part       19.6160628 magnetization      -0.0000000

 Broyden mixing:
  rms(total) = 0.17031E+01    rms(broyden)= 0.17031E+01
  rms(prec ) = 0.24437E+01
  weight for this iteration     100.00

 eigenvalues of (default mixing * dielectric matrix)
  average eigenvalue GAMMA=   0.6988
  0.6988  0.6988

 Free energy of the ion-electron system (eV)
  ---------------------------------------------------
  alpha Z        PSCENC =       199.38838823
  Ewald energy   TEWEN  =     -4203.06823030
  -Hartree energ DENC   =     -2188.35173155
  -exchange      EXHF   =         0.00000000
  -V(xc)+E(xc)   XCENC  =       167.60366398
  PAW double counting   =      6496.84176397    -6463.52824693
  entropy T*S    EENTRO =        -0.00000000
  eigenvalues    EBANDS =      -769.19687937
  atomic energy  EATOM  =      6689.06280133
  Solvation  Ediel_sol  =         0.00000000
  ---------------------------------------------------
  free energy    TOTEN  =       -71.24847063 eV

  energy without entropy =      -71.24847063  energy(sigma->0) =      -71.24847063


--------------------------------------------------------------------------------------------------------




--------------------------------------- Iteration      1(   8)  ---------------------------------------


    POTLOK:  cpu time    0.0408: real time    0.0408
    SETDIJ:  cpu time    0.7846: real time    0.7846
atom =   1  type =  1  l = 2
 
 onsite density matrix
 
spin component  1
 
  0.0478  0.0000  0.0135  0.0000 -0.0000
  0.0000  0.0522  0.0000  0.0227  0.0000
  0.0135  0.0000  0.0417  0.0000 -0.0000
  0.0000  0.0227  0.0000  0.0522  0.0000
 -0.0000  0.0000 -0.0000  0.0000  0.0251
 
spin component  2
 
  0.9912  0.0000  0.0247  0.0000  0.0000
  0.0000  0.9796  0.0000  0.0122  0.0000
  0.0247  0.0000  0.9797  0.0000 -0.0000
  0.0000  0.0122  0.0000  0.9796  0.0000
  0.0000  0.0000 -0.0000  0.0000  0.9662
 
 occupancies and eigenvectors
 
  o =  0.0251  v =  0.0000 -0.0000 -0.0000  0.0000 -1.0000  0.0000  0.0000  0.0000  0.0000  0.0000      0.0000  0.0000  0.0000  0.0000  0.0000  0.0000  0.0000  0.0000  0.0000  0.0000
  o =  0.0295  v =  0.0000 -0.7071  0.0000  0.7071  0.0000  0.0000  0.0000  0.0000  0.0000  0.0000      0.0000  0.0000  0.0000  0.0000  0.0000  0.0000  0.0000  0.0000  0.0000  0.0000
  o =  0.0309  v = -0.6232 -0.0000  0.7821  0.0000 -0.0000  0.0000  0.0000  0.0000  0.0000  0.0000      0.0000  0.0000  0.0000  0.0000  0.0000  0.0000  0.0000  0.0000  0.0000  0.0000
  o =  0.0586  v = -0.7821  0.0000 -0.6232  0.0000  0.0000  0.0000  0.0000  0.0000  0.0000  0.0000      0.0000  0.0000  0.0000  0.0000  0.0000  0.0000  0.0000  0.0000  0.0000  0.0000
  o =  0.0750  v =  0.0000 -0.7071  0.0000 -0.7071  0.0000  0.0000  0.0000  0.0000  0.0000  0.0000      0.0000  0.0000  0.0000  0.0000  0.0000  0.0000  0.0000  0.0000  0.0000  0.0000
  o =  0.9601  v =  0.0000  0.0000  0.0000  0.0000  0.0000 -0.6214  0.0000  0.7835  0.0000  0.0000      0.0000  0.0000  0.0000  0.0000  0.0000  0.0000  0.0000  0.0000  0.0000  0.0000
  o =  0.9662  v =  0.0000  0.0000  0.0000  0.0000  0.0000  0.0000  0.0000  0.0000  0.0000 -1.0000      0.0000  0.0000  0.0000  0.0000  0.0000  0.0000  0.0000  0.0000  0.0000  0.0000
  o =  0.9673  v =  0.0000  0.0000  0.0000  0.0000  0.0000  0.0000  0.7071  0.0000 -0.7071  0.0000      0.0000  0.0000  0.0000  0.0000  0.0000  0.0000  0.0000  0.0000  0.0000  0.0000
  o =  0.9918  v =  0.0000  0.0000  0.0000  0.0000  0.0000  0.0000  0.7071  0.0000  0.7071  0.0000      0.0000  0.0000  0.0000  0.0000  0.0000  0.0000  0.0000  0.0000  0.0000  0.0000
  o =  1.0108  v =  0.0000  0.0000  0.0000  0.0000  0.0000 -0.7835  0.0000 -0.6214  0.0000 -0.0000      0.0000  0.0000  0.0000  0.0000  0.0000  0.0000  0.0000  0.0000  0.0000  0.0000
atom =   2  type =  1  l = 2
 
 onsite density matrix
 
spin component  1
 
  0.9912  0.0000 -0.0247  0.0000 -0.0000
  0.0000  0.9796  0.0000 -0.0122  0.0000
 -0.0247  0.0000  0.9797  0.0000  0.0000
  0.0000 -0.0122  0.0000  0.9796  0.0000
 -0.0000  0.0000  0.0000  0.0000  0.9662
 
spin component  2
 
  0.0478  0.0000 -0.0135  0.0000 -0.0000
  0.0000  0.0522  0.0000 -0.0227  0.0000
 -0.0135  0.0000  0.0417  0.0000  0.0000
  0.0000 -0.0227  0.0000  0.0522  0.0000
 -0.0000  0.0000  0.0000  0.0000  0.0251
 
 occupancies and eigenvectors
 
  o =  0.0251  v =  0.0000  0.0000  0.0000  0.0000  0.0000  0.0000 -0.0000  0.0000  0.0000 -1.0000      0.0000  0.0000  0.0000  0.0000  0.0000  0.0000  0.0000  0.0000  0.0000  0.0000
  o =  0.0295  v =  0.0000  0.0000  0.0000  0.0000  0.0000  0.0000  0.7071  0.0000  0.7071 -0.0000      0.0000  0.0000  0.0000  0.0000  0.0000  0.0000  0.0000  0.0000  0.0000  0.0000
  o =  0.0309  v =  0.0000  0.0000  0.0000  0.0000  0.0000 -0.6232 -0.0000 -0.7821  0.0000 -0.0000      0.0000  0.0000  0.0000  0.0000  0.0000  0.0000  0.0000  0.0000  0.0000  0.0000
  o =  0.0586  v =  0.0000  0.0000  0.0000  0.0000  0.0000 -0.7821  0.0000  0.6232  0.0000  0.0000      0.0000  0.0000  0.0000  0.0000  0.0000  0.0000  0.0000  0.0000  0.0000  0.0000
  o =  0.0750  v =  0.0000  0.0000  0.0000  0.0000  0.0000  0.0000  0.7071  0.0000 -0.7071 -0.0000      0.0000  0.0000  0.0000  0.0000  0.0000  0.0000  0.0000  0.0000  0.0000  0.0000
  o =  0.9601  v = -0.6214  0.0000 -0.7835  0.0000 -0.0000  0.0000  0.0000  0.0000  0.0000  0.0000      0.0000  0.0000  0.0000  0.0000  0.0000  0.0000  0.0000  0.0000  0.0000  0.0000
  o =  0.9662  v =  0.0000 -0.0000  0.0000 -0.0000 -1.0000  0.0000  0.0000  0.0000  0.0000  0.0000      0.0000  0.0000  0.0000  0.0000  0.0000  0.0000  0.0000  0.0000  0.0000  0.0000
  o =  0.9673  v =  0.0000  0.7071  0.0000  0.7071 -0.0000  0.0000  0.0000  0.0000  0.0000  0.0000      0.0000  0.0000  0.0000  0.0000  0.0000  0.0000  0.0000  0.0000  0.0000  0.0000
  o =  0.9918  v =  0.0000 -0.7071 -0.0000  0.7071  0.0000  0.0000  0.0000  0.0000  0.0000  0.0000      0.0000  0.0000  0.0000  0.0000  0.0000  0.0000  0.0000  0.0000  0.0000  0.0000
  o =  1.0108  v = -0.7835  0.0000  0.6214  0.0000  0.0000  0.0000  0.0000  0.0000  0.0000  0.0000      0.0000  0.0000  0.0000  0.0000  0.0000  0.0000  0.0000  0.0000  0.0000  0.0000
     EDDAV:  cpu time    0.9854: real time    0.9855
       DOS:  cpu time    0.0002: real time    0.0002
    CHARGE:  cpu time    0.1904: real time    0.1904
    MIXING:  cpu time    0.0008: real time    0.0008
    --------------------------------------------
      LOOP:  cpu time    2.0022: real time    2.0023

 eigenvalue-minimisations  :  1512
 total energy-change (2. order) : 0.2632281E+01  (-0.7274516E+00)
 number of electron      54.0000000 magnetization       0.0000000
 augmentation part       19.8345379 magnetization       0.0000000

 Broyden mixing:
  rms(total) = 0.61944E+00    rms(broyden)= 0.61941E+00
  rms(prec ) = 0.91662E+00
  weight for this iteration     100.00

 eigenvalues of (default mixing * dielectric matrix)
  average eigenvalue GAMMA=   0.7527
  0.9506  0.6538  0.6538

 Free energy of the ion-electron system (eV)
  ---------------------------------------------------
  alpha Z        PSCENC =       199.38838823
  Ewald energy   TEWEN  =     -4203.06823030
  -Hartree energ DENC   =     -2173.04997824
  -exchange      EXHF   =         0.00000000
  -V(xc)+E(xc)   XCENC  =       170.27679369
  PAW double counting   =      6422.76714313    -6387.58381545
  entropy T*S    EENTRO =        -0.00000000
  eigenvalues    EBANDS =      -786.40929154
  atomic energy  EATOM  =      6689.06280133
  Solvation  Ediel_sol  =         0.00000000
  ---------------------------------------------------
  free energy    TOTEN  =       -68.61618915 eV

  energy without entropy =      -68.61618915  energy(sigma->0) =      -68.61618915


--------------------------------------------------------------------------------------------------------




--------------------------------------- Iteration      1(   9)  ---------------------------------------


    POTLOK:  cpu time    0.0413: real time    0.0413
    SETDIJ:  cpu time    0.7822: real time    0.7822
atom =   1  type =  1  l = 2
 
 onsite density matrix
 
spin component  1
 
  0.0692  0.0000  0.0379  0.0000 -0.0000
  0.0000  0.0477  0.0000  0.0194  0.0000
  0.0379  0.0000  0.0513  0.0000  0.0000
  0.0000  0.0194  0.0000  0.0477  0.0000
 -0.0000  0.0000  0.0000  0.0000  0.0233
 
spin component  2
 
  0.9494  0.0000  0.0062  0.0000  0.0000
  0.0000  0.9591  0.0000  0.0174  0.0000
  0.0062  0.0000  0.9450  0.0000 -0.0000
  0.0000  0.0174  0.0000  0.9591  0.0000
  0.0000  0.0000 -0.0000  0.0000  0.9427
 
 occupancies and eigenvectors
 
  o =  0.0213  v = -0.6206 -0.0000  0.7841  0.0000 -0.0000  0.0000  0.0000  0.0000  0.0000  0.0000      0.0000  0.0000  0.0000  0.0000  0.0000  0.0000  0.0000  0.0000  0.0000  0.0000
  o =  0.0233  v = -0.0000  0.0000  0.0000  0.0000  1.0000  0.0000  0.0000  0.0000  0.0000  0.0000      0.0000  0.0000  0.0000  0.0000  0.0000  0.0000  0.0000  0.0000  0.0000  0.0000
  o =  0.0283  v =  0.0000  0.7071  0.0000 -0.7071 -0.0000  0.0000  0.0000  0.0000  0.0000  0.0000      0.0000  0.0000  0.0000  0.0000  0.0000  0.0000  0.0000  0.0000  0.0000  0.0000
  o =  0.0671  v =  0.0000 -0.7071  0.0000 -0.7071  0.0000  0.0000  0.0000  0.0000  0.0000  0.0000      0.0000  0.0000  0.0000  0.0000  0.0000  0.0000  0.0000  0.0000  0.0000  0.0000
  o =  0.0992  v = -0.7841 -0.0000 -0.6206  0.0000 -0.0000  0.0000  0.0000  0.0000  0.0000  0.0000      0.0000  0.0000  0.0000  0.0000  0.0000  0.0000  0.0000  0.0000  0.0000  0.0000
  o =  0.9406  v =  0.0000  0.0000  0.0000  0.0000  0.0000 -0.5783 -0.0000  0.8158  0.0000  0.0000      0.0000  0.0000  0.0000  0.0000  0.0000  0.0000  0.0000  0.0000  0.0000  0.0000
  o =  0.9417  v =  0.0000  0.0000  0.0000  0.0000  0.0000  0.0000 -0.7071  0.0000  0.7071 -0.0000      0.0000  0.0000  0.0000  0.0000  0.0000  0.0000  0.0000  0.0000  0.0000  0.0000
  o =  0.9427  v =  0.0000  0.0000  0.0000  0.0000  0.0000 -0.0000  0.0000  0.0000  0.0000 -1.0000      0.0000  0.0000  0.0000  0.0000  0.0000  0.0000  0.0000  0.0000  0.0000  0.0000
  o =  0.9538  v =  0.0000  0.0000  0.0000  0.0000  0.0000 -0.8158 -0.0000 -0.5783  0.0000  0.0000      0.0000  0.0000  0.0000  0.0000  0.0000  0.0000  0.0000  0.0000  0.0000  0.0000
  o =  0.9765  v =  0.0000  0.0000  0.0000  0.0000  0.0000  0.0000  0.7071  0.0000  0.7071  0.0000      0.0000  0.0000  0.0000  0.0000  0.0000  0.0000  0.0000  0.0000  0.0000  0.0000
atom =   2  type =  1  l = 2
 
 onsite density matrix
 
spin component  1
 
  0.9494  0.0000 -0.0062  0.0000  0.0000
  0.0000  0.9591  0.0000 -0.0174  0.0000
 -0.0062  0.0000  0.9450  0.0000  0.0000
  0.0000 -0.0174  0.0000  0.9591  0.0000
  0.0000  0.0000  0.0000  0.0000  0.9427
 
spin component  2
 
  0.0692  0.0000 -0.0379  0.0000 -0.0000
  0.0000  0.0477  0.0000 -0.0194  0.0000
 -0.0379  0.0000  0.0513  0.0000  0.0000
  0.0000 -0.0194  0.0000  0.0477  0.0000
 -0.0000  0.0000  0.0000  0.0000  0.0233
 
 occupancies and eigenvectors
 
  o =  0.0213  v =  0.0000  0.0000  0.0000  0.0000  0.0000 -0.6206  0.0000 -0.7841  0.0000  0.0000      0.0000  0.0000  0.0000  0.0000  0.0000  0.0000  0.0000  0.0000  0.0000  0.0000
  o =  0.0233  v =  0.0000  0.0000  0.0000  0.0000  0.0000 -0.0000 -0.0000 -0.0000  0.0000 -1.0000      0.0000  0.0000  0.0000  0.0000  0.0000  0.0000  0.0000  0.0000  0.0000  0.0000
  o =  0.0283  v =  0.0000  0.0000  0.0000  0.0000  0.0000  0.0000 -0.7071  0.0000 -0.7071  0.0000      0.0000  0.0000  0.0000  0.0000  0.0000  0.0000  0.0000  0.0000  0.0000  0.0000
  o =  0.0671  v =  0.0000  0.0000  0.0000  0.0000  0.0000  0.0000 -0.7071  0.0000  0.7071  0.0000      0.0000  0.0000  0.0000  0.0000  0.0000  0.0000  0.0000  0.0000  0.0000  0.0000
  o =  0.0992  v =  0.0000  0.0000  0.0000  0.0000  0.0000 -0.7841  0.0000  0.6206  0.0000  0.0000      0.0000  0.0000  0.0000  0.0000  0.0000  0.0000  0.0000  0.0000  0.0000  0.0000
  o =  0.9406  v = -0.5783  0.0000 -0.8158  0.0000  0.0000  0.0000  0.0000  0.0000  0.0000  0.0000      0.0000  0.0000  0.0000  0.0000  0.0000  0.0000  0.0000  0.0000  0.0000  0.0000
  o =  0.9417  v =  0.0000  0.7071  0.0000  0.7071  0.0000  0.0000  0.0000  0.0000  0.0000  0.0000      0.0000  0.0000  0.0000  0.0000  0.0000  0.0000  0.0000  0.0000  0.0000  0.0000
  o =  0.9427  v =  0.0000  0.0000 -0.0000  0.0000 -1.0000  0.0000  0.0000  0.0000  0.0000  0.0000      0.0000  0.0000  0.0000  0.0000  0.0000  0.0000  0.0000  0.0000  0.0000  0.0000
  o =  0.9538  v = -0.8158  0.0000  0.5783  0.0000 -0.0000  0.0000  0.0000  0.0000  0.0000  0.0000      0.0000  0.0000  0.0000  0.0000  0.0000  0.0000  0.0000  0.0000  0.0000  0.0000
  o =  0.9765  v =  0.0000  0.7071  0.0000 -0.7071  0.0000  0.0000  0.0000  0.0000  0.0000  0.0000      0.0000  0.0000  0.0000  0.0000  0.0000  0.0000  0.0000  0.0000  0.0000  0.0000
     EDDAV:  cpu time    0.9609: real time    0.9610
       DOS:  cpu time    0.0002: real time    0.0002
    CHARGE:  cpu time    0.1909: real time    0.1909
    MIXING:  cpu time    0.0011: real time    0.0011
    --------------------------------------------
      LOOP:  cpu time    1.9766: real time    1.9767

 eigenvalue-minimisations  :  1452
 total energy-change (2. order) : 0.4713234E+00  (-0.3903060E+00)
 number of electron      54.0000001 magnetization      -0.0000000
 augmentation part       20.0070370 magnetization      -0.0000000

 Broyden mixing:
  rms(total) = 0.78471E+00    rms(broyden)= 0.78471E+00
  rms(prec ) = 0.83809E+00
  weight for this iteration     100.00

 eigenvalues of (default mixing * dielectric matrix)
  average eigenvalue GAMMA=   0.9699
  1.7924  0.5775  0.7548  0.7548

 Free energy of the ion-electron system (eV)
  ---------------------------------------------------
  alpha Z        PSCENC =       199.38838823
  Ewald energy   TEWEN  =     -4203.06823030
  -Hartree energ DENC   =     -2159.88934903
  -exchange      EXHF   =         0.00000000
  -V(xc)+E(xc)   XCENC  =       168.35253721
  PAW double counting   =      6444.76348230    -6408.57852274
  entropy T*S    EENTRO =        -0.00000000
  eigenvalues    EBANDS =      -798.17597276
  atomic energy  EATOM  =      6689.06280133
  Solvation  Ediel_sol  =         0.00000000
  ---------------------------------------------------
  free energy    TOTEN  =       -68.14486574 eV

  energy without entropy =      -68.14486574  energy(sigma->0) =      -68.14486574


--------------------------------------------------------------------------------------------------------




--------------------------------------- Iteration      1(  10)  ---------------------------------------


    POTLOK:  cpu time    0.0414: real time    0.0414
    SETDIJ:  cpu time    0.7831: real time    0.7831
atom =   1  type =  1  l = 2
 
 onsite density matrix
 
spin component  1
 
  0.0433  0.0000  0.0124  0.0000  0.0000
  0.0000  0.0503  0.0000  0.0215  0.0000
  0.0124  0.0000  0.0365  0.0000 -0.0000
  0.0000  0.0215  0.0000  0.0503  0.0000
  0.0000  0.0000 -0.0000  0.0000  0.0281
 
spin component  2
 
  0.9707  0.0000  0.0336  0.0000 -0.0000
  0.0000  0.9519  0.0000  0.0170  0.0000
  0.0336  0.0000  0.9541  0.0000  0.0000
  0.0000  0.0170  0.0000  0.9519  0.0000
 -0.0000  0.0000  0.0000  0.0000  0.9322
 
 occupancies and eigenvectors
 
  o =  0.0270  v = -0.6081 -0.0000  0.7939  0.0000  0.0000  0.0000  0.0000  0.0000  0.0000  0.0000      0.0000  0.0000  0.0000  0.0000  0.0000  0.0000  0.0000  0.0000  0.0000  0.0000
  o =  0.0281  v = -0.0000  0.0000  0.0000  0.0000 -1.0000  0.0000  0.0000  0.0000  0.0000  0.0000      0.0000  0.0000  0.0000  0.0000  0.0000  0.0000  0.0000  0.0000  0.0000  0.0000
  o =  0.0289  v =  0.0000 -0.7071  0.0000  0.7071 -0.0000  0.0000  0.0000  0.0000  0.0000  0.0000      0.0000  0.0000  0.0000  0.0000  0.0000  0.0000  0.0000  0.0000  0.0000  0.0000
  o =  0.0528  v = -0.7939 -0.0000 -0.6081  0.0000  0.0000  0.0000  0.0000  0.0000  0.0000  0.0000      0.0000  0.0000  0.0000  0.0000  0.0000  0.0000  0.0000  0.0000  0.0000  0.0000
  o =  0.0718  v =  0.0000 -0.7071  0.0000 -0.7071 -0.0000  0.0000  0.0000  0.0000  0.0000  0.0000      0.0000  0.0000  0.0000  0.0000  0.0000  0.0000  0.0000  0.0000  0.0000  0.0000
  o =  0.9278  v =  0.0000  0.0000  0.0000  0.0000  0.0000 -0.6164 -0.0000  0.7875  0.0000 -0.0000      0.0000  0.0000  0.0000  0.0000  0.0000  0.0000  0.0000  0.0000  0.0000  0.0000
  o =  0.9322  v =  0.0000  0.0000  0.0000  0.0000  0.0000 -0.0000  0.0000  0.0000  0.0000  1.0000      0.0000  0.0000  0.0000  0.0000  0.0000  0.0000  0.0000  0.0000  0.0000  0.0000
  o =  0.9348  v =  0.0000  0.0000  0.0000  0.0000  0.0000  0.0000 -0.7071  0.0000  0.7071  0.0000      0.0000  0.0000  0.0000  0.0000  0.0000  0.0000  0.0000  0.0000  0.0000  0.0000
  o =  0.9689  v =  0.0000  0.0000  0.0000  0.0000  0.0000  0.0000 -0.7071  0.0000 -0.7071  0.0000      0.0000  0.0000  0.0000  0.0000  0.0000  0.0000  0.0000  0.0000  0.0000  0.0000
  o =  0.9970  v =  0.0000  0.0000  0.0000  0.0000  0.0000 -0.7875 -0.0000 -0.6164  0.0000 -0.0000      0.0000  0.0000  0.0000  0.0000  0.0000  0.0000  0.0000  0.0000  0.0000  0.0000
atom =   2  type =  1  l = 2
 
 onsite density matrix
 
spin component  1
 
  0.9707  0.0000 -0.0336  0.0000 -0.0000
  0.0000  0.9519  0.0000 -0.0170  0.0000
 -0.0336  0.0000  0.9541  0.0000  0.0000
  0.0000 -0.0170  0.0000  0.9519  0.0000
 -0.0000  0.0000  0.0000  0.0000  0.9322
 
spin component  2
 
  0.0433  0.0000 -0.0124  0.0000  0.0000
  0.0000  0.0503  0.0000 -0.0215  0.0000
 -0.0124  0.0000  0.0365  0.0000 -0.0000
  0.0000 -0.0215  0.0000  0.0503  0.0000
  0.0000  0.0000 -0.0000  0.0000  0.0281
 
 occupancies and eigenvectors
 
  o =  0.0270  v =  0.0000  0.0000  0.0000  0.0000  0.0000 -0.6081  0.0000 -0.7939  0.0000 -0.0000      0.0000  0.0000  0.0000  0.0000  0.0000  0.0000  0.0000  0.0000  0.0000  0.0000
  o =  0.0281  v =  0.0000  0.0000  0.0000  0.0000  0.0000 -0.0000 -0.0000 -0.0000  0.0000  1.0000      0.0000  0.0000  0.0000  0.0000  0.0000  0.0000  0.0000  0.0000  0.0000  0.0000
  o =  0.0289  v =  0.0000  0.0000  0.0000  0.0000  0.0000  0.0000 -0.7071  0.0000 -0.7071 -0.0000      0.0000  0.0000  0.0000  0.0000  0.0000  0.0000  0.0000  0.0000  0.0000  0.0000
  o =  0.0528  v =  0.0000  0.0000  0.0000  0.0000  0.0000 -0.7939  0.0000  0.6081  0.0000 -0.0000      0.0000  0.0000  0.0000  0.0000  0.0000  0.0000  0.0000  0.0000  0.0000  0.0000
  o =  0.0718  v =  0.0000  0.0000  0.0000  0.0000  0.0000  0.0000  0.7071  0.0000 -0.7071  0.0000      0.0000  0.0000  0.0000  0.0000  0.0000  0.0000  0.0000  0.0000  0.0000  0.0000
  o =  0.9278  v = -0.6164  0.0000 -0.7875  0.0000  0.0000  0.0000  0.0000  0.0000  0.0000  0.0000      0.0000  0.0000  0.0000  0.0000  0.0000  0.0000  0.0000  0.0000  0.0000  0.0000
  o =  0.9322  v = -0.0000 -0.0000 -0.0000  0.0000 -1.0000  0.0000  0.0000  0.0000  0.0000  0.0000      0.0000  0.0000  0.0000  0.0000  0.0000  0.0000  0.0000  0.0000  0.0000  0.0000
  o =  0.9348  v =  0.0000 -0.7071  0.0000 -0.7071  0.0000  0.0000  0.0000  0.0000  0.0000  0.0000      0.0000  0.0000  0.0000  0.0000  0.0000  0.0000  0.0000  0.0000  0.0000  0.0000
  o =  0.9689  v =  0.0000 -0.7071  0.0000  0.7071  0.0000  0.0000  0.0000  0.0000  0.0000  0.0000      0.0000  0.0000  0.0000  0.0000  0.0000  0.0000  0.0000  0.0000  0.0000  0.0000
  o =  0.9970  v = -0.7875  0.0000  0.6164  0.0000  0.0000  0.0000  0.0000  0.0000  0.0000  0.0000      0.0000  0.0000  0.0000  0.0000  0.0000  0.0000  0.0000  0.0000  0.0000  0.0000
     EDDAV:  cpu time    0.9567: real time    0.9567
       DOS:  cpu time    0.0002: real time    0.0002
    CHARGE:  cpu time    0.1904: real time    0.1904
    MIXING:  cpu time    0.0009: real time    0.0009
    --------------------------------------------
      LOOP:  cpu time    1.9727: real time    1.9727

 eigenvalue-minimisations  :  1440
 total energy-change (2. order) : 0.4653709E-01  (-0.3447352E-01)
 number of electron      54.0000001 magnetization       0.0000000
 augmentation part       20.0153652 magnetization       0.0000000

 Broyden mixing:
  rms(total) = 0.54333E+00    rms(broyden)= 0.54333E+00
  rms(prec ) = 0.59545E+00
  weight for this iteration     100.00

 eigenvalues of (default mixing * dielectric matrix)
  average eigenvalue GAMMA=   1.2272
  2.9594  0.9794  0.9794  0.6089  0.6089

 Free energy of the ion-electron system (eV)
  ---------------------------------------------------
  alpha Z        PSCENC =       199.38838823
  Ewald energy   TEWEN  =     -4203.06823030
  -Hartree energ DENC   =     -2154.24020939
  -exchange      EXHF   =         0.00000000
  -V(xc)+E(xc)   XCENC  =       166.02797245
  PAW double counting   =      6517.56706699    -6482.62756546
  entropy T*S    EENTRO =        -0.00000000
  eigenvalues    EBANDS =      -800.20855251
  atomic energy  EATOM  =      6689.06280133
  Solvation  Ediel_sol  =         0.00000000
  ---------------------------------------------------
  free energy    TOTEN  =       -68.09832866 eV

  energy without entropy =      -68.09832866  energy(sigma->0) =      -68.09832866


--------------------------------------------------------------------------------------------------------




--------------------------------------- Iteration      1(  11)  ---------------------------------------


    POTLOK:  cpu time    0.0410: real time    0.0410
    SETDIJ:  cpu time    0.7828: real time    0.7828
atom =   1  type =  1  l = 2
 
 onsite density matrix
 
spin component  1
 
  0.0513  0.0000  0.0302  0.0000 -0.0000
  0.0000  0.0434  0.0000  0.0253  0.0000
  0.0302  0.0000  0.0367  0.0000  0.0000
  0.0000  0.0253  0.0000  0.0434  0.0000
 -0.0000  0.0000  0.0000  0.0000  0.0145
 
spin component  2
 
  0.9626  0.0000  0.0185  0.0000 -0.0000
  0.0000  0.9585  0.0000  0.0165  0.0000
  0.0185  0.0000  0.9515  0.0000  0.0000
  0.0000  0.0165  0.0000  0.9585  0.0000
 -0.0000  0.0000  0.0000  0.0000  0.9429
 
 occupancies and eigenvectors
 
  o =  0.0129  v = -0.6185 -0.0000  0.7858  0.0000 -0.0000  0.0000  0.0000  0.0000  0.0000  0.0000      0.0000  0.0000  0.0000  0.0000  0.0000  0.0000  0.0000  0.0000  0.0000  0.0000
  o =  0.0145  v = -0.0000  0.0000  0.0000  0.0000  1.0000  0.0000  0.0000  0.0000  0.0000  0.0000      0.0000  0.0000  0.0000  0.0000  0.0000  0.0000  0.0000  0.0000  0.0000  0.0000
  o =  0.0181  v =  0.0000  0.7071  0.0000 -0.7071 -0.0000  0.0000  0.0000  0.0000  0.0000  0.0000      0.0000  0.0000  0.0000  0.0000  0.0000  0.0000  0.0000  0.0000  0.0000  0.0000
  o =  0.0687  v =  0.0000 -0.7071  0.0000 -0.7071  0.0000  0.0000  0.0000  0.0000  0.0000  0.0000      0.0000  0.0000  0.0000  0.0000  0.0000  0.0000  0.0000  0.0000  0.0000  0.0000
  o =  0.0751  v = -0.7858 -0.0000 -0.6185  0.0000 -0.0000  0.0000  0.0000  0.0000  0.0000  0.0000      0.0000  0.0000  0.0000  0.0000  0.0000  0.0000  0.0000  0.0000  0.0000  0.0000
  o =  0.9377  v =  0.0000  0.0000  0.0000  0.0000  0.0000 -0.5968 -0.0000  0.8024  0.0000 -0.0000      0.0000  0.0000  0.0000  0.0000  0.0000  0.0000  0.0000  0.0000  0.0000  0.0000
  o =  0.9421  v =  0.0000  0.0000  0.0000  0.0000  0.0000 -0.0000 -0.7071  0.0000  0.7071  0.0000      0.0000  0.0000  0.0000  0.0000  0.0000  0.0000  0.0000  0.0000  0.0000  0.0000
  o =  0.9429  v =  0.0000  0.0000  0.0000  0.0000  0.0000  0.0000 -0.0000 -0.0000  0.0000 -1.0000      0.0000  0.0000  0.0000  0.0000  0.0000  0.0000  0.0000  0.0000  0.0000  0.0000
  o =  0.9750  v =  0.0000  0.0000  0.0000  0.0000  0.0000  0.0000 -0.7071 -0.0000 -0.7071 -0.0000      0.0000  0.0000  0.0000  0.0000  0.0000  0.0000  0.0000  0.0000  0.0000  0.0000
  o =  0.9764  v =  0.0000  0.0000  0.0000  0.0000  0.0000 -0.8024 -0.0000 -0.5968  0.0000 -0.0000      0.0000  0.0000  0.0000  0.0000  0.0000  0.0000  0.0000  0.0000  0.0000  0.0000
atom =   2  type =  1  l = 2
 
 onsite density matrix
 
spin component  1
 
  0.9626  0.0000 -0.0185  0.0000 -0.0000
  0.0000  0.9585  0.0000 -0.0165  0.0000
 -0.0185  0.0000  0.9515  0.0000  0.0000
  0.0000 -0.0165  0.0000  0.9585  0.0000
 -0.0000  0.0000  0.0000  0.0000  0.9429
 
spin component  2
 
  0.0513  0.0000 -0.0302  0.0000 -0.0000
  0.0000  0.0434  0.0000 -0.0253  0.0000
 -0.0302  0.0000  0.0367  0.0000 -0.0000
  0.0000 -0.0253  0.0000  0.0434  0.0000
 -0.0000  0.0000 -0.0000  0.0000  0.0145
 
 occupancies and eigenvectors
 
  o =  0.0129  v =  0.0000  0.0000  0.0000  0.0000  0.0000 -0.6185 -0.0000 -0.7858  0.0000 -0.0000      0.0000  0.0000  0.0000  0.0000  0.0000  0.0000  0.0000  0.0000  0.0000  0.0000
  o =  0.0145  v =  0.0000  0.0000  0.0000  0.0000  0.0000 -0.0000  0.0000 -0.0000  0.0000  1.0000      0.0000  0.0000  0.0000  0.0000  0.0000  0.0000  0.0000  0.0000  0.0000  0.0000
  o =  0.0181  v =  0.0000  0.0000  0.0000  0.0000  0.0000  0.0000 -0.7071  0.0000 -0.7071  0.0000      0.0000  0.0000  0.0000  0.0000  0.0000  0.0000  0.0000  0.0000  0.0000  0.0000
  o =  0.0687  v =  0.0000  0.0000  0.0000  0.0000  0.0000  0.0000  0.7071  0.0000 -0.7071 -0.0000      0.0000  0.0000  0.0000  0.0000  0.0000  0.0000  0.0000  0.0000  0.0000  0.0000
  o =  0.0751  v =  0.0000  0.0000  0.0000  0.0000  0.0000 -0.7858 -0.0000  0.6185  0.0000 -0.0000      0.0000  0.0000  0.0000  0.0000  0.0000  0.0000  0.0000  0.0000  0.0000  0.0000
  o =  0.9377  v = -0.5968  0.0000 -0.8024  0.0000 -0.0000  0.0000  0.0000  0.0000  0.0000  0.0000      0.0000  0.0000  0.0000  0.0000  0.0000  0.0000  0.0000  0.0000  0.0000  0.0000
  o =  0.9421  v =  0.0000 -0.7071 -0.0000 -0.7071  0.0000  0.0000  0.0000  0.0000  0.0000  0.0000      0.0000  0.0000  0.0000  0.0000  0.0000  0.0000  0.0000  0.0000  0.0000  0.0000
  o =  0.9429  v =  0.0000 -0.0000  0.0000 -0.0000 -1.0000  0.0000  0.0000  0.0000  0.0000  0.0000      0.0000  0.0000  0.0000  0.0000  0.0000  0.0000  0.0000  0.0000  0.0000  0.0000
  o =  0.9750  v =  0.0000  0.7071 -0.0000 -0.7071  0.0000  0.0000  0.0000  0.0000  0.0000  0.0000      0.0000  0.0000  0.0000  0.0000  0.0000  0.0000  0.0000  0.0000  0.0000  0.0000
  o =  0.9764  v = -0.8024  0.0000  0.5968  0.0000  0.0000  0.0000  0.0000  0.0000  0.0000  0.0000      0.0000  0.0000  0.0000  0.0000  0.0000  0.0000  0.0000  0.0000  0.0000  0.0000
     EDDAV:  cpu time    0.9758: real time    0.9758
       DOS:  cpu time    0.0002: real time    0.0002
    CHARGE:  cpu time    0.1905: real time    0.1905
    MIXING:  cpu time    0.0010: real time    0.0010
    --------------------------------------------
      LOOP:  cpu time    1.9912: real time    1.9913

 eigenvalue-minimisations  :  1500
 total energy-change (2. order) : 0.3961543E-01  (-0.5646443E-01)
 number of electron      54.0000000 magnetization      -0.0000000
 augmentation part       20.0591329 magnetization      -0.0000000

 Broyden mixing:
  rms(total) = 0.14313E+00    rms(broyden)= 0.14311E+00
  rms(prec ) = 0.20499E+00
  weight for this iteration     100.00

 eigenvalues of (default mixing * dielectric matrix)
  average eigenvalue GAMMA=   1.1280
  3.0489  0.9875  0.9875  0.5952  0.5744  0.5744

 Free energy of the ion-electron system (eV)
  ---------------------------------------------------
[...]
      1     -49.2240      1.00000
      2     -49.1837      1.00000
      3     -49.1637      1.00000
      4     -42.7159      1.00000
      5     -42.6722      1.00000
      6     -42.6411      1.00000
      7     -22.6740      1.00000
      8     -22.5389      1.00000
      9     -22.4995      1.00000
     10     -22.4170      1.00000
     11      -4.4611      1.00000
     12      -4.2120      1.00000
     13      -4.0244      1.00000
     14      -3.8420      1.00000
     15      -3.6828      1.00000
     16      -3.4877      1.00000
     17      -3.1055      1.00000
     18      -2.9266      1.00000
     19      -2.7950      1.00000
     20      -2.3870      1.00000
     21      -2.2989      1.00000
     22      -2.2401      1.00000
     23       0.8079      1.00000
     24       0.8509      1.00000
     25       1.0952      1.00000
     26       1.7233      1.00000
     27       2.0725      1.00000
     28       6.4135      0.00000
     29       6.4429      0.00000
     30       6.5462      0.00000
     31       7.4010      0.00000
     32       7.6941      0.00000
     33       9.0091      0.00000
     34      11.3039      0.00000
     35      12.7697      0.00000
     36      13.1292      0.00000

 k-point     8 :       0.3750    0.1250    0.4167
  band No.  band energies     occupation 
      1     -49.2240      1.00000
      2     -49.1837      1.00000
      3     -49.1637      1.00000
      4     -42.7159      1.00000
      5     -42.6722      1.00000
      6     -42.6412      1.00000
      7     -22.6171      1.00000
      8     -22.5604      1.00000
      9     -22.5103      1.00000
     10     -22.4412      1.00000
     11      -4.5011      1.00000
     12      -4.2451      1.00000
     13      -4.1622      1.00000
     14      -3.9839      1.00000
     15      -3.6141      1.00000
     16      -3.3769      1.00000
     17      -3.2034      1.00000
     18      -3.0977      1.00000
     19      -2.5293      1.00000
     20      -2.3688      1.00000
     21      -2.1899      1.00000
     22      -2.0872      1.00000
     23       0.7946      1.00000
     24       0.8239      1.00000
     25       1.0342      1.00000
     26       1.6801      1.00000
     27       2.2012      1.00000
     28       6.4014      0.00000
     29       6.4359      0.00000
     30       6.6024      0.00000
     31       7.3558      0.00000
     32       7.8757      0.00000
     33       9.6348      0.00000
     34      11.1605      0.00000
     35      11.6831      0.00000
     36      12.9935      0.00000

 k-point     9 :       0.3750    0.3750    0.4167
  band No.  band energies     occupation 
      1     -49.2240      1.00000
      2     -49.1837      1.00000
      3     -49.1637      1.00000
      4     -42.7159      1.00000
      5     -42.6722      1.00000
      6     -42.6412      1.00000
      7     -22.6101      1.00000
      8     -22.5690      1.00000
      9     -22.5111      1.00000
     10     -22.4355      1.00000
     11      -4.7365      1.00000
     12      -4.5270      1.00000
     13      -4.1578      1.00000
     14      -4.0970      1.00000
     15      -3.5872      1.00000
     16      -3.3099      1.00000
     17      -3.1399      1.00000
     18      -2.9069      1.00000
     19      -2.3186      1.00000
     20      -2.2237      1.00000
     21      -2.1117      1.00000
     22      -2.0348      1.00000
     23       0.7922      1.00000
     24       0.8166      1.00000
     25       1.0199      1.00000
     26       1.7144      1.00000
     27       2.1769      1.00000
     28       6.4080      0.00000
     29       6.4332      0.00000
     30       6.6202      0.00000
     31       7.3317      0.00000
     32       7.7794      0.00000
     33      10.1304      0.00000
     34      11.7135      0.00000
     35      11.7479      0.00000
     36      11.9812      0.00000


--------------------------------------------------------------------------------------------------------


 soft charge-density along one line, spin component           1
         0         1         2         3         4         5         6         7         8         9
 total charge-density along one line
 
 soft charge-density along one line, spin component           2
         0         1         2         3         4         5         6         7         8         9
 total charge-density along one line
 
 pseudopotential strength for first ion, spin component:           1
-45.212   0.000  -0.038   7.791  -0.000   0.016  -0.000  -0.000
  0.000 -45.178  -0.000  -0.000   7.777   0.000  -0.000   0.000
 -0.038  -0.000 -45.212   0.016   0.000   7.791   0.000  -0.000
  7.791  -0.000   0.016   5.592   0.000   0.004  -0.000   0.000
 -0.000   7.777   0.000   0.000   5.586  -0.000   0.000   0.000
  0.016   0.000   7.791   0.004  -0.000   5.592  -0.000   0.000
 -0.000  -0.000   0.000  -0.000   0.000  -0.000  -2.972  -0.000
 -0.000   0.000  -0.000   0.000   0.000   0.000  -0.000  -2.954
 -0.000  -0.000   0.000   0.000   0.000   0.000   0.020   0.000
 -0.000   0.000  -0.000   0.000   0.000   0.000   0.000  -0.018
  0.000   0.000  -0.000  -0.000  -0.000  -0.000  -0.000  -0.000
 -0.000  -0.000   0.000  -0.000   0.000  -0.000  -3.487  -0.000
 -0.000   0.000  -0.000   0.000   0.000   0.000  -0.000  -3.470
 -0.000  -0.000   0.000   0.000   0.000   0.000   0.018   0.000
 -0.000   0.000  -0.000   0.000   0.000   0.000   0.000  -0.018
  0.000   0.000  -0.000  -0.000  -0.000  -0.000  -0.000  -0.000
  0.000   0.000   0.000   0.000   0.000  -0.000   0.011  -0.000
  0.000   0.000   0.000   0.000   0.000  -0.000   0.022  -0.000
 pseudopotential strength for first ion, spin component:           2
-50.965   0.000  -0.005   9.791  -0.000   0.016   0.000  -0.000
  0.000 -50.965  -0.000  -0.000   9.776   0.000  -0.000   0.000
 -0.005  -0.000 -50.965   0.016   0.000   9.791  -0.000  -0.000
  9.791  -0.000   0.016   4.709   0.000   0.001  -0.000   0.000
 -0.000   9.776   0.000   0.000   4.708  -0.000   0.000  -0.000
  0.016   0.000   9.791   0.001  -0.000   4.709  -0.000   0.000
  0.000  -0.000  -0.000  -0.000   0.000  -0.000  -7.324  -0.000
 -0.000   0.000  -0.000   0.000  -0.000   0.000  -0.000  -7.315
  0.000  -0.000  -0.000  -0.000   0.000   0.000  -0.009   0.000
 -0.000  -0.000  -0.000   0.000   0.000   0.000   0.000  -0.028
 -0.000   0.000   0.000  -0.000  -0.000  -0.000   0.000  -0.000
  0.000  -0.000  -0.000  -0.000   0.000  -0.000  -7.795  -0.000
 -0.000   0.000  -0.000   0.000  -0.000   0.000  -0.000  -7.786
  0.000  -0.000  -0.000  -0.000   0.000   0.000  -0.009   0.000
 -0.000  -0.000  -0.000   0.000   0.000   0.000   0.000  -0.027
 -0.000   0.000   0.000  -0.000  -0.000  -0.000   0.000  -0.000
  0.000   0.000  -0.000  -0.000   0.000   0.000   0.011  -0.000
  0.000   0.000  -0.000  -0.000   0.000   0.000   0.023  -0.000
 total augmentation occupancy for first ion, spin component:           1
  2.001   0.000   0.000  -0.013   0.000   0.001   0.000   0.000   0.000   0.000   0.000   0.000   0.000   0.000   0.000   0.000
  0.000   2.001   0.000   0.000  -0.013   0.000   0.000   0.000   0.000   0.000   0.000   0.000   0.000   0.000   0.000   0.000
  0.000   0.000   2.001   0.001   0.000  -0.013   0.000   0.000   0.000   0.000   0.000   0.000   0.000   0.000   0.000   0.000
 -0.013   0.000   0.001   0.081   0.000  -0.009   0.000   0.000   0.000   0.000   0.000   0.000   0.000   0.000   0.000   0.000
  0.000  -0.013   0.000   0.000   0.090   0.000   0.000   0.000   0.000   0.000   0.000   0.000   0.000   0.000   0.000   0.000
  0.001   0.000  -0.013  -0.009   0.000   0.081   0.000   0.000   0.000   0.000   0.000   0.000   0.000   0.000   0.000   0.000
  0.000   0.000   0.000   0.000   0.000   0.000   7.777   0.000   3.011   0.000  -0.000  -5.805   0.000  -2.832   0.000   0.000
  0.000   0.000   0.000   0.000   0.000   0.000   0.000   6.578   0.000   2.547   0.000   0.000  -4.652   0.000  -2.393   0.000
  0.000   0.000   0.000   0.000   0.000   0.000   3.011   0.000   5.966   0.000  -0.000  -2.833   0.000  -4.108   0.000  -0.000
  0.000   0.000   0.000   0.000   0.000   0.000   0.000   2.547   0.000   6.578   0.000   0.000  -2.393   0.000  -4.652   0.000
  0.000   0.000   0.000   0.000   0.000   0.000  -0.000   0.000   0.000   0.000   3.895   0.000   0.000  -0.000   0.000  -2.115
  0.000   0.000   0.000   0.000   0.000   0.000  -5.805   0.000  -2.833   0.000  -0.000   5.007   0.000   2.698   0.000   0.000
  0.000   0.000   0.000   0.000   0.000   0.000   0.000  -4.652   0.000  -2.393   0.000   0.000   3.888   0.000   2.276   0.000
  0.000   0.000   0.000   0.000   0.000   0.000  -2.832   0.000  -4.108   0.000   0.000   2.698   0.000   3.399   0.000  -0.000
  0.000   0.000   0.000   0.000   0.000   0.000   0.000  -2.393   0.000  -4.652   0.000   0.000   2.276   0.000   3.888   0.000
  0.000   0.000   0.000   0.000   0.000   0.000   0.000   0.000  -0.000   0.000  -2.115   0.000   0.000   0.000   0.000   1.460
  0.000   0.000   0.000   0.000   0.000   0.000   0.442   0.000  -0.298   0.000   0.000  -0.419   0.000   0.277   0.000   0.000
  0.000   0.000   0.000   0.000   0.000   0.000  -0.092   0.000   0.068   0.000  -0.000   0.097   0.000  -0.068   0.000   0.000
 total augmentation occupancy for first ion, spin component:           2
  0.004   0.000  -0.000   0.017   0.000  -0.001   0.000   0.000   0.000   0.000   0.000   0.000   0.000   0.000   0.000   0.000
  0.000   0.004   0.000   0.000   0.018   0.000   0.000   0.000   0.000   0.000   0.000   0.000   0.000   0.000   0.000   0.000
 -0.000   0.000   0.004  -0.001   0.000   0.017   0.000   0.000   0.000   0.000   0.000   0.000   0.000   0.000   0.000   0.000
  0.017   0.000  -0.001  -0.011   0.000  -0.000   0.000   0.000   0.000   0.000   0.000   0.000   0.000   0.000   0.000   0.000
  0.000   0.018   0.000   0.000  -0.010   0.000   0.000   0.000   0.000   0.000   0.000   0.000   0.000   0.000   0.000   0.000
 -0.001   0.000   0.017  -0.000   0.000  -0.011   0.000   0.000   0.000   0.000   0.000   0.000   0.000   0.000   0.000   0.000
  0.000   0.000   0.000   0.000   0.000   0.000  -5.103   0.000  -1.498   0.000   0.000   2.728   0.000   1.100   0.000   0.000
  0.000   0.000   0.000   0.000   0.000   0.000   0.000  -4.549   0.000  -1.278   0.000   0.000   2.300   0.000   0.940   0.000
  0.000   0.000   0.000   0.000   0.000   0.000  -1.498   0.000  -4.148   0.000  -0.000   1.100   0.000   2.012   0.000   0.000
  0.000   0.000   0.000   0.000   0.000   0.000   0.000  -1.278   0.000  -4.549   0.000   0.000   0.940   0.000   2.300   0.000
  0.000   0.000   0.000   0.000   0.000   0.000   0.000   0.000  -0.000   0.000  -3.253   0.000   0.000  -0.000   0.000   1.353
  0.000   0.000   0.000   0.000   0.000   0.000   2.728   0.000   1.100   0.000  -0.000  -1.456   0.000  -0.708   0.000   0.000
  0.000   0.000   0.000   0.000   0.000   0.000   0.000   2.300   0.000   0.940   0.000   0.000  -1.155   0.000  -0.608   0.000
  0.000   0.000   0.000   0.000   0.000   0.000   1.100   0.000   2.012   0.000  -0.000  -0.708   0.000  -0.974   0.000   0.000
  0.000   0.000   0.000   0.000   0.000   0.000   0.000   0.940   0.000   2.300   0.000   0.000  -0.608   0.000  -1.155   0.000
  0.000   0.000   0.000   0.000   0.000   0.000   0.000   0.000   0.000   0.000   1.353   0.000   0.000   0.000   0.000  -0.555
  0.000   0.000   0.000   0.000   0.000   0.000  -0.099   0.000   0.056   0.000   0.000   0.022   0.000   0.001   0.000   0.000
  0.000   0.000   0.000   0.000   0.000   0.000   0.000   0.000  -0.006   0.000  -0.000   0.009   0.000  -0.004   0.000   0.000


------------------------ aborting loop because EDIFF is reached ----------------------------------------


 


 total charge     
 
# of ion       s       p       d       tot
------------------------------------------
    1        0.168   6.150   4.966  11.283
    2        0.173   6.145   4.972  11.290
    3        1.733   4.404   0.000   6.136
    4        1.733   4.404   0.000   6.136
    5        1.732   4.400   0.000   6.132
    6        1.732   4.400   0.000   6.132
--------------------------------------------------
tot          7.271  29.902   9.938  47.111
 


 magnetization (x)
 
# of ion       s       p       d       tot
------------------------------------------
    1       -0.022  -0.018  -4.581  -4.621
    2        0.023   0.016   4.578   4.617
    3        0.003   0.025   0.000   0.027
    4        0.003   0.025   0.000   0.027
    5       -0.003  -0.021   0.000  -0.024
    6       -0.003  -0.021   0.000  -0.024
--------------------------------------------------
tot         -0.001   0.006  -0.003   0.003
 
    CHARGE:  cpu time    0.0470: real time    0.0470
    FORLOC:  cpu time    0.0016: real time    0.0016
    FORNL :  cpu time    0.2499: real time    0.2499
    STRESS:  cpu time    2.8923: real time    2.8923
    FORCOR:  cpu time    0.0377: real time    0.0377
    FORHAR:  cpu time    0.0028: real time    0.0028
    MIXING:  cpu time    0.0009: real time    0.0009
    OFIELD:  cpu time    0.0000: real time    0.0000

  FORCE on cell =-STRESS in cart. coord.  units (eV):
  Direction    XX          YY          ZZ          XY          YZ          ZX
  --------------------------------------------------------------------------------------
  Alpha Z   199.78118   199.78118   199.78118
  Ewald   -1587.08993 -1587.08993 -1031.65352     0.00000    -0.00000     0.00000
  Hartree   593.54788   593.54788   968.88575    -0.00000    -0.00000    -0.00000
  E(xc)    -150.58605  -150.56280  -150.69717    -0.01644    -0.02610    -0.02785
  Local     164.62089   164.62089  -759.25214    -0.00000     0.00000    -0.00000
  n-local  -310.11632  -310.39453  -309.35181     0.01886     0.11106     0.11134
  augment   158.53249   158.53249   158.04065     0.00000    -0.00000    -0.00000
  Kinetic   931.14278   931.71217   924.25342    -0.43900    -0.81264    -0.84870
  Fock        0.00000     0.00000     0.00000     0.00000     0.00000     0.00000
  -------------------------------------------------------------------------------------
  Total      -0.00987    -0.00987     0.00637     0.00000     0.00000     0.00000
  in kB      -0.20456    -0.20456     0.13202     0.00000     0.00000     0.00000
  external pressure =       -0.09 kB  Pullay stress =        0.00 kB


 VOLUME and BASIS-vectors are now :
 -----------------------------------------------------------------------------
  energy-cutoff  :      700.00
  volume of cell :       77.27
      direct lattice vectors                 reciprocal lattice vectors
     4.849421507  0.000000000  0.000000000     0.206210163  0.000000000  0.000000000
     0.000000000  4.849421507  0.000000000    -0.000000000  0.206210163  0.000000000
     0.000000000  0.000000000  3.285807792     0.000000000  0.000000000  0.304339165

  length of vectors
     4.849421507  4.849421507  3.285807792     0.206210163  0.206210163  0.304339165


 FORCES acting on ions
    electron-ion (+dipol)            ewald-force                    non-local-force                 convergence-correction
 -----------------------------------------------------------------------------------------------
   0.306E-11 -.168E-11 -.257E-11   0.853E-13 -.284E-13 0.137E-13   0.000E+00 0.000E+00 0.000E+00   -.114E-12 -.468E-13 0.888E-13
   0.289E-13 -.897E-14 -.341E-13   0.142E-12 0.853E-13 0.128E-13   0.000E+00 0.000E+00 0.000E+00   -.522E-13 -.139E-12 -.138E-12
   -.325E+02 0.325E+02 -.270E-11   0.337E+02 -.337E+02 -.131E-14   -.120E+01 0.120E+01 0.434E-18   0.469E-04 -.469E-04 0.335E-13
   0.325E+02 -.325E+02 0.294E-12   -.337E+02 0.337E+02 -.147E-14   0.120E+01 -.120E+01 -.434E-18   -.469E-04 0.469E-04 0.158E-12
   0.325E+02 0.325E+02 -.453E-07   -.337E+02 -.337E+02 -.768E-14   0.120E+01 0.120E+01 0.434E-18   -.469E-04 -.469E-04 0.516E-11
   -.325E+02 -.325E+02 0.453E-07   0.337E+02 0.337E+02 -.777E-14   -.120E+01 -.120E+01 -.434E-18   0.469E-04 0.469E-04 -.537E-11
 -----------------------------------------------------------------------------------------------
   0.501E-11 0.298E-11 0.116E-11   -.142E-13 -.142E-13 0.822E-14   -.222E-15 0.222E-15 0.000E+00   -.201E-12 -.341E-12 -.681E-13
 
 
 POSITION                                       TOTAL-FORCE (eV/Angst)
 -----------------------------------------------------------------------------------
      2.42471      2.42471      1.64290         0.000000     -0.000000     -0.000000
      0.00000      0.00000      0.00000         0.000000     -0.000000     -0.000000
      0.95101      3.89841      1.64290         0.002439     -0.002439     -0.000000
      3.89841      0.95101      1.64290        -0.002439      0.002439     -0.000000
      1.47370      1.47370     -0.00000        -0.002439     -0.002439     -0.000000
      3.37572      3.37572      0.00000         0.002439      0.002439      0.000000
 -----------------------------------------------------------------------------------
    total drift:                                0.000000      0.000000      0.000000


--------------------------------------------------------------------------------------------------------



  FREE ENERGIE OF THE ION-ELECTRON SYSTEM (eV)
  ---------------------------------------------------
  free  energy   TOTEN  =       -68.03287760 eV

  energy  without entropy=      -68.03287760  energy(sigma->0) =      -68.03287760
 
 d Force = 0.3184907E-06[ 0.359E-06, 0.278E-06]  d Energy =-0.4922367E-05 0.524E-05
 d Force = 0.4968243E-02[ 0.497E-02, 0.497E-02]  d Ewald  = 0.1153969E+01-0.115E+01


--------------------------------------------------------------------------------------------------------


    POTLOK:  cpu time    0.8274: real time    0.8274


--------------------------------------------------------------------------------------------------------




--------------------------------------------------------------------------------------------------------


  
 reached required accuracy - stopping structural energy minimisation
     LOOP+:  cpu time   22.3604: real time   22.3607
    4ORBIT:  cpu time    0.0000: real time    0.0000
 


 total charge     
 
# of ion       s       p       d       tot
------------------------------------------
    1        0.168   6.150   4.966  11.283
    2        0.173   6.145   4.972  11.290
    3        1.733   4.404   0.000   6.136
    4        1.733   4.404   0.000   6.136
    5        1.732   4.400   0.000   6.132
    6        1.732   4.400   0.000   6.132
--------------------------------------------------
tot          7.271  29.902   9.938  47.111
 


 magnetization (x)
 
# of ion       s       p       d       tot
------------------------------------------
    1       -0.022  -0.018  -4.581  -4.621
    2        0.023   0.016   4.578   4.617
    3        0.003   0.025   0.000   0.027
    4        0.003   0.025   0.000   0.027
    5       -0.003  -0.021   0.000  -0.024
    6       -0.003  -0.021   0.000  -0.024
--------------------------------------------------
tot         -0.001   0.006  -0.003   0.003
 

 total amount of memory used by VASP MPI-rank0    49910. kBytes
=======================================================================

   base      :      30000. kBytes
   nonl-proj :       8805. kBytes
   fftplans  :       2625. kBytes
   grid      :       5402. kBytes
   one-center:        186. kBytes
   wavefun   :       2892. kBytes
 
  
  
 General timing and accounting informations for this job:
 ========================================================
  
                  Total CPU time used (sec):      128.093
                            User time (sec):       90.448
                          System time (sec):       37.645
                         Elapsed time (sec):      128.177
  
                   Maximum memory used (kb):       79224.
                   Average memory used (kb):           0.
  
                          Minor page faults:        18408
                          Major page faults:            6
                 Voluntary context switches:          293
