       N       E                     dE             d eps       ncg     rms          rms(c)
DAV:   1     0.851559120173E+03    0.85156E+03   -0.30543E+04  1368   0.157E+03
DAV:   2     0.389691674838E+03   -0.46187E+03   -0.44285E+03  1512   0.429E+02
DAV:   3     0.365299186507E+03   -0.24392E+02   -0.24270E+02  1416   0.111E+02
DAV:   4     0.365064100645E+03   -0.23509E+00   -0.23497E+00  1584   0.116E+01
DAV:   5     0.365060073679E+03   -0.40270E-02   -0.40269E-02  1440   0.135E+00    0.623E+01
DAV:   6    -0.693927088799E+02   -0.43445E+03   -0.25951E+02  1584   0.226E+02    0.654E+01
DAV:   7    -0.716464000966E+02   -0.22537E+01   -0.52625E+01  1368   0.461E+01    0.174E+01
DAV:   8    -0.683952322740E+02    0.32512E+01   -0.77996E+00  1488   0.231E+01    0.726E+00
DAV:   9    -0.680611544206E+02    0.33408E+00   -0.69466E+00  1488   0.225E+01    0.100E+01
DAV:  10    -0.679796211967E+02    0.81533E-01   -0.60389E-01  1380   0.704E+00    0.757E+00
DAV:  11    -0.678584698555E+02    0.12115E+00   -0.16184E+00  1524   0.940E+00    0.207E+00
DAV:  12    -0.678390441527E+02    0.19426E-01   -0.10142E-01  1392   0.325E+00    0.140E+00
DAV:  13    -0.678245514853E+02    0.14493E-01   -0.71642E-02  1560   0.163E+00    0.998E-01
DAV:  14    -0.678221856934E+02    0.23658E-02   -0.61753E-02  1296   0.244E+00    0.503E-01
DAV:  15    -0.678231820464E+02   -0.99635E-03   -0.33208E-03  1500   0.432E-01    0.429E-01
DAV:  16    -0.678216388219E+02    0.15432E-02   -0.55740E-03  1416   0.482E-01    0.100E-01
DAV:  17    -0.678216042728E+02    0.34549E-04   -0.29569E-03  1536   0.364E-01    0.134E-01
DAV:  18    -0.678211935619E+02    0.41071E-03   -0.34398E-04  1416   0.126E-01    0.416E-02
DAV:  19    -0.678212606410E+02   -0.67079E-04   -0.18892E-04  1524   0.899E-02    0.691E-03
DAV:  20    -0.678213128414E+02   -0.52200E-04   -0.10320E-05  1380   0.190E-02    0.988E-03
DAV:  21    -0.678213187828E+02   -0.59414E-05   -0.21665E-06  1008   0.102E-02    0.560E-03
DAV:  22    -0.678213134068E+02    0.53760E-05   -0.27550E-06  1188   0.103E-02    0.188E-03
DAV:  23    -0.678213137998E+02   -0.39304E-06   -0.20970E-07   648   0.351E-03
   1 F= -.67821314E+02 E0= -.67821314E+02  d E =0.000000E+00  mag=     0.0000
