 vasp.5.4.4.18Apr17-6-g9f103f2a35 (build Apr 27 2017 11:13:10) complex          
  
 executed on           IFC91_ompi date 2020.05.13  11:36:09
 running on   12 total cores
 distrk:  each k-point on   12 cores,    1 groups
 distr:  one band on NCORES_PER_BAND=   1 cores,   12 groups


--------------------------------------------------------------------------------------------------------


 INCAR:
 POTCAR:    PAW_PBE Mn_pv 02Aug2007               
 POTCAR:    PAW_PBE F 08Apr2002                   

 ----------------------------------------------------------------------------- 
|                                                                             |
|           W    W    AA    RRRRR   N    N  II  N    N   GGGG   !!!           |
|           W    W   A  A   R    R  NN   N  II  NN   N  G    G  !!!           |
|           W    W  A    A  R    R  N N  N  II  N N  N  G       !!!           |
|           W WW W  AAAAAA  RRRRR   N  N N  II  N  N N  G  GGG   !            |
|           WW  WW  A    A  R   R   N   NN  II  N   NN  G    G                |
|           W    W  A    A  R    R  N    N  II  N    N   GGGG   !!!           |
|                                                                             |
|      For optimal performance we recommend to set                            |
|        NCORE= 4 - approx SQRT( number of cores)                             |
|      NCORE specifies how many cores store one orbital (NPAR=cpu/NCORE).     |
|      This setting can  greatly improve the performance of VASP for DFT.     |
|      The default,   NCORE=1            might be grossly inefficient         |
|      on modern multi-core architectures or massively parallel machines.     |
|      Do your own testing !!!!                                               |
|      Unfortunately you need to use the default for GW and RPA calculations. |
|      (for HF NCORE is supported but not extensively tested yet)             |
|                                                                             |
 ----------------------------------------------------------------------------- 

 POTCAR:    PAW_PBE Mn_pv 02Aug2007               
   VRHFIN =Mn: 3p4s3d                                                           
   LEXCH  = PE                                                                  
   EATOM  =  2025.2664 eV,  148.8529 Ry                                         
                                                                                
   TITEL  = PAW_PBE Mn_pv 02Aug2007                                             
   LULTRA =        F    use ultrasoft PP ?                                      
   IUNSCR =        1    unscreen: 0-lin 1-nonlin 2-no                           
   RPACOR =    2.080    partial core radius                                     
   POMASS =   54.938; ZVAL   =   13.000    mass and valenz                      
   RCORE  =    2.300    outmost cutoff radius                                   
   RWIGS  =    2.500; RWIGS  =    1.323    wigner-seitz radius (au A)           
   ENMAX  =  269.864; ENMIN  =  202.398 eV                                      
   ICORE  =        3    local potential                                         
   LCOR   =        T    correct aug charges                                     
   LPAW   =        T    paw PP                                                  
   EAUG   =  569.085                                                            
   DEXC   =    0.000                                                            
   RMAX   =    2.343    core radius for proj-oper                               
   RAUG   =    1.300    factor for augmentation sphere                          
   RDEP   =    2.338    radius for radial grids                                 
   RDEPT  =    1.798    core radius for aug-charge                              
                                                                                
   Atomic configuration                                                         
    8 entries                                                                   
     n  l   j            E        occ.                                          
     1  0  0.50     -6424.8287   2.0000                                         
     2  0  0.50      -739.1154   2.0000                                         
     2  1  1.50      -625.3949   6.0000                                         
     3  0  0.50       -81.6100   2.0000                                         
     3  1  1.50       -50.4667   6.0000                                         
     3  2  2.50        -3.3745   6.0000                                         
     4  0  0.50        -4.1331   1.0000                                         
     4  3  2.50        -1.3606   0.0000                                         
   Description                                                                  
     l       E           TYP  RCUT    TYP  RCUT                                 
     1    -50.4666628     23  2.000                                             
     1     -1.3605826     23  2.000                                             
     2     -3.3744729     23  2.300                                             
     2     -4.7350555     23  2.300                                             
     0     -4.1331431     23  2.300                                             
     0      7.6656591     23  2.300                                             
     3      9.5240782     23  2.300                                             
  local pseudopotential read in
  partial core-charges read in
  partial kinetic energy density read in
  atomic valenz-charges read in
  non local Contribution for L=           1  read in
    real space projection operators read in
  non local Contribution for L=           1  read in
    real space projection operators read in
  non local Contribution for L=           2  read in
    real space projection operators read in
  non local Contribution for L=           2  read in
    real space projection operators read in
  non local Contribution for L=           0  read in
    real space projection operators read in
  non local Contribution for L=           0  read in
    real space projection operators read in
    PAW grid and wavefunctions read in
 
   number of l-projection  operators is LMAX  =           6
   number of lm-projection operators is LMMAX =          18
 
 POTCAR:    PAW_PBE F 08Apr2002                   
   VRHFIN =F: s2p5                                                              
   LEXCH  = PE                                                                  
   EATOM  =   659.6475 eV,   48.4827 Ry                                         
                                                                                
   TITEL  = PAW_PBE F 08Apr2002                                                 
   LULTRA =        F    use ultrasoft PP ?                                      
   IUNSCR =        1    unscreen: 0-lin 1-nonlin 2-no                           
   RPACOR =    1.200    partial core radius                                     
   POMASS =   18.998; ZVAL   =    7.000    mass and valenz                      
   RCORE  =    1.520    outmost cutoff radius                                   
   RWIGS  =    1.500; RWIGS  =    0.794    wigner-seitz radius (au A)           
   ENMAX  =  400.000; ENMIN  =  300.000 eV                                      
   ICORE  =        2    local potential                                         
   LCOR   =        T    correct aug charges                                     
   LPAW   =        T    paw PP                                                  
   EAUG   =  613.614                                                            
   RMAX   =    1.555    core radius for proj-oper                               
   RAUG   =    1.300    factor for augmentation sphere                          
   RDEP   =    1.539    radius for radial grids                                 
   RDEPT  =    1.299    core radius for aug-charge                              
                                                                                
   Atomic configuration                                                         
    4 entries                                                                   
     n  l   j            E        occ.                                          
     1  0  0.50      -663.3661   2.0000                                         
     2  0  0.50       -29.8995   2.0000                                         
     2  1  0.50       -11.1114   5.0000                                         
     3  2  1.50       -10.8847   0.0000                                         
   Description                                                                  
     l       E           TYP  RCUT    TYP  RCUT                                 
     0    -29.8995018     23  1.200                                             
     0     -9.5240782     23  1.200                                             
     1    -11.1113914     23  1.520                                             
     1      1.3605826     23  1.520                                             
     2    -10.8846608      7  1.500                                             
  local pseudopotential read in
  partial core-charges read in
  partial kinetic energy density read in
  atomic valenz-charges read in
  non local Contribution for L=           0  read in
    real space projection operators read in
  non local Contribution for L=           0  read in
    real space projection operators read in
  non local Contribution for L=           1  read in
    real space projection operators read in
  non local Contribution for L=           1  read in
    real space projection operators read in
    PAW grid and wavefunctions read in
 
   number of l-projection  operators is LMAX  =           4
   number of lm-projection operators is LMMAX =           8
 
  PAW_PBE Mn_pv 02Aug2007               :
 energy of atom  1       EATOM=-2025.2664
 kinetic energy error for atom=    0.0284 (will be added to EATOM!!)
  PAW_PBE F 08Apr2002                   :
 energy of atom  2       EATOM= -659.6475
 kinetic energy error for atom=    0.1978 (will be added to EATOM!!)
 
 
 POSCAR: Mn  F                                   
  positions in cartesian coordinates
  No initial velocities read in

 METAGGA = SCAN     LMAXTAU =  6    LMIXTAU =  F

 exchange correlation table for  LEXCH =        8
   RHO(1)=    0.500       N(1)  =     2000
   RHO(2)=  100.500       N(2)  =     4000
 


--------------------------------------------------------------------------------------------------------


 ion  position               nearest neighbor table
   1  0.500  0.500  0.500-   3 2.02   4 2.02   5 2.08   6 2.08   5 2.08   6 2.08
   2  0.000  0.000  0.000-   5 2.02   6 2.02   3 2.08   4 2.08   3 2.08   4 2.08
   3  0.197  0.803  0.500-   1 2.02   2 2.08   2 2.08
   4  0.803  0.197  0.500-   1 2.02   2 2.08   2 2.08
   5  0.303  0.303  0.000-   2 2.02   1 2.08   1 2.08
   6  0.697  0.697  0.000-   2 2.02   1 2.08   1 2.08
 
  LATTYP: Found a simple tetragonal cell.
 ALAT       =     4.7050362092
 C/A-ratio  =     0.6844071275
  
  Lattice vectors:
  
 A1 = (   4.7050362092,   0.0000000000,   0.0000000000)
 A2 = (   0.0000000000,   4.7050362092,   0.0000000000)
 A3 = (   0.0000000000,   0.0000000000,   3.2201603166)


Analysis of symmetry for initial positions (statically):
=====================================================================
 Subroutine PRICEL returns:
 Original cell was already a primitive cell.
 

 Routine SETGRP: Setting up the symmetry group for a 
 simple tetragonal supercell.


 Subroutine GETGRP returns: Found 16 space group operations
 (whereof  8 operations were pure point group operations)
 out of a pool of 16 trial point group operations.


The static configuration has the point symmetry D_2h.
 The point group associated with its full space group is D_4h.


Analysis of symmetry for dynamics (positions and initial velocities):
=====================================================================
 Subroutine PRICEL returns:
 Original cell was already a primitive cell.
 

 Routine SETGRP: Setting up the symmetry group for a 
 simple tetragonal supercell.


 Subroutine GETGRP returns: Found 16 space group operations
 (whereof  8 operations were pure point group operations)
 out of a pool of 16 trial point group operations.


The dynamic configuration has the point symmetry D_2h.
 The point group associated with its full space group is D_4h.


Analysis of structural, dynamic, and magnetic symmetry:
=====================================================================
 Subroutine PRICEL returns:
 Original cell was already a primitive cell.
 

 Routine SETGRP: Setting up the symmetry group for a 
 simple tetragonal supercell.


 Subroutine GETGRP returns: Found 16 space group operations
 (whereof  8 operations were pure point group operations)
 out of a pool of 16 trial point group operations.


The magnetic configuration has the point symmetry D_2h.
 The point group associated with its full space group is D_4h.


 Subroutine INISYM returns: Found 16 space group operations
 (whereof  8 operations are pure point group operations),
 and found     1 'primitive' translations

 
 
 KPOINTS: KPOINTS created by Atomic Simulation Env

Automatic generation of k-mesh.
Space group operators:
 irot       det(A)        alpha          n_x          n_y          n_z        tau_x        tau_y        tau_z
    1     1.000000     0.000001     1.000000     0.000000     0.000000     0.000000     0.000000     0.000000
    2    -1.000000     0.000001     1.000000     0.000000     0.000000     0.000000     0.000000     0.000000
    3     1.000000   180.000000     0.000000     0.000000     1.000000     0.000000     0.000000     0.000000
    4    -1.000000   180.000000     0.000000     0.000000     1.000000     0.000000     0.000000     0.000000
    5     1.000000   180.000000     0.707107     0.707107     0.000000     0.000000     0.000000     0.000000
    6    -1.000000   180.000000     0.707107     0.707107     0.000000     0.000000     0.000000     0.000000
    7     1.000000   180.000000     0.707107    -0.707107     0.000000     0.000000     0.000000     0.000000
    8    -1.000000   180.000000     0.707107    -0.707107     0.000000     0.000000     0.000000     0.000000
    9     1.000000    90.000000     0.000000     0.000000    -1.000000     0.500000     0.500000     0.500000
   10    -1.000000    90.000000     0.000000     0.000000    -1.000000     0.500000     0.500000     0.500000
   11     1.000000    90.000000     0.000000     0.000000     1.000000     0.500000     0.500000     0.500000
   12    -1.000000    90.000000     0.000000     0.000000     1.000000     0.500000     0.500000     0.500000
   13     1.000000   180.000000     0.000000     1.000000     0.000000     0.500000     0.500000     0.500000
   14    -1.000000   180.000000     0.000000     1.000000     0.000000     0.500000     0.500000     0.500000
   15     1.000000   180.000000     1.000000     0.000000     0.000000     0.500000     0.500000     0.500000
   16    -1.000000   180.000000     1.000000     0.000000     0.000000     0.500000     0.500000     0.500000
 
 Subroutine IBZKPT returns following result:
 ===========================================
 
 Found      9 irreducible k-points:
 
 Following reciprocal coordinates:
            Coordinates               Weight
  0.125000  0.125000  0.083333      8.000000
  0.375000  0.125000  0.083333     16.000000
  0.375000  0.375000  0.083333      8.000000
  0.125000  0.125000  0.250000      8.000000
  0.375000  0.125000  0.250000     16.000000
  0.375000  0.375000  0.250000      8.000000
  0.125000  0.125000  0.416667      8.000000
  0.375000  0.125000  0.416667     16.000000
  0.375000  0.375000  0.416667      8.000000
 
 Following cartesian coordinates:
            Coordinates               Weight
  0.026567  0.026567  0.025879      8.000000
  0.079702  0.026567  0.025879     16.000000
  0.079702  0.079702  0.025879      8.000000
  0.026567  0.026567  0.077636      8.000000
  0.079702  0.026567  0.077636     16.000000
  0.079702  0.079702  0.077636      8.000000
  0.026567  0.026567  0.129393      8.000000
  0.079702  0.026567  0.129393     16.000000
  0.079702  0.079702  0.129393      8.000000
 
 TETIRR: Found    106 inequivalent tetrahedra from      576


--------------------------------------------------------------------------------------------------------




 Dimension of arrays:
   k-points           NKPTS =      9   k-points in BZ     NKDIM =      9   number of bands    NBANDS=     36
   number of dos      NEDOS =    301   number of ions     NIONS =      6
   non local maximal  LDIM  =      6   non local SUM 2l+1 LMDIM =     18
   total plane-waves  NPLWV =   9216
   max r-space proj   IRMAX =      1   max aug-charges    IRDMAX=  31578
   dimension x,y,z NGX =    24 NGY =   24 NGZ =   16
   dimension x,y,z NGXF=    48 NGYF=   48 NGZF=   32
   support grid    NGXF=    96 NGYF=   96 NGZF=   64
   ions per type =               2   4
   NGX,Y,Z   is equivalent  to a cutoff of   8.48,  8.48,  8.26 a.u.
   NGXF,Y,Z  is equivalent  to a cutoff of  16.96, 16.96, 16.52 a.u.

 SYSTEM =  unknown system                          
 POSCAR =  Mn  F                                   

 Startparameter for this run:
   NWRITE =      2    write-flag & timer
   PREC   = normal    normal or accurate (medium, high low for compatibility)
   ISTART =      0    job   : 0-new  1-cont  2-samecut
   ICHARG =      2    charge: 1-file 2-atom 10-const
   ISPIN  =      2    spin polarized calculation?
   LNONCOLLINEAR =      F non collinear calculations
   LSORBIT =      F    spin-orbit coupling
   INIWAV =      1    electr: 0-lowe 1-rand  2-diag
   LASPH  =      T    aspherical Exc in radial PAW
   METAGGA=      F    non-selfconsistent MetaGGA calc.

 Electronic Relaxation 1
   ENCUT  =  400.0 eV  29.40 Ry    5.42 a.u.   7.67  7.67  5.25*2*pi/ulx,y,z
   ENINI  =  400.0     initial cutoff
   ENAUG  =  613.6 eV  augmentation charge cutoff
   NELM   =     60;   NELMIN=  2; NELMDL= -5     # of ELM steps 
   EDIFF  = 0.1E-05   stopping-criterion for ELM
   LREAL  =      F    real-space projection
   NLSPLINE    = F    spline interpolate recip. space projectors
   LCOMPAT=      F    compatible to vasp.4.4
   GGA_COMPAT  = T    GGA compatible to vasp.4.4-vasp.4.6
   LMAXPAW     = -100 max onsite density
   LMAXMIX     =    4 max onsite mixed and CHGCAR
   VOSKOWN=      0    Vosko Wilk Nusair interpolation
   ROPT   =    0.00000   0.00000
 Ionic relaxation
   EDIFFG = 0.1E-04   stopping-criterion for IOM
   NSW    =      0    number of steps for IOM
   NBLOCK =      1;   KBLOCK =      1    inner block; outer block 
   IBRION =     -1    ionic relax: 0-MD 1-quasi-New 2-CG
   NFREE  =      0    steps in history (QN), initial steepest desc. (CG)
   ISIF   =      2    stress and relaxation
   IWAVPR =     10    prediction:  0-non 1-charg 2-wave 3-comb
   ISYM   =      2    0-nonsym 1-usesym 2-fastsym
   LCORR  =      T    Harris-Foulkes like correction to forces

   POTIM  = 0.5000    time-step for ionic-motion
   TEIN   =    0.0    initial temperature
   TEBEG  =    0.0;   TEEND  =   0.0 temperature during run
   SMASS  =  -3.00    Nose mass-parameter (am)
   estimated Nose-frequenzy (Omega)   =  0.10E-29 period in steps =****** mass=  -0.506E-27a.u.
   SCALEE = 1.0000    scale energy and forces
   NPACO  =    256;   APACO  = 16.0  distance and # of slots for P.C.
   PSTRESS=    0.0 pullay stress

  Mass of Ions in am
   POMASS =  54.94 19.00
  Ionic Valenz
   ZVAL   =  13.00  7.00
  Atomic Wigner-Seitz radii
   RWIGS  =  -1.00 -1.00
  virtual crystal weights 
   VCA    =   1.00  1.00
   NELECT =      54.0000    total number of electrons
   NUPDOWN=      -1.0000    fix difference up-down

 DOS related values:
   EMIN   =  10.00;   EMAX   =-10.00  energy-range for DOS
   EFERMI =   0.00
   ISMEAR =    -5;   SIGMA  =   0.20  broadening in eV -4-tet -1-fermi 0-gaus

 Electronic relaxation 2 (details)
   IALGO  =     38    algorithm
   LDIAG  =      T    sub-space diagonalisation (order eigenvalues)
   LSUBROT=      F    optimize rotation matrix (better conditioning)
   TURBO    =      0    0=normal 1=particle mesh
   IRESTART =      0    0=no restart 2=restart with 2 vectors
   NREBOOT  =      0    no. of reboots
   NMIN     =      0    reboot dimension
   EREF     =   0.00    reference energy to select bands
   IMIX   =      4    mixing-type and parameters
     AMIX     =   0.40;   BMIX     =  1.00
     AMIX_MAG =   1.60;   BMIX_MAG =  1.00
     AMIN     =   0.10
     WC   =   100.;   INIMIX=   1;  MIXPRE=   1;  MAXMIX= -45

 Intra band minimization:
   WEIMIN = 0.0000     energy-eigenvalue tresh-hold
   EBREAK =  0.69E-08  absolut break condition
   DEPER  =   0.30     relativ break condition  

   TIME   =   0.40     timestep for ELM

  volume/ion in A,a.u.               =      11.88        80.18
  Fermi-wavevector in a.u.,A,eV,Ry     =   1.492353  2.820139 30.301779  2.227118
  Thomas-Fermi vector in A             =   2.604892
 
 Write flags
   LWAVE        =      T    write WAVECAR
   LDOWNSAMPLE  =      F    k-point downsampling of WAVECAR
   LCHARG       =      T    write CHGCAR
   LVTOT        =      F    write LOCPOT, total local potential
   LVHAR        =      F    write LOCPOT, Hartree potential only
   LELF         =      F    write electronic localiz. function (ELF)
   LORBIT       =     11    0 simple, 1 ext, 2 COOP (PROOUT), +10 PAW based schemes


 Dipole corrections
   LMONO  =      F    monopole corrections only (constant potential shift)
   LDIPOL =      F    correct potential (dipole corrections)
   IDIPOL =      0    1-x, 2-y, 3-z, 4-all directions 
   EPSILON=  1.0000000 bulk dielectric constant

 LDA+U is selected, type is set to LDAUTYPE =  2
   angular momentum for each species LDAUL =     2   -1
   U (eV)           for each species LDAUU =   0.0  0.0
   J (eV)           for each species LDAUJ =   0.0  0.0
 Exchange correlation treatment:
   GGA     =    --    GGA type
   LEXCH   =     8    internal setting for exchange type
   VOSKOWN=      0    Vosko Wilk Nusair interpolation
   LHFCALC =     F    Hartree Fock is set to
   LHFONE  =     F    Hartree Fock one center treatment
   AEXX    =    0.0000 exact exchange contribution

 Linear response parameters
   LEPSILON=     F    determine dielectric tensor
   LRPA    =     F    only Hartree local field effects (RPA)
   LNABLA  =     F    use nabla operator in PAW spheres
   LVEL    =     F    velocity operator in full k-point grid
   LINTERFAST=   F  fast interpolation
   KINTER  =     0    interpolate to denser k-point grid
   CSHIFT  =0.1000    complex shift for real part using Kramers Kronig
   OMEGAMAX=  -1.0    maximum frequency
   DEG_THRESHOLD= 0.2000000E-02 threshold for treating states as degnerate
   RTIME   =   -0.100 relaxation time in fs
  (WPLASMAI=    0.000 imaginary part of plasma frequency in eV, 0.658/RTIME)
   DFIELD  = 0.0000000 0.0000000 0.0000000 field for delta impulse in time
 
 Orbital magnetization related:
   ORBITALMAG=     F  switch on orbital magnetization
   LCHIMAG   =     F  perturbation theory with respect to B field
   DQ        =  0.001000  dq finite difference perturbation B field
   LLRAUG    =     F  two centre corrections for induced B field



--------------------------------------------------------------------------------------------------------


 Static calculation
 charge density and potential will be updated during run
 spin polarized calculation
 Variant of blocked Davidson
 Davidson routine will perform the subspace rotation
 perform sub-space diagonalisation
    after iterative eigenvector-optimisation
 modified Broyden-mixing scheme, WC =      100.0
 initial mixing is a Kerker type mixing with AMIX =  0.4000 and BMIX =      1.0000
 Hartree-type preconditioning will be used
 using additional bands            9
 reciprocal scheme for non local part
 use partial core corrections
 calculate Harris-corrections to forces 
   (improved forces if not selfconsistent)
 use gradient corrections 
 use of overlap-Matrix (Vanderbilt PP)
 Fermi weights with tetrahedron method with Bloechl corrections


--------------------------------------------------------------------------------------------------------


  energy-cutoff  :      400.00
  volume of cell :       71.29
      direct lattice vectors                 reciprocal lattice vectors
     4.705036209  0.000000000  0.000000000     0.212538216  0.000000000  0.000000000
     0.000000000  4.705036209  0.000000000     0.000000000  0.212538216  0.000000000
     0.000000000  0.000000000  3.220160317     0.000000000  0.000000000  0.310543545

  length of vectors
     4.705036209  4.705036209  3.220160317     0.212538216  0.212538216  0.310543545


 
 k-points in units of 2pi/SCALE and weight: KPOINTS created by Atomic Simulation Env
   0.02656728  0.02656728  0.02587863       0.083
   0.07970183  0.02656728  0.02587863       0.167
   0.07970183  0.07970183  0.02587863       0.083
   0.02656728  0.02656728  0.07763589       0.083
   0.07970183  0.02656728  0.07763589       0.167
   0.07970183  0.07970183  0.07763589       0.083
   0.02656728  0.02656728  0.12939314       0.083
   0.07970183  0.02656728  0.12939314       0.167
   0.07970183  0.07970183  0.12939314       0.083
 
 k-points in reciprocal lattice and weights: KPOINTS created by Atomic Simulation Env
   0.12500000  0.12500000  0.08333333       0.083
   0.37500000  0.12500000  0.08333333       0.167
   0.37500000  0.37500000  0.08333333       0.083
   0.12500000  0.12500000  0.25000000       0.083
   0.37500000  0.12500000  0.25000000       0.167
   0.37500000  0.37500000  0.25000000       0.083
   0.12500000  0.12500000  0.41666667       0.083
   0.37500000  0.12500000  0.41666667       0.167
   0.37500000  0.37500000  0.41666667       0.083
 
 position of ions in fractional coordinates (direct lattice) 
   0.50000000  0.50000000  0.50000000
   0.00000000  0.00000000  0.00000000
   0.19696052  0.80303948  0.50000000
   0.80303948  0.19696052  0.50000000
   0.30303948  0.30303948  0.00000000
   0.69696052  0.69696052  0.00000000
 
 position of ions in cartesian coordinates  (Angst):
   2.35251810  2.35251810  1.61008016
   0.00000000  0.00000000  0.00000000
   0.92670638  3.77832983  1.61008016
   3.77832983  0.92670638  1.61008016
   1.42581173  1.42581173  0.00000000
   3.27922448  3.27922448  0.00000000
 


--------------------------------------------------------------------------------------------------------


 k-point  1 :   0.1250 0.1250 0.0833  plane waves:    1288
 k-point  2 :   0.3750 0.1250 0.0833  plane waves:    1301
 k-point  3 :   0.3750 0.3750 0.0833  plane waves:    1295
 k-point  4 :   0.1250 0.1250 0.2500  plane waves:    1304
 k-point  5 :   0.3750 0.1250 0.2500  plane waves:    1287
 k-point  6 :   0.3750 0.3750 0.2500  plane waves:    1290
 k-point  7 :   0.1250 0.1250 0.4167  plane waves:    1293
 k-point  8 :   0.3750 0.1250 0.4167  plane waves:    1294
 k-point  9 :   0.3750 0.3750 0.4167  plane waves:    1294

 maximum and minimum number of plane-waves per node :      1304     1287

 maximum number of plane-waves:      1304
 maximum index in each direction: 
   IXMAX=    7   IYMAX=    7   IZMAX=    5
   IXMIN=   -8   IYMIN=   -8   IZMIN=   -5


 serial   3D FFT for wavefunctions
 parallel 3D FFT for charge:
    minimum data exchange during FFTs selected (reduces bandwidth)


 total amount of memory used by VASP MPI-rank0    37824. kBytes
=======================================================================

   base      :      30000. kBytes
   nonl-proj :       3515. kBytes
   fftplans  :        966. kBytes
   grid      :       1965. kBytes
   one-center:        186. kBytes
   wavefun   :       1192. kBytes
 
     INWAV:  cpu time    0.0000: real time    0.0000
 Broyden mixing: mesh for mixing (old mesh)
   NGX = 15   NGY = 15   NGZ = 11
  (NGX  = 48   NGY  = 48   NGZ  = 32)
  gives a total of   2475 points

 initial charge density was supplied:
 charge density of overlapping atoms calculated
 number of electron      54.0000000 magnetization       0.0000000
 keeping initial charge density in first step


--------------------------------------------------------------------------------------------------------


 Maximum index for augmentation-charges         2631 (set IRDMAX)


--------------------------------------------------------------------------------------------------------


 First call to EWALD:  gamma=   0.427
 Maximum number of real-space cells 2x 2x 3
 Maximum number of reciprocal cells 3x 3x 2

    FEWALD:  cpu time    0.0010: real time    0.0010


--------------------------------------- Iteration      1(   1)  ---------------------------------------


    POTLOK:  cpu time    0.0183: real time    0.0183
    SETDIJ:  cpu time    1.4618: real time    1.4618
atom =   1  type =  1  l = 2
 
 onsite density matrix
 
spin component  1
 
  0.2835  0.0000  0.0000  0.0000  0.0000
  0.0000  0.2835  0.0000  0.0000  0.0000
  0.0000  0.0000  0.2835  0.0000  0.0000
  0.0000  0.0000  0.0000  0.2835  0.0000
  0.0000  0.0000  0.0000  0.0000  0.2835
 
spin component  2
 
  0.7694  0.0000  0.0000  0.0000  0.0000
  0.0000  0.7694  0.0000  0.0000  0.0000
  0.0000  0.0000  0.7694  0.0000  0.0000
  0.0000  0.0000  0.0000  0.7694  0.0000
  0.0000  0.0000  0.0000  0.0000  0.7694
 
 occupancies and eigenvectors
 
  o =  0.2835  v =  1.0000  0.0000  0.0000  0.0000  0.0000  0.0000  0.0000  0.0000  0.0000  0.0000      0.0000  0.0000  0.0000  0.0000  0.0000  0.0000  0.0000  0.0000  0.0000  0.0000
  o =  0.2835  v =  0.0000  1.0000  0.0000  0.0000  0.0000  0.0000  0.0000  0.0000  0.0000  0.0000      0.0000  0.0000  0.0000  0.0000  0.0000  0.0000  0.0000  0.0000  0.0000  0.0000
  o =  0.2835  v =  0.0000  0.0000  1.0000  0.0000  0.0000  0.0000  0.0000  0.0000  0.0000  0.0000      0.0000  0.0000  0.0000  0.0000  0.0000  0.0000  0.0000  0.0000  0.0000  0.0000
  o =  0.2835  v =  0.0000  0.0000  0.0000  1.0000  0.0000  0.0000  0.0000  0.0000  0.0000  0.0000      0.0000  0.0000  0.0000  0.0000  0.0000  0.0000  0.0000  0.0000  0.0000  0.0000
  o =  0.2835  v =  0.0000  0.0000  0.0000  0.0000  1.0000  0.0000  0.0000  0.0000  0.0000  0.0000      0.0000  0.0000  0.0000  0.0000  0.0000  0.0000  0.0000  0.0000  0.0000  0.0000
  o =  0.7694  v =  0.0000  0.0000  0.0000  0.0000  0.0000  1.0000  0.0000  0.0000  0.0000  0.0000      0.0000  0.0000  0.0000  0.0000  0.0000  0.0000  0.0000  0.0000  0.0000  0.0000
  o =  0.7694  v =  0.0000  0.0000  0.0000  0.0000  0.0000  0.0000  1.0000  0.0000  0.0000  0.0000      0.0000  0.0000  0.0000  0.0000  0.0000  0.0000  0.0000  0.0000  0.0000  0.0000
  o =  0.7694  v =  0.0000  0.0000  0.0000  0.0000  0.0000  0.0000  0.0000  1.0000  0.0000  0.0000      0.0000  0.0000  0.0000  0.0000  0.0000  0.0000  0.0000  0.0000  0.0000  0.0000
  o =  0.7694  v =  0.0000  0.0000  0.0000  0.0000  0.0000  0.0000  0.0000  0.0000  1.0000  0.0000      0.0000  0.0000  0.0000  0.0000  0.0000  0.0000  0.0000  0.0000  0.0000  0.0000
  o =  0.7694  v =  0.0000  0.0000  0.0000  0.0000  0.0000  0.0000  0.0000  0.0000  0.0000  1.0000      0.0000  0.0000  0.0000  0.0000  0.0000  0.0000  0.0000  0.0000  0.0000  0.0000
atom =   2  type =  1  l = 2
 
 onsite density matrix
 
spin component  1
 
  0.7694  0.0000  0.0000  0.0000  0.0000
  0.0000  0.7694  0.0000  0.0000  0.0000
  0.0000  0.0000  0.7694  0.0000  0.0000
  0.0000  0.0000  0.0000  0.7694  0.0000
  0.0000  0.0000  0.0000  0.0000  0.7694
 
spin component  2
 
  0.2835  0.0000  0.0000  0.0000  0.0000
  0.0000  0.2835  0.0000  0.0000  0.0000
  0.0000  0.0000  0.2835  0.0000  0.0000
  0.0000  0.0000  0.0000  0.2835  0.0000
  0.0000  0.0000  0.0000  0.0000  0.2835
 
 occupancies and eigenvectors
 
  o =  0.2835  v =  0.0000  0.0000  0.0000  0.0000  0.0000  1.0000  0.0000  0.0000  0.0000  0.0000      0.0000  0.0000  0.0000  0.0000  0.0000  0.0000  0.0000  0.0000  0.0000  0.0000
  o =  0.2835  v =  0.0000  0.0000  0.0000  0.0000  0.0000  0.0000  1.0000  0.0000  0.0000  0.0000      0.0000  0.0000  0.0000  0.0000  0.0000  0.0000  0.0000  0.0000  0.0000  0.0000
  o =  0.2835  v =  0.0000  0.0000  0.0000  0.0000  0.0000  0.0000  0.0000  1.0000  0.0000  0.0000      0.0000  0.0000  0.0000  0.0000  0.0000  0.0000  0.0000  0.0000  0.0000  0.0000
  o =  0.2835  v =  0.0000  0.0000  0.0000  0.0000  0.0000  0.0000  0.0000  0.0000  1.0000  0.0000      0.0000  0.0000  0.0000  0.0000  0.0000  0.0000  0.0000  0.0000  0.0000  0.0000
  o =  0.2835  v =  0.0000  0.0000  0.0000  0.0000  0.0000  0.0000  0.0000  0.0000  0.0000  1.0000      0.0000  0.0000  0.0000  0.0000  0.0000  0.0000  0.0000  0.0000  0.0000  0.0000
  o =  0.7694  v =  1.0000  0.0000  0.0000  0.0000  0.0000  0.0000  0.0000  0.0000  0.0000  0.0000      0.0000  0.0000  0.0000  0.0000  0.0000  0.0000  0.0000  0.0000  0.0000  0.0000
  o =  0.7694  v =  0.0000  1.0000  0.0000  0.0000  0.0000  0.0000  0.0000  0.0000  0.0000  0.0000      0.0000  0.0000  0.0000  0.0000  0.0000  0.0000  0.0000  0.0000  0.0000  0.0000
  o =  0.7694  v =  0.0000  0.0000  1.0000  0.0000  0.0000  0.0000  0.0000  0.0000  0.0000  0.0000      0.0000  0.0000  0.0000  0.0000  0.0000  0.0000  0.0000  0.0000  0.0000  0.0000
  o =  0.7694  v =  0.0000  0.0000  0.0000  1.0000  0.0000  0.0000  0.0000  0.0000  0.0000  0.0000      0.0000  0.0000  0.0000  0.0000  0.0000  0.0000  0.0000  0.0000  0.0000  0.0000
  o =  0.7694  v =  0.0000  0.0000  0.0000  0.0000  1.0000  0.0000  0.0000  0.0000  0.0000  0.0000      0.0000  0.0000  0.0000  0.0000  0.0000  0.0000  0.0000  0.0000  0.0000  0.0000
     EDDAV:  cpu time    0.3756: real time    0.3939
 BZINTS: Fermi energy: 23.536355; 54.000000 electrons
         Band energy: 292.746751;  BLOECHL correction: -0.155585
       DOS:  cpu time    0.0103: real time    0.0102
    --------------------------------------------
      LOOP:  cpu time    1.8660: real time    1.8842

 eigenvalue-minimisations  :  1368
 total energy-change (2. order) : 0.8515591E+03  (-0.3054336E+04)
 number of electron      54.0000000 magnetization       0.0000000
 augmentation part       54.0000000 magnetization       0.0000000

 Free energy of the ion-electron system (eV)
  ---------------------------------------------------
  alpha Z        PSCENC =       216.55746734
  Ewald energy   TEWEN  =     -4325.17006593
  -Hartree energ DENC   =     -2055.19423093
  -exchange      EXHF   =         0.00000000
  -V(xc)+E(xc)   XCENC  =        -3.96107199
  PAW double counting   =      5566.43601843    -5528.13058630
  entropy T*S    EENTRO =         0.00000000
  eigenvalues    EBANDS =       292.74675143
  atomic energy  EATOM  =      6688.27483813
  Solvation  Ediel_sol  =         0.00000000
  ---------------------------------------------------
  free energy    TOTEN  =       851.55912017 eV

  energy without entropy =      851.55912017  energy(sigma->0) =      851.55912017


--------------------------------------------------------------------------------------------------------




--------------------------------------- Iteration      1(   2)  ---------------------------------------


     EDDAV:  cpu time    0.3998: real time    0.3998
 BZINTS: Fermi energy: 12.210887; 54.000000 electrons
         Band energy:-169.120694;  BLOECHL correction:  0.000000
       DOS:  cpu time    0.0020: real time    0.0020
    --------------------------------------------
      LOOP:  cpu time    0.4019: real time    0.4019

 eigenvalue-minimisations  :  1512
 total energy-change (2. order) :-0.4618674E+03  (-0.4428469E+03)
 number of electron      54.0000000 magnetization       0.0000000
 augmentation part       54.0000000 magnetization       0.0000000

 Free energy of the ion-electron system (eV)
  ---------------------------------------------------
  alpha Z        PSCENC =       216.55746734
  Ewald energy   TEWEN  =     -4325.17006593
  -Hartree energ DENC   =     -2055.19423093
  -exchange      EXHF   =         0.00000000
  -V(xc)+E(xc)   XCENC  =        -3.96107199
  PAW double counting   =      5566.43601843    -5528.13058630
  entropy T*S    EENTRO =         0.00000000
  eigenvalues    EBANDS =      -169.12069391
  atomic energy  EATOM  =      6688.27483813
  Solvation  Ediel_sol  =         0.00000000
  ---------------------------------------------------
  free energy    TOTEN  =       389.69167484 eV

  energy without entropy =      389.69167484  energy(sigma->0) =      389.69167484


--------------------------------------------------------------------------------------------------------




--------------------------------------- Iteration      1(   3)  ---------------------------------------


     EDDAV:  cpu time    0.3805: real time    0.3805
 BZINTS: Fermi energy: 10.790009; 54.000000 electrons
         Band energy:-193.513182;  BLOECHL correction:  0.000000
       DOS:  cpu time    0.0020: real time    0.0020
    --------------------------------------------
      LOOP:  cpu time    0.3825: real time    0.3825

 eigenvalue-minimisations  :  1416
 total energy-change (2. order) :-0.2439249E+02  (-0.2427038E+02)
 number of electron      54.0000000 magnetization       0.0000000
 augmentation part       54.0000000 magnetization       0.0000000

 Free energy of the ion-electron system (eV)
  ---------------------------------------------------
  alpha Z        PSCENC =       216.55746734
  Ewald energy   TEWEN  =     -4325.17006593
  -Hartree energ DENC   =     -2055.19423093
  -exchange      EXHF   =         0.00000000
  -V(xc)+E(xc)   XCENC  =        -3.96107199
  PAW double counting   =      5566.43601843    -5528.13058630
  entropy T*S    EENTRO =         0.00000000
  eigenvalues    EBANDS =      -193.51318224
  atomic energy  EATOM  =      6688.27483813
  Solvation  Ediel_sol  =         0.00000000
  ---------------------------------------------------
  free energy    TOTEN  =       365.29918651 eV

  energy without entropy =      365.29918651  energy(sigma->0) =      365.29918651


--------------------------------------------------------------------------------------------------------




--------------------------------------- Iteration      1(   4)  ---------------------------------------


     EDDAV:  cpu time    0.4186: real time    0.4186
 BZINTS: Fermi energy: 10.738862; 54.000000 electrons
         Band energy:-193.748268;  BLOECHL correction:  0.000000
       DOS:  cpu time    0.0020: real time    0.0020
    --------------------------------------------
      LOOP:  cpu time    0.4206: real time    0.4206

 eigenvalue-minimisations  :  1584
 total energy-change (2. order) :-0.2350859E+00  (-0.2349706E+00)
 number of electron      54.0000000 magnetization       0.0000000
 augmentation part       54.0000000 magnetization       0.0000000

 Free energy of the ion-electron system (eV)
  ---------------------------------------------------
  alpha Z        PSCENC =       216.55746734
  Ewald energy   TEWEN  =     -4325.17006593
  -Hartree energ DENC   =     -2055.19423093
  -exchange      EXHF   =         0.00000000
  -V(xc)+E(xc)   XCENC  =        -3.96107199
  PAW double counting   =      5566.43601843    -5528.13058630
  entropy T*S    EENTRO =         0.00000000
  eigenvalues    EBANDS =      -193.74826810
  atomic energy  EATOM  =      6688.27483813
  Solvation  Ediel_sol  =         0.00000000
  ---------------------------------------------------
  free energy    TOTEN  =       365.06410065 eV

  energy without entropy =      365.06410065  energy(sigma->0) =      365.06410065


--------------------------------------------------------------------------------------------------------




--------------------------------------- Iteration      1(   5)  ---------------------------------------


     EDDAV:  cpu time    0.3864: real time    0.3864
 BZINTS: Fermi energy: 10.712324; 54.000000 electrons
         Band energy:-193.752295;  BLOECHL correction:  0.000000
       DOS:  cpu time    0.0020: real time    0.0020
    CHARGE:  cpu time    0.0683: real time    0.0683
    MIXING:  cpu time    0.0003: real time    0.0003
    --------------------------------------------
      LOOP:  cpu time    0.4570: real time    0.4570

 eigenvalue-minimisations  :  1440
 total energy-change (2. order) :-0.4026966E-02  (-0.4026903E-02)
 number of electron      54.0000002 magnetization      -0.0000000
 augmentation part       22.5465637 magnetization      -0.0000000

 Broyden mixing:
  rms(total) = 0.62270E+01    rms(broyden)= 0.62255E+01
  rms(prec ) = 0.64720E+01
  weight for this iteration     100.00

 Free energy of the ion-electron system (eV)
  ---------------------------------------------------
  alpha Z        PSCENC =       216.55746734
  Ewald energy   TEWEN  =     -4325.17006593
  -Hartree energ DENC   =     -2055.19423093
  -exchange      EXHF   =         0.00000000
  -V(xc)+E(xc)   XCENC  =        -3.96107199
  PAW double counting   =      5566.43601843    -5528.13058630
  entropy T*S    EENTRO =         0.00000000
  eigenvalues    EBANDS =      -193.75229507
  atomic energy  EATOM  =      6688.27483813
  Solvation  Ediel_sol  =         0.00000000
  ---------------------------------------------------
  free energy    TOTEN  =       365.06007368 eV

  energy without entropy =      365.06007368  energy(sigma->0) =      365.06007368


--------------------------------------------------------------------------------------------------------




--------------------------------------- Iteration      1(   6)  ---------------------------------------


    POTLOK:  cpu time    0.0170: real time    0.0170
    SETDIJ:  cpu time    1.4817: real time    1.4818
atom =   1  type =  1  l = 2
 
 onsite density matrix
 
spin component  1
 
  0.0520  0.0000  0.0699  0.0000 -0.0000
  0.0000  0.0211  0.0000  0.0581  0.0000
  0.0699  0.0000  0.0071  0.0000 -0.0000
  0.0000  0.0581  0.0000  0.0211  0.0000
 -0.0000  0.0000 -0.0000  0.0000 -0.0583
 
spin component  2
 
  1.0486  0.0000 -0.0318  0.0000  0.0000
  0.0000  1.0640  0.0000 -0.0263  0.0000
 -0.0318  0.0000  1.0694  0.0000  0.0000
  0.0000 -0.0263  0.0000  1.0640  0.0000
  0.0000  0.0000  0.0000  0.0000  1.1014
 
 occupancies and eigenvectors
 
  o = -0.0583  v =  0.0000 -0.0000 -0.0000  0.0000 -1.0000  0.0000  0.0000  0.0000  0.0000  0.0000      0.0000  0.0000  0.0000  0.0000  0.0000  0.0000  0.0000  0.0000  0.0000  0.0000
  o = -0.0439  v =  0.5892  0.0000 -0.8080 -0.0000  0.0000  0.0000  0.0000  0.0000  0.0000  0.0000      0.0000  0.0000  0.0000  0.0000  0.0000  0.0000  0.0000  0.0000  0.0000  0.0000
  o = -0.0370  v =  0.0000 -0.7071 -0.0000  0.7071  0.0000  0.0000  0.0000  0.0000  0.0000  0.0000      0.0000  0.0000  0.0000  0.0000  0.0000  0.0000  0.0000  0.0000  0.0000  0.0000
  o =  0.0792  v =  0.0000 -0.7071  0.0000 -0.7071 -0.0000  0.0000  0.0000  0.0000  0.0000  0.0000      0.0000  0.0000  0.0000  0.0000  0.0000  0.0000  0.0000  0.0000  0.0000  0.0000
  o =  0.1029  v =  0.8080  0.0000  0.5892  0.0000 -0.0000  0.0000  0.0000  0.0000  0.0000  0.0000      0.0000  0.0000  0.0000  0.0000  0.0000  0.0000  0.0000  0.0000  0.0000  0.0000
  o =  1.0255  v =  0.0000  0.0000  0.0000  0.0000  0.0000  0.8094  0.0000  0.5872  0.0000 -0.0000      0.0000  0.0000  0.0000  0.0000  0.0000  0.0000  0.0000  0.0000  0.0000  0.0000
  o =  1.0377  v =  0.0000  0.0000  0.0000  0.0000  0.0000  0.0000 -0.7071  0.0000 -0.7071 -0.0000      0.0000  0.0000  0.0000  0.0000  0.0000  0.0000  0.0000  0.0000  0.0000  0.0000
  o =  1.0903  v =  0.0000  0.0000  0.0000  0.0000  0.0000  0.0000 -0.7071  0.0000  0.7071 -0.0000      0.0000  0.0000  0.0000  0.0000  0.0000  0.0000  0.0000  0.0000  0.0000  0.0000
  o =  1.0925  v =  0.0000  0.0000  0.0000  0.0000  0.0000  0.5872 -0.0000 -0.8094  0.0000  0.0000      0.0000  0.0000  0.0000  0.0000  0.0000  0.0000  0.0000  0.0000  0.0000  0.0000
  o =  1.1014  v =  0.0000  0.0000  0.0000  0.0000  0.0000  0.0000  0.0000 -0.0000  0.0000 -1.0000      0.0000  0.0000  0.0000  0.0000  0.0000  0.0000  0.0000  0.0000  0.0000  0.0000
atom =   2  type =  1  l = 2
 
 onsite density matrix
 
spin component  1
 
  1.0486  0.0000  0.0318  0.0000  0.0000
  0.0000  1.0640  0.0000  0.0263  0.0000
  0.0318  0.0000  1.0694  0.0000  0.0000
  0.0000  0.0263  0.0000  1.0640  0.0000
  0.0000  0.0000  0.0000  0.0000  1.1014
 
spin component  2
 
  0.0520  0.0000 -0.0699  0.0000 -0.0000
  0.0000  0.0211  0.0000 -0.0581  0.0000
 -0.0699  0.0000  0.0071  0.0000 -0.0000
  0.0000 -0.0581  0.0000  0.0211  0.0000
 -0.0000  0.0000 -0.0000  0.0000 -0.0583
 
 occupancies and eigenvectors
 
  o = -0.0583  v =  0.0000  0.0000  0.0000  0.0000  0.0000  0.0000  0.0000  0.0000  0.0000  1.0000      0.0000  0.0000  0.0000  0.0000  0.0000  0.0000  0.0000  0.0000  0.0000  0.0000
  o = -0.0439  v =  0.0000  0.0000  0.0000  0.0000  0.0000 -0.5892  0.0000 -0.8080  0.0000  0.0000      0.0000  0.0000  0.0000  0.0000  0.0000  0.0000  0.0000  0.0000  0.0000  0.0000
  o = -0.0370  v =  0.0000  0.0000  0.0000  0.0000  0.0000  0.0000 -0.7071  0.0000 -0.7071  0.0000      0.0000  0.0000  0.0000  0.0000  0.0000  0.0000  0.0000  0.0000  0.0000  0.0000
  o =  0.0792  v =  0.0000  0.0000  0.0000  0.0000  0.0000  0.0000  0.7071  0.0000 -0.7071 -0.0000      0.0000  0.0000  0.0000  0.0000  0.0000  0.0000  0.0000  0.0000  0.0000  0.0000
  o =  0.1029  v =  0.0000  0.0000  0.0000  0.0000  0.0000  0.8080  0.0000 -0.5892  0.0000  0.0000      0.0000  0.0000  0.0000  0.0000  0.0000  0.0000  0.0000  0.0000  0.0000  0.0000
  o =  1.0255  v =  0.8094 -0.0000 -0.5872  0.0000  0.0000  0.0000  0.0000  0.0000  0.0000  0.0000      0.0000  0.0000  0.0000  0.0000  0.0000  0.0000  0.0000  0.0000  0.0000  0.0000
  o =  1.0377  v =  0.0000  0.7071  0.0000 -0.7071  0.0000  0.0000  0.0000  0.0000  0.0000  0.0000      0.0000  0.0000  0.0000  0.0000  0.0000  0.0000  0.0000  0.0000  0.0000  0.0000
  o =  1.0903  v =  0.0000 -0.7071  0.0000 -0.7071 -0.0000  0.0000  0.0000  0.0000  0.0000  0.0000      0.0000  0.0000  0.0000  0.0000  0.0000  0.0000  0.0000  0.0000  0.0000  0.0000
  o =  1.0925  v =  0.5872  0.0000  0.8094  0.0000 -0.0000  0.0000  0.0000  0.0000  0.0000  0.0000      0.0000  0.0000  0.0000  0.0000  0.0000  0.0000  0.0000  0.0000  0.0000  0.0000
  o =  1.1014  v =  0.0000 -0.0000  0.0000  0.0000  1.0000  0.0000  0.0000  0.0000  0.0000  0.0000      0.0000  0.0000  0.0000  0.0000  0.0000  0.0000  0.0000  0.0000  0.0000  0.0000
     EDDAV:  cpu time    0.4186: real time    0.4186
 BZINTS: Fermi energy:  8.104071; 54.000000 electrons
         Band energy:-708.185192;  BLOECHL correction: -0.010439
       DOS:  cpu time    0.0103: real time    0.0103
    CHARGE:  cpu time    0.0693: real time    0.0693
    MIXING:  cpu time    0.0004: real time    0.0004
    --------------------------------------------
      LOOP:  cpu time    1.9973: real time    1.9973

 eigenvalue-minimisations  :  1584
 total energy-change (2. order) :-0.4344528E+03  (-0.2595085E+02)
 number of electron      54.0000002 magnetization      -0.0000000
 augmentation part       19.6641992 magnetization      -0.0000000

 Broyden mixing:
  rms(total) = 0.65409E+01    rms(broyden)= 0.65407E+01
  rms(prec ) = 0.70955E+01
  weight for this iteration     100.00

 eigenvalues of (default mixing * dielectric matrix)
  average eigenvalue GAMMA=   0.4173
  0.4173

 Free energy of the ion-electron system (eV)
  ---------------------------------------------------
  alpha Z        PSCENC =       216.55746734
  Ewald energy   TEWEN  =     -4325.17006593
  -Hartree energ DENC   =     -2118.39867985
  -exchange      EXHF   =         0.00000000
  -V(xc)+E(xc)   XCENC  =       144.45165788
  PAW double counting   =      6578.19169067    -6545.11442505
  entropy T*S    EENTRO =         0.00000000
  eigenvalues    EBANDS =      -708.18519207
  atomic energy  EATOM  =      6688.27483813
  Solvation  Ediel_sol  =         0.00000000
  ---------------------------------------------------
  free energy    TOTEN  =       -69.39270888 eV

  energy without entropy =      -69.39270888  energy(sigma->0) =      -69.39270888


--------------------------------------------------------------------------------------------------------




--------------------------------------- Iteration      1(   7)  ---------------------------------------


    POTLOK:  cpu time    0.0167: real time    0.0167
    SETDIJ:  cpu time    1.4633: real time    1.4633
atom =   1  type =  1  l = 2
 
 onsite density matrix
 
spin component  1
 
  0.1001  0.0000  0.0404  0.0000  0.0000
  0.0000  0.0637  0.0000  0.0257  0.0000
  0.0404  0.0000  0.0670  0.0000  0.0000
  0.0000  0.0257  0.0000  0.0637  0.0000
  0.0000  0.0000  0.0000  0.0000  0.0253
 
spin component  2
 
  0.9646  0.0000 -0.0070  0.0000  0.0000
  0.0000  0.9997  0.0000  0.0067  0.0000
 -0.0070  0.0000  0.9842  0.0000  0.0000
  0.0000  0.0067  0.0000  0.9997  0.0000
  0.0000  0.0000  0.0000  0.0000  0.9969
 
 occupancies and eigenvectors
 
  o =  0.0253  v =  0.0000 -0.0000 -0.0000  0.0000  1.0000  0.0000  0.0000  0.0000  0.0000  0.0000      0.0000  0.0000  0.0000  0.0000  0.0000  0.0000  0.0000  0.0000  0.0000  0.0000
  o =  0.0380  v =  0.0000  0.7071  0.0000 -0.7071  0.0000  0.0000  0.0000  0.0000  0.0000  0.0000      0.0000  0.0000  0.0000  0.0000  0.0000  0.0000  0.0000  0.0000  0.0000  0.0000
  o =  0.0399  v = -0.5569 -0.0000  0.8305  0.0000  0.0000  0.0000  0.0000  0.0000  0.0000  0.0000      0.0000  0.0000  0.0000  0.0000  0.0000  0.0000  0.0000  0.0000  0.0000  0.0000
  o =  0.0894  v =  0.0000 -0.7071  0.0000 -0.7071 -0.0000  0.0000  0.0000  0.0000  0.0000  0.0000      0.0000  0.0000  0.0000  0.0000  0.0000  0.0000  0.0000  0.0000  0.0000  0.0000
  o =  0.1272  v = -0.8305  0.0000 -0.5569  0.0000 -0.0000  0.0000  0.0000  0.0000  0.0000  0.0000      0.0000  0.0000  0.0000  0.0000  0.0000  0.0000  0.0000  0.0000  0.0000  0.0000
  o =  0.9624  v =  0.0000  0.0000  0.0000  0.0000  0.0000 -0.9527  0.0000 -0.3039  0.0000  0.0000      0.0000  0.0000  0.0000  0.0000  0.0000  0.0000  0.0000  0.0000  0.0000  0.0000
  o =  0.9864  v =  0.0000  0.0000  0.0000  0.0000  0.0000 -0.3039  0.0000  0.9527  0.0000 -0.0000      0.0000  0.0000  0.0000  0.0000  0.0000  0.0000  0.0000  0.0000  0.0000  0.0000
  o =  0.9930  v =  0.0000  0.0000  0.0000  0.0000  0.0000  0.0000  0.7071  0.0000 -0.7071  0.0000      0.0000  0.0000  0.0000  0.0000  0.0000  0.0000  0.0000  0.0000  0.0000  0.0000
  o =  0.9969  v =  0.0000  0.0000  0.0000  0.0000  0.0000  0.0000  0.0000 -0.0000 -0.0000 -1.0000      0.0000  0.0000  0.0000  0.0000  0.0000  0.0000  0.0000  0.0000  0.0000  0.0000
  o =  1.0064  v =  0.0000  0.0000  0.0000  0.0000  0.0000  0.0000  0.7071 -0.0000  0.7071 -0.0000      0.0000  0.0000  0.0000  0.0000  0.0000  0.0000  0.0000  0.0000  0.0000  0.0000
atom =   2  type =  1  l = 2
 
 onsite density matrix
 
spin component  1
 
  0.9646  0.0000  0.0070  0.0000 -0.0000
  0.0000  0.9997  0.0000 -0.0067  0.0000
  0.0070  0.0000  0.9842  0.0000 -0.0000
  0.0000 -0.0067  0.0000  0.9997  0.0000
 -0.0000  0.0000 -0.0000  0.0000  0.9969
 
spin component  2
 
  0.1001  0.0000 -0.0404  0.0000  0.0000
  0.0000  0.0637  0.0000 -0.0257  0.0000
 -0.0404  0.0000  0.0670  0.0000 -0.0000
  0.0000 -0.0257  0.0000  0.0637  0.0000
  0.0000  0.0000 -0.0000  0.0000  0.0253
 
 occupancies and eigenvectors
 
  o =  0.0253  v =  0.0000  0.0000  0.0000  0.0000  0.0000  0.0000 -0.0000  0.0000  0.0000  1.0000      0.0000  0.0000  0.0000  0.0000  0.0000  0.0000  0.0000  0.0000  0.0000  0.0000
  o =  0.0380  v =  0.0000  0.0000  0.0000  0.0000  0.0000  0.0000 -0.7071  0.0000 -0.7071 -0.0000      0.0000  0.0000  0.0000  0.0000  0.0000  0.0000  0.0000  0.0000  0.0000  0.0000
  o =  0.0399  v =  0.0000  0.0000  0.0000  0.0000  0.0000 -0.5569 -0.0000 -0.8305  0.0000  0.0000      0.0000  0.0000  0.0000  0.0000  0.0000  0.0000  0.0000  0.0000  0.0000  0.0000
  o =  0.0894  v =  0.0000  0.0000  0.0000  0.0000  0.0000  0.0000 -0.7071  0.0000  0.7071 -0.0000      0.0000  0.0000  0.0000  0.0000  0.0000  0.0000  0.0000  0.0000  0.0000  0.0000
  o =  0.1272  v =  0.0000  0.0000  0.0000  0.0000  0.0000 -0.8305  0.0000  0.5569  0.0000 -0.0000      0.0000  0.0000  0.0000  0.0000  0.0000  0.0000  0.0000  0.0000  0.0000  0.0000
  o =  0.9624  v = -0.9527  0.0000  0.3039  0.0000 -0.0000  0.0000  0.0000  0.0000  0.0000  0.0000      0.0000  0.0000  0.0000  0.0000  0.0000  0.0000  0.0000  0.0000  0.0000  0.0000
  o =  0.9864  v = -0.3039  0.0000 -0.9527  0.0000  0.0000  0.0000  0.0000  0.0000  0.0000  0.0000      0.0000  0.0000  0.0000  0.0000  0.0000  0.0000  0.0000  0.0000  0.0000  0.0000
  o =  0.9930  v =  0.0000 -0.7071  0.0000 -0.7071  0.0000  0.0000  0.0000  0.0000  0.0000  0.0000      0.0000  0.0000  0.0000  0.0000  0.0000  0.0000  0.0000  0.0000  0.0000  0.0000
  o =  0.9969  v =  0.0000 -0.0000 -0.0000  0.0000 -1.0000  0.0000  0.0000  0.0000  0.0000  0.0000      0.0000  0.0000  0.0000  0.0000  0.0000  0.0000  0.0000  0.0000  0.0000  0.0000
  o =  1.0064  v =  0.0000  0.7071  0.0000 -0.7071 -0.0000  0.0000  0.0000  0.0000  0.0000  0.0000      0.0000  0.0000  0.0000  0.0000  0.0000  0.0000  0.0000  0.0000  0.0000  0.0000
     EDDAV:  cpu time    0.3759: real time    0.3761
 BZINTS: Fermi energy:  6.017952; 54.000000 electrons
         Band energy:-753.181494;  BLOECHL correction:  0.000000
       DOS:  cpu time    0.0018: real time    0.0018
    CHARGE:  cpu time    0.0692: real time    0.0692
    MIXING:  cpu time    0.0004: real time    0.0004
    --------------------------------------------
      LOOP:  cpu time    1.9274: real time    1.9276

 eigenvalue-minimisations  :  1368
 total energy-change (2. order) :-0.2253691E+01  (-0.5262524E+01)
 number of electron      54.0000002 magnetization      -0.0000000
 augmentation part       19.7371035 magnetization      -0.0000000

 Broyden mixing:
  rms(total) = 0.17438E+01    rms(broyden)= 0.17430E+01
  rms(prec ) = 0.26644E+01
  weight for this iteration     100.00

 eigenvalues of (default mixing * dielectric matrix)
  average eigenvalue GAMMA=   0.7018
  0.7018  0.7018

 Free energy of the ion-electron system (eV)
  ---------------------------------------------------
  alpha Z        PSCENC =       216.55746734
  Ewald energy   TEWEN  =     -4325.17006593
  -Hartree energ DENC   =     -2099.61358059
  -exchange      EXHF   =         0.00000000
  -V(xc)+E(xc)   XCENC  =       168.61848714
  PAW double counting   =      6664.90520997    -6632.03726194
  entropy T*S    EENTRO =         0.00000000
  eigenvalues    EBANDS =      -753.18149421
  atomic energy  EATOM  =      6688.27483813
  Solvation  Ediel_sol  =         0.00000000
  ---------------------------------------------------
  free energy    TOTEN  =       -71.64640010 eV

  energy without entropy =      -71.64640010  energy(sigma->0) =      -71.64640010


--------------------------------------------------------------------------------------------------------




--------------------------------------- Iteration      1(   8)  ---------------------------------------


    POTLOK:  cpu time    0.0168: real time    0.0168
    SETDIJ:  cpu time    1.4621: real time    1.4621
atom =   1  type =  1  l = 2
 
 onsite density matrix
 
spin component  1
 
  0.0531  0.0000  0.0162  0.0000 -0.0000
  0.0000  0.0555  0.0000  0.0198  0.0000
  0.0162  0.0000  0.0475  0.0000  0.0000
  0.0000  0.0198  0.0000  0.0555  0.0000
 -0.0000  0.0000  0.0000  0.0000  0.0289
 
spin component  2
 
  0.9918  0.0000  0.0257  0.0000  0.0000
  0.0000  0.9828  0.0000  0.0150  0.0000
  0.0257  0.0000  0.9802  0.0000  0.0000
  0.0000  0.0150  0.0000  0.9828  0.0000
  0.0000  0.0000  0.0000  0.0000  0.9674
 
 occupancies and eigenvectors
 
  o =  0.0289  v =  0.0000  0.0000 -0.0000  0.0000  1.0000  0.0000  0.0000  0.0000  0.0000  0.0000      0.0000  0.0000  0.0000  0.0000  0.0000  0.0000  0.0000  0.0000  0.0000  0.0000
  o =  0.0338  v = -0.6441  0.0000  0.7650  0.0000  0.0000  0.0000  0.0000  0.0000  0.0000  0.0000      0.0000  0.0000  0.0000  0.0000  0.0000  0.0000  0.0000  0.0000  0.0000  0.0000
  o =  0.0357  v =  0.0000  0.7071  0.0000 -0.7071 -0.0000  0.0000  0.0000  0.0000  0.0000  0.0000      0.0000  0.0000  0.0000  0.0000  0.0000  0.0000  0.0000  0.0000  0.0000  0.0000
  o =  0.0667  v = -0.7650 -0.0000 -0.6441  0.0000 -0.0000  0.0000  0.0000  0.0000  0.0000  0.0000      0.0000  0.0000  0.0000  0.0000  0.0000  0.0000  0.0000  0.0000  0.0000  0.0000
  o =  0.0754  v =  0.0000 -0.7071  0.0000 -0.7071  0.0000  0.0000  0.0000  0.0000  0.0000  0.0000      0.0000  0.0000  0.0000  0.0000  0.0000  0.0000  0.0000  0.0000  0.0000  0.0000
  o =  0.9597  v =  0.0000  0.0000  0.0000  0.0000  0.0000 -0.6244  0.0000  0.7811  0.0000  0.0000      0.0000  0.0000  0.0000  0.0000  0.0000  0.0000  0.0000  0.0000  0.0000  0.0000
  o =  0.9674  v =  0.0000  0.0000  0.0000  0.0000  0.0000  0.0000 -0.0000 -0.0000  0.0000  1.0000      0.0000  0.0000  0.0000  0.0000  0.0000  0.0000  0.0000  0.0000  0.0000  0.0000
  o =  0.9678  v =  0.0000  0.0000  0.0000  0.0000  0.0000  0.0000  0.7071  0.0000 -0.7071  0.0000      0.0000  0.0000  0.0000  0.0000  0.0000  0.0000  0.0000  0.0000  0.0000  0.0000
  o =  0.9978  v =  0.0000  0.0000  0.0000  0.0000  0.0000  0.0000 -0.7071  0.0000 -0.7071 -0.0000      0.0000  0.0000  0.0000  0.0000  0.0000  0.0000  0.0000  0.0000  0.0000  0.0000
  o =  1.0123  v =  0.0000  0.0000  0.0000  0.0000  0.0000 -0.7811  0.0000 -0.6244  0.0000 -0.0000      0.0000  0.0000  0.0000  0.0000  0.0000  0.0000  0.0000  0.0000  0.0000  0.0000
atom =   2  type =  1  l = 2
 
 onsite density matrix
 
spin component  1
 
  0.9918  0.0000 -0.0257  0.0000  0.0000
  0.0000  0.9828  0.0000 -0.0150  0.0000
 -0.0257  0.0000  0.9802  0.0000 -0.0000
  0.0000 -0.0150  0.0000  0.9828  0.0000
  0.0000  0.0000 -0.0000  0.0000  0.9674
 
spin component  2
 
  0.0531  0.0000 -0.0162  0.0000 -0.0000
  0.0000  0.0555  0.0000 -0.0198  0.0000
 -0.0162  0.0000  0.0475  0.0000 -0.0000
  0.0000 -0.0198  0.0000  0.0555  0.0000
 -0.0000  0.0000 -0.0000  0.0000  0.0289
 
 occupancies and eigenvectors
 
  o =  0.0289  v =  0.0000  0.0000  0.0000  0.0000  0.0000  0.0000  0.0000  0.0000  0.0000  1.0000      0.0000  0.0000  0.0000  0.0000  0.0000  0.0000  0.0000  0.0000  0.0000  0.0000
  o =  0.0338  v =  0.0000  0.0000  0.0000  0.0000  0.0000 -0.6441  0.0000 -0.7650  0.0000  0.0000      0.0000  0.0000  0.0000  0.0000  0.0000  0.0000  0.0000  0.0000  0.0000  0.0000
  o =  0.0357  v =  0.0000  0.0000  0.0000  0.0000  0.0000  0.0000  0.7071  0.0000  0.7071  0.0000      0.0000  0.0000  0.0000  0.0000  0.0000  0.0000  0.0000  0.0000  0.0000  0.0000
  o =  0.0667  v =  0.0000  0.0000  0.0000  0.0000  0.0000 -0.7650 -0.0000  0.6441  0.0000 -0.0000      0.0000  0.0000  0.0000  0.0000  0.0000  0.0000  0.0000  0.0000  0.0000  0.0000
  o =  0.0754  v =  0.0000  0.0000  0.0000  0.0000  0.0000  0.0000  0.7071  0.0000 -0.7071  0.0000      0.0000  0.0000  0.0000  0.0000  0.0000  0.0000  0.0000  0.0000  0.0000  0.0000
  o =  0.9597  v = -0.6244  0.0000 -0.7811  0.0000  0.0000  0.0000  0.0000  0.0000  0.0000  0.0000      0.0000  0.0000  0.0000  0.0000  0.0000  0.0000  0.0000  0.0000  0.0000  0.0000
  o =  0.9674  v =  0.0000 -0.0000  0.0000  0.0000  1.0000  0.0000  0.0000  0.0000  0.0000  0.0000      0.0000  0.0000  0.0000  0.0000  0.0000  0.0000  0.0000  0.0000  0.0000  0.0000
  o =  0.9678  v =  0.0000 -0.7071  0.0000 -0.7071 -0.0000  0.0000  0.0000  0.0000  0.0000  0.0000      0.0000  0.0000  0.0000  0.0000  0.0000  0.0000  0.0000  0.0000  0.0000  0.0000
  o =  0.9978  v =  0.0000  0.7071  0.0000 -0.7071  0.0000  0.0000  0.0000  0.0000  0.0000  0.0000      0.0000  0.0000  0.0000  0.0000  0.0000  0.0000  0.0000  0.0000  0.0000  0.0000
  o =  1.0123  v = -0.7811  0.0000  0.6244  0.0000 -0.0000  0.0000  0.0000  0.0000  0.0000  0.0000      0.0000  0.0000  0.0000  0.0000  0.0000  0.0000  0.0000  0.0000  0.0000  0.0000
     EDDAV:  cpu time    0.3970: real time    0.3970
 BZINTS: Fermi energy:  4.414325; 54.000000 electrons
         Band energy:-758.647417;  BLOECHL correction:  0.000000
       DOS:  cpu time    0.0020: real time    0.0020
    CHARGE:  cpu time    0.0690: real time    0.0690
    MIXING:  cpu time    0.0004: real time    0.0004
    --------------------------------------------
      LOOP:  cpu time    1.9474: real time    1.9474

 eigenvalue-minimisations  :  1488
 total energy-change (2. order) : 0.3251168E+01  (-0.7799619E+00)
 number of electron      54.0000002 magnetization       0.0000000
 augmentation part       19.9052132 magnetization       0.0000000

 Broyden mixing:
  rms(total) = 0.72643E+00    rms(broyden)= 0.72588E+00
  rms(prec ) = 0.10768E+01
  weight for this iteration     100.00

 eigenvalues of (default mixing * dielectric matrix)
  average eigenvalue GAMMA=   0.8330
  1.2121  0.6435  0.6435

 Free energy of the ion-electron system (eV)
  ---------------------------------------------------
  alpha Z        PSCENC =       216.55746734
  Ewald energy   TEWEN  =     -4325.17006593
  -Hartree energ DENC   =     -2095.80566614
  -exchange      EXHF   =         0.00000000
  -V(xc)+E(xc)   XCENC  =       171.50381001
  PAW double counting   =      6604.12776917    -6569.23596745
  entropy T*S    EENTRO =         0.00000000
  eigenvalues    EBANDS =      -758.64741741
  atomic energy  EATOM  =      6688.27483813
  Solvation  Ediel_sol  =         0.00000000
  ---------------------------------------------------
  free energy    TOTEN  =       -68.39523227 eV

  energy without entropy =      -68.39523227  energy(sigma->0) =      -68.39523227


--------------------------------------------------------------------------------------------------------




--------------------------------------- Iteration      1(   9)  ---------------------------------------


    POTLOK:  cpu time    0.0168: real time    0.0168
    SETDIJ:  cpu time    1.4653: real time    1.4653
atom =   1  type =  1  l = 2
 
 onsite density matrix
 
spin component  1
 
  0.0783  0.0000  0.0441  0.0000  0.0000
  0.0000  0.0535  0.0000  0.0240  0.0000
  0.0441  0.0000  0.0560  0.0000 -0.0000
  0.0000  0.0240  0.0000  0.0535  0.0000
  0.0000  0.0000 -0.0000  0.0000  0.0249
 
spin component  2
 
  0.9477  0.0000  0.0080  0.0000  0.0000
  0.0000  0.9570  0.0000  0.0151  0.0000
  0.0080  0.0000  0.9442  0.0000 -0.0000
  0.0000  0.0151  0.0000  0.9570  0.0000
  0.0000  0.0000 -0.0000  0.0000  0.9414
 
 occupancies and eigenvectors
 
  o =  0.0217  v = -0.6144 -0.0000  0.7890  0.0000  0.0000  0.0000  0.0000  0.0000  0.0000  0.0000      0.0000  0.0000  0.0000  0.0000  0.0000  0.0000  0.0000  0.0000  0.0000  0.0000
  o =  0.0249  v = -0.0000  0.0000  0.0000  0.0000 -1.0000  0.0000  0.0000  0.0000  0.0000  0.0000      0.0000  0.0000  0.0000  0.0000  0.0000  0.0000  0.0000  0.0000  0.0000  0.0000
  o =  0.0295  v =  0.0000  0.7071  0.0000 -0.7071  0.0000  0.0000  0.0000  0.0000  0.0000  0.0000      0.0000  0.0000  0.0000  0.0000  0.0000  0.0000  0.0000  0.0000  0.0000  0.0000
  o =  0.0776  v =  0.0000  0.7071  0.0000  0.7071  0.0000  0.0000  0.0000  0.0000  0.0000  0.0000      0.0000  0.0000  0.0000  0.0000  0.0000  0.0000  0.0000  0.0000  0.0000  0.0000
  o =  0.1126  v = -0.7890 -0.0000 -0.6144  0.0000  0.0000  0.0000  0.0000  0.0000  0.0000  0.0000      0.0000  0.0000  0.0000  0.0000  0.0000  0.0000  0.0000  0.0000  0.0000  0.0000
  o =  0.9378  v =  0.0000  0.0000  0.0000  0.0000  0.0000 -0.6263  0.0000  0.7796  0.0000  0.0000      0.0000  0.0000  0.0000  0.0000  0.0000  0.0000  0.0000  0.0000  0.0000  0.0000
  o =  0.9414  v =  0.0000  0.0000  0.0000  0.0000  0.0000  0.0000  0.0000  0.0000  0.0000 -1.0000      0.0000  0.0000  0.0000  0.0000  0.0000  0.0000  0.0000  0.0000  0.0000  0.0000
  o =  0.9419  v =  0.0000  0.0000  0.0000  0.0000  0.0000  0.0000 -0.7071  0.0000  0.7071 -0.0000      0.0000  0.0000  0.0000  0.0000  0.0000  0.0000  0.0000  0.0000  0.0000  0.0000
  o =  0.9541  v =  0.0000  0.0000  0.0000  0.0000  0.0000 -0.7796  0.0000 -0.6263  0.0000 -0.0000      0.0000  0.0000  0.0000  0.0000  0.0000  0.0000  0.0000  0.0000  0.0000  0.0000
  o =  0.9721  v =  0.0000  0.0000  0.0000  0.0000  0.0000  0.0000  0.7071  0.0000  0.7071  0.0000      0.0000  0.0000  0.0000  0.0000  0.0000  0.0000  0.0000  0.0000  0.0000  0.0000
atom =   2  type =  1  l = 2
 
 onsite density matrix
 
spin component  1
 
  0.9477  0.0000 -0.0080  0.0000 -0.0000
  0.0000  0.9570  0.0000 -0.0151  0.0000
 -0.0080  0.0000  0.9442  0.0000 -0.0000
  0.0000 -0.0151  0.0000  0.9570  0.0000
 -0.0000  0.0000 -0.0000  0.0000  0.9414
 
spin component  2
 
  0.0783  0.0000 -0.0441  0.0000 -0.0000
  0.0000  0.0535  0.0000 -0.0240  0.0000
 -0.0441  0.0000  0.0560  0.0000  0.0000
  0.0000 -0.0240  0.0000  0.0535  0.0000
 -0.0000  0.0000  0.0000  0.0000  0.0249
 
 occupancies and eigenvectors
 
  o =  0.0217  v =  0.0000  0.0000  0.0000  0.0000  0.0000 -0.6144  0.0000 -0.7890  0.0000  0.0000      0.0000  0.0000  0.0000  0.0000  0.0000  0.0000  0.0000  0.0000  0.0000  0.0000
  o =  0.0249  v =  0.0000  0.0000  0.0000  0.0000  0.0000 -0.0000 -0.0000 -0.0000  0.0000 -1.0000      0.0000  0.0000  0.0000  0.0000  0.0000  0.0000  0.0000  0.0000  0.0000  0.0000
  o =  0.0295  v =  0.0000  0.0000  0.0000  0.0000  0.0000  0.0000  0.7071  0.0000  0.7071 -0.0000      0.0000  0.0000  0.0000  0.0000  0.0000  0.0000  0.0000  0.0000  0.0000  0.0000
  o =  0.0776  v =  0.0000  0.0000  0.0000  0.0000  0.0000  0.0000  0.7071  0.0000 -0.7071 -0.0000      0.0000  0.0000  0.0000  0.0000  0.0000  0.0000  0.0000  0.0000  0.0000  0.0000
  o =  0.1126  v =  0.0000  0.0000  0.0000  0.0000  0.0000 -0.7890  0.0000  0.6144  0.0000  0.0000      0.0000  0.0000  0.0000  0.0000  0.0000  0.0000  0.0000  0.0000  0.0000  0.0000
  o =  0.9378  v =  0.6263 -0.0000  0.7796 -0.0000  0.0000  0.0000  0.0000  0.0000  0.0000  0.0000      0.0000  0.0000  0.0000  0.0000  0.0000  0.0000  0.0000  0.0000  0.0000  0.0000
  o =  0.9414  v = -0.0000 -0.0000 -0.0000 -0.0000  1.0000  0.0000  0.0000  0.0000  0.0000  0.0000      0.0000  0.0000  0.0000  0.0000  0.0000  0.0000  0.0000  0.0000  0.0000  0.0000
  o =  0.9419  v = -0.0000  0.7071 -0.0000  0.7071  0.0000  0.0000  0.0000  0.0000  0.0000  0.0000      0.0000  0.0000  0.0000  0.0000  0.0000  0.0000  0.0000  0.0000  0.0000  0.0000
  o =  0.9541  v =  0.7796  0.0000 -0.6263  0.0000  0.0000  0.0000  0.0000  0.0000  0.0000  0.0000      0.0000  0.0000  0.0000  0.0000  0.0000  0.0000  0.0000  0.0000  0.0000  0.0000
  o =  0.9721  v =  0.0000  0.7071 -0.0000 -0.7071  0.0000  0.0000  0.0000  0.0000  0.0000  0.0000      0.0000  0.0000  0.0000  0.0000  0.0000  0.0000  0.0000  0.0000  0.0000  0.0000
     EDDAV:  cpu time    0.3974: real time    0.3974
 BZINTS: Fermi energy:  3.302741; 54.000000 electrons
         Band energy:-760.645130;  BLOECHL correction:  0.000000
       DOS:  cpu time    0.0020: real time    0.0020
    CHARGE:  cpu time    0.0705: real time    0.0705
    MIXING:  cpu time    0.0004: real time    0.0004
    --------------------------------------------
      LOOP:  cpu time    1.9524: real time    1.9524

 eigenvalue-minimisations  :  1488
 total energy-change (2. order) : 0.3340779E+00  (-0.6946602E+00)
 number of electron      54.0000002 magnetization      -0.0000000
 augmentation part       20.0218872 magnetization      -0.0000000

 Broyden mixing:
  rms(total) = 0.10046E+01    rms(broyden)= 0.10044E+01
  rms(prec ) = 0.11453E+01
  weight for this iteration     100.00

 eigenvalues of (default mixing * dielectric matrix)
  average eigenvalue GAMMA=   0.9681
  1.8375  0.7340  0.7340  0.5668

 Free energy of the ion-electron system (eV)
  ---------------------------------------------------
  alpha Z        PSCENC =       216.55746734
  Ewald energy   TEWEN  =     -4325.17006593
  -Hartree energ DENC   =     -2092.75632194
  -exchange      EXHF   =         0.00000000
  -V(xc)+E(xc)   XCENC  =       169.32234169
  PAW double counting   =      6669.68642075    -6633.33070441
  entropy T*S    EENTRO =         0.00000000
  eigenvalues    EBANDS =      -760.64513005
  atomic energy  EATOM  =      6688.27483813
  Solvation  Ediel_sol  =         0.00000000
  ---------------------------------------------------
  free energy    TOTEN  =       -68.06115442 eV

  energy without entropy =      -68.06115442  energy(sigma->0) =      -68.06115442


--------------------------------------------------------------------------------------------------------




--------------------------------------- Iteration      1(  10)  ---------------------------------------


    POTLOK:  cpu time    0.0168: real time    0.0168
    SETDIJ:  cpu time    1.4619: real time    1.4619
atom =   1  type =  1  l = 2
 
 onsite density matrix
 
spin component  1
 
  0.0583  0.0000  0.0221  0.0000  0.0000
  0.0000  0.0571  0.0000  0.0209  0.0000
  0.0221  0.0000  0.0486  0.0000  0.0000
  0.0000  0.0209  0.0000  0.0571  0.0000
  0.0000  0.0000  0.0000  0.0000  0.0329
 
spin component  2
 
  0.9667  0.0000  0.0316  0.0000 -0.0000
  0.0000  0.9531  0.0000  0.0201  0.0000
  0.0316  0.0000  0.9506  0.0000 -0.0000
  0.0000  0.0201  0.0000  0.9531  0.0000
 -0.0000  0.0000 -0.0000  0.0000  0.9316
 
 occupancies and eigenvectors
 
  o =  0.0308  v = -0.6269  0.0000  0.7791  0.0000 -0.0000  0.0000  0.0000  0.0000  0.0000  0.0000      0.0000  0.0000  0.0000  0.0000  0.0000  0.0000  0.0000  0.0000  0.0000  0.0000
  o =  0.0329  v = -0.0000 -0.0000  0.0000  0.0000  1.0000  0.0000  0.0000  0.0000  0.0000  0.0000      0.0000  0.0000  0.0000  0.0000  0.0000  0.0000  0.0000  0.0000  0.0000  0.0000
  o =  0.0362  v =  0.0000  0.7071  0.0000 -0.7071  0.0000  0.0000  0.0000  0.0000  0.0000  0.0000      0.0000  0.0000  0.0000  0.0000  0.0000  0.0000  0.0000  0.0000  0.0000  0.0000
  o =  0.0761  v = -0.7791  0.0000 -0.6269  0.0000 -0.0000  0.0000  0.0000  0.0000  0.0000  0.0000      0.0000  0.0000  0.0000  0.0000  0.0000  0.0000  0.0000  0.0000  0.0000  0.0000
  o =  0.0780  v =  0.0000 -0.7071  0.0000 -0.7071 -0.0000  0.0000  0.0000  0.0000  0.0000  0.0000      0.0000  0.0000  0.0000  0.0000  0.0000  0.0000  0.0000  0.0000  0.0000  0.0000
  o =  0.9260  v =  0.0000  0.0000  0.0000  0.0000  0.0000 -0.6135  0.0000  0.7897  0.0000 -0.0000      0.0000  0.0000  0.0000  0.0000  0.0000  0.0000  0.0000  0.0000  0.0000  0.0000
  o =  0.9316  v =  0.0000  0.0000  0.0000  0.0000  0.0000  0.0000 -0.0000 -0.0000  0.0000 -1.0000      0.0000  0.0000  0.0000  0.0000  0.0000  0.0000  0.0000  0.0000  0.0000  0.0000
  o =  0.9331  v =  0.0000  0.0000  0.0000  0.0000  0.0000  0.0000  0.7071  0.0000 -0.7071  0.0000      0.0000  0.0000  0.0000  0.0000  0.0000  0.0000  0.0000  0.0000  0.0000  0.0000
  o =  0.9732  v =  0.0000  0.0000  0.0000  0.0000  0.0000  0.0000 -0.7071  0.0000 -0.7071 -0.0000      0.0000  0.0000  0.0000  0.0000  0.0000  0.0000  0.0000  0.0000  0.0000  0.0000
  o =  0.9913  v =  0.0000  0.0000  0.0000  0.0000  0.0000 -0.7897  0.0000 -0.6135  0.0000  0.0000      0.0000  0.0000  0.0000  0.0000  0.0000  0.0000  0.0000  0.0000  0.0000  0.0000
atom =   2  type =  1  l = 2
 
 onsite density matrix
 
spin component  1
 
  0.9667  0.0000 -0.0316  0.0000 -0.0000
  0.0000  0.9531  0.0000 -0.0201  0.0000
 -0.0316  0.0000  0.9506  0.0000 -0.0000
  0.0000 -0.0201  0.0000  0.9531  0.0000
 -0.0000  0.0000 -0.0000  0.0000  0.9316
 
spin component  2
 
  0.0583  0.0000 -0.0221  0.0000 -0.0000
  0.0000  0.0571  0.0000 -0.0209  0.0000
 -0.0221  0.0000  0.0486  0.0000 -0.0000
  0.0000 -0.0209  0.0000  0.0571  0.0000
 -0.0000  0.0000 -0.0000  0.0000  0.0329
 
 occupancies and eigenvectors
 
  o =  0.0308  v =  0.0000  0.0000  0.0000  0.0000  0.0000 -0.6269 -0.0000 -0.7791  0.0000 -0.0000      0.0000  0.0000  0.0000  0.0000  0.0000  0.0000  0.0000  0.0000  0.0000  0.0000
  o =  0.0329  v =  0.0000  0.0000  0.0000  0.0000  0.0000 -0.0000  0.0000 -0.0000  0.0000  1.0000      0.0000  0.0000  0.0000  0.0000  0.0000  0.0000  0.0000  0.0000  0.0000  0.0000
  o =  0.0362  v =  0.0000  0.0000  0.0000  0.0000  0.0000  0.0000 -0.7071  0.0000 -0.7071  0.0000      0.0000  0.0000  0.0000  0.0000  0.0000  0.0000  0.0000  0.0000  0.0000  0.0000
  o =  0.0761  v =  0.0000  0.0000  0.0000  0.0000  0.0000 -0.7791 -0.0000  0.6269  0.0000 -0.0000      0.0000  0.0000  0.0000  0.0000  0.0000  0.0000  0.0000  0.0000  0.0000  0.0000
  o =  0.0780  v =  0.0000  0.0000  0.0000  0.0000  0.0000  0.0000  0.7071  0.0000 -0.7071 -0.0000      0.0000  0.0000  0.0000  0.0000  0.0000  0.0000  0.0000  0.0000  0.0000  0.0000
  o =  0.9260  v = -0.6135  0.0000 -0.7897  0.0000 -0.0000  0.0000  0.0000  0.0000  0.0000  0.0000      0.0000  0.0000  0.0000  0.0000  0.0000  0.0000  0.0000  0.0000  0.0000  0.0000
  o =  0.9316  v =  0.0000 -0.0000 -0.0000 -0.0000  1.0000  0.0000  0.0000  0.0000  0.0000  0.0000      0.0000  0.0000  0.0000  0.0000  0.0000  0.0000  0.0000  0.0000  0.0000  0.0000
  o =  0.9331  v =  0.0000  0.7071 -0.0000  0.7071  0.0000  0.0000  0.0000  0.0000  0.0000  0.0000      0.0000  0.0000  0.0000  0.0000  0.0000  0.0000  0.0000  0.0000  0.0000  0.0000
  o =  0.9732  v =  0.0000  0.7071 -0.0000 -0.7071  0.0000  0.0000  0.0000  0.0000  0.0000  0.0000      0.0000  0.0000  0.0000  0.0000  0.0000  0.0000  0.0000  0.0000  0.0000  0.0000
  o =  0.9913  v = -0.7897  0.0000  0.6135  0.0000  0.0000  0.0000  0.0000  0.0000  0.0000  0.0000      0.0000  0.0000  0.0000  0.0000  0.0000  0.0000  0.0000  0.0000  0.0000  0.0000
     EDDAV:  cpu time    0.3757: real time    0.3757
 BZINTS: Fermi energy:  3.332666; 54.000000 electrons
         Band energy:-762.563987;  BLOECHL correction:  0.000000
       DOS:  cpu time    0.0020: real time    0.0020
    CHARGE:  cpu time    0.0694: real time    0.0694
    MIXING:  cpu time    0.0005: real time    0.0005
    --------------------------------------------
      LOOP:  cpu time    1.9261: real time    1.9261

 eigenvalue-minimisations  :  1380
 total energy-change (2. order) : 0.8153322E-01  (-0.6038913E-01)
 number of electron      54.0000002 magnetization       0.0000000
 augmentation part       19.9961553 magnetization       0.0000000

 Broyden mixing:
  rms(total) = 0.75704E+00    rms(broyden)= 0.75704E+00
  rms(prec ) = 0.87186E+00
  weight for this iteration     100.00

 eigenvalues of (default mixing * dielectric matrix)
  average eigenvalue GAMMA=   1.1450
  2.6099  0.9842  0.9842  0.5735  0.5735

 Free energy of the ion-electron system (eV)
  ---------------------------------------------------
  alpha Z        PSCENC =       216.55746734
  Ewald energy   TEWEN  =     -4325.17006593
  -Hartree energ DENC   =     -2086.11818866
  -exchange      EXHF   =         0.00000000
  -V(xc)+E(xc)   XCENC  =       165.97969311
  PAW double counting   =      6743.61970644    -6708.55908422
  entropy T*S    EENTRO =         0.00000000
  eigenvalues    EBANDS =      -762.56398741
  atomic energy  EATOM  =      6688.27483813
  Solvation  Ediel_sol  =         0.00000000
  ---------------------------------------------------
  free energy    TOTEN  =       -67.97962120 eV

  energy without entropy =      -67.97962120  energy(sigma->0) =      -67.97962120


--------------------------------------------------------------------------------------------------------




--------------------------------------- Iteration      1(  11)  ---------------------------------------


    POTLOK:  cpu time    0.0168: real time    0.0168
    SETDIJ:  cpu time    1.4636: real time    1.4636
atom =   1  type =  1  l = 2
 
 onsite density matrix
 
spin component  1
 
  0.0593  0.0000  0.0335  0.0000 -0.0000
  0.0000  0.0520  0.0000  0.0265  0.0000
  0.0335  0.0000  0.0454  0.0000 -0.0000
  0.0000  0.0265  0.0000  0.0520  0.0000
 -0.0000  0.0000 -0.0000  0.0000  0.0206
 
spin component  2
 
  0.9688  0.0000  0.0249  0.0000 -0.0000
  0.0000  0.9612  0.0000  0.0193  0.0000
  0.0249  0.0000  0.9543  0.0000  0.0000
  0.0000  0.0193  0.0000  0.9612  0.0000
 -0.0000  0.0000  0.0000  0.0000  0.9422
 
 occupancies and eigenvectors
 
  o =  0.0182  v = -0.6309  0.0000  0.7758  0.0000  0.0000  0.0000  0.0000  0.0000  0.0000  0.0000      0.0000  0.0000  0.0000  0.0000  0.0000  0.0000  0.0000  0.0000  0.0000  0.0000
  o =  0.0206  v = -0.0000 -0.0000  0.0000  0.0000 -1.0000  0.0000  0.0000  0.0000  0.0000  0.0000      0.0000  0.0000  0.0000  0.0000  0.0000  0.0000  0.0000  0.0000  0.0000  0.0000
  o =  0.0255  v =  0.0000  0.7071  0.0000 -0.7071 -0.0000  0.0000  0.0000  0.0000  0.0000  0.0000      0.0000  0.0000  0.0000  0.0000  0.0000  0.0000  0.0000  0.0000  0.0000  0.0000
  o =  0.0785  v =  0.0000  0.7071  0.0000  0.7071 -0.0000  0.0000  0.0000  0.0000  0.0000  0.0000      0.0000  0.0000  0.0000  0.0000  0.0000  0.0000  0.0000  0.0000  0.0000  0.0000
  o =  0.0866  v = -0.7758  0.0000 -0.6309  0.0000  0.0000  0.0000  0.0000  0.0000  0.0000  0.0000      0.0000  0.0000  0.0000  0.0000  0.0000  0.0000  0.0000  0.0000  0.0000  0.0000
  o =  0.9356  v =  0.0000  0.0000  0.0000  0.0000  0.0000 -0.6006  0.0000  0.7996 -0.0000 -0.0000      0.0000  0.0000  0.0000  0.0000  0.0000  0.0000  0.0000  0.0000  0.0000  0.0000
  o =  0.9418  v =  0.0000  0.0000  0.0000  0.0000  0.0000  0.0000  0.7071 -0.0000 -0.7071 -0.0000      0.0000  0.0000  0.0000  0.0000  0.0000  0.0000  0.0000  0.0000  0.0000  0.0000
  o =  0.9422  v =  0.0000  0.0000  0.0000  0.0000  0.0000 -0.0000  0.0000  0.0000 -0.0000  1.0000      0.0000  0.0000  0.0000  0.0000  0.0000  0.0000  0.0000  0.0000  0.0000  0.0000
  o =  0.9805  v =  0.0000  0.0000  0.0000  0.0000  0.0000 -0.0000 -0.7071 -0.0000 -0.7071 -0.0000      0.0000  0.0000  0.0000  0.0000  0.0000  0.0000  0.0000  0.0000  0.0000  0.0000
  o =  0.9875  v =  0.0000  0.0000  0.0000  0.0000  0.0000 -0.7996  0.0000 -0.6006  0.0000 -0.0000      0.0000  0.0000  0.0000  0.0000  0.0000  0.0000  0.0000  0.0000  0.0000  0.0000
atom =   2  type =  1  l = 2
 
 onsite density matrix
 
spin component  1
 
  0.9688  0.0000 -0.0249  0.0000 -0.0000
  0.0000  0.9612  0.0000 -0.0193  0.0000
 -0.0249  0.0000  0.9543  0.0000 -0.0000
  0.0000 -0.0193  0.0000  0.9612  0.0000
 -0.0000  0.0000 -0.0000  0.0000  0.9422
 
spin component  2
 
  0.0593  0.0000 -0.0335  0.0000  0.0000
  0.0000  0.0520  0.0000 -0.0265  0.0000
 -0.0335  0.0000  0.0454  0.0000 -0.0000
  0.0000 -0.0265  0.0000  0.0520  0.0000
  0.0000  0.0000 -0.0000  0.0000  0.0206
 
 occupancies and eigenvectors
 
  o =  0.0182  v =  0.0000  0.0000  0.0000  0.0000  0.0000 -0.6309  0.0000 -0.7758  0.0000 -0.0000      0.0000  0.0000  0.0000  0.0000  0.0000  0.0000  0.0000  0.0000  0.0000  0.0000
  o =  0.0206  v =  0.0000  0.0000  0.0000  0.0000  0.0000 -0.0000 -0.0000 -0.0000  0.0000  1.0000      0.0000  0.0000  0.0000  0.0000  0.0000  0.0000  0.0000  0.0000  0.0000  0.0000
  o =  0.0255  v =  0.0000  0.0000  0.0000  0.0000  0.0000  0.0000 -0.7071  0.0000 -0.7071 -0.0000      0.0000  0.0000  0.0000  0.0000  0.0000  0.0000  0.0000  0.0000  0.0000  0.0000
  o =  0.0785  v =  0.0000  0.0000  0.0000  0.0000  0.0000  0.0000  0.7071  0.0000 -0.7071  0.0000      0.0000  0.0000  0.0000  0.0000  0.0000  0.0000  0.0000  0.0000  0.0000  0.0000
  o =  0.0866  v =  0.0000  0.0000  0.0000  0.0000  0.0000 -0.7758  0.0000  0.6309  0.0000 -0.0000      0.0000  0.0000  0.0000  0.0000  0.0000  0.0000  0.0000  0.0000  0.0000  0.0000
  o =  0.9356  v = -0.6006  0.0000 -0.7996  0.0000 -0.0000  0.0000  0.0000  0.0000  0.0000  0.0000      0.0000  0.0000  0.0000  0.0000  0.0000  0.0000  0.0000  0.0000  0.0000  0.0000
  o =  0.9418  v =  0.0000  0.7071  0.0000  0.7071  0.0000  0.0000  0.0000  0.0000  0.0000  0.0000      0.0000  0.0000  0.0000  0.0000  0.0000  0.0000  0.0000  0.0000  0.0000  0.0000
  o =  0.9422  v = -0.0000 -0.0000 -0.0000 -0.0000  1.0000  0.0000  0.0000  0.0000  0.0000  0.0000      0.0000  0.0000  0.0000  0.0000  0.0000  0.0000  0.0000  0.0000  0.0000  0.0000
[...]
     33      10.2626      0.00000
     34      11.7937      0.00000
     35      11.8211      0.00000
     36      13.4288      0.00000

 k-point     7 :       0.1250    0.1250    0.4167
  band No.  band energies     occupation 
      1     -48.2550      1.00000
      2     -48.2171      1.00000
      3     -48.1866      1.00000
      4     -41.7843      1.00000
      5     -41.7457      1.00000
      6     -41.6976      1.00000
      7     -22.3358      1.00000
      8     -22.1732      1.00000
      9     -22.1188      1.00000
     10     -22.0330      1.00000
     11      -4.2050      1.00000
     12      -3.9361      1.00000
     13      -3.7486      1.00000
     14      -3.5173      1.00000
     15      -3.4115      1.00000
     16      -3.1395      1.00000
     17      -2.7213      1.00000
     18      -2.5258      1.00000
     19      -2.4844      1.00000
     20      -1.9690      1.00000
     21      -1.8983      1.00000
     22      -1.8634      1.00000
     23       1.7517      1.00000
     24       1.8235      1.00000
     25       2.0752      1.00000
     26       2.7669      1.00000
     27       3.2227      1.00000
     28       7.3173      0.00000
     29       7.3601      0.00000
     30       7.4295      0.00000
     31       8.4394      0.00000
     32       8.8432      0.00000
     33      10.2173      0.00000
     34      12.5504      0.00000
     35      14.1137      0.00000
     36      14.3370      0.00000

 k-point     8 :       0.3750    0.1250    0.4167
  band No.  band energies     occupation 
      1     -48.2549      1.00000
      2     -48.2173      1.00000
      3     -48.1865      1.00000
      4     -41.7843      1.00000
      5     -41.7459      1.00000
      6     -41.6975      1.00000
      7     -22.2604      1.00000
      8     -22.1919      1.00000
      9     -22.1412      1.00000
     10     -22.0652      1.00000
     11      -4.2487      1.00000
     12      -3.9834      1.00000
     13      -3.9040      1.00000
     14      -3.7037      1.00000
     15      -3.2897      1.00000
     16      -3.0317      1.00000
     17      -2.8458      1.00000
     18      -2.7219      1.00000
     19      -2.1588      1.00000
     20      -1.9542      1.00000
     21      -1.7766      1.00000
     22      -1.6667      1.00000
     23       1.7451      1.00000
     24       1.7803      1.00000
     25       2.0038      1.00000
     26       2.7194      1.00000
     27       3.3597      1.00000
     28       7.2966      0.00000
     29       7.3538      0.00000
     30       7.4961      0.00000
     31       8.3944      0.00000
     32       9.0426      0.00000
     33      10.8778      0.00000
     34      12.3420      0.00000
     35      13.0184      0.00000
     36      14.2948      0.00000

 k-point     9 :       0.3750    0.3750    0.4167
  band No.  band energies     occupation 
      1     -48.2550      1.00000
      2     -48.2175      1.00000
      3     -48.1862      1.00000
      4     -41.7841      1.00000
      5     -41.7460      1.00000
      6     -41.6977      1.00000
      7     -22.2461      1.00000
      8     -22.2116      1.00000
      9     -22.1370      1.00000
     10     -22.0580      1.00000
     11      -4.5056      1.00000
     12      -4.2822      1.00000
     13      -3.9268      1.00000
     14      -3.8832      1.00000
     15      -3.2339      1.00000
     16      -2.9247      1.00000
     17      -2.7884      1.00000
     18      -2.4973      1.00000
     19      -1.9318      1.00000
     20      -1.8076      1.00000
     21      -1.6666      1.00000
     22      -1.5896      1.00000
     23       1.7495      1.00000
     24       1.7639      1.00000
     25       1.9918      1.00000
     26       2.7558      1.00000
     27       3.3356      1.00000
     28       7.2987      0.00000
     29       7.3462      0.00000
     30       7.5184      0.00000
     31       8.3613      0.00000
     32       8.9352      0.00000
     33      11.4499      0.00000
     34      12.7967      0.00000
     35      13.0792      0.00000
     36      13.2492      0.00000


--------------------------------------------------------------------------------------------------------


 soft charge-density along one line, spin component           1
         0         1         2         3         4         5         6         7         8         9
 total charge-density along one line
 
 soft charge-density along one line, spin component           2
         0         1         2         3         4         5         6         7         8         9
 total charge-density along one line
 
 pseudopotential strength for first ion, spin component:           1
-44.557  -0.000  -0.049   7.491   0.000   0.020  -0.000  -0.000
 -0.000 -44.527  -0.000   0.000   7.479   0.000  -0.000  -0.000
 -0.049  -0.000 -44.557   0.020   0.000   7.491  -0.000  -0.000
  7.491   0.000   0.020   5.651  -0.000   0.004  -0.000   0.000
  0.000   7.479   0.000  -0.000   5.645  -0.000   0.000  -0.000
  0.020   0.000   7.491   0.004  -0.000   5.651   0.000   0.000
 -0.000  -0.000  -0.000  -0.000   0.000   0.000  -2.426  -0.000
 -0.000  -0.000  -0.000   0.000  -0.000   0.000  -0.000  -2.408
 -0.000  -0.000  -0.000  -0.000   0.000  -0.000   0.024  -0.000
 -0.000  -0.000  -0.000   0.000  -0.000   0.000  -0.000  -0.023
 -0.000   0.000  -0.000   0.000  -0.000   0.000  -0.000   0.000
 -0.000  -0.000  -0.000  -0.000   0.000   0.000  -2.951  -0.000
 -0.000  -0.000  -0.000   0.000  -0.000   0.000  -0.000  -2.934
 -0.000  -0.000  -0.000  -0.000   0.000  -0.000   0.022  -0.000
 -0.000  -0.000  -0.000   0.000  -0.000   0.000  -0.000  -0.023
 -0.000   0.000  -0.000   0.000  -0.000   0.000  -0.000   0.000
 -0.000   0.000  -0.000   0.000   0.000   0.000   0.014   0.000
 -0.000   0.000  -0.000   0.000   0.000   0.000   0.027   0.000
 pseudopotential strength for first ion, spin component:           2
-50.288  -0.000  -0.005   9.491   0.000   0.020   0.000  -0.000
 -0.000 -50.288  -0.000   0.000   9.477   0.000  -0.000   0.000
 -0.005  -0.000 -50.288   0.020   0.000   9.491  -0.000  -0.000
  9.491   0.000   0.020   4.793  -0.000   0.001  -0.000   0.000
  0.000   9.477   0.000  -0.000   4.793  -0.000   0.000  -0.000
  0.020   0.000   9.491   0.001  -0.000   4.793  -0.000   0.000
  0.000  -0.000  -0.000  -0.000   0.000  -0.000  -6.752  -0.000
 -0.000   0.000  -0.000   0.000  -0.000   0.000  -0.000  -6.742
  0.000  -0.000  -0.000  -0.000   0.000   0.000  -0.011  -0.000
 -0.000  -0.000  -0.000   0.000   0.000   0.000  -0.000  -0.034
 -0.000   0.000  -0.000  -0.000  -0.000  -0.000   0.000   0.000
  0.000  -0.000  -0.000  -0.000   0.000  -0.000  -7.231  -0.000
 -0.000   0.000  -0.000   0.000  -0.000   0.000  -0.000  -7.222
  0.000  -0.000  -0.000  -0.000   0.000   0.000  -0.011  -0.000
 -0.000  -0.000  -0.000   0.000   0.000   0.000  -0.000  -0.033
 -0.000   0.000  -0.000  -0.000  -0.000  -0.000   0.000   0.000
  0.000   0.000  -0.000  -0.000   0.000   0.000   0.014   0.000
  0.000   0.000  -0.000  -0.000   0.000   0.000   0.029   0.000
 total augmentation occupancy for first ion, spin component:           1
  2.002   0.000   0.000  -0.008   0.000   0.001   0.000   0.000   0.000   0.000   0.000   0.000   0.000   0.000   0.000   0.000
  0.000   2.003   0.000   0.000  -0.008   0.000   0.000   0.000   0.000   0.000   0.000   0.000   0.000   0.000   0.000   0.000
  0.000   0.000   2.002   0.001   0.000  -0.008   0.000   0.000   0.000   0.000   0.000   0.000   0.000   0.000   0.000   0.000
 -0.008   0.000   0.001   0.096   0.000  -0.014   0.000   0.000   0.000   0.000   0.000   0.000   0.000   0.000   0.000   0.000
  0.000  -0.008   0.000   0.000   0.103   0.000   0.000   0.000   0.000   0.000   0.000   0.000   0.000   0.000   0.000   0.000
  0.001   0.000  -0.008  -0.014   0.000   0.096   0.000   0.000   0.000   0.000   0.000   0.000   0.000   0.000   0.000   0.000
  0.000   0.000   0.000   0.000   0.000   0.000   8.954   0.000   3.850   0.000   0.000  -7.015   0.000  -3.641   0.000   0.000
  0.000   0.000   0.000   0.000   0.000   0.000   0.000   7.185   0.000   3.001   0.000   0.000  -5.295   0.000  -2.826   0.000
  0.000   0.000   0.000   0.000   0.000   0.000   3.850   0.000   6.597   0.000  -0.000  -3.642   0.000  -4.782   0.000  -0.000
  0.000   0.000   0.000   0.000   0.000   0.000   0.000   3.001   0.000   7.185   0.000   0.000  -2.826   0.000  -5.295   0.000
  0.000   0.000   0.000   0.000   0.000   0.000   0.000   0.000  -0.000   0.000   4.026   0.000   0.000   0.000   0.000  -2.301
  0.000   0.000   0.000   0.000   0.000   0.000  -7.015   0.000  -3.642   0.000   0.000   6.255   0.000   3.483   0.000  -0.000
  0.000   0.000   0.000   0.000   0.000   0.000   0.000  -5.295   0.000  -2.826   0.000   0.000   4.571   0.000   2.691   0.000
  0.000   0.000   0.000   0.000   0.000   0.000  -3.641   0.000  -4.782   0.000   0.000   3.483   0.000   4.119   0.000   0.000
  0.000   0.000   0.000   0.000   0.000   0.000   0.000  -2.826   0.000  -5.295   0.000   0.000   2.691   0.000   4.571   0.000
  0.000   0.000   0.000   0.000   0.000   0.000  -0.000   0.000   0.000   0.000  -2.301   0.000   0.000  -0.000   0.000   1.699
  0.000   0.000   0.000   0.000   0.000   0.000   0.689   0.000  -0.239   0.000   0.000  -0.658   0.000   0.221   0.000   0.000
  0.000   0.000   0.000   0.000   0.000   0.000  -0.149   0.000   0.059   0.000  -0.000   0.156   0.000  -0.057   0.000   0.000
 total augmentation occupancy for first ion, spin component:           2
  0.004   0.000  -0.000   0.017   0.000  -0.001   0.000   0.000   0.000   0.000   0.000   0.000   0.000   0.000   0.000   0.000
  0.000   0.004   0.000   0.000   0.018   0.000   0.000   0.000   0.000   0.000   0.000   0.000   0.000   0.000   0.000   0.000
 -0.000   0.000   0.004  -0.001   0.000   0.017   0.000   0.000   0.000   0.000   0.000   0.000   0.000   0.000   0.000   0.000
  0.017   0.000  -0.001  -0.012   0.000  -0.000   0.000   0.000   0.000   0.000   0.000   0.000   0.000   0.000   0.000   0.000
  0.000   0.018   0.000   0.000  -0.011   0.000   0.000   0.000   0.000   0.000   0.000   0.000   0.000   0.000   0.000   0.000
 -0.001   0.000   0.017  -0.000   0.000  -0.012   0.000   0.000   0.000   0.000   0.000   0.000   0.000   0.000   0.000   0.000
  0.000   0.000   0.000   0.000   0.000   0.000  -5.403   0.000  -1.835   0.000   0.000   2.970   0.000   1.356   0.000   0.000
  0.000   0.000   0.000   0.000   0.000   0.000   0.000  -4.642   0.000  -1.459   0.000   0.000   2.373   0.000   1.079   0.000
  0.000   0.000   0.000   0.000   0.000   0.000  -1.835   0.000  -4.247   0.000   0.000   1.357   0.000   2.097   0.000   0.000
  0.000   0.000   0.000   0.000   0.000   0.000   0.000  -1.459   0.000  -4.642   0.000   0.000   1.079   0.000   2.373   0.000
  0.000   0.000   0.000   0.000   0.000   0.000   0.000   0.000   0.000   0.000  -3.172  -0.000   0.000  -0.000   0.000   1.297
  0.000   0.000   0.000   0.000   0.000   0.000   2.970   0.000   1.357   0.000  -0.000  -1.635   0.000  -0.885   0.000   0.000
  0.000   0.000   0.000   0.000   0.000   0.000   0.000   2.373   0.000   1.079   0.000   0.000  -1.205   0.000  -0.705   0.000
  0.000   0.000   0.000   0.000   0.000   0.000   1.356   0.000   2.097   0.000  -0.000  -0.885   0.000  -1.039   0.000   0.000
  0.000   0.000   0.000   0.000   0.000   0.000   0.000   1.079   0.000   2.373   0.000   0.000  -0.705   0.000  -1.205   0.000
  0.000   0.000   0.000   0.000   0.000   0.000   0.000   0.000   0.000   0.000   1.297   0.000   0.000   0.000   0.000  -0.519
  0.000   0.000   0.000   0.000   0.000   0.000  -0.154   0.000   0.023   0.000   0.000   0.047   0.000   0.027   0.000  -0.000
  0.000   0.000   0.000   0.000   0.000   0.000   0.004   0.000  -0.003   0.000   0.000   0.009   0.000  -0.006   0.000   0.000


------------------------ aborting loop because EDIFF is reached ----------------------------------------


 


 total charge     
 
# of ion       s       p       d       tot
------------------------------------------
    1        0.186   6.179   5.008  11.373
    2        0.192   6.174   5.015  11.381
    3        1.769   4.437   0.000   6.206
    4        1.769   4.437   0.000   6.206
    5        1.769   4.434   0.000   6.202
    6        1.769   4.434   0.000   6.202
--------------------------------------------------
tot          7.454  30.094  10.024  47.572
 


 magnetization (x)
 
# of ion       s       p       d       tot
------------------------------------------
    1       -0.022  -0.019  -4.556  -4.597
    2        0.023   0.017   4.552   4.593
    3        0.003   0.026   0.000   0.029
    4        0.003   0.026   0.000   0.029
    5       -0.004  -0.022   0.000  -0.026
    6       -0.004  -0.022   0.000  -0.026
--------------------------------------------------
tot         -0.000   0.006  -0.004   0.003
 
    CHARGE:  cpu time    0.0170: real time    0.0170
    FORLOC:  cpu time    0.0005: real time    0.0005
    FORNL :  cpu time    0.0784: real time    0.0784
    STRESS:  cpu time    1.0266: real time    1.0266
    FORCOR:  cpu time    0.0148: real time    0.0148
    FORHAR:  cpu time    0.0012: real time    0.0012
    MIXING:  cpu time    0.0009: real time    0.0009
    OFIELD:  cpu time    0.0000: real time    0.0000

  FORCE on cell =-STRESS in cart. coord.  units (eV):
  Direction    XX          YY          ZZ          XY          YZ          ZX
  --------------------------------------------------------------------------------------
  Alpha Z   216.55747   216.55747   216.55747
  Ewald   -1621.27096 -1621.27096 -1082.63176    -0.00000     0.00000     0.00000
  Hartree   574.92798   574.92798   935.70593    -0.00000    -0.00000    -0.00000
  E(xc)    -151.20517  -151.18504  -151.32395    -0.01800    -0.02726    -0.02901
  Local     198.80348   198.80348  -693.70764     0.00000    -0.00000     0.00000
  n-local  -311.97787  -312.19187  -311.36807     0.03381     0.10144     0.11441
  augment   158.13670   158.13670   157.65334    -0.00000    -0.00000     0.00000
  Kinetic   935.26662   935.76429   928.68179    -0.48401    -0.89389    -0.92166
  Fock        0.00000     0.00000     0.00000     0.00000     0.00000     0.00000
  -------------------------------------------------------------------------------------
  Total      -0.60985    -0.60985    -0.43290    -0.00000     0.00000     0.00000
  in kB     -13.70654   -13.70654    -9.72957    -0.00000     0.00000     0.00000
  external pressure =      -12.38 kB  Pullay stress =        0.00 kB


 VOLUME and BASIS-vectors are now :
 -----------------------------------------------------------------------------
  energy-cutoff  :      400.00
  volume of cell :       71.29
      direct lattice vectors                 reciprocal lattice vectors
     4.705036209  0.000000000  0.000000000     0.212538216  0.000000000  0.000000000
     0.000000000  4.705036209  0.000000000     0.000000000  0.212538216  0.000000000
     0.000000000  0.000000000  3.220160317     0.000000000  0.000000000  0.310543545

  length of vectors
     4.705036209  4.705036209  3.220160317     0.212538216  0.212538216  0.310543545


 FORCES acting on ions
    electron-ion (+dipol)            ewald-force                    non-local-force                 convergence-correction
 -----------------------------------------------------------------------------------------------
   0.365E-11 -.120E-11 -.292E-11   -.853E-13 -.853E-13 0.184E-13   0.000E+00 0.000E+00 0.000E+00   -.477E-14 -.273E-14 0.391E-13
   -.412E-13 -.238E-13 0.149E-12   0.142E-12 0.142E-12 0.167E-13   0.000E+00 0.000E+00 0.000E+00   0.606E-14 -.141E-13 0.365E-14
   -.290E+02 0.290E+02 0.176E-13   0.298E+02 -.298E+02 -.919E-14   -.746E+00 0.746E+00 0.434E-18   -.624E-04 0.624E-04 0.366E-13
   0.290E+02 -.290E+02 0.187E-11   -.298E+02 0.298E+02 -.916E-14   0.746E+00 -.746E+00 -.434E-18   0.624E-04 -.624E-04 -.635E-14
   0.290E+02 0.290E+02 0.480E-06   -.298E+02 -.298E+02 -.459E-14   0.746E+00 0.746E+00 0.434E-18   0.624E-04 0.624E-04 0.237E-10
   -.290E+02 -.290E+02 -.480E-06   0.298E+02 0.298E+02 -.471E-14   -.746E+00 -.746E+00 -.434E-18   -.624E-04 -.624E-04 -.237E-10
 -----------------------------------------------------------------------------------------------
   0.698E-11 0.215E-11 0.166E-11   0.355E-14 0.355E-14 0.738E-14   -.222E-15 0.111E-15 0.000E+00   -.712E-14 -.417E-13 0.929E-13
 
 
 POSITION                                       TOTAL-FORCE (eV/Angst)
 -----------------------------------------------------------------------------------
      2.35252      2.35252      1.61008        -0.000000     -0.000000      0.000000
      0.00000      0.00000      0.00000        -0.000000     -0.000000      0.000000
      0.92671      3.77833      1.61008         0.001306     -0.001306      0.000000
      3.77833      0.92671      1.61008        -0.001306      0.001306      0.000000
      1.42581      1.42581      0.00000        -0.001306     -0.001306     -0.000000
      3.27922      3.27922      0.00000         0.001306      0.001306      0.000000
 -----------------------------------------------------------------------------------
    total drift:                                0.000000      0.000000      0.000000


--------------------------------------------------------------------------------------------------------



  FREE ENERGIE OF THE ION-ELECTRON SYSTEM (eV)
  ---------------------------------------------------
  free  energy   TOTEN  =       -67.82131380 eV

  energy  without entropy=      -67.82131380  energy(sigma->0) =      -67.82131380
 


--------------------------------------------------------------------------------------------------------


    POTLOK:  cpu time    1.4802: real time    1.4802


--------------------------------------------------------------------------------------------------------


 writing wavefunctions
     LOOP+:  cpu time   42.1895: real time   42.2085
    4ORBIT:  cpu time    0.0000: real time    0.0000
 


 total charge     
 
# of ion       s       p       d       tot
------------------------------------------
    1        0.186   6.179   5.008  11.373
    2        0.192   6.174   5.015  11.381
    3        1.769   4.437   0.000   6.206
    4        1.769   4.437   0.000   6.206
    5        1.769   4.434   0.000   6.202
    6        1.769   4.434   0.000   6.202
--------------------------------------------------
tot          7.454  30.094  10.024  47.572
 


 magnetization (x)
 
# of ion       s       p       d       tot
------------------------------------------
    1       -0.022  -0.019  -4.556  -4.597
    2        0.023   0.017   4.552   4.593
    3        0.003   0.026   0.000   0.029
    4        0.003   0.026   0.000   0.029
    5       -0.004  -0.022   0.000  -0.026
    6       -0.004  -0.022   0.000  -0.026
--------------------------------------------------
tot         -0.000   0.006  -0.004   0.003
 
 BZINTS: Fermi energy:  3.601713; 54.000000 electrons
         Band energy:-762.976636;  BLOECHL correction:  0.000000

 total amount of memory used by VASP MPI-rank0    37824. kBytes
=======================================================================

   base      :      30000. kBytes
   nonl-proj :       3515. kBytes
   fftplans  :        966. kBytes
   grid      :       1965. kBytes
   one-center:        186. kBytes
   wavefun   :       1192. kBytes
 
  
  
 General timing and accounting informations for this job:
 ========================================================
  
                  Total CPU time used (sec):       43.199
                            User time (sec):       26.847
                          System time (sec):       16.352
                         Elapsed time (sec):       43.263
  
                   Maximum memory used (kb):       51824.
                   Average memory used (kb):           0.
  
                          Minor page faults:         8515
                          Major page faults:            7
                 Voluntary context switches:          296
