       N       E                     dE             d eps       ncg     rms          rms(c)
DAV:   1     0.561280254894E+03    0.56128E+03   -0.27946E+04  1296   0.143E+03
DAV:   2    -0.207748133733E+01   -0.56336E+03   -0.55010E+03  1452   0.443E+02
DAV:   3    -0.393065639946E+02   -0.37229E+02   -0.37084E+02  1512   0.129E+02
DAV:   4    -0.397467069436E+02   -0.44014E+00   -0.44006E+00  1464   0.155E+01
DAV:   5    -0.397532770984E+02   -0.65702E-02   -0.65701E-02  1524   0.183E+00    0.247E+01
DAV:   6    -0.381649677795E+02    0.15883E+01   -0.13399E+01  1596   0.302E+01    0.157E+01
DAV:   7    -0.388134392436E+02   -0.64847E+00   -0.18478E+00  1560   0.105E+01    0.121E+01
DAV:   8    -0.389390064579E+02   -0.12557E+00   -0.45447E-01  1524   0.574E+00    0.524E+00
DAV:   9    -0.391176988378E+02   -0.17869E+00   -0.46186E-02  1332   0.209E+00    0.144E+00
DAV:  10    -0.391239004400E+02   -0.62016E-02   -0.22582E-02  1560   0.129E+00    0.261E-01
DAV:  11    -0.391241154313E+02   -0.21499E-03   -0.23175E-03  1332   0.330E-01    0.105E-01
DAV:  12    -0.391242964789E+02   -0.18105E-03   -0.10272E-04  1560   0.108E-01    0.564E-02
DAV:  13    -0.391243320821E+02   -0.35603E-04   -0.46545E-05  1344   0.422E-02    0.230E-02
DAV:  14    -0.391243388737E+02   -0.67916E-05   -0.55538E-06  1548   0.160E-02    0.434E-03
DAV:  15    -0.391243388494E+02    0.24355E-07   -0.16880E-07  1008   0.360E-03
   1 F= -.39124339E+02 E0= -.39124339E+02  d E =-.391243E+02  mag=     0.0000
       N       E                     dE             d eps       ncg     rms          rms(c)
DAV:   1    -0.400039533706E+02   -0.87961E+00   -0.18104E+01  1296   0.378E+01    0.797E+00
DAV:   2    -0.391540815406E+02    0.84987E+00   -0.24528E+00  1296   0.114E+01    0.445E+00
DAV:   3    -0.391380368542E+02    0.16045E-01   -0.24891E-01  1344   0.473E+00    0.189E+00
DAV:   4    -0.391279146182E+02    0.10122E-01   -0.14024E-02  1584   0.885E-01    0.117E+00
DAV:   5    -0.391237539560E+02    0.41607E-02   -0.37377E-03  1572   0.482E-01    0.340E-01
DAV:   6    -0.391243199463E+02   -0.56599E-03   -0.37536E-04  1452   0.164E-01    0.398E-02
DAV:   7    -0.391243402865E+02   -0.20340E-04   -0.35653E-05  1524   0.450E-02    0.216E-02
DAV:   8    -0.391243457674E+02   -0.54809E-05   -0.60249E-06  1500   0.257E-02    0.134E-02
DAV:   9    -0.391243462334E+02   -0.46602E-06   -0.76198E-07  1476   0.828E-03    0.356E-03
DAV:  10    -0.391243462935E+02   -0.60097E-07   -0.18378E-07  1284   0.476E-03
   2 F= -.39124346E+02 E0= -.39124346E+02  d E =-.744413E-05  mag=    -0.0000
       N       E                     dE             d eps       ncg     rms          rms(c)
DAV:   1    -0.393568829614E+02   -0.23254E+00   -0.46073E+00  1296   0.194E+01    0.403E+00
DAV:   2    -0.391482192389E+02    0.20866E+00   -0.57724E-01  1296   0.555E+00    0.242E+00
DAV:   3    -0.391428810463E+02    0.53382E-02   -0.55393E-02  1368   0.239E+00    0.996E-01
DAV:   4    -0.391398829656E+02    0.29981E-02   -0.48295E-03  1560   0.574E-01    0.653E-01
DAV:   5    -0.391388176480E+02    0.10653E-02   -0.11088E-03  1548   0.267E-01    0.207E-01
DAV:   6    -0.391389051934E+02   -0.87545E-04   -0.11406E-04  1572   0.108E-01    0.215E-02
DAV:   7    -0.391389095424E+02   -0.43490E-05   -0.11585E-05  1512   0.253E-02    0.108E-02
DAV:   8    -0.391389109192E+02   -0.13768E-05   -0.20194E-06  1488   0.143E-02    0.471E-03
DAV:   9    -0.391389109860E+02   -0.66831E-07   -0.32952E-07  1428   0.584E-03
   3 F= -.39138911E+02 E0= -.39138911E+02  d E =-.145721E-01  mag=    -0.0000
       N       E                     dE             d eps       ncg     rms          rms(c)
DAV:   1    -0.391389250378E+02   -0.14119E-04   -0.28383E-04  1296   0.151E-01    0.319E-02
DAV:   2    -0.391389116928E+02    0.13345E-04   -0.37264E-05  1296   0.445E-02    0.187E-02
DAV:   3    -0.391389114245E+02    0.26826E-06   -0.36468E-06  1344   0.190E-02    0.782E-03
DAV:   4    -0.391389112496E+02    0.17490E-06   -0.26884E-07  1368   0.419E-03    0.505E-03
DAV:   5    -0.391389112826E+02   -0.32939E-07   -0.71181E-08  1008   0.214E-03
   4 F= -.39138911E+02 E0= -.39138911E+02  d E =-.145724E-01  mag=     0.0000
       N       E                     dE             d eps       ncg     rms          rms(c)
DAV:   1    -0.391414108006E+02   -0.24996E-02   -0.13741E-01  1296   0.261E+00    0.367E-01
DAV:   2    -0.391400800023E+02    0.13308E-02   -0.27189E-03  1620   0.423E-01    0.223E-01
DAV:   3    -0.391395448894E+02    0.53511E-03   -0.47931E-04  1764   0.174E-01    0.124E-01
DAV:   4    -0.391394761463E+02    0.68743E-04   -0.16916E-04  1536   0.877E-02    0.358E-02
DAV:   5    -0.391394776114E+02   -0.14651E-05   -0.13370E-05  1380   0.254E-02    0.202E-02
DAV:   6    -0.391394777039E+02   -0.92556E-07   -0.11773E-06  1776   0.962E-03    0.879E-03
DAV:   7    -0.391394778623E+02   -0.15837E-06   -0.27357E-07  1524   0.380E-03    0.212E-03
DAV:   8    -0.391394778838E+02   -0.21553E-07   -0.20310E-08   780   0.131E-03
   5 F= -.39139478E+02 E0= -.39139478E+02  d E =-.566601E-03  mag=    -0.0000
       N       E                     dE             d eps       ncg     rms          rms(c)
DAV:   1    -0.391399233594E+02   -0.44550E-03   -0.27404E-02  1296   0.117E+00    0.164E-01
DAV:   2    -0.391396577486E+02    0.26561E-03   -0.54241E-04  1620   0.189E-01    0.997E-02
DAV:   3    -0.391395512371E+02    0.10651E-03   -0.94767E-05  1764   0.807E-02    0.555E-02
DAV:   4    -0.391395373676E+02    0.13870E-04   -0.34724E-05  1536   0.399E-02    0.160E-02
DAV:   5    -0.391395376854E+02   -0.31786E-06   -0.27245E-06  1380   0.115E-02    0.905E-03
DAV:   6    -0.391395376922E+02   -0.67530E-08   -0.23408E-07  1692   0.431E-03
   6 F= -.39139538E+02 E0= -.39139538E+02  d E =-.626410E-03  mag=    -0.0000
       N       E                     dE             d eps       ncg     rms          rms(c)
DAV:   1    -0.391395913678E+02   -0.53682E-04   -0.24029E-02  1296   0.988E-01    0.572E-02
DAV:   2    -0.391396086228E+02   -0.17255E-04   -0.52641E-04  1572   0.142E-01    0.336E-02
DAV:   3    -0.391396008667E+02    0.77560E-05   -0.77160E-06  1452   0.244E-02    0.189E-02
DAV:   4    -0.391395979587E+02    0.29080E-05   -0.29107E-06  1560   0.128E-02    0.655E-03
DAV:   5    -0.391395979418E+02    0.16899E-07   -0.41660E-07  1368   0.453E-03
   7 F= -.39139598E+02 E0= -.39139598E+02  d E =-.602497E-04  mag=     0.0000
       N       E                     dE             d eps       ncg     rms          rms(c)
DAV:   1    -0.391396167978E+02   -0.18839E-04   -0.49018E-02  1296   0.141E+00    0.821E-02
DAV:   2    -0.391396518130E+02   -0.35015E-04   -0.10754E-03  1572   0.203E-01    0.481E-02
DAV:   3    -0.391396360326E+02    0.15780E-04   -0.16023E-05  1464   0.352E-02    0.269E-02
DAV:   4    -0.391396301106E+02    0.59220E-05   -0.60301E-06  1560   0.184E-02    0.925E-03
DAV:   5    -0.391396301266E+02   -0.15952E-07   -0.85003E-07  1404   0.650E-03
   8 F= -.39139630E+02 E0= -.39139630E+02  d E =-.924344E-04  mag=     0.0000
