 vasp.5.4.4.18Apr17-6-g9f103f2a35 (build Apr 27 2017 11:13:10) complex          
  
 executed on           IFC91_ompi date 2020.05.13  11:19:11
 running on   12 total cores
 distrk:  each k-point on   12 cores,    1 groups
 distr:  one band on NCORES_PER_BAND=   1 cores,   12 groups


--------------------------------------------------------------------------------------------------------


 INCAR:
 POTCAR:    PAW_PBE Mn_pv 02Aug2007               
 POTCAR:    PAW_PBE F 08Apr2002                   

 ----------------------------------------------------------------------------- 
|                                                                             |
|           W    W    AA    RRRRR   N    N  II  N    N   GGGG   !!!           |
|           W    W   A  A   R    R  NN   N  II  NN   N  G    G  !!!           |
|           W    W  A    A  R    R  N N  N  II  N N  N  G       !!!           |
|           W WW W  AAAAAA  RRRRR   N  N N  II  N  N N  G  GGG   !            |
|           WW  WW  A    A  R   R   N   NN  II  N   NN  G    G                |
|           W    W  A    A  R    R  N    N  II  N    N   GGGG   !!!           |
|                                                                             |
|      For optimal performance we recommend to set                            |
|        NCORE= 4 - approx SQRT( number of cores)                             |
|      NCORE specifies how many cores store one orbital (NPAR=cpu/NCORE).     |
|      This setting can  greatly improve the performance of VASP for DFT.     |
|      The default,   NCORE=1            might be grossly inefficient         |
|      on modern multi-core architectures or massively parallel machines.     |
|      Do your own testing !!!!                                               |
|      Unfortunately you need to use the default for GW and RPA calculations. |
|      (for HF NCORE is supported but not extensively tested yet)             |
|                                                                             |
 ----------------------------------------------------------------------------- 

 POTCAR:    PAW_PBE Mn_pv 02Aug2007               
   VRHFIN =Mn: 3p4s3d                                                           
   LEXCH  = PE                                                                  
   EATOM  =  2025.2664 eV,  148.8529 Ry                                         
                                                                                
   TITEL  = PAW_PBE Mn_pv 02Aug2007                                             
   LULTRA =        F    use ultrasoft PP ?                                      
   IUNSCR =        1    unscreen: 0-lin 1-nonlin 2-no                           
   RPACOR =    2.080    partial core radius                                     
   POMASS =   54.938; ZVAL   =   13.000    mass and valenz                      
   RCORE  =    2.300    outmost cutoff radius                                   
   RWIGS  =    2.500; RWIGS  =    1.323    wigner-seitz radius (au A)           
   ENMAX  =  269.864; ENMIN  =  202.398 eV                                      
   ICORE  =        3    local potential                                         
   LCOR   =        T    correct aug charges                                     
   LPAW   =        T    paw PP                                                  
   EAUG   =  569.085                                                            
   DEXC   =    0.000                                                            
   RMAX   =    2.343    core radius for proj-oper                               
   RAUG   =    1.300    factor for augmentation sphere                          
   RDEP   =    2.338    radius for radial grids                                 
   RDEPT  =    1.798    core radius for aug-charge                              
                                                                                
   Atomic configuration                                                         
    8 entries                                                                   
     n  l   j            E        occ.                                          
     1  0  0.50     -6424.8287   2.0000                                         
     2  0  0.50      -739.1154   2.0000                                         
     2  1  1.50      -625.3949   6.0000                                         
     3  0  0.50       -81.6100   2.0000                                         
     3  1  1.50       -50.4667   6.0000                                         
     3  2  2.50        -3.3745   6.0000                                         
     4  0  0.50        -4.1331   1.0000                                         
     4  3  2.50        -1.3606   0.0000                                         
   Description                                                                  
     l       E           TYP  RCUT    TYP  RCUT                                 
     1    -50.4666628     23  2.000                                             
     1     -1.3605826     23  2.000                                             
     2     -3.3744729     23  2.300                                             
     2     -4.7350555     23  2.300                                             
     0     -4.1331431     23  2.300                                             
     0      7.6656591     23  2.300                                             
     3      9.5240782     23  2.300                                             
  local pseudopotential read in
  partial core-charges read in
  partial kinetic energy density read in
  atomic valenz-charges read in
  non local Contribution for L=           1  read in
    real space projection operators read in
  non local Contribution for L=           1  read in
    real space projection operators read in
  non local Contribution for L=           2  read in
    real space projection operators read in
  non local Contribution for L=           2  read in
    real space projection operators read in
  non local Contribution for L=           0  read in
    real space projection operators read in
  non local Contribution for L=           0  read in
    real space projection operators read in
    PAW grid and wavefunctions read in
 
   number of l-projection  operators is LMAX  =           6
   number of lm-projection operators is LMMAX =          18
 
 POTCAR:    PAW_PBE F 08Apr2002                   
   VRHFIN =F: s2p5                                                              
   LEXCH  = PE                                                                  
   EATOM  =   659.6475 eV,   48.4827 Ry                                         
                                                                                
   TITEL  = PAW_PBE F 08Apr2002                                                 
   LULTRA =        F    use ultrasoft PP ?                                      
   IUNSCR =        1    unscreen: 0-lin 1-nonlin 2-no                           
   RPACOR =    1.200    partial core radius                                     
   POMASS =   18.998; ZVAL   =    7.000    mass and valenz                      
   RCORE  =    1.520    outmost cutoff radius                                   
   RWIGS  =    1.500; RWIGS  =    0.794    wigner-seitz radius (au A)           
   ENMAX  =  400.000; ENMIN  =  300.000 eV                                      
   ICORE  =        2    local potential                                         
   LCOR   =        T    correct aug charges                                     
   LPAW   =        T    paw PP                                                  
   EAUG   =  613.614                                                            
   RMAX   =    1.555    core radius for proj-oper                               
   RAUG   =    1.300    factor for augmentation sphere                          
   RDEP   =    1.539    radius for radial grids                                 
   RDEPT  =    1.299    core radius for aug-charge                              
                                                                                
   Atomic configuration                                                         
    4 entries                                                                   
     n  l   j            E        occ.                                          
     1  0  0.50      -663.3661   2.0000                                         
     2  0  0.50       -29.8995   2.0000                                         
     2  1  0.50       -11.1114   5.0000                                         
     3  2  1.50       -10.8847   0.0000                                         
   Description                                                                  
     l       E           TYP  RCUT    TYP  RCUT                                 
     0    -29.8995018     23  1.200                                             
     0     -9.5240782     23  1.200                                             
     1    -11.1113914     23  1.520                                             
     1      1.3605826     23  1.520                                             
     2    -10.8846608      7  1.500                                             
  local pseudopotential read in
  partial core-charges read in
  partial kinetic energy density read in
  atomic valenz-charges read in
  non local Contribution for L=           0  read in
    real space projection operators read in
  non local Contribution for L=           0  read in
    real space projection operators read in
  non local Contribution for L=           1  read in
    real space projection operators read in
  non local Contribution for L=           1  read in
    real space projection operators read in
    PAW grid and wavefunctions read in
 
   number of l-projection  operators is LMAX  =           4
   number of lm-projection operators is LMMAX =           8
 

 ----------------------------------------------------------------------------- 
|                                                                             |
|  ADVICE TO THIS USER RUNNING 'VASP/VAMP'   (HEAR YOUR MASTER'S VOICE ...):  |
|                                                                             |
|      You enforced a specific xc-type in the INCAR file,                     |
|      a different type was found on the POTCAR file                          |
|          I HOPE YOU KNOW, WHAT YOU ARE  DOING                               |
|                                                                             |
 ----------------------------------------------------------------------------- 

  PAW_PBE Mn_pv 02Aug2007               :
 energy of atom  1       EATOM=-2025.2664
 kinetic energy error for atom=    0.0284 (will be added to EATOM!!)
  PAW_PBE F 08Apr2002                   :
 energy of atom  2       EATOM= -659.6475
 kinetic energy error for atom=    0.1978 (will be added to EATOM!!)
 
 
 POSCAR: Mn  F                                   
  positions in cartesian coordinates
  No initial velocities read in
 exchange correlation table for  LEXCH =       14
   RHO(1)=    0.500       N(1)  =     2000
   RHO(2)=  100.500       N(2)  =     4000
 


--------------------------------------------------------------------------------------------------------


 ion  position               nearest neighbor table
   1  0.500  0.500  0.500-   3 2.05   4 2.05   5 2.10   6 2.10   5 2.10   6 2.10
   2  0.000  0.000  0.000-   5 2.05   6 2.05   3 2.10   4 2.10   3 2.10   4 2.10
   3  0.196  0.804  0.500-   1 2.05   2 2.10   2 2.10
   4  0.804  0.196  0.500-   1 2.05   2 2.10   2 2.10
   5  0.304  0.304  0.000-   2 2.05   1 2.10   1 2.10
   6  0.696  0.696  0.000-   2 2.05   1 2.10   1 2.10
 
  LATTYP: Found a simple tetragonal cell.
 ALAT       =     4.7709219712
 C/A-ratio  =     0.6815851913
  
  Lattice vectors:
  
 A1 = (   4.7709219712,   0.0000000000,   0.0000000000)
 A2 = (   0.0000000000,   4.7709219712,   0.0000000000)
 A3 = (   0.0000000000,   0.0000000000,   3.2517897644)


Analysis of symmetry for initial positions (statically):
=====================================================================
 Subroutine PRICEL returns:
 Original cell was already a primitive cell.
 

 Routine SETGRP: Setting up the symmetry group for a 
 simple tetragonal supercell.


 Subroutine GETGRP returns: Found 16 space group operations
 (whereof  8 operations were pure point group operations)
 out of a pool of 16 trial point group operations.


The static configuration has the point symmetry D_2h.
 The point group associated with its full space group is D_4h.


Analysis of symmetry for dynamics (positions and initial velocities):
=====================================================================
 Subroutine PRICEL returns:
 Original cell was already a primitive cell.
 

 Routine SETGRP: Setting up the symmetry group for a 
 simple tetragonal supercell.


 Subroutine GETGRP returns: Found 16 space group operations
 (whereof  8 operations were pure point group operations)
 out of a pool of 16 trial point group operations.


The dynamic configuration has the point symmetry D_2h.
 The point group associated with its full space group is D_4h.


Analysis of structural, dynamic, and magnetic symmetry:
=====================================================================
 Subroutine PRICEL returns:
 Original cell was already a primitive cell.
 

 Routine SETGRP: Setting up the symmetry group for a 
 simple tetragonal supercell.


 Subroutine GETGRP returns: Found 16 space group operations
 (whereof  8 operations were pure point group operations)
 out of a pool of 16 trial point group operations.


The magnetic configuration has the point symmetry D_2h.
 The point group associated with its full space group is D_4h.


 Subroutine INISYM returns: Found 16 space group operations
 (whereof  8 operations are pure point group operations),
 and found     1 'primitive' translations

 
 
 KPOINTS: KPOINTS created by Atomic Simulation Env

Automatic generation of k-mesh.
Space group operators:
 irot       det(A)        alpha          n_x          n_y          n_z        tau_x        tau_y        tau_z
    1     1.000000     0.000000     1.000000     0.000000     0.000000     0.000000     0.000000     0.000000
    2    -1.000000     0.000000     1.000000     0.000000     0.000000     0.000000     0.000000     0.000000
    3     1.000000   180.000000     0.000000     0.000000     1.000000     0.000000     0.000000     0.000000
    4    -1.000000   180.000000     0.000000     0.000000     1.000000     0.000000     0.000000     0.000000
    5     1.000000   180.000000     0.707107     0.707107     0.000000     0.000000     0.000000     0.000000
    6    -1.000000   180.000000     0.707107     0.707107     0.000000     0.000000     0.000000     0.000000
    7     1.000000   180.000000     0.707107    -0.707107     0.000000     0.000000     0.000000     0.000000
    8    -1.000000   180.000000     0.707107    -0.707107     0.000000     0.000000     0.000000     0.000000
    9     1.000000    90.000000     0.000000     0.000000    -1.000000     0.500000     0.500000     0.500000
   10    -1.000000    90.000000     0.000000     0.000000    -1.000000     0.500000     0.500000     0.500000
   11     1.000000    90.000000     0.000000     0.000000     1.000000     0.500000     0.500000     0.500000
   12    -1.000000    90.000000     0.000000     0.000000     1.000000     0.500000     0.500000     0.500000
   13     1.000000   180.000000     0.000000     1.000000     0.000000     0.500000     0.500000     0.500000
   14    -1.000000   180.000000     0.000000     1.000000     0.000000     0.500000     0.500000     0.500000
   15     1.000000   180.000000     1.000000     0.000000     0.000000     0.500000     0.500000     0.500000
   16    -1.000000   180.000000     1.000000     0.000000     0.000000     0.500000     0.500000     0.500000
 
 Subroutine IBZKPT returns following result:
 ===========================================
 
 Found      9 irreducible k-points:
 
 Following reciprocal coordinates:
            Coordinates               Weight
  0.125000  0.125000  0.083333      8.000000
  0.375000  0.125000  0.083333     16.000000
  0.375000  0.375000  0.083333      8.000000
  0.125000  0.125000  0.250000      8.000000
  0.375000  0.125000  0.250000     16.000000
  0.375000  0.375000  0.250000      8.000000
  0.125000  0.125000  0.416667      8.000000
  0.375000  0.125000  0.416667     16.000000
  0.375000  0.375000  0.416667      8.000000
 
 Following cartesian coordinates:
            Coordinates               Weight
  0.026200  0.026200  0.025627      8.000000
  0.078601  0.026200  0.025627     16.000000
  0.078601  0.078601  0.025627      8.000000
  0.026200  0.026200  0.076881      8.000000
  0.078601  0.026200  0.076881     16.000000
  0.078601  0.078601  0.076881      8.000000
  0.026200  0.026200  0.128135      8.000000
  0.078601  0.026200  0.128135     16.000000
  0.078601  0.078601  0.128135      8.000000
 
 TETIRR: Found    106 inequivalent tetrahedra from      576


--------------------------------------------------------------------------------------------------------




 Dimension of arrays:
   k-points           NKPTS =      9   k-points in BZ     NKDIM =      9   number of bands    NBANDS=     36
   number of dos      NEDOS =    301   number of ions     NIONS =      6
   non local maximal  LDIM  =      6   non local SUM 2l+1 LMDIM =     18
   total plane-waves  NPLWV =   9216
   max r-space proj   IRMAX =      1   max aug-charges    IRDMAX=  30420
   dimension x,y,z NGX =    24 NGY =   24 NGZ =   16
   dimension x,y,z NGXF=    48 NGYF=   48 NGZF=   32
   support grid    NGXF=    96 NGYF=   96 NGZF=   64
   ions per type =               2   4
   NGX,Y,Z   is equivalent  to a cutoff of   8.36,  8.36,  8.18 a.u.
   NGXF,Y,Z  is equivalent  to a cutoff of  16.73, 16.73, 16.36 a.u.

 SYSTEM =  unknown system                          
 POSCAR =  Mn  F                                   

 Startparameter for this run:
   NWRITE =      2    write-flag & timer
   PREC   = normal    normal or accurate (medium, high low for compatibility)
   ISTART =      0    job   : 0-new  1-cont  2-samecut
   ICHARG =      2    charge: 1-file 2-atom 10-const
   ISPIN  =      2    spin polarized calculation?
   LNONCOLLINEAR =      F non collinear calculations
   LSORBIT =      F    spin-orbit coupling
   INIWAV =      1    electr: 0-lowe 1-rand  2-diag
   LASPH  =      T    aspherical Exc in radial PAW
   METAGGA=      F    non-selfconsistent MetaGGA calc.

 Electronic Relaxation 1
   ENCUT  =  400.0 eV  29.40 Ry    5.42 a.u.   7.78  7.78  5.30*2*pi/ulx,y,z
   ENINI  =  400.0     initial cutoff
   ENAUG  =  613.6 eV  augmentation charge cutoff
   NELM   =     60;   NELMIN=  2; NELMDL= -5     # of ELM steps 
   EDIFF  = 0.1E-06   stopping-criterion for ELM
   LREAL  =      F    real-space projection
   NLSPLINE    = F    spline interpolate recip. space projectors
   LCOMPAT=      F    compatible to vasp.4.4
   GGA_COMPAT  = T    GGA compatible to vasp.4.4-vasp.4.6
   LMAXPAW     = -100 max onsite density
   LMAXMIX     =    4 max onsite mixed and CHGCAR
   VOSKOWN=      0    Vosko Wilk Nusair interpolation
   ROPT   =    0.00000   0.00000
 Ionic relaxation
   EDIFFG = -.5E-02   stopping-criterion for IOM
   NSW    =     50    number of steps for IOM
   NBLOCK =      1;   KBLOCK =     50    inner block; outer block 
   IBRION =      2    ionic relax: 0-MD 1-quasi-New 2-CG
   NFREE  =      1    steps in history (QN), initial steepest desc. (CG)
   ISIF   =      3    stress and relaxation
   IWAVPR =     11    prediction:  0-non 1-charg 2-wave 3-comb
   ISYM   =      2    0-nonsym 1-usesym 2-fastsym
   LCORR  =      T    Harris-Foulkes like correction to forces

   POTIM  = 0.5000    time-step for ionic-motion
   TEIN   =    0.0    initial temperature
   TEBEG  =    0.0;   TEEND  =   0.0 temperature during run
   SMASS  =  -3.00    Nose mass-parameter (am)
   estimated Nose-frequenzy (Omega)   =  0.10E-29 period in steps =****** mass=  -0.520E-27a.u.
   SCALEE = 1.0000    scale energy and forces
   NPACO  =    256;   APACO  = 16.0  distance and # of slots for P.C.
   PSTRESS=    0.0 pullay stress

  Mass of Ions in am
   POMASS =  54.94 19.00
  Ionic Valenz
   ZVAL   =  13.00  7.00
  Atomic Wigner-Seitz radii
   RWIGS  =  -1.00 -1.00
  virtual crystal weights 
   VCA    =   1.00  1.00
   NELECT =      54.0000    total number of electrons
   NUPDOWN=      -1.0000    fix difference up-down

 DOS related values:
   EMIN   =  10.00;   EMAX   =-10.00  energy-range for DOS
   EFERMI =   0.00
   ISMEAR =    -5;   SIGMA  =   0.20  broadening in eV -4-tet -1-fermi 0-gaus

 Electronic relaxation 2 (details)
   IALGO  =     38    algorithm
   LDIAG  =      T    sub-space diagonalisation (order eigenvalues)
   LSUBROT=      F    optimize rotation matrix (better conditioning)
   TURBO    =      0    0=normal 1=particle mesh
   IRESTART =      0    0=no restart 2=restart with 2 vectors
   NREBOOT  =      0    no. of reboots
   NMIN     =      0    reboot dimension
   EREF     =   0.00    reference energy to select bands
   IMIX   =      4    mixing-type and parameters
     AMIX     =   0.40;   BMIX     =  1.00
     AMIX_MAG =   1.60;   BMIX_MAG =  1.00
     AMIN     =   0.10
     WC   =   100.;   INIMIX=   1;  MIXPRE=   1;  MAXMIX= -45

 Intra band minimization:
   WEIMIN = 0.0010     energy-eigenvalue tresh-hold
   EBREAK =  0.69E-09  absolut break condition
   DEPER  =   0.30     relativ break condition  

   TIME   =   0.40     timestep for ELM

  volume/ion in A,a.u.               =      12.34        83.25
  Fermi-wavevector in a.u.,A,eV,Ry     =   1.473772  2.785026 29.551919  2.172005
  Thomas-Fermi vector in A             =   2.588625
 
 Write flags
   LWAVE        =      F    write WAVECAR
   LDOWNSAMPLE  =      F    k-point downsampling of WAVECAR
   LCHARG       =      F    write CHGCAR
   LVTOT        =      F    write LOCPOT, total local potential
   LVHAR        =      F    write LOCPOT, Hartree potential only
   LELF         =      F    write electronic localiz. function (ELF)
   LORBIT       =     11    0 simple, 1 ext, 2 COOP (PROOUT), +10 PAW based schemes


 Dipole corrections
   LMONO  =      F    monopole corrections only (constant potential shift)
   LDIPOL =      F    correct potential (dipole corrections)
   IDIPOL =      0    1-x, 2-y, 3-z, 4-all directions 
   EPSILON=  1.0000000 bulk dielectric constant

 LDA+U is selected, type is set to LDAUTYPE =  2
   angular momentum for each species LDAUL =     2   -1
   U (eV)           for each species LDAUU =   4.0  0.0
   J (eV)           for each species LDAUJ =   0.0  0.0
 Exchange correlation treatment:
   GGA     =    PS    GGA type
   LEXCH   =    14    internal setting for exchange type
   VOSKOWN=      0    Vosko Wilk Nusair interpolation
   LHFCALC =     F    Hartree Fock is set to
   LHFONE  =     F    Hartree Fock one center treatment
   AEXX    =    0.0000 exact exchange contribution

 Linear response parameters
   LEPSILON=     F    determine dielectric tensor
   LRPA    =     F    only Hartree local field effects (RPA)
   LNABLA  =     F    use nabla operator in PAW spheres
   LVEL    =     F    velocity operator in full k-point grid
   LINTERFAST=   F  fast interpolation
   KINTER  =     0    interpolate to denser k-point grid
   CSHIFT  =0.1000    complex shift for real part using Kramers Kronig
   OMEGAMAX=  -1.0    maximum frequency
   DEG_THRESHOLD= 0.2000000E-02 threshold for treating states as degnerate
   RTIME   =   -0.100 relaxation time in fs
  (WPLASMAI=    0.000 imaginary part of plasma frequency in eV, 0.658/RTIME)
   DFIELD  = 0.0000000 0.0000000 0.0000000 field for delta impulse in time
 
 Orbital magnetization related:
   ORBITALMAG=     F  switch on orbital magnetization
   LCHIMAG   =     F  perturbation theory with respect to B field
   DQ        =  0.001000  dq finite difference perturbation B field
   LLRAUG    =     F  two centre corrections for induced B field



--------------------------------------------------------------------------------------------------------


 conjugate gradient relaxation of ions
 charge density and potential will be updated during run
 spin polarized calculation
 Variant of blocked Davidson
 Davidson routine will perform the subspace rotation
 perform sub-space diagonalisation
    after iterative eigenvector-optimisation
 modified Broyden-mixing scheme, WC =      100.0
 initial mixing is a Kerker type mixing with AMIX =  0.4000 and BMIX =      1.0000
 Hartree-type preconditioning will be used
 using additional bands            9
 reciprocal scheme for non local part
 use partial core corrections
 calculate Harris-corrections to forces 
   (improved forces if not selfconsistent)
 use gradient corrections 
 use of overlap-Matrix (Vanderbilt PP)
 Fermi weights with tetrahedron method with Bloechl corrections


--------------------------------------------------------------------------------------------------------


  energy-cutoff  :      400.00
  volume of cell :       74.02
      direct lattice vectors                 reciprocal lattice vectors
     4.770921971  0.000000000  0.000000000     0.209603093  0.000000000  0.000000000
     0.000000000  4.770921971  0.000000000     0.000000000  0.209603093  0.000000000
     0.000000000  0.000000000  3.251789764     0.000000000  0.000000000  0.307522956

  length of vectors
     4.770921971  4.770921971  3.251789764     0.209603093  0.209603093  0.307522956


 
 k-points in units of 2pi/SCALE and weight: KPOINTS created by Atomic Simulation Env
   0.02620039  0.02620039  0.02562691       0.083
   0.07860116  0.02620039  0.02562691       0.167
   0.07860116  0.07860116  0.02562691       0.083
   0.02620039  0.02620039  0.07688074       0.083
   0.07860116  0.02620039  0.07688074       0.167
   0.07860116  0.07860116  0.07688074       0.083
   0.02620039  0.02620039  0.12813456       0.083
   0.07860116  0.02620039  0.12813456       0.167
   0.07860116  0.07860116  0.12813456       0.083
 
 k-points in reciprocal lattice and weights: KPOINTS created by Atomic Simulation Env
   0.12500000  0.12500000  0.08333333       0.083
   0.37500000  0.12500000  0.08333333       0.167
   0.37500000  0.37500000  0.08333333       0.083
   0.12500000  0.12500000  0.25000000       0.083
   0.37500000  0.12500000  0.25000000       0.167
   0.37500000  0.37500000  0.25000000       0.083
   0.12500000  0.12500000  0.41666667       0.083
   0.37500000  0.12500000  0.41666667       0.167
   0.37500000  0.37500000  0.41666667       0.083
 
 position of ions in fractional coordinates (direct lattice) 
   0.50000000  0.50000000  0.50000000
   0.00000000  0.00000000  0.00000000
   0.19615616  0.80384384  0.50000000
   0.80384384  0.19615616  0.50000000
   0.30384384  0.30384384  0.00000000
   0.69615616  0.69615616  0.00000000
 
 position of ions in cartesian coordinates  (Angst):
   2.38546099  2.38546099  1.62589488
   0.00000000  0.00000000  0.00000000
   0.93584575  3.83507622  1.62589488
   3.83507622  0.93584575  1.62589488
   1.44961524  1.44961524  0.00000000
   3.32130673  3.32130673  0.00000000
 


--------------------------------------------------------------------------------------------------------


 k-point  1 :   0.1250 0.1250 0.0833  plane waves:    1349
 k-point  2 :   0.3750 0.1250 0.0833  plane waves:    1350
 k-point  3 :   0.3750 0.3750 0.0833  plane waves:    1343
 k-point  4 :   0.1250 0.1250 0.2500  plane waves:    1339
 k-point  5 :   0.3750 0.1250 0.2500  plane waves:    1349
 k-point  6 :   0.3750 0.3750 0.2500  plane waves:    1339
 k-point  7 :   0.1250 0.1250 0.4167  plane waves:    1337
 k-point  8 :   0.3750 0.1250 0.4167  plane waves:    1346
 k-point  9 :   0.3750 0.3750 0.4167  plane waves:    1348

 maximum and minimum number of plane-waves per node :      1350     1337

 maximum number of plane-waves:      1350
 maximum index in each direction: 
   IXMAX=    7   IYMAX=    7   IZMAX=    5
   IXMIN=   -8   IYMIN=   -8   IZMIN=   -5


 serial   3D FFT for wavefunctions
 parallel 3D FFT for charge:
    minimum data exchange during FFTs selected (reduces bandwidth)


 total amount of memory used by VASP MPI-rank0    37300. kBytes
=======================================================================

   base      :      30000. kBytes
   nonl-proj :       3644. kBytes
   fftplans  :        966. kBytes
   grid      :       1271. kBytes
   one-center:        186. kBytes
   wavefun   :       1233. kBytes
 
     INWAV:  cpu time    0.0000: real time    0.0000
 Broyden mixing: mesh for mixing (old mesh)
   NGX = 15   NGY = 15   NGZ = 11
  (NGX  = 48   NGY  = 48   NGZ  = 32)
  gives a total of   2475 points

 initial charge density was supplied:
 charge density of overlapping atoms calculated
 number of electron      54.0000000 magnetization       0.0000000
 keeping initial charge density in first step


--------------------------------------------------------------------------------------------------------


 Maximum index for augmentation-charges         2533 (set IRDMAX)


--------------------------------------------------------------------------------------------------------


 First call to EWALD:  gamma=   0.422
 Maximum number of real-space cells 2x 2x 3
 Maximum number of reciprocal cells 3x 3x 2

    FEWALD:  cpu time    0.0010: real time    0.0010


--------------------------------------- Iteration      1(   1)  ---------------------------------------


    POTLOK:  cpu time    0.0099: real time    0.0099
    SETDIJ:  cpu time    0.6799: real time    0.6799
atom =   1  type =  1  l = 2
 
 onsite density matrix
 
spin component  1
 
  0.2835  0.0000  0.0000  0.0000  0.0000
  0.0000  0.2835  0.0000  0.0000  0.0000
  0.0000  0.0000  0.2835  0.0000  0.0000
  0.0000  0.0000  0.0000  0.2835  0.0000
  0.0000  0.0000  0.0000  0.0000  0.2835
 
spin component  2
 
  0.7694  0.0000  0.0000  0.0000  0.0000
  0.0000  0.7694  0.0000  0.0000  0.0000
  0.0000  0.0000  0.7694  0.0000  0.0000
  0.0000  0.0000  0.0000  0.7694  0.0000
  0.0000  0.0000  0.0000  0.0000  0.7694
 
 occupancies and eigenvectors
 
  o =  0.2835  v =  1.0000  0.0000  0.0000  0.0000  0.0000  0.0000  0.0000  0.0000  0.0000  0.0000      0.0000  0.0000  0.0000  0.0000  0.0000  0.0000  0.0000  0.0000  0.0000  0.0000
  o =  0.2835  v =  0.0000  1.0000  0.0000  0.0000  0.0000  0.0000  0.0000  0.0000  0.0000  0.0000      0.0000  0.0000  0.0000  0.0000  0.0000  0.0000  0.0000  0.0000  0.0000  0.0000
  o =  0.2835  v =  0.0000  0.0000  1.0000  0.0000  0.0000  0.0000  0.0000  0.0000  0.0000  0.0000      0.0000  0.0000  0.0000  0.0000  0.0000  0.0000  0.0000  0.0000  0.0000  0.0000
  o =  0.2835  v =  0.0000  0.0000  0.0000  1.0000  0.0000  0.0000  0.0000  0.0000  0.0000  0.0000      0.0000  0.0000  0.0000  0.0000  0.0000  0.0000  0.0000  0.0000  0.0000  0.0000
  o =  0.2835  v =  0.0000  0.0000  0.0000  0.0000  1.0000  0.0000  0.0000  0.0000  0.0000  0.0000      0.0000  0.0000  0.0000  0.0000  0.0000  0.0000  0.0000  0.0000  0.0000  0.0000
  o =  0.7694  v =  0.0000  0.0000  0.0000  0.0000  0.0000  1.0000  0.0000  0.0000  0.0000  0.0000      0.0000  0.0000  0.0000  0.0000  0.0000  0.0000  0.0000  0.0000  0.0000  0.0000
  o =  0.7694  v =  0.0000  0.0000  0.0000  0.0000  0.0000  0.0000  1.0000  0.0000  0.0000  0.0000      0.0000  0.0000  0.0000  0.0000  0.0000  0.0000  0.0000  0.0000  0.0000  0.0000
  o =  0.7694  v =  0.0000  0.0000  0.0000  0.0000  0.0000  0.0000  0.0000  1.0000  0.0000  0.0000      0.0000  0.0000  0.0000  0.0000  0.0000  0.0000  0.0000  0.0000  0.0000  0.0000
  o =  0.7694  v =  0.0000  0.0000  0.0000  0.0000  0.0000  0.0000  0.0000  0.0000  1.0000  0.0000      0.0000  0.0000  0.0000  0.0000  0.0000  0.0000  0.0000  0.0000  0.0000  0.0000
  o =  0.7694  v =  0.0000  0.0000  0.0000  0.0000  0.0000  0.0000  0.0000  0.0000  0.0000  1.0000      0.0000  0.0000  0.0000  0.0000  0.0000  0.0000  0.0000  0.0000  0.0000  0.0000
atom =   2  type =  1  l = 2
 
 onsite density matrix
 
spin component  1
 
  0.7694  0.0000  0.0000  0.0000  0.0000
  0.0000  0.7694  0.0000  0.0000  0.0000
  0.0000  0.0000  0.7694  0.0000  0.0000
  0.0000  0.0000  0.0000  0.7694  0.0000
  0.0000  0.0000  0.0000  0.0000  0.7694
 
spin component  2
 
  0.2835  0.0000  0.0000  0.0000  0.0000
  0.0000  0.2835  0.0000  0.0000  0.0000
  0.0000  0.0000  0.2835  0.0000  0.0000
  0.0000  0.0000  0.0000  0.2835  0.0000
  0.0000  0.0000  0.0000  0.0000  0.2835
 
 occupancies and eigenvectors
 
  o =  0.2835  v =  0.0000  0.0000  0.0000  0.0000  0.0000  1.0000  0.0000  0.0000  0.0000  0.0000      0.0000  0.0000  0.0000  0.0000  0.0000  0.0000  0.0000  0.0000  0.0000  0.0000
  o =  0.2835  v =  0.0000  0.0000  0.0000  0.0000  0.0000  0.0000  1.0000  0.0000  0.0000  0.0000      0.0000  0.0000  0.0000  0.0000  0.0000  0.0000  0.0000  0.0000  0.0000  0.0000
  o =  0.2835  v =  0.0000  0.0000  0.0000  0.0000  0.0000  0.0000  0.0000  1.0000  0.0000  0.0000      0.0000  0.0000  0.0000  0.0000  0.0000  0.0000  0.0000  0.0000  0.0000  0.0000
  o =  0.2835  v =  0.0000  0.0000  0.0000  0.0000  0.0000  0.0000  0.0000  0.0000  1.0000  0.0000      0.0000  0.0000  0.0000  0.0000  0.0000  0.0000  0.0000  0.0000  0.0000  0.0000
  o =  0.2835  v =  0.0000  0.0000  0.0000  0.0000  0.0000  0.0000  0.0000  0.0000  0.0000  1.0000      0.0000  0.0000  0.0000  0.0000  0.0000  0.0000  0.0000  0.0000  0.0000  0.0000
  o =  0.7694  v =  1.0000  0.0000  0.0000  0.0000  0.0000  0.0000  0.0000  0.0000  0.0000  0.0000      0.0000  0.0000  0.0000  0.0000  0.0000  0.0000  0.0000  0.0000  0.0000  0.0000
  o =  0.7694  v =  0.0000  1.0000  0.0000  0.0000  0.0000  0.0000  0.0000  0.0000  0.0000  0.0000      0.0000  0.0000  0.0000  0.0000  0.0000  0.0000  0.0000  0.0000  0.0000  0.0000
  o =  0.7694  v =  0.0000  0.0000  1.0000  0.0000  0.0000  0.0000  0.0000  0.0000  0.0000  0.0000      0.0000  0.0000  0.0000  0.0000  0.0000  0.0000  0.0000  0.0000  0.0000  0.0000
  o =  0.7694  v =  0.0000  0.0000  0.0000  1.0000  0.0000  0.0000  0.0000  0.0000  0.0000  0.0000      0.0000  0.0000  0.0000  0.0000  0.0000  0.0000  0.0000  0.0000  0.0000  0.0000
  o =  0.7694  v =  0.0000  0.0000  0.0000  0.0000  1.0000  0.0000  0.0000  0.0000  0.0000  0.0000      0.0000  0.0000  0.0000  0.0000  0.0000  0.0000  0.0000  0.0000  0.0000  0.0000
     EDDAV:  cpu time    0.1751: real time    0.1959
 BZINTS: Fermi energy: 17.085343; 54.000000 electrons
         Band energy:-153.023673;  BLOECHL correction: -0.014221
       DOS:  cpu time    0.0062: real time    0.0062
    --------------------------------------------
      LOOP:  cpu time    0.8711: real time    0.8919

 eigenvalue-minimisations  :  1296
 total energy-change (2. order) : 0.5612803E+03  (-0.2794633E+04)
 number of electron      54.0000000 magnetization      -0.0000000
 augmentation part       54.0000000 magnetization      -0.0000000

 Free energy of the ion-electron system (eV)
  ---------------------------------------------------
  alpha Z        PSCENC =       208.56888064
  Ewald energy   TEWEN  =     -4268.87787721
  -Hartree energ DENC   =     -2089.84569791
  -exchange      EXHF   =         0.00000000
  -V(xc)+E(xc)   XCENC  =       293.87773253
  PAW double counting   =      5439.83165491    -5546.16339751
  entropy T*S    EENTRO =         0.00000000
  eigenvalues    EBANDS =      -153.02367343
  atomic energy  EATOM  =      6676.91263287
  Solvation  Ediel_sol  =         0.00000000
  ---------------------------------------------------
  free energy    TOTEN  =       561.28025489 eV

  energy without entropy =      561.28025489  energy(sigma->0) =      561.28025489


--------------------------------------------------------------------------------------------------------




--------------------------------------- Iteration      1(   2)  ---------------------------------------


     EDDAV:  cpu time    0.1914: real time    0.1914
 BZINTS: Fermi energy:  4.480652; 54.000000 electrons
         Band energy:-716.381410;  BLOECHL correction:  0.000000
       DOS:  cpu time    0.0014: real time    0.0014
    --------------------------------------------
      LOOP:  cpu time    0.1928: real time    0.1928

 eigenvalue-minimisations  :  1452
 total energy-change (2. order) :-0.5633577E+03  (-0.5501009E+03)
 number of electron      54.0000000 magnetization      -0.0000000
 augmentation part       54.0000000 magnetization      -0.0000000

 Free energy of the ion-electron system (eV)
  ---------------------------------------------------
  alpha Z        PSCENC =       208.56888064
  Ewald energy   TEWEN  =     -4268.87787721
  -Hartree energ DENC   =     -2089.84569791
  -exchange      EXHF   =         0.00000000
  -V(xc)+E(xc)   XCENC  =       293.87773253
  PAW double counting   =      5439.83165491    -5546.16339751
  entropy T*S    EENTRO =         0.00000000
  eigenvalues    EBANDS =      -716.38140966
  atomic energy  EATOM  =      6676.91263287
  Solvation  Ediel_sol  =         0.00000000
  ---------------------------------------------------
  free energy    TOTEN  =        -2.07748134 eV

  energy without entropy =       -2.07748134  energy(sigma->0) =       -2.07748134


--------------------------------------------------------------------------------------------------------




--------------------------------------- Iteration      1(   3)  ---------------------------------------


     EDDAV:  cpu time    0.1974: real time    0.1974
 BZINTS: Fermi energy:  3.754296; 54.000000 electrons
         Band energy:-753.610492;  BLOECHL correction:  0.000000
       DOS:  cpu time    0.0012: real time    0.0012
    --------------------------------------------
      LOOP:  cpu time    0.1986: real time    0.1986

 eigenvalue-minimisations  :  1512
 total energy-change (2. order) :-0.3722908E+02  (-0.3708354E+02)
 number of electron      54.0000000 magnetization      -0.0000000
 augmentation part       54.0000000 magnetization      -0.0000000

 Free energy of the ion-electron system (eV)
  ---------------------------------------------------
  alpha Z        PSCENC =       208.56888064
  Ewald energy   TEWEN  =     -4268.87787721
  -Hartree energ DENC   =     -2089.84569791
  -exchange      EXHF   =         0.00000000
  -V(xc)+E(xc)   XCENC  =       293.87773253
  PAW double counting   =      5439.83165491    -5546.16339751
  entropy T*S    EENTRO =         0.00000000
  eigenvalues    EBANDS =      -753.61049232
  atomic energy  EATOM  =      6676.91263287
  Solvation  Ediel_sol  =         0.00000000
  ---------------------------------------------------
  free energy    TOTEN  =       -39.30656399 eV

  energy without entropy =      -39.30656399  energy(sigma->0) =      -39.30656399


--------------------------------------------------------------------------------------------------------




--------------------------------------- Iteration      1(   4)  ---------------------------------------


     EDDAV:  cpu time    0.1921: real time    0.1921
 BZINTS: Fermi energy:  3.760708; 54.000000 electrons
         Band energy:-754.050635;  BLOECHL correction:  0.000000
       DOS:  cpu time    0.0012: real time    0.0012
    --------------------------------------------
      LOOP:  cpu time    0.1933: real time    0.1933

 eigenvalue-minimisations  :  1464
 total energy-change (2. order) :-0.4401429E+00  (-0.4400592E+00)
 number of electron      54.0000000 magnetization      -0.0000000
 augmentation part       54.0000000 magnetization      -0.0000000

 Free energy of the ion-electron system (eV)
  ---------------------------------------------------
  alpha Z        PSCENC =       208.56888064
  Ewald energy   TEWEN  =     -4268.87787721
  -Hartree energ DENC   =     -2089.84569791
  -exchange      EXHF   =         0.00000000
  -V(xc)+E(xc)   XCENC  =       293.87773253
  PAW double counting   =      5439.83165491    -5546.16339751
  entropy T*S    EENTRO =         0.00000000
  eigenvalues    EBANDS =      -754.05063527
  atomic energy  EATOM  =      6676.91263287
  Solvation  Ediel_sol  =         0.00000000
  ---------------------------------------------------
  free energy    TOTEN  =       -39.74670694 eV

  energy without entropy =      -39.74670694  energy(sigma->0) =      -39.74670694


--------------------------------------------------------------------------------------------------------




--------------------------------------- Iteration      1(   5)  ---------------------------------------


     EDDAV:  cpu time    0.1988: real time    0.1988
 BZINTS: Fermi energy:  3.753819; 54.000000 electrons
         Band energy:-754.057205;  BLOECHL correction:  0.000000
       DOS:  cpu time    0.0012: real time    0.0012
    CHARGE:  cpu time    0.0165: real time    0.0165
    MIXING:  cpu time    0.0004: real time    0.0004
    --------------------------------------------
      LOOP:  cpu time    0.2168: real time    0.2168

 eigenvalue-minimisations  :  1524
 total energy-change (2. order) :-0.6570155E-02  (-0.6570124E-02)
 number of electron      54.0000017 magnetization      -0.0000000
 augmentation part       20.0467765 magnetization      -0.0000000

 Broyden mixing:
  rms(total) = 0.24666E+01    rms(broyden)= 0.24662E+01
  rms(prec ) = 0.31499E+01
  weight for this iteration     100.00

 Free energy of the ion-electron system (eV)
  ---------------------------------------------------
  alpha Z        PSCENC =       208.56888064
  Ewald energy   TEWEN  =     -4268.87787721
  -Hartree energ DENC   =     -2089.84569791
  -exchange      EXHF   =         0.00000000
  -V(xc)+E(xc)   XCENC  =       293.87773253
  PAW double counting   =      5439.83165491    -5546.16339751
  entropy T*S    EENTRO =         0.00000000
  eigenvalues    EBANDS =      -754.05720542
  atomic energy  EATOM  =      6676.91263287
  Solvation  Ediel_sol  =         0.00000000
  ---------------------------------------------------
  free energy    TOTEN  =       -39.75327710 eV

  energy without entropy =      -39.75327710  energy(sigma->0) =      -39.75327710


--------------------------------------------------------------------------------------------------------




--------------------------------------- Iteration      1(   6)  ---------------------------------------


    POTLOK:  cpu time    0.0081: real time    0.0081
    SETDIJ:  cpu time    0.6794: real time    0.6794
atom =   1  type =  1  l = 2
 
 onsite density matrix
 
spin component  1
 
 -0.0738  0.0000  0.0047  0.0000  0.0000
  0.0000 -0.0783  0.0000  0.0029  0.0000
  0.0047  0.0000 -0.0758  0.0000 -0.0000
  0.0000  0.0029  0.0000 -0.0783  0.0000
  0.0000  0.0000 -0.0000  0.0000 -0.0842
 
spin component  2
 
  1.1017  0.0000  0.0145  0.0000 -0.0000
  0.0000  1.1001  0.0000  0.0124  0.0000
  0.0145  0.0000  1.0937  0.0000  0.0000
  0.0000  0.0124  0.0000  1.1001  0.0000
 -0.0000  0.0000  0.0000  0.0000  1.0899
 
 occupancies and eigenvectors
 
  o = -0.0842  v =  0.0000  0.0000 -0.0000 -0.0000 -1.0000  0.0000  0.0000  0.0000  0.0000  0.0000      0.0000  0.0000  0.0000  0.0000  0.0000  0.0000  0.0000  0.0000  0.0000  0.0000
  o = -0.0812  v =  0.0000 -0.7071 -0.0000  0.7071 -0.0000  0.0000  0.0000  0.0000  0.0000  0.0000      0.0000  0.0000  0.0000  0.0000  0.0000  0.0000  0.0000  0.0000  0.0000  0.0000
  o = -0.0796  v =  0.6272  0.0000 -0.7788 -0.0000  0.0000  0.0000  0.0000  0.0000  0.0000  0.0000      0.0000  0.0000  0.0000  0.0000  0.0000  0.0000  0.0000  0.0000  0.0000  0.0000
  o = -0.0754  v = -0.0000 -0.7071  0.0000 -0.7071 -0.0000  0.0000  0.0000  0.0000  0.0000  0.0000      0.0000  0.0000  0.0000  0.0000  0.0000  0.0000  0.0000  0.0000  0.0000  0.0000
  o = -0.0700  v =  0.7788 -0.0000  0.6272 -0.0000 -0.0000  0.0000  0.0000  0.0000  0.0000  0.0000      0.0000  0.0000  0.0000  0.0000  0.0000  0.0000  0.0000  0.0000  0.0000  0.0000
  o =  1.0827  v =  0.0000  0.0000  0.0000  0.0000  0.0000 -0.6063  0.0000  0.7953 -0.0000 -0.0000      0.0000  0.0000  0.0000  0.0000  0.0000  0.0000  0.0000  0.0000  0.0000  0.0000
  o =  1.0877  v =  0.0000  0.0000  0.0000  0.0000  0.0000 -0.0000 -0.7071  0.0000  0.7071 -0.0000      0.0000  0.0000  0.0000  0.0000  0.0000  0.0000  0.0000  0.0000  0.0000  0.0000
  o =  1.0899  v =  0.0000  0.0000  0.0000  0.0000  0.0000  0.0000  0.0000 -0.0000 -0.0000 -1.0000      0.0000  0.0000  0.0000  0.0000  0.0000  0.0000  0.0000  0.0000  0.0000  0.0000
  o =  1.1126  v =  0.0000  0.0000  0.0000  0.0000  0.0000 -0.0000 -0.7071 -0.0000 -0.7071  0.0000      0.0000  0.0000  0.0000  0.0000  0.0000  0.0000  0.0000  0.0000  0.0000  0.0000
  o =  1.1127  v =  0.0000  0.0000  0.0000  0.0000  0.0000 -0.7953  0.0000 -0.6063  0.0000 -0.0000      0.0000  0.0000  0.0000  0.0000  0.0000  0.0000  0.0000  0.0000  0.0000  0.0000
atom =   2  type =  1  l = 2
 
 onsite density matrix
 
spin component  1
 
  1.1017  0.0000 -0.0145  0.0000 -0.0000
  0.0000  1.1001  0.0000 -0.0124  0.0000
 -0.0145  0.0000  1.0937  0.0000 -0.0000
  0.0000 -0.0124  0.0000  1.1001  0.0000
 -0.0000  0.0000 -0.0000  0.0000  1.0899
 
spin component  2
 
 -0.0738  0.0000 -0.0047  0.0000  0.0000
  0.0000 -0.0783  0.0000 -0.0029  0.0000
 -0.0047  0.0000 -0.0758  0.0000  0.0000
  0.0000 -0.0029  0.0000 -0.0783  0.0000
  0.0000  0.0000  0.0000  0.0000 -0.0842
 
 occupancies and eigenvectors
 
  o = -0.0842  v =  0.0000  0.0000  0.0000  0.0000  0.0000 -0.0000  0.0000 -0.0000  0.0000  1.0000      0.0000  0.0000  0.0000  0.0000  0.0000  0.0000  0.0000  0.0000  0.0000  0.0000
  o = -0.0812  v =  0.0000  0.0000  0.0000  0.0000  0.0000  0.0000  0.7071  0.0000  0.7071 -0.0000      0.0000  0.0000  0.0000  0.0000  0.0000  0.0000  0.0000  0.0000  0.0000  0.0000
  o = -0.0796  v =  0.0000  0.0000  0.0000  0.0000  0.0000  0.6272 -0.0000  0.7788 -0.0000  0.0000      0.0000  0.0000  0.0000  0.0000  0.0000  0.0000  0.0000  0.0000  0.0000  0.0000
  o = -0.0754  v =  0.0000  0.0000  0.0000  0.0000  0.0000  0.0000 -0.7071  0.0000  0.7071  0.0000      0.0000  0.0000  0.0000  0.0000  0.0000  0.0000  0.0000  0.0000  0.0000  0.0000
  o = -0.0700  v =  0.0000  0.0000  0.0000  0.0000  0.0000  0.7788  0.0000 -0.6272 -0.0000 -0.0000      0.0000  0.0000  0.0000  0.0000  0.0000  0.0000  0.0000  0.0000  0.0000  0.0000
  o =  1.0827  v = -0.6063  0.0000 -0.7953  0.0000 -0.0000  0.0000  0.0000  0.0000  0.0000  0.0000      0.0000  0.0000  0.0000  0.0000  0.0000  0.0000  0.0000  0.0000  0.0000  0.0000
  o =  1.0877  v =  0.0000  0.7071  0.0000  0.7071 -0.0000  0.0000  0.0000  0.0000  0.0000  0.0000      0.0000  0.0000  0.0000  0.0000  0.0000  0.0000  0.0000  0.0000  0.0000  0.0000
  o =  1.0899  v = -0.0000  0.0000 -0.0000  0.0000  1.0000  0.0000  0.0000  0.0000  0.0000  0.0000      0.0000  0.0000  0.0000  0.0000  0.0000  0.0000  0.0000  0.0000  0.0000  0.0000
  o =  1.1126  v = -0.0000 -0.7071  0.0000  0.7071 -0.0000  0.0000  0.0000  0.0000  0.0000  0.0000      0.0000  0.0000  0.0000  0.0000  0.0000  0.0000  0.0000  0.0000  0.0000  0.0000
  o =  1.1127  v = -0.7953  0.0000  0.6063 -0.0000 -0.0000  0.0000  0.0000  0.0000  0.0000  0.0000      0.0000  0.0000  0.0000  0.0000  0.0000  0.0000  0.0000  0.0000  0.0000  0.0000
     EDDAV:  cpu time    0.2039: real time    0.2039
 BZINTS: Fermi energy:  2.014702; 54.000000 electrons
         Band energy:-742.404672;  BLOECHL correction:  0.000000
       DOS:  cpu time    0.0012: real time    0.0012
    CHARGE:  cpu time    0.0165: real time    0.0165
    MIXING:  cpu time    0.0004: real time    0.0004
    --------------------------------------------
      LOOP:  cpu time    0.9095: real time    0.9095

 eigenvalue-minimisations  :  1596
 total energy-change (2. order) : 0.1588309E+01  (-0.1339919E+01)
 number of electron      54.0000017 magnetization      -0.0000000
 augmentation part       19.9506379 magnetization      -0.0000000

 Broyden mixing:
  rms(total) = 0.15663E+01    rms(broyden)= 0.15661E+01
  rms(prec ) = 0.16238E+01
  weight for this iteration     100.00

 eigenvalues of (default mixing * dielectric matrix)
  average eigenvalue GAMMA=   0.8203
  0.8203

 Free energy of the ion-electron system (eV)
  ---------------------------------------------------
  alpha Z        PSCENC =       208.56888064
  Ewald energy   TEWEN  =     -4268.87787721
  -Hartree energ DENC   =     -2109.32982704
  -exchange      EXHF   =         0.00000000
  -V(xc)+E(xc)   XCENC  =       294.20314065
  PAW double counting   =      5763.10951933    -5860.34676475
  entropy T*S    EENTRO =         0.00000000
  eigenvalues    EBANDS =      -742.40467228
  atomic energy  EATOM  =      6676.91263287
  Solvation  Ediel_sol  =         0.00000000
  ---------------------------------------------------
  free energy    TOTEN  =       -38.16496778 eV

  energy without entropy =      -38.16496778  energy(sigma->0) =      -38.16496778


--------------------------------------------------------------------------------------------------------




--------------------------------------- Iteration      1(   7)  ---------------------------------------


    POTLOK:  cpu time    0.0080: real time    0.0080
    SETDIJ:  cpu time    0.7443: real time    0.7443
atom =   1  type =  1  l = 2
 
 onsite density matrix
 
spin component  1
 
  0.1298  0.0000  0.0221  0.0000 -0.0000
  0.0000  0.1223  0.0000  0.0175  0.0000
  0.0221  0.0000  0.1176  0.0000  0.0000
  0.0000  0.0175  0.0000  0.1223  0.0000
 -0.0000  0.0000  0.0000  0.0000  0.1038
 
spin component  2
 
  0.8931  0.0000  0.0084  0.0000  0.0000
  0.0000  0.8905  0.0000  0.0068  0.0000
  0.0084  0.0000  0.8889  0.0000 -0.0000
  0.0000  0.0068  0.0000  0.8905  0.0000
  0.0000  0.0000 -0.0000  0.0000  0.8832
 
 occupancies and eigenvectors
 
  o =  0.1008  v = -0.6055 -0.0000  0.7959  0.0000 -0.0000  0.0000  0.0000  0.0000  0.0000  0.0000      0.0000  0.0000  0.0000  0.0000  0.0000  0.0000  0.0000  0.0000  0.0000  0.0000
  o =  0.1038  v = -0.0000  0.0000  0.0000  0.0000  1.0000  0.0000  0.0000  0.0000  0.0000  0.0000      0.0000  0.0000  0.0000  0.0000  0.0000  0.0000  0.0000  0.0000  0.0000  0.0000
  o =  0.1048  v =  0.0000  0.7071  0.0000 -0.7071 -0.0000  0.0000  0.0000  0.0000  0.0000  0.0000      0.0000  0.0000  0.0000  0.0000  0.0000  0.0000  0.0000  0.0000  0.0000  0.0000
  o =  0.1399  v =  0.0000 -0.7071  0.0000 -0.7071  0.0000  0.0000  0.0000  0.0000  0.0000  0.0000      0.0000  0.0000  0.0000  0.0000  0.0000  0.0000  0.0000  0.0000  0.0000  0.0000
  o =  0.1466  v = -0.7959 -0.0000 -0.6055  0.0000 -0.0000  0.0000  0.0000  0.0000  0.0000  0.0000      0.0000  0.0000  0.0000  0.0000  0.0000  0.0000  0.0000  0.0000  0.0000  0.0000
  o =  0.8823  v =  0.0000  0.0000  0.0000  0.0000  0.0000 -0.6159  0.0000  0.7878  0.0000  0.0000      0.0000  0.0000  0.0000  0.0000  0.0000  0.0000  0.0000  0.0000  0.0000  0.0000
  o =  0.8832  v =  0.0000  0.0000  0.0000  0.0000  0.0000  0.0000  0.0000  0.0000  0.0000 -1.0000      0.0000  0.0000  0.0000  0.0000  0.0000  0.0000  0.0000  0.0000  0.0000  0.0000
  o =  0.8837  v =  0.0000  0.0000  0.0000  0.0000  0.0000  0.0000 -0.7071  0.0000  0.7071 -0.0000      0.0000  0.0000  0.0000  0.0000  0.0000  0.0000  0.0000  0.0000  0.0000  0.0000
  o =  0.8974  v =  0.0000  0.0000  0.0000  0.0000  0.0000  0.0000  0.7071  0.0000  0.7071  0.0000      0.0000  0.0000  0.0000  0.0000  0.0000  0.0000  0.0000  0.0000  0.0000  0.0000
  o =  0.8997  v =  0.0000  0.0000  0.0000  0.0000  0.0000 -0.7878  0.0000 -0.6159  0.0000 -0.0000      0.0000  0.0000  0.0000  0.0000  0.0000  0.0000  0.0000  0.0000  0.0000  0.0000
atom =   2  type =  1  l = 2
 
 onsite density matrix
 
spin component  1
 
  0.8931  0.0000 -0.0084  0.0000 -0.0000
  0.0000  0.8905  0.0000 -0.0068  0.0000
 -0.0084  0.0000  0.8889  0.0000  0.0000
  0.0000 -0.0068  0.0000  0.8905  0.0000
 -0.0000  0.0000  0.0000  0.0000  0.8832
 
spin component  2
 
  0.1298  0.0000 -0.0221  0.0000 -0.0000
  0.0000  0.1223  0.0000 -0.0175  0.0000
 -0.0221  0.0000  0.1176  0.0000 -0.0000
  0.0000 -0.0175  0.0000  0.1223  0.0000
 -0.0000  0.0000 -0.0000  0.0000  0.1038
 
 occupancies and eigenvectors
 
  o =  0.1008  v =  0.0000  0.0000  0.0000  0.0000  0.0000 -0.6055 -0.0000 -0.7959  0.0000 -0.0000      0.0000  0.0000  0.0000  0.0000  0.0000  0.0000  0.0000  0.0000  0.0000  0.0000
  o =  0.1038  v =  0.0000  0.0000  0.0000  0.0000  0.0000 -0.0000  0.0000 -0.0000  0.0000  1.0000      0.0000  0.0000  0.0000  0.0000  0.0000  0.0000  0.0000  0.0000  0.0000  0.0000
  o =  0.1048  v =  0.0000  0.0000  0.0000  0.0000  0.0000  0.0000  0.7071 -0.0000  0.7071 -0.0000      0.0000  0.0000  0.0000  0.0000  0.0000  0.0000  0.0000  0.0000  0.0000  0.0000
  o =  0.1399  v =  0.0000  0.0000  0.0000  0.0000  0.0000 -0.0000 -0.7071  0.0000  0.7071  0.0000      0.0000  0.0000  0.0000  0.0000  0.0000  0.0000  0.0000  0.0000  0.0000  0.0000
  o =  0.1466  v =  0.0000  0.0000  0.0000  0.0000  0.0000 -0.7959  0.0000  0.6055  0.0000 -0.0000      0.0000  0.0000  0.0000  0.0000  0.0000  0.0000  0.0000  0.0000  0.0000  0.0000
  o =  0.8823  v = -0.6159  0.0000 -0.7878  0.0000  0.0000  0.0000  0.0000  0.0000  0.0000  0.0000      0.0000  0.0000  0.0000  0.0000  0.0000  0.0000  0.0000  0.0000  0.0000  0.0000
  o =  0.8832  v =  0.0000  0.0000  0.0000  0.0000  1.0000  0.0000  0.0000  0.0000  0.0000  0.0000      0.0000  0.0000  0.0000  0.0000  0.0000  0.0000  0.0000  0.0000  0.0000  0.0000
  o =  0.8837  v = -0.0000  0.7071 -0.0000  0.7071 -0.0000  0.0000  0.0000  0.0000  0.0000  0.0000      0.0000  0.0000  0.0000  0.0000  0.0000  0.0000  0.0000  0.0000  0.0000  0.0000
  o =  0.8974  v =  0.0000 -0.7071  0.0000  0.7071  0.0000  0.0000  0.0000  0.0000  0.0000  0.0000      0.0000  0.0000  0.0000  0.0000  0.0000  0.0000  0.0000  0.0000  0.0000  0.0000
  o =  0.8997  v = -0.7878  0.0000  0.6159  0.0000  0.0000  0.0000  0.0000  0.0000  0.0000  0.0000      0.0000  0.0000  0.0000  0.0000  0.0000  0.0000  0.0000  0.0000  0.0000  0.0000
     EDDAV:  cpu time    0.2373: real time    0.2374
 BZINTS: Fermi energy:  2.430450; 54.000000 electrons
         Band energy:-735.785339;  BLOECHL correction:  0.000000
       DOS:  cpu time    0.0020: real time    0.0020
    CHARGE:  cpu time    0.0162: real time    0.0162
    MIXING:  cpu time    0.0004: real time    0.0004
    --------------------------------------------
      LOOP:  cpu time    1.0082: real time    1.0083

 eigenvalue-minimisations  :  1560
 total energy-change (2. order) :-0.6484715E+00  (-0.1847836E+00)
 number of electron      54.0000016 magnetization       0.0000000
 augmentation part       19.9336094 magnetization       0.0000000

 Broyden mixing:
  rms(total) = 0.12073E+01    rms(broyden)= 0.12073E+01
  rms(prec ) = 0.12372E+01
  weight for this iteration     100.00

 eigenvalues of (default mixing * dielectric matrix)
  average eigenvalue GAMMA=   1.5353
  0.6930  2.3776

 Free energy of the ion-electron system (eV)
  ---------------------------------------------------
  alpha Z        PSCENC =       208.56888064
  Ewald energy   TEWEN  =     -4268.87787721
  -Hartree energ DENC   =     -2107.00798518
  -exchange      EXHF   =         0.00000000
  -V(xc)+E(xc)   XCENC  =       294.91862788
  PAW double counting   =      6039.92541484    -6147.46779372
  entropy T*S    EENTRO =         0.00000000
  eigenvalues    EBANDS =      -735.78533937
  atomic energy  EATOM  =      6676.91263287
  Solvation  Ediel_sol  =         0.00000000
  ---------------------------------------------------
  free energy    TOTEN  =       -38.81343924 eV

  energy without entropy =      -38.81343924  energy(sigma->0) =      -38.81343924


--------------------------------------------------------------------------------------------------------




--------------------------------------- Iteration      1(   8)  ---------------------------------------


    POTLOK:  cpu time    0.0082: real time    0.0082
    SETDIJ:  cpu time    0.6771: real time    0.6771
atom =   1  type =  1  l = 2
 
 onsite density matrix
 
spin component  1
 
 -0.0105  0.0000  0.0243  0.0000  0.0000
  0.0000 -0.0198  0.0000  0.0182  0.0000
  0.0243  0.0000 -0.0226  0.0000  0.0000
  0.0000  0.0182  0.0000 -0.0198  0.0000
  0.0000  0.0000  0.0000  0.0000 -0.0419
 
spin component  2
 
  1.0350  0.0000  0.0197  0.0000 -0.0000
  0.0000  1.0295  0.0000  0.0172  0.0000
  0.0197  0.0000  1.0229  0.0000  0.0000
  0.0000  0.0172  0.0000  1.0295  0.0000
 -0.0000  0.0000  0.0000  0.0000  1.0139
 
 occupancies and eigenvectors
 
  o = -0.0419  v =  0.0000 -0.0000 -0.0000  0.0000  1.0000  0.0000  0.0000  0.0000  0.0000  0.0000      0.0000  0.0000  0.0000  0.0000  0.0000  0.0000  0.0000  0.0000  0.0000  0.0000
  o = -0.0416  v = -0.6150 -0.0000  0.7885  0.0000  0.0000  0.0000  0.0000  0.0000  0.0000  0.0000      0.0000  0.0000  0.0000  0.0000  0.0000  0.0000  0.0000  0.0000  0.0000  0.0000
  o = -0.0381  v =  0.0000 -0.7071  0.0000  0.7071 -0.0000  0.0000  0.0000  0.0000  0.0000  0.0000      0.0000  0.0000  0.0000  0.0000  0.0000  0.0000  0.0000  0.0000  0.0000  0.0000
  o = -0.0016  v =  0.0000  0.7071  0.0000  0.7071  0.0000  0.0000  0.0000  0.0000  0.0000  0.0000      0.0000  0.0000  0.0000  0.0000  0.0000  0.0000  0.0000  0.0000  0.0000  0.0000
  o =  0.0085  v =  0.7885 -0.0000  0.6150  0.0000  0.0000  0.0000  0.0000  0.0000  0.0000  0.0000      0.0000  0.0000  0.0000  0.0000  0.0000  0.0000  0.0000  0.0000  0.0000  0.0000
  o =  1.0084  v =  0.0000  0.0000  0.0000  0.0000  0.0000 -0.5942  0.0000  0.8043  0.0000 -0.0000      0.0000  0.0000  0.0000  0.0000  0.0000  0.0000  0.0000  0.0000  0.0000  0.0000
  o =  1.0124  v =  0.0000  0.0000  0.0000  0.0000  0.0000  0.0000  0.7071 -0.0000 -0.7071 -0.0000      0.0000  0.0000  0.0000  0.0000  0.0000  0.0000  0.0000  0.0000  0.0000  0.0000
  o =  1.0139  v =  0.0000  0.0000  0.0000  0.0000  0.0000  0.0000  0.0000  0.0000 -0.0000  1.0000      0.0000  0.0000  0.0000  0.0000  0.0000  0.0000  0.0000  0.0000  0.0000  0.0000
  o =  1.0467  v =  0.0000  0.0000  0.0000  0.0000  0.0000  0.0000  0.7071  0.0000  0.7071  0.0000      0.0000  0.0000  0.0000  0.0000  0.0000  0.0000  0.0000  0.0000  0.0000  0.0000
  o =  1.0495  v =  0.0000  0.0000  0.0000  0.0000  0.0000 -0.8043  0.0000 -0.5942  0.0000  0.0000      0.0000  0.0000  0.0000  0.0000  0.0000  0.0000  0.0000  0.0000  0.0000  0.0000
atom =   2  type =  1  l = 2
 
 onsite density matrix
 
spin component  1
 
  1.0350  0.0000 -0.0197  0.0000 -0.0000
  0.0000  1.0295  0.0000 -0.0172  0.0000
 -0.0197  0.0000  1.0229  0.0000 -0.0000
  0.0000 -0.0172  0.0000  1.0295  0.0000
 -0.0000  0.0000 -0.0000  0.0000  1.0139
 
spin component  2
 
 -0.0105  0.0000 -0.0243  0.0000  0.0000
  0.0000 -0.0198  0.0000 -0.0182  0.0000
 -0.0243  0.0000 -0.0226  0.0000  0.0000
  0.0000 -0.0182  0.0000 -0.0198  0.0000
  0.0000  0.0000  0.0000  0.0000 -0.0419
 
 occupancies and eigenvectors
 
  o = -0.0419  v =  0.0000  0.0000  0.0000  0.0000  0.0000  0.0000  0.0000  0.0000  0.0000 -1.0000      0.0000  0.0000  0.0000  0.0000  0.0000  0.0000  0.0000  0.0000  0.0000  0.0000
  o = -0.0416  v =  0.0000  0.0000  0.0000  0.0000  0.0000 -0.6150  0.0000 -0.7885  0.0000 -0.0000      0.0000  0.0000  0.0000  0.0000  0.0000  0.0000  0.0000  0.0000  0.0000  0.0000
  o = -0.0381  v =  0.0000  0.0000  0.0000  0.0000  0.0000  0.0000 -0.7071  0.0000 -0.7071 -0.0000      0.0000  0.0000  0.0000  0.0000  0.0000  0.0000  0.0000  0.0000  0.0000  0.0000
  o = -0.0016  v =  0.0000  0.0000  0.0000  0.0000  0.0000  0.0000  0.7071  0.0000 -0.7071  0.0000      0.0000  0.0000  0.0000  0.0000  0.0000  0.0000  0.0000  0.0000  0.0000  0.0000
  o =  0.0085  v =  0.0000  0.0000  0.0000  0.0000  0.0000  0.7885  0.0000 -0.6150  0.0000 -0.0000      0.0000  0.0000  0.0000  0.0000  0.0000  0.0000  0.0000  0.0000  0.0000  0.0000
  o =  1.0084  v = -0.5942  0.0000 -0.8043  0.0000 -0.0000  0.0000  0.0000  0.0000  0.0000  0.0000      0.0000  0.0000  0.0000  0.0000  0.0000  0.0000  0.0000  0.0000  0.0000  0.0000
  o =  1.0124  v = -0.0000 -0.7071 -0.0000 -0.7071 -0.0000  0.0000  0.0000  0.0000  0.0000  0.0000      0.0000  0.0000  0.0000  0.0000  0.0000  0.0000  0.0000  0.0000  0.0000  0.0000
  o =  1.0139  v = -0.0000 -0.0000 -0.0000 -0.0000  1.0000  0.0000  0.0000  0.0000  0.0000  0.0000      0.0000  0.0000  0.0000  0.0000  0.0000  0.0000  0.0000  0.0000  0.0000  0.0000
  o =  1.0467  v = -0.0000 -0.7071  0.0000  0.7071  0.0000  0.0000  0.0000  0.0000  0.0000  0.0000      0.0000  0.0000  0.0000  0.0000  0.0000  0.0000  0.0000  0.0000  0.0000  0.0000
  o =  1.0495  v = -0.8043  0.0000  0.5942 -0.0000 -0.0000  0.0000  0.0000  0.0000  0.0000  0.0000      0.0000  0.0000  0.0000  0.0000  0.0000  0.0000  0.0000  0.0000  0.0000  0.0000
     EDDAV:  cpu time    0.2285: real time    0.2285
 BZINTS: Fermi energy:  1.957510; 54.000000 electrons
         Band energy:-742.243820;  BLOECHL correction:  0.000000
       DOS:  cpu time    0.0018: real time    0.0018
    CHARGE:  cpu time    0.0163: real time    0.0163
    MIXING:  cpu time    0.0004: real time    0.0004
    --------------------------------------------
      LOOP:  cpu time    0.9323: real time    0.9323

 eigenvalue-minimisations  :  1524
 total energy-change (2. order) :-0.1255672E+00  (-0.4544656E-01)
 number of electron      54.0000017 magnetization       0.0000000
 augmentation part       19.9526742 magnetization       0.0000000

 Broyden mixing:
  rms(total) = 0.52442E+00    rms(broyden)= 0.52442E+00
  rms(prec ) = 0.54552E+00
  weight for this iteration     100.00

 eigenvalues of (default mixing * dielectric matrix)
  average eigenvalue GAMMA=   1.2364
  2.2638  0.8675  0.5779

 Free energy of the ion-electron system (eV)
  ---------------------------------------------------
  alpha Z        PSCENC =       208.56888064
  Ewald energy   TEWEN  =     -4268.87787721
  -Hartree energ DENC   =     -2103.17065013
  -exchange      EXHF   =         0.00000000
  -V(xc)+E(xc)   XCENC  =       294.41144219
  PAW double counting   =      6311.99123976    -6416.53085507
  entropy T*S    EENTRO =         0.00000000
  eigenvalues    EBANDS =      -742.24381952
  atomic energy  EATOM  =      6676.91263287
  Solvation  Ediel_sol  =         0.00000000
  ---------------------------------------------------
  free energy    TOTEN  =       -38.93900646 eV

  energy without entropy =      -38.93900646  energy(sigma->0) =      -38.93900646


--------------------------------------------------------------------------------------------------------




--------------------------------------- Iteration      1(   9)  ---------------------------------------


    POTLOK:  cpu time    0.0083: real time    0.0083
    SETDIJ:  cpu time    0.6773: real time    0.6773
atom =   1  type =  1  l = 2
 
 onsite density matrix
 
spin component  1
 
  0.0409  0.0000  0.0270  0.0000 -0.0000
  0.0000  0.0304  0.0000  0.0216  0.0000
  0.0270  0.0000  0.0257  0.0000 -0.0000
  0.0000  0.0216  0.0000  0.0304  0.0000
 -0.0000  0.0000 -0.0000  0.0000  0.0064
 
spin component  2
 
  0.9835  0.0000  0.0248  0.0000  0.0000
  0.0000  0.9762  0.0000  0.0203  0.0000
  0.0248  0.0000  0.9697  0.0000  0.0000
  0.0000  0.0203  0.0000  0.9762  0.0000
  0.0000  0.0000  0.0000  0.0000  0.9557
 
 occupancies and eigenvectors
 
  o =  0.0052  v = -0.6039  0.0000  0.7971  0.0000  0.0000  0.0000  0.0000  0.0000  0.0000  0.0000      0.0000  0.0000  0.0000  0.0000  0.0000  0.0000  0.0000  0.0000  0.0000  0.0000
  o =  0.0064  v = -0.0000 -0.0000  0.0000  0.0000 -1.0000  0.0000  0.0000  0.0000  0.0000  0.0000      0.0000  0.0000  0.0000  0.0000  0.0000  0.0000  0.0000  0.0000  0.0000  0.0000
  o =  0.0088  v =  0.0000  0.7071  0.0000 -0.7071 -0.0000  0.0000  0.0000  0.0000  0.0000  0.0000      0.0000  0.0000  0.0000  0.0000  0.0000  0.0000  0.0000  0.0000  0.0000  0.0000
  o =  0.0520  v =  0.0000  0.7071  0.0000  0.7071 -0.0000  0.0000  0.0000  0.0000  0.0000  0.0000      0.0000  0.0000  0.0000  0.0000  0.0000  0.0000  0.0000  0.0000  0.0000  0.0000
  o =  0.0614  v = -0.7971  0.0000 -0.6039  0.0000  0.0000  0.0000  0.0000  0.0000  0.0000  0.0000      0.0000  0.0000  0.0000  0.0000  0.0000  0.0000  0.0000  0.0000  0.0000  0.0000
  o =  0.9508  v =  0.0000  0.0000  0.0000  0.0000  0.0000 -0.6047  0.0000  0.7964  0.0000 -0.0000      0.0000  0.0000  0.0000  0.0000  0.0000  0.0000  0.0000  0.0000  0.0000  0.0000
  o =  0.9557  v =  0.0000  0.0000  0.0000  0.0000  0.0000 -0.0000 -0.0000  0.0000  0.0000  1.0000      0.0000  0.0000  0.0000  0.0000  0.0000  0.0000  0.0000  0.0000  0.0000  0.0000
  o =  0.9559  v =  0.0000  0.0000  0.0000  0.0000  0.0000  0.0000  0.7071  0.0000 -0.7071  0.0000      0.0000  0.0000  0.0000  0.0000  0.0000  0.0000  0.0000  0.0000  0.0000  0.0000
  o =  0.9965  v =  0.0000  0.0000  0.0000  0.0000  0.0000  0.0000 -0.7071  0.0000 -0.7071 -0.0000      0.0000  0.0000  0.0000  0.0000  0.0000  0.0000  0.0000  0.0000  0.0000  0.0000
  o =  1.0024  v =  0.0000  0.0000  0.0000  0.0000  0.0000 -0.7964  0.0000 -0.6047  0.0000 -0.0000      0.0000  0.0000  0.0000  0.0000  0.0000  0.0000  0.0000  0.0000  0.0000  0.0000
atom =   2  type =  1  l = 2
 
 onsite density matrix
 
spin component  1
 
  0.9835  0.0000 -0.0248  0.0000 -0.0000
  0.0000  0.9762  0.0000 -0.0203  0.0000
 -0.0248  0.0000  0.9697  0.0000  0.0000
  0.0000 -0.0203  0.0000  0.9762  0.0000
 -0.0000  0.0000  0.0000  0.0000  0.9557
 
spin component  2
 
  0.0409  0.0000 -0.0270  0.0000 -0.0000
  0.0000  0.0304  0.0000 -0.0216  0.0000
 -0.0270  0.0000  0.0257  0.0000 -0.0000
  0.0000 -0.0216  0.0000  0.0304  0.0000
 -0.0000  0.0000 -0.0000  0.0000  0.0064
 
 occupancies and eigenvectors
 
  o =  0.0052  v =  0.0000  0.0000  0.0000  0.0000  0.0000 -0.6039 -0.0000 -0.7971  0.0000 -0.0000      0.0000  0.0000  0.0000  0.0000  0.0000  0.0000  0.0000  0.0000  0.0000  0.0000
  o =  0.0064  v =  0.0000  0.0000  0.0000  0.0000  0.0000 -0.0000  0.0000 -0.0000  0.0000  1.0000      0.0000  0.0000  0.0000  0.0000  0.0000  0.0000  0.0000  0.0000  0.0000  0.0000
  o =  0.0088  v =  0.0000  0.0000  0.0000  0.0000  0.0000  0.0000 -0.7071  0.0000 -0.7071  0.0000      0.0000  0.0000  0.0000  0.0000  0.0000  0.0000  0.0000  0.0000  0.0000  0.0000
  o =  0.0520  v =  0.0000  0.0000  0.0000  0.0000  0.0000  0.0000  0.7071  0.0000 -0.7071 -0.0000      0.0000  0.0000  0.0000  0.0000  0.0000  0.0000  0.0000  0.0000  0.0000  0.0000
  o =  0.0614  v =  0.0000  0.0000  0.0000  0.0000  0.0000 -0.7971 -0.0000  0.6039  0.0000 -0.0000      0.0000  0.0000  0.0000  0.0000  0.0000  0.0000  0.0000  0.0000  0.0000  0.0000
  o =  0.9508  v = -0.6047  0.0000 -0.7964  0.0000  0.0000  0.0000  0.0000  0.0000  0.0000  0.0000      0.0000  0.0000  0.0000  0.0000  0.0000  0.0000  0.0000  0.0000  0.0000  0.0000
  o =  0.9557  v = -0.0000 -0.0000 -0.0000 -0.0000 -1.0000  0.0000  0.0000  0.0000  0.0000  0.0000      0.0000  0.0000  0.0000  0.0000  0.0000  0.0000  0.0000  0.0000  0.0000  0.0000
  o =  0.9559  v = -0.0000 -0.7071 -0.0000 -0.7071  0.0000  0.0000  0.0000  0.0000  0.0000  0.0000      0.0000  0.0000  0.0000  0.0000  0.0000  0.0000  0.0000  0.0000  0.0000  0.0000
  o =  0.9965  v = -0.0000 -0.7071  0.0000  0.7071 -0.0000  0.0000  0.0000  0.0000  0.0000  0.0000      0.0000  0.0000  0.0000  0.0000  0.0000  0.0000  0.0000  0.0000  0.0000  0.0000
  o =  1.0024  v = -0.7964  0.0000  0.6047 -0.0000  0.0000  0.0000  0.0000  0.0000  0.0000  0.0000      0.0000  0.0000  0.0000  0.0000  0.0000  0.0000  0.0000  0.0000  0.0000  0.0000
     EDDAV:  cpu time    0.1983: real time    0.1983
 BZINTS: Fermi energy:  2.129571; 54.000000 electrons
         Band energy:-739.281536;  BLOECHL correction:  0.000000
       DOS:  cpu time    0.0020: real time    0.0020
    CHARGE:  cpu time    0.0162: real time    0.0162
    MIXING:  cpu time    0.0004: real time    0.0004
    --------------------------------------------
      LOOP:  cpu time    0.9026: real time    0.9026

 eigenvalue-minimisations  :  1332
 total energy-change (2. order) :-0.1786924E+00  (-0.4618599E-02)
 number of electron      54.0000017 magnetization       0.0000000
 augmentation part       19.9461321 magnetization       0.0000000

 Broyden mixing:
  rms(total) = 0.14383E+00    rms(broyden)= 0.14383E+00
  rms(prec ) = 0.15837E+00
  weight for this iteration     100.00

 eigenvalues of (default mixing * dielectric matrix)
  average eigenvalue GAMMA=   1.2174
  2.6077  0.8231  0.8231  0.6158

 Free energy of the ion-electron system (eV)
  ---------------------------------------------------
  alpha Z        PSCENC =       208.56888064
  Ewald energy   TEWEN  =     -4268.87787721
  -Hartree energ DENC   =     -2103.06365582
  -exchange      EXHF   =         0.00000000
  -V(xc)+E(xc)   XCENC  =       294.56238407
  PAW double counting   =      6474.94846819    -6582.88699601
  entropy T*S    EENTRO =         0.00000000
  eigenvalues    EBANDS =      -739.28153559
  atomic energy  EATOM  =      6676.91263287
  Solvation  Ediel_sol  =         0.00000000
  ---------------------------------------------------
  free energy    TOTEN  =       -39.11769884 eV

  energy without entropy =      -39.11769884  energy(sigma->0) =      -39.11769884


--------------------------------------------------------------------------------------------------------




--------------------------------------- Iteration      1(  10)  ---------------------------------------


    POTLOK:  cpu time    0.0083: real time    0.0083
    SETDIJ:  cpu time    0.6773: real time    0.6773
atom =   1  type =  1  l = 2
 
 onsite density matrix
 
spin component  1
 
  0.0534  0.0000  0.0294  0.0000 -0.0000
  0.0000  0.0424  0.0000  0.0232  0.0000
  0.0294  0.0000  0.0372  0.0000  0.0000
  0.0000  0.0232  0.0000  0.0424  0.0000
 -0.0000  0.0000  0.0000  0.0000  0.0165
 
spin component  2
 
  0.9711  0.0000  0.0223  0.0000  0.0000
  0.0000  0.9643  0.0000  0.0187  0.0000
  0.0223  0.0000  0.9583  0.0000 -0.0000
  0.0000  0.0187  0.0000  0.9643  0.0000
  0.0000  0.0000 -0.0000  0.0000  0.9458
 
 occupancies and eigenvectors
 
  o =  0.0148  v = -0.6061 -0.0000  0.7954  0.0000 -0.0000  0.0000  0.0000  0.0000  0.0000  0.0000      0.0000  0.0000  0.0000  0.0000  0.0000  0.0000  0.0000  0.0000  0.0000  0.0000
  o =  0.0165  v = -0.0000  0.0000  0.0000  0.0000  1.0000  0.0000  0.0000  0.0000  0.0000  0.0000      0.0000  0.0000  0.0000  0.0000  0.0000  0.0000  0.0000  0.0000  0.0000  0.0000
  o =  0.0192  v =  0.0000  0.7071  0.0000 -0.7071 -0.0000  0.0000  0.0000  0.0000  0.0000  0.0000      0.0000  0.0000  0.0000  0.0000  0.0000  0.0000  0.0000  0.0000  0.0000  0.0000
  o =  0.0656  v =  0.0000 -0.7071  0.0000 -0.7071  0.0000  0.0000  0.0000  0.0000  0.0000  0.0000      0.0000  0.0000  0.0000  0.0000  0.0000  0.0000  0.0000  0.0000  0.0000  0.0000
  o =  0.0758  v = -0.7954 -0.0000 -0.6061  0.0000 -0.0000  0.0000  0.0000  0.0000  0.0000  0.0000      0.0000  0.0000  0.0000  0.0000  0.0000  0.0000  0.0000  0.0000  0.0000  0.0000
  o =  0.9415  v =  0.0000  0.0000  0.0000  0.0000  0.0000 -0.6012  0.0000  0.7991  0.0000  0.0000      0.0000  0.0000  0.0000  0.0000  0.0000  0.0000  0.0000  0.0000  0.0000  0.0000
  o =  0.9456  v =  0.0000  0.0000  0.0000  0.0000  0.0000  0.0000  0.7071  0.0000 -0.7071  0.0000      0.0000  0.0000  0.0000  0.0000  0.0000  0.0000  0.0000  0.0000  0.0000  0.0000
  o =  0.9458  v =  0.0000  0.0000  0.0000  0.0000  0.0000  0.0000  0.0000  0.0000  0.0000 -1.0000      0.0000  0.0000  0.0000  0.0000  0.0000  0.0000  0.0000  0.0000  0.0000  0.0000
  o =  0.9830  v =  0.0000  0.0000  0.0000  0.0000  0.0000  0.0000  0.7071  0.0000  0.7071  0.0000      0.0000  0.0000  0.0000  0.0000  0.0000  0.0000  0.0000  0.0000  0.0000  0.0000
  o =  0.9879  v =  0.0000  0.0000  0.0000  0.0000  0.0000 -0.7991  0.0000 -0.6012  0.0000 -0.0000      0.0000  0.0000  0.0000  0.0000  0.0000  0.0000  0.0000  0.0000  0.0000  0.0000
atom =   2  type =  1  l = 2
 
 onsite density matrix
 
spin component  1
 
  0.9711  0.0000 -0.0223  0.0000 -0.0000
  0.0000  0.9643  0.0000 -0.0187  0.0000
 -0.0223  0.0000  0.9583  0.0000  0.0000
  0.0000 -0.0187  0.0000  0.9643  0.0000
 -0.0000  0.0000  0.0000  0.0000  0.9458
 
spin component  2
 
  0.0534  0.0000 -0.0294  0.0000 -0.0000
  0.0000  0.0424  0.0000 -0.0232  0.0000
 -0.0294  0.0000  0.0372  0.0000  0.0000
  0.0000 -0.0232  0.0000  0.0424  0.0000
 -0.0000  0.0000  0.0000  0.0000  0.0165
 
 occupancies and eigenvectors
 
  o =  0.0148  v =  0.0000  0.0000  0.0000  0.0000  0.0000 -0.6061  0.0000 -0.7954  0.0000  0.0000      0.0000  0.0000  0.0000  0.0000  0.0000  0.0000  0.0000  0.0000  0.0000  0.0000
  o =  0.0165  v =  0.0000  0.0000  0.0000  0.0000  0.0000 -0.0000 -0.0000 -0.0000  0.0000 -1.0000      0.0000  0.0000  0.0000  0.0000  0.0000  0.0000  0.0000  0.0000  0.0000  0.0000
  o =  0.0192  v =  0.0000  0.0000  0.0000  0.0000  0.0000  0.0000 -0.7071  0.0000 -0.7071  0.0000      0.0000  0.0000  0.0000  0.0000  0.0000  0.0000  0.0000  0.0000  0.0000  0.0000
  o =  0.0656  v =  0.0000  0.0000  0.0000  0.0000  0.0000  0.0000 -0.7071  0.0000  0.7071  0.0000      0.0000  0.0000  0.0000  0.0000  0.0000  0.0000  0.0000  0.0000  0.0000  0.0000
  o =  0.0758  v =  0.0000  0.0000  0.0000  0.0000  0.0000 -0.7954  0.0000  0.6061  0.0000  0.0000      0.0000  0.0000  0.0000  0.0000  0.0000  0.0000  0.0000  0.0000  0.0000  0.0000
  o =  0.9415  v = -0.6012  0.0000 -0.7991  0.0000 -0.0000  0.0000  0.0000  0.0000  0.0000  0.0000      0.0000  0.0000  0.0000  0.0000  0.0000  0.0000  0.0000  0.0000  0.0000  0.0000
  o =  0.9456  v =  0.0000  0.7071 -0.0000  0.7071  0.0000  0.0000  0.0000  0.0000  0.0000  0.0000      0.0000  0.0000  0.0000  0.0000  0.0000  0.0000  0.0000  0.0000  0.0000  0.0000
  o =  0.9458  v =  0.0000  0.0000  0.0000  0.0000 -1.0000  0.0000  0.0000  0.0000  0.0000  0.0000      0.0000  0.0000  0.0000  0.0000  0.0000  0.0000  0.0000  0.0000  0.0000  0.0000
  o =  0.9830  v =  0.0000 -0.7071 -0.0000  0.7071  0.0000  0.0000  0.0000  0.0000  0.0000  0.0000      0.0000  0.0000  0.0000  0.0000  0.0000  0.0000  0.0000  0.0000  0.0000  0.0000
  o =  0.9879  v = -0.7991  0.0000  0.6012  0.0000  0.0000  0.0000  0.0000  0.0000  0.0000  0.0000      0.0000  0.0000  0.0000  0.0000  0.0000  0.0000  0.0000  0.0000  0.0000  0.0000
     EDDAV:  cpu time    0.2334: real time    0.2334
 BZINTS: Fermi energy:  2.115363; 54.000000 electrons
         Band energy:-738.460809;  BLOECHL correction:  0.000000
       DOS:  cpu time    0.0020: real time    0.0020
    CHARGE:  cpu time    0.0162: real time    0.0162
    MIXING:  cpu time    0.0005: real time    0.0005
    --------------------------------------------
      LOOP:  cpu time    0.9376: real time    0.9377

 eigenvalue-minimisations  :  1560
 total energy-change (2. order) :-0.6201602E-02  (-0.2258165E-02)
 number of electron      54.0000017 magnetization      -0.0000000
 augmentation part       19.9478466 magnetization      -0.0000000

 Broyden mixing:
  rms(total) = 0.26071E-01    rms(broyden)= 0.26058E-01
  rms(prec ) = 0.29171E-01
  weight for this iteration     100.00

 eigenvalues of (default mixing * dielectric matrix)
  average eigenvalue GAMMA=   1.1399
  2.5405  0.9120  0.9120  0.7313  0.6037

 Free energy of the ion-electron system (eV)
  ---------------------------------------------------
  alpha Z        PSCENC =       208.56888064
  Ewald energy   TEWEN  =     -4268.87787721
  -Hartree energ DENC   =     -2103.67446225
  -exchange      EXHF   =         0.00000000
  -V(xc)+E(xc)   XCENC  =       294.67822473
  PAW double counting   =      6463.92900719    -6572.19949790
  entropy T*S    EENTRO =         0.00000000
  eigenvalues    EBANDS =      -738.46080852
  atomic energy  EATOM  =      6676.91263287
  Solvation  Ediel_sol  =         0.00000000
  ---------------------------------------------------
  free energy    TOTEN  =       -39.12390044 eV

  energy without entropy =      -39.12390044  energy(sigma->0) =      -39.12390044


--------------------------------------------------------------------------------------------------------




--------------------------------------- Iteration      1(  11)  ---------------------------------------


    POTLOK:  cpu time    0.0082: real time    0.0082
    SETDIJ:  cpu time    0.6772: real time    0.6772
atom =   1  type =  1  l = 2
 
 onsite density matrix
 
spin component  1
 
  0.0514  0.0000  0.0293  0.0000 -0.0000
  0.0000  0.0404  0.0000  0.0231  0.0000
  0.0293  0.0000  0.0352  0.0000 -0.0000
  0.0000  0.0231  0.0000  0.0404  0.0000
 -0.0000  0.0000 -0.0000  0.0000  0.0147
 
spin component  2
 
  0.9738  0.0000  0.0222  0.0000  0.0000
  0.0000  0.9670  0.0000  0.0186  0.0000
  0.0222  0.0000  0.9610  0.0000  0.0000
  0.0000  0.0186  0.0000  0.9670  0.0000
  0.0000  0.0000  0.0000  0.0000  0.9485
 
 occupancies and eigenvectors
 
  o =  0.0130  v = -0.6055  0.0000  0.7959  0.0000  0.0000  0.0000  0.0000  0.0000  0.0000  0.0000      0.0000  0.0000  0.0000  0.0000  0.0000  0.0000  0.0000  0.0000  0.0000  0.0000
  o =  0.0147  v = -0.0000 -0.0000  0.0000  0.0000 -1.0000  0.0000  0.0000  0.0000  0.0000  0.0000      0.0000  0.0000  0.0000  0.0000  0.0000  0.0000  0.0000  0.0000  0.0000  0.0000
  o =  0.0173  v =  0.0000  0.7071  0.0000 -0.7071 -0.0000  0.0000  0.0000  0.0000  0.0000  0.0000      0.0000  0.0000  0.0000  0.0000  0.0000  0.0000  0.0000  0.0000  0.0000  0.0000
  o =  0.0635  v =  0.0000  0.7071  0.0000  0.7071 -0.0000  0.0000  0.0000  0.0000  0.0000  0.0000      0.0000  0.0000  0.0000  0.0000  0.0000  0.0000  0.0000  0.0000  0.0000  0.0000
  o =  0.0737  v = -0.7959  0.0000 -0.6055  0.0000  0.0000  0.0000  0.0000  0.0000  0.0000  0.0000      0.0000  0.0000  0.0000  0.0000  0.0000  0.0000  0.0000  0.0000  0.0000  0.0000
  o =  0.9442  v =  0.0000  0.0000  0.0000  0.0000  0.0000 -0.6013  0.0000  0.7990  0.0000  0.0000      0.0000  0.0000  0.0000  0.0000  0.0000  0.0000  0.0000  0.0000  0.0000  0.0000
  o =  0.9484  v =  0.0000  0.0000  0.0000  0.0000  0.0000  0.0000  0.7071  0.0000 -0.7071  0.0000      0.0000  0.0000  0.0000  0.0000  0.0000  0.0000  0.0000  0.0000  0.0000  0.0000
  o =  0.9485  v =  0.0000  0.0000  0.0000  0.0000  0.0000  0.0000 -0.0000 -0.0000  0.0000  1.0000      0.0000  0.0000  0.0000  0.0000  0.0000  0.0000  0.0000  0.0000  0.0000  0.0000
  o =  0.9856  v =  0.0000  0.0000  0.0000  0.0000  0.0000  0.0000 -0.7071  0.0000 -0.7071 -0.0000      0.0000  0.0000  0.0000  0.0000  0.0000  0.0000  0.0000  0.0000  0.0000  0.0000
  o =  0.9905  v =  0.0000  0.0000  0.0000  0.0000  0.0000 -0.7990  0.0000 -0.6013  0.0000 -0.0000      0.0000  0.0000  0.0000  0.0000  0.0000  0.0000  0.0000  0.0000  0.0000  0.0000
atom =   2  type =  1  l = 2
 
 onsite density matrix
 
spin component  1
 
  0.9738  0.0000 -0.0222  0.0000 -0.0000
  0.0000  0.9670  0.0000 -0.0186  0.0000
 -0.0222  0.0000  0.9610  0.0000 -0.0000
  0.0000 -0.0186  0.0000  0.9670  0.0000
 -0.0000  0.0000 -0.0000  0.0000  0.9485
 
spin component  2
 
  0.0514  0.0000 -0.0293  0.0000 -0.0000
  0.0000  0.0404  0.0000 -0.0231  0.0000
 -0.0293  0.0000  0.0352  0.0000  0.0000
  0.0000 -0.0231  0.0000  0.0404  0.0000
 -0.0000  0.0000  0.0000  0.0000  0.0147
 
 occupancies and eigenvectors
 
  o =  0.0130  v =  0.0000  0.0000  0.0000  0.0000  0.0000 -0.6055  0.0000 -0.7959  0.0000  0.0000      0.0000  0.0000  0.0000  0.0000  0.0000  0.0000  0.0000  0.0000  0.0000  0.0000
  o =  0.0147  v =  0.0000  0.0000  0.0000  0.0000  0.0000 -0.0000 -0.0000 -0.0000  0.0000 -1.0000      0.0000  0.0000  0.0000  0.0000  0.0000  0.0000  0.0000  0.0000  0.0000  0.0000
  o =  0.0173  v =  0.0000  0.0000  0.0000  0.0000  0.0000  0.0000 -0.7071  0.0000 -0.7071  0.0000      0.0000  0.0000  0.0000  0.0000  0.0000  0.0000  0.0000  0.0000  0.0000  0.0000
  o =  0.0635  v =  0.0000  0.0000  0.0000  0.0000  0.0000  0.0000 -0.7071  0.0000  0.7071  0.0000      0.0000  0.0000  0.0000  0.0000  0.0000  0.0000  0.0000  0.0000  0.0000  0.0000
[...]
      4     -40.8244      1.00000
      5     -40.7908      1.00000
      6     -40.7547      1.00000
      7     -20.4861      1.00000
      8     -20.3299      1.00000
      9     -20.2645      1.00000
     10     -20.1611      1.00000
     11      -3.9776      1.00000
     12      -3.6267      1.00000
     13      -3.2613      1.00000
     14      -3.1456      1.00000
     15      -3.0954      1.00000
     16      -2.7749      1.00000
     17      -2.2695      1.00000
     18      -2.1332      1.00000
     19      -2.0139      1.00000
     20      -1.5176      1.00000
     21      -1.3922      1.00000
     22      -1.3529      1.00000
     23       0.3858      1.00000
     24       0.6400      1.00000
     25       0.9765      1.00000
     26       1.5356      1.00000
     27       1.9766      1.00000
     28       8.0122      0.00000
     29       8.0247      0.00000
     30       8.0815      0.00000
     31       8.8992      0.00000
     32       9.1561      0.00000
     33       9.6793      0.00000
     34      11.9043      0.00000
     35      13.3003      0.00000
     36      13.5927      0.00000

 k-point     8 :       0.3750    0.1250    0.4167
  band No.  band energies     occupation 
      1     -45.7820      1.00000
      2     -45.7414      1.00000
      3     -45.7133      1.00000
      4     -40.8246      1.00000
      5     -40.7908      1.00000
      6     -40.7549      1.00000
      7     -20.4124      1.00000
      8     -20.3385      1.00000
      9     -20.2922      1.00000
     10     -20.2006      1.00000
     11      -3.8360      1.00000
     12      -3.6986      1.00000
     13      -3.6094      1.00000
     14      -3.2896      1.00000
     15      -3.0328      1.00000
     16      -2.6003      1.00000
     17      -2.4094      1.00000
     18      -2.2394      1.00000
     19      -1.8316      1.00000
     20      -1.4743      1.00000
     21      -1.2679      1.00000
     22      -1.1455      1.00000
     23       0.3963      1.00000
     24       0.5652      1.00000
     25       0.8625      1.00000
     26       1.4815      1.00000
     27       2.1953      1.00000
     28       8.0077      0.00000
     29       8.0136      0.00000
     30       8.2224      0.00000
     31       8.8112      0.00000
     32       9.4109      0.00000
     33      10.2389      0.00000
     34      11.6556      0.00000
     35      12.2799      0.00000
     36      13.4553      0.00000

 k-point     9 :       0.3750    0.3750    0.4167
  band No.  band energies     occupation 
      1     -45.7820      1.00000
      2     -45.7415      1.00000
      3     -45.7133      1.00000
      4     -40.8246      1.00000
      5     -40.7909      1.00000
      6     -40.7550      1.00000
      7     -20.3862      1.00000
      8     -20.3752      1.00000
      9     -20.2893      1.00000
     10     -20.1872      1.00000
     11      -4.1291      1.00000
     12      -3.8453      1.00000
     13      -3.5875      1.00000
     14      -3.5440      1.00000
     15      -3.0811      1.00000
     16      -2.5676      1.00000
     17      -2.2718      1.00000
     18      -1.9874      1.00000
     19      -1.6099      1.00000
     20      -1.2900      1.00000
     21      -1.1785      1.00000
     22      -1.0734      1.00000
     23       0.3972      1.00000
     24       0.5612      1.00000
     25       0.8195      1.00000
     26       1.5326      1.00000
     27       2.1403      1.00000
     28       8.0151      0.00000
     29       8.0338      0.00000
     30       8.2570      0.00000
     31       8.7848      0.00000
     32       9.2807      0.00000
     33      10.7595      0.00000
     34      12.2226      0.00000
     35      12.3018      0.00000
     36      12.4511      0.00000


--------------------------------------------------------------------------------------------------------


 soft charge-density along one line, spin component           1
         0         1         2         3         4         5         6         7         8         9
 total charge-density along one line
 
 soft charge-density along one line, spin component           2
         0         1         2         3         4         5         6         7         8         9
 total charge-density along one line
 
 pseudopotential strength for first ion, spin component:           1
-41.833  -0.000  -0.040   7.568   0.000   0.017   0.000  -0.000
 -0.000 -41.806  -0.000   0.000   7.556   0.000   0.000  -0.000
 -0.040  -0.000 -41.833   0.017   0.000   7.568   0.000   0.000
  7.568   0.000   0.017   5.338  -0.000  -0.003  -0.000   0.000
  0.000   7.556   0.000  -0.000   5.340  -0.000  -0.000   0.000
  0.017   0.000   7.568  -0.003  -0.000   5.338  -0.000  -0.000
  0.000   0.000   0.000  -0.000  -0.000  -0.000  -0.940  -0.000
 -0.000  -0.000   0.000   0.000   0.000  -0.000  -0.000  -0.886
 -0.000  -0.000  -0.000   0.000   0.000   0.000  -0.077   0.000
  0.000   0.000  -0.000  -0.000  -0.000   0.000  -0.000  -0.094
 -0.000   0.000   0.000  -0.000  -0.000  -0.000   0.000   0.000
  0.000   0.000   0.000  -0.000  -0.000  -0.000  -1.392  -0.000
 -0.000  -0.000   0.000   0.000   0.000  -0.000  -0.000  -1.336
 -0.000  -0.000  -0.000   0.000   0.000   0.000  -0.081   0.000
  0.000   0.000  -0.000  -0.000  -0.000   0.000  -0.000  -0.096
 -0.000   0.000   0.000  -0.000  -0.000  -0.000   0.000   0.000
  0.000   0.000  -0.000   0.000   0.000  -0.000   0.010   0.000
  0.000   0.000  -0.000   0.000   0.000  -0.000   0.019   0.000
 pseudopotential strength for first ion, spin component:           2
-45.162  -0.000  -0.028   9.096   0.000   0.010   0.000  -0.000
 -0.000 -45.144  -0.000   0.000   9.090   0.000   0.000  -0.000
 -0.028  -0.000 -45.162   0.010   0.000   9.096   0.000   0.000
  9.096   0.000   0.010   4.828  -0.000  -0.002  -0.000   0.000
  0.000   9.090   0.000  -0.000   4.829  -0.000  -0.000   0.000
  0.010   0.000   9.096  -0.002  -0.000   4.828  -0.000  -0.000
  0.000   0.000   0.000  -0.000  -0.000  -0.000  -7.200  -0.000
 -0.000  -0.000   0.000   0.000   0.000  -0.000  -0.000  -7.167
 -0.000  -0.000  -0.000   0.000   0.000   0.000  -0.056   0.000
  0.000   0.000  -0.000  -0.000  -0.000   0.000  -0.000  -0.078
 -0.000   0.000   0.000  -0.000  -0.000  -0.000  -0.000   0.000
  0.000   0.000   0.000  -0.000  -0.000  -0.000  -7.705  -0.000
 -0.000  -0.000   0.000   0.000   0.000  -0.000  -0.000  -7.671
 -0.000  -0.000  -0.000   0.000   0.000   0.000  -0.058   0.000
  0.000   0.000  -0.000  -0.000  -0.000   0.000  -0.000  -0.079
 -0.000   0.000   0.000  -0.000  -0.000  -0.000  -0.000   0.000
  0.000   0.000  -0.000   0.000   0.000  -0.000   0.004   0.000
  0.000   0.000  -0.000   0.000   0.000  -0.000   0.007   0.000
 total augmentation occupancy for first ion, spin component:           1
  1.999   0.000   0.000  -0.010   0.000   0.000   0.000   0.000   0.000   0.000   0.000   0.000   0.000   0.000   0.000   0.000
  0.000   1.999   0.000   0.000  -0.010   0.000   0.000   0.000   0.000   0.000   0.000   0.000   0.000   0.000   0.000   0.000
  0.000   0.000   1.999   0.000   0.000  -0.010   0.000   0.000   0.000   0.000   0.000   0.000   0.000   0.000   0.000   0.000
 -0.010   0.000   0.000   0.101   0.000  -0.013   0.000   0.000   0.000   0.000   0.000   0.000   0.000   0.000   0.000   0.000
  0.000  -0.010   0.000   0.000   0.111   0.000   0.000   0.000   0.000   0.000   0.000   0.000   0.000   0.000   0.000   0.000
  0.000   0.000  -0.010  -0.013   0.000   0.101   0.000   0.000   0.000   0.000   0.000   0.000   0.000   0.000   0.000   0.000
  0.000   0.000   0.000   0.000   0.000   0.000   8.783   0.000   3.753   0.000  -0.000  -6.858   0.000  -3.559   0.000   0.000
  0.000   0.000   0.000   0.000   0.000   0.000   0.000   7.107   0.000   2.988   0.000   0.000  -5.246   0.000  -2.819   0.000
  0.000   0.000   0.000   0.000   0.000   0.000   3.753   0.000   6.567   0.000   0.000  -3.561   0.000  -4.765   0.000   0.000
  0.000   0.000   0.000   0.000   0.000   0.000   0.000   2.988   0.000   7.107   0.000   0.000  -2.819   0.000  -5.246   0.000
  0.000   0.000   0.000   0.000   0.000   0.000   0.000   0.000   0.000   0.000   3.972  -0.000   0.000   0.000   0.000  -2.263
  0.000   0.000   0.000   0.000   0.000   0.000  -6.858   0.000  -3.561   0.000  -0.000   6.107   0.000   3.413   0.000  -0.000
  0.000   0.000   0.000   0.000   0.000   0.000   0.000  -5.246   0.000  -2.819   0.000   0.000   4.546   0.000   2.686   0.000
  0.000   0.000   0.000   0.000   0.000   0.000  -3.559   0.000  -4.765   0.000   0.000   3.413   0.000   4.111   0.000  -0.000
  0.000   0.000   0.000   0.000   0.000   0.000   0.000  -2.819   0.000  -5.246   0.000   0.000   2.686   0.000   4.546   0.000
  0.000   0.000   0.000   0.000   0.000   0.000  -0.000   0.000   0.000   0.000  -2.263  -0.000   0.000  -0.000   0.000   1.676
  0.000   0.000   0.000   0.000   0.000   0.000   0.353   0.000  -0.196   0.000  -0.000  -0.397   0.000   0.209   0.000   0.000
  0.000   0.000   0.000   0.000   0.000   0.000  -0.006   0.000   0.021   0.000   0.000   0.043   0.000  -0.035   0.000   0.000
 total augmentation occupancy for first ion, spin component:           2
  0.003   0.000  -0.000   0.011   0.000  -0.001   0.000   0.000   0.000   0.000   0.000   0.000   0.000   0.000   0.000   0.000
  0.000   0.003   0.000   0.000   0.012   0.000   0.000   0.000   0.000   0.000   0.000   0.000   0.000   0.000   0.000   0.000
 -0.000   0.000   0.003  -0.001   0.000   0.011   0.000   0.000   0.000   0.000   0.000   0.000   0.000   0.000   0.000   0.000
  0.011   0.000  -0.001  -0.012   0.000  -0.000   0.000   0.000   0.000   0.000   0.000   0.000   0.000   0.000   0.000   0.000
  0.000   0.012   0.000   0.000  -0.011   0.000   0.000   0.000   0.000   0.000   0.000   0.000   0.000   0.000   0.000   0.000
 -0.001   0.000   0.011  -0.000   0.000  -0.012   0.000   0.000   0.000   0.000   0.000   0.000   0.000   0.000   0.000   0.000
  0.000   0.000   0.000   0.000   0.000   0.000  -5.812   0.000  -2.049   0.000  -0.000   3.466   0.000   1.621   0.000   0.000
  0.000   0.000   0.000   0.000   0.000   0.000   0.000  -4.927   0.000  -1.664   0.000   0.000   2.741   0.000   1.313   0.000
  0.000   0.000   0.000   0.000   0.000   0.000  -2.049   0.000  -4.539   0.000   0.000   1.621   0.000   2.448   0.000  -0.000
  0.000   0.000   0.000   0.000   0.000   0.000   0.000  -1.664   0.000  -4.927   0.000   0.000   1.313   0.000   2.741   0.000
  0.000   0.000   0.000   0.000   0.000   0.000   0.000   0.000   0.000   0.000  -3.253   0.000   0.000   0.000   0.000   1.419
  0.000   0.000   0.000   0.000   0.000   0.000   3.466   0.000   1.621   0.000   0.000  -2.225   0.000  -1.201   0.000  -0.000
  0.000   0.000   0.000   0.000   0.000   0.000   0.000   2.741   0.000   1.313   0.000   0.000  -1.660   0.000  -0.970   0.000
  0.000   0.000   0.000   0.000   0.000   0.000   1.621   0.000   2.448   0.000   0.000  -1.201   0.000  -1.456   0.000  -0.000
  0.000   0.000   0.000   0.000   0.000   0.000   0.000   1.313   0.000   2.741   0.000   0.000  -0.970   0.000  -1.660   0.000
  0.000   0.000   0.000   0.000   0.000   0.000  -0.000   0.000   0.000   0.000   1.419   0.000   0.000  -0.000   0.000  -0.685
  0.000   0.000   0.000   0.000   0.000   0.000   0.022   0.000   0.004   0.000  -0.000  -0.029   0.000   0.008   0.000  -0.000
  0.000   0.000   0.000   0.000   0.000   0.000  -0.072   0.000   0.016   0.000   0.000   0.045   0.000  -0.007   0.000  -0.000


------------------------ aborting loop because EDIFF is reached ----------------------------------------


 


 total charge     
 
# of ion       s       p       d       tot
------------------------------------------
    1        0.180   6.182   4.990  11.352
    2        0.185   6.176   4.997  11.358
    3        1.765   4.400   0.000   6.165
    4        1.765   4.400   0.000   6.165
    5        1.765   4.396   0.000   6.161
    6        1.765   4.396   0.000   6.161
--------------------------------------------------
tot          7.425  29.949   9.987  47.361
 


 magnetization (x)
 
# of ion       s       p       d       tot
------------------------------------------
    1       -0.018  -0.021  -4.613  -4.651
    2        0.018   0.019   4.610   4.647
    3        0.002   0.018   0.000   0.020
    4        0.002   0.018   0.000   0.020
    5       -0.003  -0.014   0.000  -0.017
    6       -0.003  -0.014   0.000  -0.017
--------------------------------------------------
tot         -0.001   0.006  -0.003   0.002
 
    CHARGE:  cpu time    0.0165: real time    0.0165
    FORLOC:  cpu time    0.0004: real time    0.0004
    FORNL :  cpu time    0.0804: real time    0.0804
    STRESS:  cpu time    0.2236: real time    0.2236
    FORCOR:  cpu time    0.0079: real time    0.0079
    FORHAR:  cpu time    0.0011: real time    0.0011
    MIXING:  cpu time    0.0004: real time    0.0004
    OFIELD:  cpu time    0.0000: real time    0.0000

  FORCE on cell =-STRESS in cart. coord.  units (eV):
  Direction    XX          YY          ZZ          XY          YZ          ZX
  --------------------------------------------------------------------------------------
  Alpha Z   212.51873   212.51873   212.51873
  Ewald   -1616.31360 -1616.31360 -1065.35811    -0.00000    -0.00000    -0.00000
  Hartree   572.79737   572.79737   941.55254    -0.00000    -0.00000    -0.00000
  E(xc)    -314.85031  -314.85031  -314.63607    -0.00000    -0.00000    -0.00000
  Local     195.31074   195.31074  -717.42091     0.00000     0.00000     0.00000
  n-local  -243.38705  -243.75410  -242.63705     0.03582     0.09039     0.09817
  augment   265.19334   265.19334   264.67621    -0.00000     0.00001     0.00001
  Kinetic   928.50335   929.29810   921.29135    -0.52242    -0.96825    -1.02187
  Fock        0.00000     0.00000     0.00000     0.00000     0.00000     0.00000
  -------------------------------------------------------------------------------------
  Total      -0.01359    -0.01359    -0.01330    -0.00000     0.00000     0.00000
  in kB      -0.29968    -0.29968    -0.29345    -0.00000     0.00000     0.00000
  external pressure =       -0.30 kB  Pullay stress =        0.00 kB


 VOLUME and BASIS-vectors are now :
 -----------------------------------------------------------------------------
  energy-cutoff  :      400.00
  volume of cell :       72.64
      direct lattice vectors                 reciprocal lattice vectors
     4.730377597  0.000000000  0.000000000     0.211399614  0.000000000  0.000000000
    -0.000000000  4.730377597  0.000000000    -0.000000000  0.211399614  0.000000000
     0.000000000  0.000000000  3.246293351     0.000000000  0.000000000  0.308043634

  length of vectors
     4.730377597  4.730377597  3.246293351     0.211399614  0.211399614  0.308043634


 FORCES acting on ions
    electron-ion (+dipol)            ewald-force                    non-local-force                 convergence-correction
 -----------------------------------------------------------------------------------------------
   0.366E-11 -.120E-11 -.291E-11   -.853E-13 -.853E-13 0.299E-13   0.161E-29 0.000E+00 0.000E+00   0.398E-13 -.182E-12 -.239E-12
   -.428E-13 -.165E-13 0.136E-12   -.853E-13 -.853E-13 0.293E-13   -.483E-29 0.000E+00 0.000E+00   -.157E-13 0.922E-13 0.207E-12
   -.302E+02 0.302E+02 -.284E-11   0.311E+02 -.311E+02 -.878E-14   -.835E+00 0.835E+00 0.000E+00   -.962E-03 0.962E-03 0.106E-12
   0.302E+02 -.302E+02 0.426E-11   -.311E+02 0.311E+02 -.892E-14   0.835E+00 -.835E+00 0.000E+00   0.962E-03 -.962E-03 -.359E-12
   0.302E+02 0.302E+02 0.436E-06   -.311E+02 -.311E+02 -.130E-13   0.835E+00 0.835E+00 0.000E+00   0.962E-03 0.962E-03 -.764E-11
   -.302E+02 -.302E+02 -.436E-06   0.311E+02 0.311E+02 -.131E-13   -.835E+00 -.835E+00 0.000E+00   -.962E-03 -.962E-03 0.824E-11
 -----------------------------------------------------------------------------------------------
   0.505E-11 -.727E-11 -.902E-11   -.355E-14 0.000E+00 0.155E-13   -.111E-15 0.000E+00 0.000E+00   0.438E-13 -.115E-12 0.315E-12
 
 
 POSITION                                       TOTAL-FORCE (eV/Angst)
 -----------------------------------------------------------------------------------
      2.36519      2.36519      1.62315         0.000000      0.000000      0.000000
     -0.00000      0.00000     -0.00000         0.000000      0.000000      0.000000
      0.92710      3.80328      1.62315        -0.000237      0.000237      0.000000
      3.80328      0.92710      1.62315         0.000237     -0.000237      0.000000
      1.43809      1.43809      0.00000         0.000237      0.000237      0.000000
      3.29229      3.29229     -0.00000        -0.000237     -0.000237      0.000000
 -----------------------------------------------------------------------------------
    total drift:                                0.000000     -0.000000     -0.000000


--------------------------------------------------------------------------------------------------------



  FREE ENERGIE OF THE ION-ELECTRON SYSTEM (eV)
  ---------------------------------------------------
  free  energy   TOTEN  =       -39.13963013 eV

  energy  without entropy=      -39.13963013  energy(sigma->0) =      -39.13963013
 
 d Force = 0.2982288E-04[ 0.167E-05, 0.580E-04]  d Energy = 0.3218472E-04-0.236E-05
 d Force =-0.2180673E+00[-0.219E+00,-0.217E+00]  d Ewald  =-0.1337346E+00-0.843E-01


--------------------------------------------------------------------------------------------------------


    POTLOK:  cpu time    0.6415: real time    0.6415


--------------------------------------------------------------------------------------------------------




--------------------------------------------------------------------------------------------------------


  
 reached required accuracy - stopping structural energy minimisation
     LOOP+:  cpu time    5.9898: real time    5.9899
    4ORBIT:  cpu time    0.0000: real time    0.0000
 


 total charge     
 
# of ion       s       p       d       tot
------------------------------------------
    1        0.180   6.182   4.990  11.352
    2        0.185   6.176   4.997  11.358
    3        1.765   4.400   0.000   6.165
    4        1.765   4.400   0.000   6.165
    5        1.765   4.396   0.000   6.161
    6        1.765   4.396   0.000   6.161
--------------------------------------------------
tot          7.425  29.949   9.987  47.361
 


 magnetization (x)
 
# of ion       s       p       d       tot
------------------------------------------
    1       -0.018  -0.021  -4.613  -4.651
    2        0.018   0.019   4.610   4.647
    3        0.002   0.018   0.000   0.020
    4        0.002   0.018   0.000   0.020
    5       -0.003  -0.014   0.000  -0.017
    6       -0.003  -0.014   0.000  -0.017
--------------------------------------------------
tot         -0.001   0.006  -0.003   0.002
 
 BZINTS: Fermi energy:  2.395886; 54.000000 electrons
         Band energy:-730.062122;  BLOECHL correction:  0.000000

 total amount of memory used by VASP MPI-rank0    37300. kBytes
=======================================================================

   base      :      30000. kBytes
   nonl-proj :       3644. kBytes
   fftplans  :        966. kBytes
   grid      :       1271. kBytes
   one-center:        186. kBytes
   wavefun   :       1233. kBytes
 
  
  
 General timing and accounting informations for this job:
 ========================================================
  
                  Total CPU time used (sec):       53.354
                            User time (sec):       34.492
                          System time (sec):       18.862
                         Elapsed time (sec):       53.420
  
                   Maximum memory used (kb):       51624.
                   Average memory used (kb):           0.
  
                          Minor page faults:         8345
                          Major page faults:            6
                 Voluntary context switches:          295
