       N       E                     dE             d eps       ncg     rms          rms(c)
DAV:   1     0.102265666353E+04    0.10227E+04   -0.42592E+04  1308   0.235E+03
DAV:   2     0.415782274465E+03   -0.60687E+03   -0.58167E+03  1536   0.566E+02
DAV:   3     0.378608328009E+03   -0.37174E+02   -0.36872E+02  1452   0.147E+02
DAV:   4     0.378107451821E+03   -0.50088E+00   -0.50035E+00  1536   0.186E+01
DAV:   5     0.378098510047E+03   -0.89418E-02   -0.89416E-02  1452   0.235E+00    0.593E+01
DAV:   6    -0.685191729750E+02   -0.44662E+03   -0.30732E+02  1572   0.215E+02    0.635E+01
DAV:   7    -0.712492353306E+02   -0.27301E+01   -0.51038E+01  1380   0.451E+01    0.170E+01
DAV:   8    -0.686201236743E+02    0.26291E+01   -0.73181E+00  1524   0.224E+01    0.619E+00
DAV:   9    -0.681517058532E+02    0.46842E+00   -0.39019E+00  1440   0.172E+01    0.787E+00
DAV:  10    -0.681044266243E+02    0.47279E-01   -0.34528E-01  1440   0.480E+00    0.545E+00
DAV:  11    -0.680655439969E+02    0.38883E-01   -0.56878E-01  1500   0.629E+00    0.144E+00
DAV:  12    -0.680486639470E+02    0.16880E-01   -0.41850E-02  1428   0.200E+00    0.944E-01
DAV:  13    -0.680432118809E+02    0.54521E-02   -0.37763E-02  1560   0.117E+00    0.872E-01
DAV:  14    -0.680385863327E+02    0.46255E-02   -0.37218E-02  1296   0.217E+00    0.291E-01
DAV:  15    -0.680395374781E+02   -0.95115E-03   -0.32227E-03  1392   0.412E-01    0.318E-01
DAV:  16    -0.680392503523E+02    0.28713E-03   -0.33545E-03  1428   0.382E-01    0.106E-01
DAV:  17    -0.680392590348E+02   -0.86826E-05   -0.10042E-03  1320   0.298E-01    0.897E-02
DAV:  18    -0.680390019487E+02    0.25709E-03   -0.26137E-04  1428   0.104E-01    0.297E-02
DAV:  19    -0.680389819345E+02    0.20014E-04   -0.73181E-05  1356   0.687E-02    0.657E-03
DAV:  20    -0.680390069778E+02   -0.25043E-04   -0.82291E-06  1584   0.190E-02    0.777E-03
DAV:  21    -0.680390136284E+02   -0.66507E-05   -0.66239E-07  1320   0.728E-03    0.473E-03
DAV:  22    -0.680390100249E+02    0.36036E-05   -0.96358E-07  1368   0.615E-03    0.243E-03
DAV:  23    -0.680390112244E+02   -0.11996E-05   -0.14658E-07   780   0.235E-03    0.973E-04
DAV:  24    -0.680390122550E+02   -0.10305E-05   -0.32600E-08   648   0.136E-03    0.446E-04
DAV:  25    -0.680390124275E+02   -0.17253E-06   -0.10390E-08   648   0.758E-04    0.306E-04
DAV:  26    -0.680390124279E+02   -0.39290E-09   -0.10496E-09   648   0.224E-04
   1 F= -.68039012E+02 E0= -.68039012E+02  d E =-.680390E+02  mag=     0.0000
