 vasp.5.4.4.18Apr17-6-g9f103f2a35 (build Apr 27 2017 11:13:10) complex          
  
 executed on           IFC91_ompi date 2020.05.13  11:58:32
 running on   12 total cores
 distrk:  each k-point on   12 cores,    1 groups
 distr:  one band on NCORES_PER_BAND=   1 cores,   12 groups


--------------------------------------------------------------------------------------------------------


 INCAR:
 POTCAR:    PAW_PBE Mn_pv 02Aug2007               
 POTCAR:    PAW_PBE F 08Apr2002                   

 ----------------------------------------------------------------------------- 
|                                                                             |
|           W    W    AA    RRRRR   N    N  II  N    N   GGGG   !!!           |
|           W    W   A  A   R    R  NN   N  II  NN   N  G    G  !!!           |
|           W    W  A    A  R    R  N N  N  II  N N  N  G       !!!           |
|           W WW W  AAAAAA  RRRRR   N  N N  II  N  N N  G  GGG   !            |
|           WW  WW  A    A  R   R   N   NN  II  N   NN  G    G                |
|           W    W  A    A  R    R  N    N  II  N    N   GGGG   !!!           |
|                                                                             |
|      For optimal performance we recommend to set                            |
|        NCORE= 4 - approx SQRT( number of cores)                             |
|      NCORE specifies how many cores store one orbital (NPAR=cpu/NCORE).     |
|      This setting can  greatly improve the performance of VASP for DFT.     |
|      The default,   NCORE=1            might be grossly inefficient         |
|      on modern multi-core architectures or massively parallel machines.     |
|      Do your own testing !!!!                                               |
|      Unfortunately you need to use the default for GW and RPA calculations. |
|      (for HF NCORE is supported but not extensively tested yet)             |
|                                                                             |
 ----------------------------------------------------------------------------- 

 POTCAR:    PAW_PBE Mn_pv 02Aug2007               
   VRHFIN =Mn: 3p4s3d                                                           
   LEXCH  = PE                                                                  
   EATOM  =  2025.2664 eV,  148.8529 Ry                                         
                                                                                
   TITEL  = PAW_PBE Mn_pv 02Aug2007                                             
   LULTRA =        F    use ultrasoft PP ?                                      
   IUNSCR =        1    unscreen: 0-lin 1-nonlin 2-no                           
   RPACOR =    2.080    partial core radius                                     
   POMASS =   54.938; ZVAL   =   13.000    mass and valenz                      
   RCORE  =    2.300    outmost cutoff radius                                   
   RWIGS  =    2.500; RWIGS  =    1.323    wigner-seitz radius (au A)           
   ENMAX  =  269.864; ENMIN  =  202.398 eV                                      
   ICORE  =        3    local potential                                         
   LCOR   =        T    correct aug charges                                     
   LPAW   =        T    paw PP                                                  
   EAUG   =  569.085                                                            
   DEXC   =    0.000                                                            
   RMAX   =    2.343    core radius for proj-oper                               
   RAUG   =    1.300    factor for augmentation sphere                          
   RDEP   =    2.338    radius for radial grids                                 
   RDEPT  =    1.798    core radius for aug-charge                              
                                                                                
   Atomic configuration                                                         
    8 entries                                                                   
     n  l   j            E        occ.                                          
     1  0  0.50     -6424.8287   2.0000                                         
     2  0  0.50      -739.1154   2.0000                                         
     2  1  1.50      -625.3949   6.0000                                         
     3  0  0.50       -81.6100   2.0000                                         
     3  1  1.50       -50.4667   6.0000                                         
     3  2  2.50        -3.3745   6.0000                                         
     4  0  0.50        -4.1331   1.0000                                         
     4  3  2.50        -1.3606   0.0000                                         
   Description                                                                  
     l       E           TYP  RCUT    TYP  RCUT                                 
     1    -50.4666628     23  2.000                                             
     1     -1.3605826     23  2.000                                             
     2     -3.3744729     23  2.300                                             
     2     -4.7350555     23  2.300                                             
     0     -4.1331431     23  2.300                                             
     0      7.6656591     23  2.300                                             
     3      9.5240782     23  2.300                                             
  local pseudopotential read in
  partial core-charges read in
  partial kinetic energy density read in
  atomic valenz-charges read in
  non local Contribution for L=           1  read in
    real space projection operators read in
  non local Contribution for L=           1  read in
    real space projection operators read in
  non local Contribution for L=           2  read in
    real space projection operators read in
  non local Contribution for L=           2  read in
    real space projection operators read in
  non local Contribution for L=           0  read in
    real space projection operators read in
  non local Contribution for L=           0  read in
    real space projection operators read in
    PAW grid and wavefunctions read in
 
   number of l-projection  operators is LMAX  =           6
   number of lm-projection operators is LMMAX =          18
 
 POTCAR:    PAW_PBE F 08Apr2002                   
   VRHFIN =F: s2p5                                                              
   LEXCH  = PE                                                                  
   EATOM  =   659.6475 eV,   48.4827 Ry                                         
                                                                                
   TITEL  = PAW_PBE F 08Apr2002                                                 
   LULTRA =        F    use ultrasoft PP ?                                      
   IUNSCR =        1    unscreen: 0-lin 1-nonlin 2-no                           
   RPACOR =    1.200    partial core radius                                     
   POMASS =   18.998; ZVAL   =    7.000    mass and valenz                      
   RCORE  =    1.520    outmost cutoff radius                                   
   RWIGS  =    1.500; RWIGS  =    0.794    wigner-seitz radius (au A)           
   ENMAX  =  400.000; ENMIN  =  300.000 eV                                      
   ICORE  =        2    local potential                                         
   LCOR   =        T    correct aug charges                                     
   LPAW   =        T    paw PP                                                  
   EAUG   =  613.614                                                            
   RMAX   =    1.555    core radius for proj-oper                               
   RAUG   =    1.300    factor for augmentation sphere                          
   RDEP   =    1.539    radius for radial grids                                 
   RDEPT  =    1.299    core radius for aug-charge                              
                                                                                
   Atomic configuration                                                         
    4 entries                                                                   
     n  l   j            E        occ.                                          
     1  0  0.50      -663.3661   2.0000                                         
     2  0  0.50       -29.8995   2.0000                                         
     2  1  0.50       -11.1114   5.0000                                         
     3  2  1.50       -10.8847   0.0000                                         
   Description                                                                  
     l       E           TYP  RCUT    TYP  RCUT                                 
     0    -29.8995018     23  1.200                                             
     0     -9.5240782     23  1.200                                             
     1    -11.1113914     23  1.520                                             
     1      1.3605826     23  1.520                                             
     2    -10.8846608      7  1.500                                             
  local pseudopotential read in
  partial core-charges read in
  partial kinetic energy density read in
  atomic valenz-charges read in
  non local Contribution for L=           0  read in
    real space projection operators read in
  non local Contribution for L=           0  read in
    real space projection operators read in
  non local Contribution for L=           1  read in
    real space projection operators read in
  non local Contribution for L=           1  read in
    real space projection operators read in
    PAW grid and wavefunctions read in
 
   number of l-projection  operators is LMAX  =           4
   number of lm-projection operators is LMMAX =           8
 
  PAW_PBE Mn_pv 02Aug2007               :
 energy of atom  1       EATOM=-2025.2664
 kinetic energy error for atom=    0.0013 (will be added to EATOM!!)
  PAW_PBE F 08Apr2002                   :
 energy of atom  2       EATOM= -659.6475
 kinetic energy error for atom=    0.0092 (will be added to EATOM!!)
 
 
 POSCAR: Mn  F                                   
  positions in cartesian coordinates
  No initial velocities read in

 METAGGA = SCAN     LMAXTAU =  6    LMIXTAU =  F

 exchange correlation table for  LEXCH =        8
   RHO(1)=    0.500       N(1)  =     2000
   RHO(2)=  100.500       N(2)  =     4000
 


--------------------------------------------------------------------------------------------------------


 ion  position               nearest neighbor table
   1  0.500  0.500  0.500-   3 2.08   4 2.08   5 2.12   6 2.12   5 2.12   6 2.12
   2  0.000  0.000  0.000-   5 2.08   6 2.08   3 2.12   4 2.12   3 2.12   4 2.12
   3  0.196  0.804  0.500-   1 2.08   2 2.12   2 2.12
   4  0.804  0.196  0.500-   1 2.08   2 2.12   2 2.12
   5  0.304  0.304  0.000-   2 2.08   1 2.12   1 2.12
   6  0.696  0.696  0.000-   2 2.08   1 2.12   1 2.12
 
  LATTYP: Found a simple tetragonal cell.
 ALAT       =     4.8506123388
 C/A-ratio  =     0.6775507439
  
  Lattice vectors:
  
 A1 = (   4.8506123388,   0.0000000000,   0.0000000000)
 A2 = (   0.0000000000,   4.8506123388,   0.0000000000)
 A3 = (   0.0000000000,   0.0000000000,   3.2865359983)


Analysis of symmetry for initial positions (statically):
=====================================================================
 Subroutine PRICEL returns:
 Original cell was already a primitive cell.
 

 Routine SETGRP: Setting up the symmetry group for a 
 simple tetragonal supercell.


 Subroutine GETGRP returns: Found 16 space group operations
 (whereof  8 operations were pure point group operations)
 out of a pool of 16 trial point group operations.


The static configuration has the point symmetry D_2h.
 The point group associated with its full space group is D_4h.


Analysis of symmetry for dynamics (positions and initial velocities):
=====================================================================
 Subroutine PRICEL returns:
 Original cell was already a primitive cell.
 

 Routine SETGRP: Setting up the symmetry group for a 
 simple tetragonal supercell.


 Subroutine GETGRP returns: Found 16 space group operations
 (whereof  8 operations were pure point group operations)
 out of a pool of 16 trial point group operations.


The dynamic configuration has the point symmetry D_2h.
 The point group associated with its full space group is D_4h.


Analysis of structural, dynamic, and magnetic symmetry:
=====================================================================
 Subroutine PRICEL returns:
 Original cell was already a primitive cell.
 

 Routine SETGRP: Setting up the symmetry group for a 
 simple tetragonal supercell.


 Subroutine GETGRP returns: Found 16 space group operations
 (whereof  8 operations were pure point group operations)
 out of a pool of 16 trial point group operations.


The magnetic configuration has the point symmetry D_2h.
 The point group associated with its full space group is D_4h.


 Subroutine INISYM returns: Found 16 space group operations
 (whereof  8 operations are pure point group operations),
 and found     1 'primitive' translations

 
 
 KPOINTS: KPOINTS created by Atomic Simulation Env

Automatic generation of k-mesh.
Space group operators:
 irot       det(A)        alpha          n_x          n_y          n_z        tau_x        tau_y        tau_z
    1     1.000000     0.000000     1.000000     0.000000     0.000000     0.000000     0.000000     0.000000
    2    -1.000000     0.000000     1.000000     0.000000     0.000000     0.000000     0.000000     0.000000
    3     1.000000   180.000000     0.000000     0.000000     1.000000     0.000000     0.000000     0.000000
    4    -1.000000   180.000000     0.000000     0.000000     1.000000     0.000000     0.000000     0.000000
    5     1.000000   180.000000     0.707107     0.707107     0.000000     0.000000     0.000000     0.000000
    6    -1.000000   180.000000     0.707107     0.707107     0.000000     0.000000     0.000000     0.000000
    7     1.000000   180.000000     0.707107    -0.707107     0.000000     0.000000     0.000000     0.000000
    8    -1.000000   180.000000     0.707107    -0.707107     0.000000     0.000000     0.000000     0.000000
    9     1.000000    90.000000     0.000000     0.000000    -1.000000     0.500000     0.500000     0.500000
   10    -1.000000    90.000000     0.000000     0.000000    -1.000000     0.500000     0.500000     0.500000
   11     1.000000    90.000000     0.000000     0.000000     1.000000     0.500000     0.500000     0.500000
   12    -1.000000    90.000000     0.000000     0.000000     1.000000     0.500000     0.500000     0.500000
   13     1.000000   180.000000     0.000000     1.000000     0.000000     0.500000     0.500000     0.500000
   14    -1.000000   180.000000     0.000000     1.000000     0.000000     0.500000     0.500000     0.500000
   15     1.000000   180.000000     1.000000     0.000000     0.000000     0.500000     0.500000     0.500000
   16    -1.000000   180.000000     1.000000     0.000000     0.000000     0.500000     0.500000     0.500000
 
 Subroutine IBZKPT returns following result:
 ===========================================
 
 Found      9 irreducible k-points:
 
 Following reciprocal coordinates:
            Coordinates               Weight
  0.125000  0.125000  0.083333      8.000000
  0.375000  0.125000  0.083333     16.000000
  0.375000  0.375000  0.083333      8.000000
  0.125000  0.125000  0.250000      8.000000
  0.375000  0.125000  0.250000     16.000000
  0.375000  0.375000  0.250000      8.000000
  0.125000  0.125000  0.416667      8.000000
  0.375000  0.125000  0.416667     16.000000
  0.375000  0.375000  0.416667      8.000000
 
 Following cartesian coordinates:
            Coordinates               Weight
  0.025770  0.025770  0.025356      8.000000
  0.077310  0.025770  0.025356     16.000000
  0.077310  0.077310  0.025356      8.000000
  0.025770  0.025770  0.076068      8.000000
  0.077310  0.025770  0.076068     16.000000
  0.077310  0.077310  0.076068      8.000000
  0.025770  0.025770  0.126780      8.000000
  0.077310  0.025770  0.126780     16.000000
  0.077310  0.077310  0.126780      8.000000
 
 TETIRR: Found    106 inequivalent tetrahedra from      576


--------------------------------------------------------------------------------------------------------




 Dimension of arrays:
   k-points           NKPTS =      9   k-points in BZ     NKDIM =      9   number of bands    NBANDS=     36
   number of dos      NEDOS =    301   number of ions     NIONS =      6
   non local maximal  LDIM  =      6   non local SUM 2l+1 LMDIM =     18
   total plane-waves  NPLWV =  24576
   max r-space proj   IRMAX =      1   max aug-charges    IRDMAX=  77338
   dimension x,y,z NGX =    32 NGY =   32 NGZ =   24
   dimension x,y,z NGXF=    64 NGYF=   64 NGZF=   48
   support grid    NGXF=   128 NGYF=  128 NGZF=   96
   ions per type =               2   4
   NGX,Y,Z   is equivalent  to a cutoff of  10.97, 10.97, 12.14 a.u.
   NGXF,Y,Z  is equivalent  to a cutoff of  21.93, 21.93, 24.28 a.u.

 SYSTEM =  unknown system                          
 POSCAR =  Mn  F                                   

 Startparameter for this run:
   NWRITE =      2    write-flag & timer
   PREC   = normal    normal or accurate (medium, high low for compatibility)
   ISTART =      0    job   : 0-new  1-cont  2-samecut
   ICHARG =      2    charge: 1-file 2-atom 10-const
   ISPIN  =      2    spin polarized calculation?
   LNONCOLLINEAR =      F non collinear calculations
   LSORBIT =      F    spin-orbit coupling
   INIWAV =      1    electr: 0-lowe 1-rand  2-diag
   LASPH  =      T    aspherical Exc in radial PAW
   METAGGA=      F    non-selfconsistent MetaGGA calc.

 Electronic Relaxation 1
   ENCUT  =  750.0 eV  55.12 Ry    7.42 a.u.  10.83 10.83  7.34*2*pi/ulx,y,z
   ENINI  =  750.0     initial cutoff
   ENAUG  =  613.6 eV  augmentation charge cutoff
   NELM   =     60;   NELMIN=  2; NELMDL= -5     # of ELM steps 
   EDIFF  = 0.1E-06   stopping-criterion for ELM
   LREAL  =      F    real-space projection
   NLSPLINE    = F    spline interpolate recip. space projectors
   LCOMPAT=      F    compatible to vasp.4.4
   GGA_COMPAT  = T    GGA compatible to vasp.4.4-vasp.4.6
   LMAXPAW     = -100 max onsite density
   LMAXMIX     =    4 max onsite mixed and CHGCAR
   VOSKOWN=      0    Vosko Wilk Nusair interpolation
   ROPT   =    0.00000   0.00000
 Ionic relaxation
   EDIFFG = -.5E-02   stopping-criterion for IOM
   NSW    =     50    number of steps for IOM
   NBLOCK =      1;   KBLOCK =     50    inner block; outer block 
   IBRION =      2    ionic relax: 0-MD 1-quasi-New 2-CG
   NFREE  =      1    steps in history (QN), initial steepest desc. (CG)
   ISIF   =      3    stress and relaxation
   IWAVPR =     11    prediction:  0-non 1-charg 2-wave 3-comb
   ISYM   =      2    0-nonsym 1-usesym 2-fastsym
   LCORR  =      T    Harris-Foulkes like correction to forces

   POTIM  = 0.5000    time-step for ionic-motion
   TEIN   =    0.0    initial temperature
   TEBEG  =    0.0;   TEEND  =   0.0 temperature during run
   SMASS  =  -3.00    Nose mass-parameter (am)
   estimated Nose-frequenzy (Omega)   =  0.10E-29 period in steps =****** mass=  -0.538E-27a.u.
   SCALEE = 1.0000    scale energy and forces
   NPACO  =    256;   APACO  = 16.0  distance and # of slots for P.C.
   PSTRESS=    0.0 pullay stress

  Mass of Ions in am
   POMASS =  54.94 19.00
  Ionic Valenz
   ZVAL   =  13.00  7.00
  Atomic Wigner-Seitz radii
   RWIGS  =  -1.00 -1.00
  virtual crystal weights 
   VCA    =   1.00  1.00
   NELECT =      54.0000    total number of electrons
   NUPDOWN=      -1.0000    fix difference up-down

 DOS related values:
   EMIN   =  10.00;   EMAX   =-10.00  energy-range for DOS
   EFERMI =   0.00
   ISMEAR =    -5;   SIGMA  =   0.20  broadening in eV -4-tet -1-fermi 0-gaus

 Electronic relaxation 2 (details)
   IALGO  =     38    algorithm
   LDIAG  =      T    sub-space diagonalisation (order eigenvalues)
   LSUBROT=      F    optimize rotation matrix (better conditioning)
   TURBO    =      0    0=normal 1=particle mesh
   IRESTART =      0    0=no restart 2=restart with 2 vectors
   NREBOOT  =      0    no. of reboots
   NMIN     =      0    reboot dimension
   EREF     =   0.00    reference energy to select bands
   IMIX   =      4    mixing-type and parameters
     AMIX     =   0.40;   BMIX     =  1.00
     AMIX_MAG =   1.60;   BMIX_MAG =  1.00
     AMIN     =   0.10
     WC   =   100.;   INIMIX=   1;  MIXPRE=   1;  MAXMIX= -45

 Intra band minimization:
   WEIMIN = 0.0010     energy-eigenvalue tresh-hold
   EBREAK =  0.69E-09  absolut break condition
   DEPER  =   0.30     relativ break condition  

   TIME   =   0.40     timestep for ELM

  volume/ion in A,a.u.               =      12.89        86.97
  Fermi-wavevector in a.u.,A,eV,Ry     =   1.452431  2.744697 28.702258  2.109556
  Thomas-Fermi vector in A             =   2.569814
 
 Write flags
   LWAVE        =      F    write WAVECAR
   LDOWNSAMPLE  =      F    k-point downsampling of WAVECAR
   LCHARG       =      F    write CHGCAR
   LVTOT        =      F    write LOCPOT, total local potential
   LVHAR        =      F    write LOCPOT, Hartree potential only
   LELF         =      F    write electronic localiz. function (ELF)
   LORBIT       =     11    0 simple, 1 ext, 2 COOP (PROOUT), +10 PAW based schemes


 Dipole corrections
   LMONO  =      F    monopole corrections only (constant potential shift)
   LDIPOL =      F    correct potential (dipole corrections)
   IDIPOL =      0    1-x, 2-y, 3-z, 4-all directions 
   EPSILON=  1.0000000 bulk dielectric constant

 LDA+U is selected, type is set to LDAUTYPE =  2
   angular momentum for each species LDAUL =     2   -1
   U (eV)           for each species LDAUU =   0.0  0.0
   J (eV)           for each species LDAUJ =   0.0  0.0
 Exchange correlation treatment:
   GGA     =    --    GGA type
   LEXCH   =     8    internal setting for exchange type
   VOSKOWN=      0    Vosko Wilk Nusair interpolation
   LHFCALC =     F    Hartree Fock is set to
   LHFONE  =     F    Hartree Fock one center treatment
   AEXX    =    0.0000 exact exchange contribution

 Linear response parameters
   LEPSILON=     F    determine dielectric tensor
   LRPA    =     F    only Hartree local field effects (RPA)
   LNABLA  =     F    use nabla operator in PAW spheres
   LVEL    =     F    velocity operator in full k-point grid
   LINTERFAST=   F  fast interpolation
   KINTER  =     0    interpolate to denser k-point grid
   CSHIFT  =0.1000    complex shift for real part using Kramers Kronig
   OMEGAMAX=  -1.0    maximum frequency
   DEG_THRESHOLD= 0.2000000E-02 threshold for treating states as degnerate
   RTIME   =   -0.100 relaxation time in fs
  (WPLASMAI=    0.000 imaginary part of plasma frequency in eV, 0.658/RTIME)
   DFIELD  = 0.0000000 0.0000000 0.0000000 field for delta impulse in time
 
 Orbital magnetization related:
   ORBITALMAG=     F  switch on orbital magnetization
   LCHIMAG   =     F  perturbation theory with respect to B field
   DQ        =  0.001000  dq finite difference perturbation B field
   LLRAUG    =     F  two centre corrections for induced B field



--------------------------------------------------------------------------------------------------------


 conjugate gradient relaxation of ions
 charge density and potential will be updated during run
 spin polarized calculation
 Variant of blocked Davidson
 Davidson routine will perform the subspace rotation
 perform sub-space diagonalisation
    after iterative eigenvector-optimisation
 modified Broyden-mixing scheme, WC =      100.0
 initial mixing is a Kerker type mixing with AMIX =  0.4000 and BMIX =      1.0000
 Hartree-type preconditioning will be used
 using additional bands            9
 reciprocal scheme for non local part
 use partial core corrections
 calculate Harris-corrections to forces 
   (improved forces if not selfconsistent)
 use gradient corrections 
 use of overlap-Matrix (Vanderbilt PP)
 Fermi weights with tetrahedron method with Bloechl corrections


--------------------------------------------------------------------------------------------------------


  energy-cutoff  :      750.00
  volume of cell :       77.33
      direct lattice vectors                 reciprocal lattice vectors
     4.850612339  0.000000000  0.000000000     0.206159538  0.000000000  0.000000000
     0.000000000  4.850612339  0.000000000     0.000000000  0.206159538  0.000000000
     0.000000000  0.000000000  3.286535998     0.000000000  0.000000000  0.304271732

  length of vectors
     4.850612339  4.850612339  3.286535998     0.206159538  0.206159538  0.304271732


 
 k-points in units of 2pi/SCALE and weight: KPOINTS created by Atomic Simulation Env
   0.02576994  0.02576994  0.02535598       0.083
   0.07730983  0.02576994  0.02535598       0.167
   0.07730983  0.07730983  0.02535598       0.083
   0.02576994  0.02576994  0.07606793       0.083
   0.07730983  0.02576994  0.07606793       0.167
   0.07730983  0.07730983  0.07606793       0.083
   0.02576994  0.02576994  0.12677989       0.083
   0.07730983  0.02576994  0.12677989       0.167
   0.07730983  0.07730983  0.12677989       0.083
 
 k-points in reciprocal lattice and weights: KPOINTS created by Atomic Simulation Env
   0.12500000  0.12500000  0.08333333       0.083
   0.37500000  0.12500000  0.08333333       0.167
   0.37500000  0.37500000  0.08333333       0.083
   0.12500000  0.12500000  0.25000000       0.083
   0.37500000  0.12500000  0.25000000       0.167
   0.37500000  0.37500000  0.25000000       0.083
   0.12500000  0.12500000  0.41666667       0.083
   0.37500000  0.12500000  0.41666667       0.167
   0.37500000  0.37500000  0.41666667       0.083
 
 position of ions in fractional coordinates (direct lattice) 
   0.50000000  0.50000000  0.50000000
   0.00000000  0.00000000  0.00000000
   0.19610548  0.80389452  0.50000000
   0.80389452  0.19610548  0.50000000
   0.30389452  0.30389452  0.00000000
   0.69610548  0.69610548  0.00000000
 
 position of ions in cartesian coordinates  (Angst):
   2.42530617  2.42530617  1.64326800
   0.00000000  0.00000000  0.00000000
   0.95123168  3.89938066  1.64326800
   3.89938066  0.95123168  1.64326800
   1.47407449  1.47407449  0.00000000
   3.37653785  3.37653785  0.00000000
 


--------------------------------------------------------------------------------------------------------


 k-point  1 :   0.1250 0.1250 0.0833  plane waves:    3600
 k-point  2 :   0.3750 0.1250 0.0833  plane waves:    3614
 k-point  3 :   0.3750 0.3750 0.0833  plane waves:    3623
 k-point  4 :   0.1250 0.1250 0.2500  plane waves:    3604
 k-point  5 :   0.3750 0.1250 0.2500  plane waves:    3603
 k-point  6 :   0.3750 0.3750 0.2500  plane waves:    3610
 k-point  7 :   0.1250 0.1250 0.4167  plane waves:    3607
 k-point  8 :   0.3750 0.1250 0.4167  plane waves:    3602
 k-point  9 :   0.3750 0.3750 0.4167  plane waves:    3599

 maximum and minimum number of plane-waves per node :      3623     3599

 maximum number of plane-waves:      3623
 maximum index in each direction: 
   IXMAX=   10   IYMAX=   10   IZMAX=    7
   IXMIN=  -11   IYMIN=  -11   IZMIN=   -7


 serial   3D FFT for wavefunctions
 parallel 3D FFT for charge:
    minimum data exchange during FFTs selected (reduces bandwidth)


 total amount of memory used by VASP MPI-rank0    51147. kBytes
=======================================================================

   base      :      30000. kBytes
   nonl-proj :       9741. kBytes
   fftplans  :       2625. kBytes
   grid      :       5402. kBytes
   one-center:        186. kBytes
   wavefun   :       3193. kBytes
 
     INWAV:  cpu time    0.0000: real time    0.0000
 Broyden mixing: mesh for mixing (old mesh)
   NGX = 21   NGY = 21   NGZ = 15
  (NGX  = 64   NGY  = 64   NGZ  = 48)
  gives a total of   6615 points

 initial charge density was supplied:
 charge density of overlapping atoms calculated
 number of electron      54.0000000 magnetization       0.0000000
 keeping initial charge density in first step


--------------------------------------------------------------------------------------------------------


 Maximum index for augmentation-charges         6977 (set IRDMAX)


--------------------------------------------------------------------------------------------------------


 First call to EWALD:  gamma=   0.416
 Maximum number of real-space cells 2x 2x 3
 Maximum number of reciprocal cells 3x 3x 2

    FEWALD:  cpu time    0.0010: real time    0.0010


--------------------------------------- Iteration      1(   1)  ---------------------------------------


    POTLOK:  cpu time    0.0510: real time    0.0510
    SETDIJ:  cpu time    1.3788: real time    1.3788
atom =   1  type =  1  l = 2
 
 onsite density matrix
 
spin component  1
 
  0.2835  0.0000  0.0000  0.0000  0.0000
  0.0000  0.2835  0.0000  0.0000  0.0000
  0.0000  0.0000  0.2835  0.0000  0.0000
  0.0000  0.0000  0.0000  0.2835  0.0000
  0.0000  0.0000  0.0000  0.0000  0.2835
 
spin component  2
 
  0.7694  0.0000  0.0000  0.0000  0.0000
  0.0000  0.7694  0.0000  0.0000  0.0000
  0.0000  0.0000  0.7694  0.0000  0.0000
  0.0000  0.0000  0.0000  0.7694  0.0000
  0.0000  0.0000  0.0000  0.0000  0.7694
 
 occupancies and eigenvectors
 
  o =  0.2835  v =  1.0000  0.0000  0.0000  0.0000  0.0000  0.0000  0.0000  0.0000  0.0000  0.0000      0.0000  0.0000  0.0000  0.0000  0.0000  0.0000  0.0000  0.0000  0.0000  0.0000
  o =  0.2835  v =  0.0000  1.0000  0.0000  0.0000  0.0000  0.0000  0.0000  0.0000  0.0000  0.0000      0.0000  0.0000  0.0000  0.0000  0.0000  0.0000  0.0000  0.0000  0.0000  0.0000
  o =  0.2835  v =  0.0000  0.0000  1.0000  0.0000  0.0000  0.0000  0.0000  0.0000  0.0000  0.0000      0.0000  0.0000  0.0000  0.0000  0.0000  0.0000  0.0000  0.0000  0.0000  0.0000
  o =  0.2835  v =  0.0000  0.0000  0.0000  1.0000  0.0000  0.0000  0.0000  0.0000  0.0000  0.0000      0.0000  0.0000  0.0000  0.0000  0.0000  0.0000  0.0000  0.0000  0.0000  0.0000
  o =  0.2835  v =  0.0000  0.0000  0.0000  0.0000  1.0000  0.0000  0.0000  0.0000  0.0000  0.0000      0.0000  0.0000  0.0000  0.0000  0.0000  0.0000  0.0000  0.0000  0.0000  0.0000
  o =  0.7694  v =  0.0000  0.0000  0.0000  0.0000  0.0000  1.0000  0.0000  0.0000  0.0000  0.0000      0.0000  0.0000  0.0000  0.0000  0.0000  0.0000  0.0000  0.0000  0.0000  0.0000
  o =  0.7694  v =  0.0000  0.0000  0.0000  0.0000  0.0000  0.0000  1.0000  0.0000  0.0000  0.0000      0.0000  0.0000  0.0000  0.0000  0.0000  0.0000  0.0000  0.0000  0.0000  0.0000
  o =  0.7694  v =  0.0000  0.0000  0.0000  0.0000  0.0000  0.0000  0.0000  1.0000  0.0000  0.0000      0.0000  0.0000  0.0000  0.0000  0.0000  0.0000  0.0000  0.0000  0.0000  0.0000
  o =  0.7694  v =  0.0000  0.0000  0.0000  0.0000  0.0000  0.0000  0.0000  0.0000  1.0000  0.0000      0.0000  0.0000  0.0000  0.0000  0.0000  0.0000  0.0000  0.0000  0.0000  0.0000
  o =  0.7694  v =  0.0000  0.0000  0.0000  0.0000  0.0000  0.0000  0.0000  0.0000  0.0000  1.0000      0.0000  0.0000  0.0000  0.0000  0.0000  0.0000  0.0000  0.0000  0.0000  0.0000
atom =   2  type =  1  l = 2
 
 onsite density matrix
 
spin component  1
 
  0.7694  0.0000  0.0000  0.0000  0.0000
  0.0000  0.7694  0.0000  0.0000  0.0000
  0.0000  0.0000  0.7694  0.0000  0.0000
  0.0000  0.0000  0.0000  0.7694  0.0000
  0.0000  0.0000  0.0000  0.0000  0.7694
 
spin component  2
 
  0.2835  0.0000  0.0000  0.0000  0.0000
  0.0000  0.2835  0.0000  0.0000  0.0000
  0.0000  0.0000  0.2835  0.0000  0.0000
  0.0000  0.0000  0.0000  0.2835  0.0000
  0.0000  0.0000  0.0000  0.0000  0.2835
 
 occupancies and eigenvectors
 
  o =  0.2835  v =  0.0000  0.0000  0.0000  0.0000  0.0000  1.0000  0.0000  0.0000  0.0000  0.0000      0.0000  0.0000  0.0000  0.0000  0.0000  0.0000  0.0000  0.0000  0.0000  0.0000
  o =  0.2835  v =  0.0000  0.0000  0.0000  0.0000  0.0000  0.0000  1.0000  0.0000  0.0000  0.0000      0.0000  0.0000  0.0000  0.0000  0.0000  0.0000  0.0000  0.0000  0.0000  0.0000
  o =  0.2835  v =  0.0000  0.0000  0.0000  0.0000  0.0000  0.0000  0.0000  1.0000  0.0000  0.0000      0.0000  0.0000  0.0000  0.0000  0.0000  0.0000  0.0000  0.0000  0.0000  0.0000
  o =  0.2835  v =  0.0000  0.0000  0.0000  0.0000  0.0000  0.0000  0.0000  0.0000  1.0000  0.0000      0.0000  0.0000  0.0000  0.0000  0.0000  0.0000  0.0000  0.0000  0.0000  0.0000
  o =  0.2835  v =  0.0000  0.0000  0.0000  0.0000  0.0000  0.0000  0.0000  0.0000  0.0000  1.0000      0.0000  0.0000  0.0000  0.0000  0.0000  0.0000  0.0000  0.0000  0.0000  0.0000
  o =  0.7694  v =  1.0000  0.0000  0.0000  0.0000  0.0000  0.0000  0.0000  0.0000  0.0000  0.0000      0.0000  0.0000  0.0000  0.0000  0.0000  0.0000  0.0000  0.0000  0.0000  0.0000
  o =  0.7694  v =  0.0000  1.0000  0.0000  0.0000  0.0000  0.0000  0.0000  0.0000  0.0000  0.0000      0.0000  0.0000  0.0000  0.0000  0.0000  0.0000  0.0000  0.0000  0.0000  0.0000
  o =  0.7694  v =  0.0000  0.0000  1.0000  0.0000  0.0000  0.0000  0.0000  0.0000  0.0000  0.0000      0.0000  0.0000  0.0000  0.0000  0.0000  0.0000  0.0000  0.0000  0.0000  0.0000
  o =  0.7694  v =  0.0000  0.0000  0.0000  1.0000  0.0000  0.0000  0.0000  0.0000  0.0000  0.0000      0.0000  0.0000  0.0000  0.0000  0.0000  0.0000  0.0000  0.0000  0.0000  0.0000
  o =  0.7694  v =  0.0000  0.0000  0.0000  0.0000  1.0000  0.0000  0.0000  0.0000  0.0000  0.0000      0.0000  0.0000  0.0000  0.0000  0.0000  0.0000  0.0000  0.0000  0.0000  0.0000
     EDDAV:  cpu time    0.9399: real time    0.9585
 BZINTS: Fermi energy: 27.051308; 54.000000 electrons
         Band energy: 433.959703;  BLOECHL correction: -0.102296
       DOS:  cpu time    0.0064: real time    0.0064
    --------------------------------------------
      LOOP:  cpu time    2.3761: real time    2.3947

 eigenvalue-minimisations  :  1308
 total energy-change (2. order) : 0.1022657E+04  (-0.4259151E+04)
 number of electron      54.0000000 magnetization       0.0000000
 augmentation part       54.0000000 magnetization       0.0000000

 Free energy of the ion-electron system (eV)
  ---------------------------------------------------
  alpha Z        PSCENC =       199.63885461
  Ewald energy   TEWEN  =     -4204.81824948
  -Hartree energ DENC   =     -2129.55141366
  -exchange      EXHF   =         0.00000000
  -V(xc)+E(xc)   XCENC  =        -3.96114473
  PAW double counting   =      5566.43601843    -5528.13058630
  entropy T*S    EENTRO =         0.00000000
  eigenvalues    EBANDS =       433.95970318
  atomic energy  EATOM  =      6689.08348147
  Solvation  Ediel_sol  =         0.00000000
  ---------------------------------------------------
  free energy    TOTEN  =      1022.65666353 eV

  energy without entropy =     1022.65666353  energy(sigma->0) =     1022.65666353


--------------------------------------------------------------------------------------------------------




--------------------------------------- Iteration      1(   2)  ---------------------------------------


     EDDAV:  cpu time    1.0368: real time    1.0368
 BZINTS: Fermi energy: 11.718206; 54.000000 electrons
         Band energy:-172.914686;  BLOECHL correction:  0.000000
       DOS:  cpu time    0.0013: real time    0.0013
    --------------------------------------------
      LOOP:  cpu time    1.0381: real time    1.0382

 eigenvalue-minimisations  :  1536
 total energy-change (2. order) :-0.6068744E+03  (-0.5816706E+03)
 number of electron      54.0000000 magnetization       0.0000000
 augmentation part       54.0000000 magnetization       0.0000000

 Free energy of the ion-electron system (eV)
  ---------------------------------------------------
  alpha Z        PSCENC =       199.63885461
  Ewald energy   TEWEN  =     -4204.81824948
  -Hartree energ DENC   =     -2129.55141366
  -exchange      EXHF   =         0.00000000
  -V(xc)+E(xc)   XCENC  =        -3.96114473
  PAW double counting   =      5566.43601843    -5528.13058630
  entropy T*S    EENTRO =         0.00000000
  eigenvalues    EBANDS =      -172.91468588
  atomic energy  EATOM  =      6689.08348147
  Solvation  Ediel_sol  =         0.00000000
  ---------------------------------------------------
  free energy    TOTEN  =       415.78227447 eV

  energy without entropy =      415.78227447  energy(sigma->0) =      415.78227447


--------------------------------------------------------------------------------------------------------




--------------------------------------- Iteration      1(   3)  ---------------------------------------


     EDDAV:  cpu time    0.9976: real time    0.9976
 BZINTS: Fermi energy: 10.186138; 54.000000 electrons
         Band energy:-210.088632;  BLOECHL correction:  0.000000
       DOS:  cpu time    0.0012: real time    0.0012
    --------------------------------------------
      LOOP:  cpu time    0.9987: real time    0.9987

 eigenvalue-minimisations  :  1452
 total energy-change (2. order) :-0.3717395E+02  (-0.3687204E+02)
 number of electron      54.0000000 magnetization       0.0000000
 augmentation part       54.0000000 magnetization       0.0000000

 Free energy of the ion-electron system (eV)
  ---------------------------------------------------
  alpha Z        PSCENC =       199.63885461
  Ewald energy   TEWEN  =     -4204.81824948
  -Hartree energ DENC   =     -2129.55141366
  -exchange      EXHF   =         0.00000000
  -V(xc)+E(xc)   XCENC  =        -3.96114473
  PAW double counting   =      5566.43601843    -5528.13058630
  entropy T*S    EENTRO =         0.00000000
  eigenvalues    EBANDS =      -210.08863234
  atomic energy  EATOM  =      6689.08348147
  Solvation  Ediel_sol  =         0.00000000
  ---------------------------------------------------
  free energy    TOTEN  =       378.60832801 eV

  energy without entropy =      378.60832801  energy(sigma->0) =      378.60832801


--------------------------------------------------------------------------------------------------------




--------------------------------------- Iteration      1(   4)  ---------------------------------------


     EDDAV:  cpu time    1.0339: real time    1.0339
 BZINTS: Fermi energy: 10.206993; 54.000000 electrons
         Band energy:-210.589509;  BLOECHL correction:  0.000000
       DOS:  cpu time    0.0011: real time    0.0011
    --------------------------------------------
      LOOP:  cpu time    1.0350: real time    1.0351

 eigenvalue-minimisations  :  1536
 total energy-change (2. order) :-0.5008762E+00  (-0.5003466E+00)
 number of electron      54.0000000 magnetization       0.0000000
 augmentation part       54.0000000 magnetization       0.0000000

 Free energy of the ion-electron system (eV)
  ---------------------------------------------------
  alpha Z        PSCENC =       199.63885461
  Ewald energy   TEWEN  =     -4204.81824948
  -Hartree energ DENC   =     -2129.55141366
  -exchange      EXHF   =         0.00000000
  -V(xc)+E(xc)   XCENC  =        -3.96114473
  PAW double counting   =      5566.43601843    -5528.13058630
  entropy T*S    EENTRO =         0.00000000
  eigenvalues    EBANDS =      -210.58950852
  atomic energy  EATOM  =      6689.08348147
  Solvation  Ediel_sol  =         0.00000000
  ---------------------------------------------------
  free energy    TOTEN  =       378.10745182 eV

  energy without entropy =      378.10745182  energy(sigma->0) =      378.10745182


--------------------------------------------------------------------------------------------------------




--------------------------------------- Iteration      1(   5)  ---------------------------------------


     EDDAV:  cpu time    0.9968: real time    0.9968
 BZINTS: Fermi energy: 10.156421; 54.000000 electrons
         Band energy:-210.598450;  BLOECHL correction:  0.000000
       DOS:  cpu time    0.0011: real time    0.0011
    CHARGE:  cpu time    0.2048: real time    0.2049
    MIXING:  cpu time    0.0007: real time    0.0007
    --------------------------------------------
      LOOP:  cpu time    1.2035: real time    1.2035

 eigenvalue-minimisations  :  1452
 total energy-change (2. order) :-0.8941774E-02  (-0.8941600E-02)
 number of electron      54.0000001 magnetization      -0.0000000
 augmentation part       22.8161122 magnetization      -0.0000000

 Broyden mixing:
  rms(total) = 0.59274E+01    rms(broyden)= 0.59273E+01
  rms(prec ) = 0.61996E+01
  weight for this iteration     100.00

 Free energy of the ion-electron system (eV)
  ---------------------------------------------------
  alpha Z        PSCENC =       199.63885461
  Ewald energy   TEWEN  =     -4204.81824948
  -Hartree energ DENC   =     -2129.55141366
  -exchange      EXHF   =         0.00000000
  -V(xc)+E(xc)   XCENC  =        -3.96114473
  PAW double counting   =      5566.43601843    -5528.13058630
  entropy T*S    EENTRO =         0.00000000
  eigenvalues    EBANDS =      -210.59845030
  atomic energy  EATOM  =      6689.08348147
  Solvation  Ediel_sol  =         0.00000000
  ---------------------------------------------------
  free energy    TOTEN  =       378.09851005 eV

  energy without entropy =      378.09851005  energy(sigma->0) =      378.09851005


--------------------------------------------------------------------------------------------------------




--------------------------------------- Iteration      1(   6)  ---------------------------------------


    POTLOK:  cpu time    0.0485: real time    0.0485
    SETDIJ:  cpu time    1.4682: real time    1.4682
atom =   1  type =  1  l = 2
 
 onsite density matrix
 
spin component  1
 
  0.0429  0.0000  0.0708  0.0000  0.0000
  0.0000  0.0127  0.0000  0.0661  0.0000
  0.0708  0.0000  0.0008  0.0000  0.0000
  0.0000  0.0661  0.0000  0.0127  0.0000
  0.0000  0.0000  0.0000  0.0000 -0.0723
 
spin component  2
 
  1.0524  0.0000 -0.0349  0.0000 -0.0000
  0.0000  1.0684  0.0000 -0.0330  0.0000
 -0.0349  0.0000  1.0731  0.0000 -0.0000
  0.0000 -0.0330  0.0000  1.0684  0.0000
 -0.0000  0.0000 -0.0000  0.0000  1.1112
 
 occupancies and eigenvectors
 
  o = -0.0723  v =  0.0000 -0.0000 -0.0000  0.0000  1.0000  0.0000  0.0000  0.0000  0.0000  0.0000      0.0000  0.0000  0.0000  0.0000  0.0000  0.0000  0.0000  0.0000  0.0000  0.0000
  o = -0.0534  v =  0.0000  0.7071 -0.0000 -0.7071  0.0000  0.0000  0.0000  0.0000  0.0000  0.0000      0.0000  0.0000  0.0000  0.0000  0.0000  0.0000  0.0000  0.0000  0.0000  0.0000
  o = -0.0520  v = -0.5979 -0.0000  0.8016  0.0000  0.0000  0.0000  0.0000  0.0000  0.0000  0.0000      0.0000  0.0000  0.0000  0.0000  0.0000  0.0000  0.0000  0.0000  0.0000  0.0000
  o =  0.0788  v =  0.0000 -0.7071  0.0000 -0.7071 -0.0000  0.0000  0.0000  0.0000  0.0000  0.0000      0.0000  0.0000  0.0000  0.0000  0.0000  0.0000  0.0000  0.0000  0.0000  0.0000
  o =  0.0957  v =  0.8016 -0.0000  0.5979  0.0000  0.0000  0.0000  0.0000  0.0000  0.0000  0.0000      0.0000  0.0000  0.0000  0.0000  0.0000  0.0000  0.0000  0.0000  0.0000  0.0000
  o =  1.0263  v =  0.0000  0.0000  0.0000  0.0000  0.0000  0.8014 -0.0000  0.5981 -0.0000  0.0000      0.0000  0.0000  0.0000  0.0000  0.0000  0.0000  0.0000  0.0000  0.0000  0.0000
  o =  1.0355  v =  0.0000  0.0000  0.0000  0.0000  0.0000 -0.0000 -0.7071 -0.0000 -0.7071  0.0000      0.0000  0.0000  0.0000  0.0000  0.0000  0.0000  0.0000  0.0000  0.0000  0.0000
  o =  1.0992  v =  0.0000  0.0000  0.0000  0.0000  0.0000 -0.5981 -0.0000  0.8014  0.0000  0.0000      0.0000  0.0000  0.0000  0.0000  0.0000  0.0000  0.0000  0.0000  0.0000  0.0000
  o =  1.1014  v =  0.0000  0.0000  0.0000  0.0000  0.0000  0.0000 -0.7071 -0.0000  0.7071  0.0000      0.0000  0.0000  0.0000  0.0000  0.0000  0.0000  0.0000  0.0000  0.0000  0.0000
  o =  1.1112  v =  0.0000  0.0000  0.0000  0.0000  0.0000  0.0000  0.0000 -0.0000 -0.0000  1.0000      0.0000  0.0000  0.0000  0.0000  0.0000  0.0000  0.0000  0.0000  0.0000  0.0000
atom =   2  type =  1  l = 2
 
 onsite density matrix
 
spin component  1
 
  1.0524  0.0000  0.0349  0.0000 -0.0000
  0.0000  1.0684  0.0000  0.0330  0.0000
  0.0349  0.0000  1.0731  0.0000 -0.0000
  0.0000  0.0330  0.0000  1.0684  0.0000
 -0.0000  0.0000 -0.0000  0.0000  1.1112
 
spin component  2
 
  0.0429  0.0000 -0.0708  0.0000  0.0000
  0.0000  0.0127  0.0000 -0.0661  0.0000
 -0.0708  0.0000  0.0008  0.0000  0.0000
  0.0000 -0.0661  0.0000  0.0127  0.0000
  0.0000  0.0000  0.0000  0.0000 -0.0723
 
 occupancies and eigenvectors
 
  o = -0.0723  v =  0.0000  0.0000  0.0000  0.0000  0.0000  0.0000  0.0000  0.0000  0.0000 -1.0000      0.0000  0.0000  0.0000  0.0000  0.0000  0.0000  0.0000  0.0000  0.0000  0.0000
  o = -0.0534  v =  0.0000  0.0000  0.0000  0.0000  0.0000  0.0000  0.7071  0.0000  0.7071  0.0000      0.0000  0.0000  0.0000  0.0000  0.0000  0.0000  0.0000  0.0000  0.0000  0.0000
  o = -0.0520  v =  0.0000  0.0000  0.0000  0.0000  0.0000 -0.5979  0.0000 -0.8016  0.0000 -0.0000      0.0000  0.0000  0.0000  0.0000  0.0000  0.0000  0.0000  0.0000  0.0000  0.0000
  o =  0.0788  v =  0.0000  0.0000  0.0000  0.0000  0.0000  0.0000  0.7071  0.0000 -0.7071  0.0000      0.0000  0.0000  0.0000  0.0000  0.0000  0.0000  0.0000  0.0000  0.0000  0.0000
  o =  0.0957  v =  0.0000  0.0000  0.0000  0.0000  0.0000  0.8016  0.0000 -0.5979  0.0000 -0.0000      0.0000  0.0000  0.0000  0.0000  0.0000  0.0000  0.0000  0.0000  0.0000  0.0000
  o =  1.0263  v =  0.8014 -0.0000 -0.5981  0.0000 -0.0000  0.0000  0.0000  0.0000  0.0000  0.0000      0.0000  0.0000  0.0000  0.0000  0.0000  0.0000  0.0000  0.0000  0.0000  0.0000
  o =  1.0355  v =  0.0000 -0.7071  0.0000  0.7071  0.0000  0.0000  0.0000  0.0000  0.0000  0.0000      0.0000  0.0000  0.0000  0.0000  0.0000  0.0000  0.0000  0.0000  0.0000  0.0000
  o =  1.0992  v =  0.5981  0.0000  0.8014  0.0000  0.0000  0.0000  0.0000  0.0000  0.0000  0.0000      0.0000  0.0000  0.0000  0.0000  0.0000  0.0000  0.0000  0.0000  0.0000  0.0000
  o =  1.1014  v =  0.0000 -0.7071  0.0000 -0.7071  0.0000  0.0000  0.0000  0.0000  0.0000  0.0000      0.0000  0.0000  0.0000  0.0000  0.0000  0.0000  0.0000  0.0000  0.0000  0.0000
  o =  1.1112  v =  0.0000 -0.0000  0.0000  0.0000 -1.0000  0.0000  0.0000  0.0000  0.0000  0.0000      0.0000  0.0000  0.0000  0.0000  0.0000  0.0000  0.0000  0.0000  0.0000  0.0000
     EDDAV:  cpu time    1.0534: real time    1.0534
 BZINTS: Fermi energy:  7.198535; 53.989646 electrons
         Band energy:-720.350068;  BLOECHL correction: -0.010619
       DOS:  cpu time    0.0089: real time    0.0089
    CHARGE:  cpu time    0.2056: real time    0.2056
    MIXING:  cpu time    0.0008: real time    0.0008
    --------------------------------------------
      LOOP:  cpu time    2.7854: real time    2.7854

 eigenvalue-minimisations  :  1572
 total energy-change (2. order) :-0.4466177E+03  (-0.3073153E+02)
 number of electron      53.9896465 magnetization      -0.0000000
 augmentation part       19.6148687 magnetization      -0.0000000

 Broyden mixing:
  rms(total) = 0.63457E+01    rms(broyden)= 0.63457E+01
  rms(prec ) = 0.68178E+01
  weight for this iteration     100.00

 eigenvalues of (default mixing * dielectric matrix)
  average eigenvalue GAMMA=   0.4165
  0.4165

 Free energy of the ion-electron system (eV)
  ---------------------------------------------------
  alpha Z        PSCENC =       199.63885461
  Ewald energy   TEWEN  =     -4204.81824948
  -Hartree energ DENC   =     -2210.68775977
  -exchange      EXHF   =         0.00000000
  -V(xc)+E(xc)   XCENC  =       144.95678439
  PAW double counting   =      6446.59311506    -6412.93533112
  entropy T*S    EENTRO =         0.00000000
  eigenvalues    EBANDS =      -720.35006814
  atomic energy  EATOM  =      6689.08348147
  Solvation  Ediel_sol  =         0.00000000
  ---------------------------------------------------
  free energy    TOTEN  =       -68.51917297 eV

  energy without entropy =      -68.51917297  energy(sigma->0) =      -68.51917297


--------------------------------------------------------------------------------------------------------




--------------------------------------- Iteration      1(   7)  ---------------------------------------


    POTLOK:  cpu time    0.0470: real time    0.0470
    SETDIJ:  cpu time    1.4524: real time    1.4524
atom =   1  type =  1  l = 2
 
 onsite density matrix
 
spin component  1
 
  0.0894  0.0000  0.0387  0.0000  0.0000
  0.0000  0.0578  0.0000  0.0256  0.0000
  0.0387  0.0000  0.0626  0.0000  0.0000
  0.0000  0.0256  0.0000  0.0578  0.0000
  0.0000  0.0000  0.0000  0.0000  0.0203
 
spin component  2
 
  0.9717  0.0000 -0.0080  0.0000 -0.0000
  0.0000  1.0015  0.0000  0.0089  0.0000
 -0.0080  0.0000  0.9842  0.0000 -0.0000
  0.0000  0.0089  0.0000  1.0015  0.0000
 -0.0000  0.0000 -0.0000  0.0000  0.9976
 
 occupancies and eigenvectors
 
  o =  0.0203  v =  0.0000 -0.0000 -0.0000  0.0000  1.0000  0.0000  0.0000  0.0000  0.0000  0.0000      0.0000  0.0000  0.0000  0.0000  0.0000  0.0000  0.0000  0.0000  0.0000  0.0000
  o =  0.0322  v =  0.0000  0.7071  0.0000 -0.7071  0.0000  0.0000  0.0000  0.0000  0.0000  0.0000      0.0000  0.0000  0.0000  0.0000  0.0000  0.0000  0.0000  0.0000  0.0000  0.0000
  o =  0.0351  v = -0.5801 -0.0000  0.8145  0.0000  0.0000  0.0000  0.0000  0.0000  0.0000  0.0000      0.0000  0.0000  0.0000  0.0000  0.0000  0.0000  0.0000  0.0000  0.0000  0.0000
  o =  0.0835  v =  0.0000 -0.7071  0.0000 -0.7071 -0.0000  0.0000  0.0000  0.0000  0.0000  0.0000      0.0000  0.0000  0.0000  0.0000  0.0000  0.0000  0.0000  0.0000  0.0000  0.0000
  o =  0.1169  v = -0.8145  0.0000 -0.5801  0.0000 -0.0000  0.0000  0.0000  0.0000  0.0000  0.0000      0.0000  0.0000  0.0000  0.0000  0.0000  0.0000  0.0000  0.0000  0.0000  0.0000
  o =  0.9678  v =  0.0000  0.0000  0.0000  0.0000  0.0000 -0.8997  0.0000 -0.4365  0.0000 -0.0000      0.0000  0.0000  0.0000  0.0000  0.0000  0.0000  0.0000  0.0000  0.0000  0.0000
  o =  0.9881  v =  0.0000  0.0000  0.0000  0.0000  0.0000 -0.4365  0.0000  0.8997  0.0000  0.0000      0.0000  0.0000  0.0000  0.0000  0.0000  0.0000  0.0000  0.0000  0.0000  0.0000
  o =  0.9926  v =  0.0000  0.0000  0.0000  0.0000  0.0000  0.0000 -0.7071  0.0000  0.7071  0.0000      0.0000  0.0000  0.0000  0.0000  0.0000  0.0000  0.0000  0.0000  0.0000  0.0000
  o =  0.9976  v =  0.0000  0.0000  0.0000  0.0000  0.0000  0.0000  0.0000 -0.0000  0.0000  1.0000      0.0000  0.0000  0.0000  0.0000  0.0000  0.0000  0.0000  0.0000  0.0000  0.0000
  o =  1.0103  v =  0.0000  0.0000  0.0000  0.0000  0.0000  0.0000 -0.7071  0.0000 -0.7071  0.0000      0.0000  0.0000  0.0000  0.0000  0.0000  0.0000  0.0000  0.0000  0.0000  0.0000
atom =   2  type =  1  l = 2
 
 onsite density matrix
 
spin component  1
 
  0.9717  0.0000  0.0080  0.0000  0.0000
  0.0000  1.0015  0.0000 -0.0089  0.0000
  0.0080  0.0000  0.9842  0.0000 -0.0000
  0.0000 -0.0089  0.0000  1.0015  0.0000
  0.0000  0.0000 -0.0000  0.0000  0.9976
 
spin component  2
 
  0.0894  0.0000 -0.0387  0.0000  0.0000
  0.0000  0.0578  0.0000 -0.0256  0.0000
 -0.0387  0.0000  0.0626  0.0000  0.0000
  0.0000 -0.0256  0.0000  0.0578  0.0000
  0.0000  0.0000  0.0000  0.0000  0.0203
 
 occupancies and eigenvectors
 
  o =  0.0203  v =  0.0000  0.0000  0.0000  0.0000  0.0000  0.0000 -0.0000  0.0000 -0.0000 -1.0000      0.0000  0.0000  0.0000  0.0000  0.0000  0.0000  0.0000  0.0000  0.0000  0.0000
  o =  0.0322  v =  0.0000  0.0000  0.0000  0.0000  0.0000 -0.0000 -0.7071 -0.0000 -0.7071  0.0000      0.0000  0.0000  0.0000  0.0000  0.0000  0.0000  0.0000  0.0000  0.0000  0.0000
  o =  0.0351  v =  0.0000  0.0000  0.0000  0.0000  0.0000 -0.5801  0.0000 -0.8145  0.0000 -0.0000      0.0000  0.0000  0.0000  0.0000  0.0000  0.0000  0.0000  0.0000  0.0000  0.0000
  o =  0.0835  v =  0.0000  0.0000  0.0000  0.0000  0.0000  0.0000 -0.7071  0.0000  0.7071  0.0000      0.0000  0.0000  0.0000  0.0000  0.0000  0.0000  0.0000  0.0000  0.0000  0.0000
  o =  0.1169  v =  0.0000  0.0000  0.0000  0.0000  0.0000 -0.8145 -0.0000  0.5801  0.0000  0.0000      0.0000  0.0000  0.0000  0.0000  0.0000  0.0000  0.0000  0.0000  0.0000  0.0000
  o =  0.9678  v =  0.8997  0.0000 -0.4365  0.0000 -0.0000  0.0000  0.0000  0.0000  0.0000  0.0000      0.0000  0.0000  0.0000  0.0000  0.0000  0.0000  0.0000  0.0000  0.0000  0.0000
  o =  0.9881  v = -0.4365  0.0000 -0.8997  0.0000 -0.0000  0.0000  0.0000  0.0000  0.0000  0.0000      0.0000  0.0000  0.0000  0.0000  0.0000  0.0000  0.0000  0.0000  0.0000  0.0000
  o =  0.9926  v =  0.0000 -0.7071  0.0000 -0.7071 -0.0000  0.0000  0.0000  0.0000  0.0000  0.0000      0.0000  0.0000  0.0000  0.0000  0.0000  0.0000  0.0000  0.0000  0.0000  0.0000
  o =  0.9976  v =  0.0000  0.0000  0.0000  0.0000 -1.0000  0.0000  0.0000  0.0000  0.0000  0.0000      0.0000  0.0000  0.0000  0.0000  0.0000  0.0000  0.0000  0.0000  0.0000  0.0000
  o =  1.0103  v =  0.0000  0.7071  0.0000 -0.7071  0.0000  0.0000  0.0000  0.0000  0.0000  0.0000      0.0000  0.0000  0.0000  0.0000  0.0000  0.0000  0.0000  0.0000  0.0000  0.0000
     EDDAV:  cpu time    0.9719: real time    0.9720
 BZINTS: Fermi energy:  5.154907; 54.000000 electrons
         Band energy:-768.803501;  BLOECHL correction:  0.000000
       DOS:  cpu time    0.0013: real time    0.0013
    CHARGE:  cpu time    0.2021: real time    0.2021
    MIXING:  cpu time    0.0008: real time    0.0008
    --------------------------------------------
      LOOP:  cpu time    2.6756: real time    2.6757

 eigenvalue-minimisations  :  1380
 total energy-change (2. order) :-0.2730062E+01  (-0.5103824E+01)
 number of electron      54.0000001 magnetization      -0.0000000
 augmentation part       19.6168553 magnetization      -0.0000000

 Broyden mixing:
  rms(total) = 0.17042E+01    rms(broyden)= 0.17041E+01
  rms(prec ) = 0.24453E+01
  weight for this iteration     100.00

 eigenvalues of (default mixing * dielectric matrix)
  average eigenvalue GAMMA=   0.6991
  0.6991  0.6991

 Free energy of the ion-electron system (eV)
  ---------------------------------------------------
  alpha Z        PSCENC =       199.63885461
  Ewald energy   TEWEN  =     -4204.81824948
  -Hartree energ DENC   =     -2187.24140116
  -exchange      EXHF   =         0.00000000
  -V(xc)+E(xc)   XCENC  =       167.59009747
  PAW double counting   =      6498.52076574    -6465.21928315
  entropy T*S    EENTRO =         0.00000000
  eigenvalues    EBANDS =      -768.80350083
  atomic energy  EATOM  =      6689.08348147
  Solvation  Ediel_sol  =         0.00000000
  ---------------------------------------------------
  free energy    TOTEN  =       -71.24923533 eV

  energy without entropy =      -71.24923533  energy(sigma->0) =      -71.24923533


--------------------------------------------------------------------------------------------------------




--------------------------------------- Iteration      1(   8)  ---------------------------------------


    POTLOK:  cpu time    0.0477: real time    0.0477
    SETDIJ:  cpu time    1.4500: real time    1.4500
atom =   1  type =  1  l = 2
 
 onsite density matrix
 
spin component  1
 
  0.0467  0.0000  0.0132  0.0000 -0.0000
  0.0000  0.0526  0.0000  0.0230  0.0000
  0.0132  0.0000  0.0420  0.0000 -0.0000
  0.0000  0.0230  0.0000  0.0526  0.0000
 -0.0000  0.0000 -0.0000  0.0000  0.0251
 
spin component  2
 
  0.9920  0.0000  0.0249  0.0000  0.0000
  0.0000  0.9794  0.0000  0.0121  0.0000
  0.0249  0.0000  0.9794  0.0000  0.0000
  0.0000  0.0121  0.0000  0.9794  0.0000
  0.0000  0.0000  0.0000  0.0000  0.9661
 
 occupancies and eigenvectors
 
  o =  0.0251  v =  0.0000 -0.0000 -0.0000  0.0000 -1.0000  0.0000  0.0000  0.0000  0.0000  0.0000      0.0000  0.0000  0.0000  0.0000  0.0000  0.0000  0.0000  0.0000  0.0000  0.0000
  o =  0.0296  v =  0.0000  0.7071  0.0000 -0.7071 -0.0000  0.0000  0.0000  0.0000  0.0000  0.0000      0.0000  0.0000  0.0000  0.0000  0.0000  0.0000  0.0000  0.0000  0.0000  0.0000
  o =  0.0309  v = -0.6419 -0.0000  0.7668  0.0000 -0.0000  0.0000  0.0000  0.0000  0.0000  0.0000      0.0000  0.0000  0.0000  0.0000  0.0000  0.0000  0.0000  0.0000  0.0000  0.0000
  o =  0.0578  v = -0.7668  0.0000 -0.6419  0.0000  0.0000  0.0000  0.0000  0.0000  0.0000  0.0000      0.0000  0.0000  0.0000  0.0000  0.0000  0.0000  0.0000  0.0000  0.0000  0.0000
  o =  0.0756  v =  0.0000  0.7071  0.0000  0.7071 -0.0000  0.0000  0.0000  0.0000  0.0000  0.0000      0.0000  0.0000  0.0000  0.0000  0.0000  0.0000  0.0000  0.0000  0.0000  0.0000
  o =  0.9600  v =  0.0000  0.0000  0.0000  0.0000  0.0000 -0.6145  0.0000  0.7890 -0.0000 -0.0000      0.0000  0.0000  0.0000  0.0000  0.0000  0.0000  0.0000  0.0000  0.0000  0.0000
  o =  0.9661  v =  0.0000  0.0000  0.0000  0.0000  0.0000 -0.0000  0.0000  0.0000 -0.0000  1.0000      0.0000  0.0000  0.0000  0.0000  0.0000  0.0000  0.0000  0.0000  0.0000  0.0000
  o =  0.9673  v =  0.0000  0.0000  0.0000  0.0000  0.0000  0.0000  0.7071 -0.0000 -0.7071 -0.0000      0.0000  0.0000  0.0000  0.0000  0.0000  0.0000  0.0000  0.0000  0.0000  0.0000
  o =  0.9915  v =  0.0000  0.0000  0.0000  0.0000  0.0000  0.0000  0.7071 -0.0000  0.7071  0.0000      0.0000  0.0000  0.0000  0.0000  0.0000  0.0000  0.0000  0.0000  0.0000  0.0000
  o =  1.0114  v =  0.0000  0.0000  0.0000  0.0000  0.0000 -0.7890  0.0000 -0.6145  0.0000 -0.0000      0.0000  0.0000  0.0000  0.0000  0.0000  0.0000  0.0000  0.0000  0.0000  0.0000
atom =   2  type =  1  l = 2
 
 onsite density matrix
 
spin component  1
 
  0.9920  0.0000 -0.0249  0.0000 -0.0000
  0.0000  0.9794  0.0000 -0.0121  0.0000
 -0.0249  0.0000  0.9794  0.0000 -0.0000
  0.0000 -0.0121  0.0000  0.9794  0.0000
 -0.0000  0.0000 -0.0000  0.0000  0.9661
 
spin component  2
 
  0.0467  0.0000 -0.0132  0.0000  0.0000
  0.0000  0.0526  0.0000 -0.0230  0.0000
 -0.0132  0.0000  0.0420  0.0000 -0.0000
  0.0000 -0.0230  0.0000  0.0526  0.0000
  0.0000  0.0000 -0.0000  0.0000  0.0251
 
 occupancies and eigenvectors
 
  o =  0.0251  v =  0.0000  0.0000  0.0000  0.0000  0.0000  0.0000 -0.0000  0.0000  0.0000  1.0000      0.0000  0.0000  0.0000  0.0000  0.0000  0.0000  0.0000  0.0000  0.0000  0.0000
  o =  0.0296  v =  0.0000  0.0000  0.0000  0.0000  0.0000  0.0000 -0.7071  0.0000 -0.7071 -0.0000      0.0000  0.0000  0.0000  0.0000  0.0000  0.0000  0.0000  0.0000  0.0000  0.0000
  o =  0.0309  v =  0.0000  0.0000  0.0000  0.0000  0.0000 -0.6419 -0.0000 -0.7668  0.0000  0.0000      0.0000  0.0000  0.0000  0.0000  0.0000  0.0000  0.0000  0.0000  0.0000  0.0000
  o =  0.0578  v =  0.0000  0.0000  0.0000  0.0000  0.0000 -0.7668  0.0000  0.6419  0.0000 -0.0000      0.0000  0.0000  0.0000  0.0000  0.0000  0.0000  0.0000  0.0000  0.0000  0.0000
  o =  0.0756  v =  0.0000  0.0000  0.0000  0.0000  0.0000  0.0000 -0.7071  0.0000  0.7071 -0.0000      0.0000  0.0000  0.0000  0.0000  0.0000  0.0000  0.0000  0.0000  0.0000  0.0000
  o =  0.9600  v = -0.6145  0.0000 -0.7890  0.0000 -0.0000  0.0000  0.0000  0.0000  0.0000  0.0000      0.0000  0.0000  0.0000  0.0000  0.0000  0.0000  0.0000  0.0000  0.0000  0.0000
  o =  0.9661  v =  0.0000  0.0000 -0.0000  0.0000  1.0000  0.0000  0.0000  0.0000  0.0000  0.0000      0.0000  0.0000  0.0000  0.0000  0.0000  0.0000  0.0000  0.0000  0.0000  0.0000
  o =  0.9673  v =  0.0000 -0.7071  0.0000 -0.7071  0.0000  0.0000  0.0000  0.0000  0.0000  0.0000      0.0000  0.0000  0.0000  0.0000  0.0000  0.0000  0.0000  0.0000  0.0000  0.0000
  o =  0.9915  v =  0.0000  0.7071  0.0000 -0.7071 -0.0000  0.0000  0.0000  0.0000  0.0000  0.0000      0.0000  0.0000  0.0000  0.0000  0.0000  0.0000  0.0000  0.0000  0.0000  0.0000
  o =  1.0114  v = -0.7890  0.0000  0.6145  0.0000  0.0000  0.0000  0.0000  0.0000  0.0000  0.0000      0.0000  0.0000  0.0000  0.0000  0.0000  0.0000  0.0000  0.0000  0.0000  0.0000
     EDDAV:  cpu time    1.0311: real time    1.0313
 BZINTS: Fermi energy:  3.216944; 54.000000 electrons
         Band energy:-786.001103;  BLOECHL correction:  0.000000
       DOS:  cpu time    0.0011: real time    0.0011
    CHARGE:  cpu time    0.2016: real time    0.2016
    MIXING:  cpu time    0.0009: real time    0.0009
    --------------------------------------------
      LOOP:  cpu time    2.7324: real time    2.7327

 eigenvalue-minimisations  :  1524
 total energy-change (2. order) : 0.2629112E+01  (-0.7318093E+00)
 number of electron      54.0000001 magnetization       0.0000000
 augmentation part       19.8352017 magnetization       0.0000000

 Broyden mixing:
  rms(total) = 0.61850E+00    rms(broyden)= 0.61848E+00
  rms(prec ) = 0.91524E+00
  weight for this iteration     100.00

 eigenvalues of (default mixing * dielectric matrix)
  average eigenvalue GAMMA=   0.7544
  0.9556  0.6538  0.6538

 Free energy of the ion-electron system (eV)
  ---------------------------------------------------
  alpha Z        PSCENC =       199.63885461
  Ewald energy   TEWEN  =     -4204.81824948
  -Hartree energ DENC   =     -2172.00083758
  -exchange      EXHF   =         0.00000000
  -V(xc)+E(xc)   XCENC  =       170.29608109
  PAW double counting   =      6424.91431768    -6389.73266865
  entropy T*S    EENTRO =         0.00000000
  eigenvalues    EBANDS =      -786.00110281
  atomic energy  EATOM  =      6689.08348147
  Solvation  Ediel_sol  =         0.00000000
  ---------------------------------------------------
  free energy    TOTEN  =       -68.62012367 eV

  energy without entropy =      -68.62012367  energy(sigma->0) =      -68.62012367


--------------------------------------------------------------------------------------------------------




--------------------------------------- Iteration      1(   9)  ---------------------------------------


    POTLOK:  cpu time    0.0477: real time    0.0477
    SETDIJ:  cpu time    1.4503: real time    1.4503
atom =   1  type =  1  l = 2
 
 onsite density matrix
 
spin component  1
 
  0.0705  0.0000  0.0382  0.0000  0.0000
  0.0000  0.0476  0.0000  0.0191  0.0000
  0.0382  0.0000  0.0511  0.0000  0.0000
  0.0000  0.0191  0.0000  0.0476  0.0000
  0.0000  0.0000  0.0000  0.0000  0.0234
 
spin component  2
 
  0.9481  0.0000  0.0061  0.0000 -0.0000
  0.0000  0.9593  0.0000  0.0177  0.0000
  0.0061  0.0000  0.9453  0.0000 -0.0000
  0.0000  0.0177  0.0000  0.9593  0.0000
 -0.0000  0.0000 -0.0000  0.0000  0.9426
 
 occupancies and eigenvectors
 
  o =  0.0214  v = -0.6141  0.0000  0.7893  0.0000 -0.0000  0.0000  0.0000  0.0000  0.0000  0.0000      0.0000  0.0000  0.0000  0.0000  0.0000  0.0000  0.0000  0.0000  0.0000  0.0000
  o =  0.0234  v = -0.0000 -0.0000  0.0000  0.0000  1.0000  0.0000  0.0000  0.0000  0.0000  0.0000      0.0000  0.0000  0.0000  0.0000  0.0000  0.0000  0.0000  0.0000  0.0000  0.0000
  o =  0.0285  v =  0.0000  0.7071  0.0000 -0.7071  0.0000  0.0000  0.0000  0.0000  0.0000  0.0000      0.0000  0.0000  0.0000  0.0000  0.0000  0.0000  0.0000  0.0000  0.0000  0.0000
  o =  0.0668  v =  0.0000 -0.7071  0.0000 -0.7071 -0.0000  0.0000  0.0000  0.0000  0.0000  0.0000      0.0000  0.0000  0.0000  0.0000  0.0000  0.0000  0.0000  0.0000  0.0000  0.0000
  o =  0.1002  v = -0.7893  0.0000 -0.6141  0.0000 -0.0000  0.0000  0.0000  0.0000  0.0000  0.0000      0.0000  0.0000  0.0000  0.0000  0.0000  0.0000  0.0000  0.0000  0.0000  0.0000
  o =  0.9405  v =  0.0000  0.0000  0.0000  0.0000  0.0000 -0.6217  0.0000  0.7832 -0.0000  0.0000      0.0000  0.0000  0.0000  0.0000  0.0000  0.0000  0.0000  0.0000  0.0000  0.0000
  o =  0.9416  v =  0.0000  0.0000  0.0000  0.0000  0.0000  0.0000  0.7071 -0.0000 -0.7071 -0.0000      0.0000  0.0000  0.0000  0.0000  0.0000  0.0000  0.0000  0.0000  0.0000  0.0000
  o =  0.9426  v =  0.0000  0.0000  0.0000  0.0000  0.0000 -0.0000 -0.0000  0.0000  0.0000 -1.0000      0.0000  0.0000  0.0000  0.0000  0.0000  0.0000  0.0000  0.0000  0.0000  0.0000
  o =  0.9530  v =  0.0000  0.0000  0.0000  0.0000  0.0000  0.7832 -0.0000  0.6217  0.0000 -0.0000      0.0000  0.0000  0.0000  0.0000  0.0000  0.0000  0.0000  0.0000  0.0000  0.0000
  o =  0.9770  v =  0.0000  0.0000  0.0000  0.0000  0.0000  0.0000 -0.7071 -0.0000 -0.7071 -0.0000      0.0000  0.0000  0.0000  0.0000  0.0000  0.0000  0.0000  0.0000  0.0000  0.0000
atom =   2  type =  1  l = 2
 
 onsite density matrix
 
spin component  1
 
  0.9481  0.0000 -0.0061  0.0000  0.0000
  0.0000  0.9593  0.0000 -0.0177  0.0000
 -0.0061  0.0000  0.9453  0.0000 -0.0000
  0.0000 -0.0177  0.0000  0.9593  0.0000
  0.0000  0.0000 -0.0000  0.0000  0.9426
 
spin component  2
 
  0.0705  0.0000 -0.0382  0.0000  0.0000
  0.0000  0.0476  0.0000 -0.0191  0.0000
 -0.0382  0.0000  0.0511  0.0000  0.0000
  0.0000 -0.0191  0.0000  0.0476  0.0000
  0.0000  0.0000  0.0000  0.0000  0.0234
 
 occupancies and eigenvectors
 
  o =  0.0214  v =  0.0000  0.0000  0.0000  0.0000  0.0000 -0.6141 -0.0000 -0.7893  0.0000  0.0000      0.0000  0.0000  0.0000  0.0000  0.0000  0.0000  0.0000  0.0000  0.0000  0.0000
  o =  0.0234  v =  0.0000  0.0000  0.0000  0.0000  0.0000 -0.0000  0.0000 -0.0000  0.0000 -1.0000      0.0000  0.0000  0.0000  0.0000  0.0000  0.0000  0.0000  0.0000  0.0000  0.0000
  o =  0.0285  v =  0.0000  0.0000  0.0000  0.0000  0.0000  0.0000  0.7071  0.0000  0.7071  0.0000      0.0000  0.0000  0.0000  0.0000  0.0000  0.0000  0.0000  0.0000  0.0000  0.0000
  o =  0.0668  v =  0.0000  0.0000  0.0000  0.0000  0.0000  0.0000  0.7071  0.0000 -0.7071  0.0000      0.0000  0.0000  0.0000  0.0000  0.0000  0.0000  0.0000  0.0000  0.0000  0.0000
  o =  0.1002  v =  0.0000  0.0000  0.0000  0.0000  0.0000 -0.7893 -0.0000  0.6141  0.0000  0.0000      0.0000  0.0000  0.0000  0.0000  0.0000  0.0000  0.0000  0.0000  0.0000  0.0000
  o =  0.9405  v = -0.6217  0.0000 -0.7832  0.0000  0.0000  0.0000  0.0000  0.0000  0.0000  0.0000      0.0000  0.0000  0.0000  0.0000  0.0000  0.0000  0.0000  0.0000  0.0000  0.0000
  o =  0.9416  v =  0.0000  0.7071 -0.0000  0.7071 -0.0000  0.0000  0.0000  0.0000  0.0000  0.0000      0.0000  0.0000  0.0000  0.0000  0.0000  0.0000  0.0000  0.0000  0.0000  0.0000
  o =  0.9426  v =  0.0000  0.0000  0.0000  0.0000  1.0000  0.0000  0.0000  0.0000  0.0000  0.0000      0.0000  0.0000  0.0000  0.0000  0.0000  0.0000  0.0000  0.0000  0.0000  0.0000
  o =  0.9530  v = -0.7832  0.0000  0.6217  0.0000 -0.0000  0.0000  0.0000  0.0000  0.0000  0.0000      0.0000  0.0000  0.0000  0.0000  0.0000  0.0000  0.0000  0.0000  0.0000  0.0000
  o =  0.9770  v =  0.0000  0.7071  0.0000 -0.7071  0.0000  0.0000  0.0000  0.0000  0.0000  0.0000      0.0000  0.0000  0.0000  0.0000  0.0000  0.0000  0.0000  0.0000  0.0000  0.0000
     EDDAV:  cpu time    0.9938: real time    0.9939
 BZINTS: Fermi energy:  2.240338; 54.000000 electrons
         Band energy:-797.699179;  BLOECHL correction:  0.000000
       DOS:  cpu time    0.0013: real time    0.0013
    CHARGE:  cpu time    0.2016: real time    0.2016
    MIXING:  cpu time    0.0009: real time    0.0009
    --------------------------------------------
      LOOP:  cpu time    2.6957: real time    2.6957

 eigenvalue-minimisations  :  1440
 total energy-change (2. order) : 0.4684178E+00  (-0.3901857E+00)
 number of electron      54.0000001 magnetization       0.0000000
 augmentation part       20.0070032 magnetization       0.0000000

 Broyden mixing:
  rms(total) = 0.78655E+00    rms(broyden)= 0.78654E+00
  rms(prec ) = 0.84036E+00
  weight for this iteration     100.00

 eigenvalues of (default mixing * dielectric matrix)
  average eigenvalue GAMMA=   0.9699
  1.7921  0.5777  0.7550  0.7550

 Free energy of the ion-electron system (eV)
  ---------------------------------------------------
  alpha Z        PSCENC =       199.63885461
  Ewald energy   TEWEN  =     -4204.81824948
  -Hartree energ DENC   =     -2158.91137505
  -exchange      EXHF   =         0.00000000
  -V(xc)+E(xc)   XCENC  =       168.37522607
  PAW double counting   =      6448.26914073    -6412.08960557
  entropy T*S    EENTRO =         0.00000000
  eigenvalues    EBANDS =      -797.69917864
  atomic energy  EATOM  =      6689.08348147
  Solvation  Ediel_sol  =         0.00000000
  ---------------------------------------------------
  free energy    TOTEN  =       -68.15170585 eV

  energy without entropy =      -68.15170585  energy(sigma->0) =      -68.15170585


--------------------------------------------------------------------------------------------------------




--------------------------------------- Iteration      1(  10)  ---------------------------------------


    POTLOK:  cpu time    0.0476: real time    0.0476
    SETDIJ:  cpu time    1.4500: real time    1.4501
atom =   1  type =  1  l = 2
 
 onsite density matrix
 
spin component  1
 
  0.0421  0.0000  0.0122  0.0000 -0.0000
  0.0000  0.0506  0.0000  0.0218  0.0000
  0.0122  0.0000  0.0370  0.0000 -0.0000
  0.0000  0.0218  0.0000  0.0506  0.0000
 -0.0000  0.0000 -0.0000  0.0000  0.0281
 
spin component  2
 
  0.9719  0.0000  0.0338  0.0000  0.0000
  0.0000  0.9518  0.0000  0.0168  0.0000
  0.0338  0.0000  0.9538  0.0000  0.0000
  0.0000  0.0168  0.0000  0.9518  0.0000
  0.0000  0.0000  0.0000  0.0000  0.9323
 
 occupancies and eigenvectors
 
  o =  0.0270  v = -0.6317  0.0000  0.7752  0.0000  0.0000  0.0000  0.0000  0.0000  0.0000  0.0000      0.0000  0.0000  0.0000  0.0000  0.0000  0.0000  0.0000  0.0000  0.0000  0.0000
  o =  0.0281  v = -0.0000 -0.0000  0.0000  0.0000 -1.0000  0.0000  0.0000  0.0000  0.0000  0.0000      0.0000  0.0000  0.0000  0.0000  0.0000  0.0000  0.0000  0.0000  0.0000  0.0000
  o =  0.0288  v =  0.0000 -0.7071  0.0000  0.7071  0.0000  0.0000  0.0000  0.0000  0.0000  0.0000      0.0000  0.0000  0.0000  0.0000  0.0000  0.0000  0.0000  0.0000  0.0000  0.0000
  o =  0.0520  v = -0.7752  0.0000 -0.6317  0.0000  0.0000  0.0000  0.0000  0.0000  0.0000  0.0000      0.0000  0.0000  0.0000  0.0000  0.0000  0.0000  0.0000  0.0000  0.0000  0.0000
  o =  0.0724  v =  0.0000 -0.7071  0.0000 -0.7071  0.0000  0.0000  0.0000  0.0000  0.0000  0.0000      0.0000  0.0000  0.0000  0.0000  0.0000  0.0000  0.0000  0.0000  0.0000  0.0000
  o =  0.9278  v =  0.0000  0.0000  0.0000  0.0000  0.0000 -0.6085  0.0000  0.7935  0.0000 -0.0000      0.0000  0.0000  0.0000  0.0000  0.0000  0.0000  0.0000  0.0000  0.0000  0.0000
  o =  0.9323  v =  0.0000  0.0000  0.0000  0.0000  0.0000 -0.0000 -0.0000  0.0000  0.0000  1.0000      0.0000  0.0000  0.0000  0.0000  0.0000  0.0000  0.0000  0.0000  0.0000  0.0000
  o =  0.9350  v =  0.0000  0.0000  0.0000  0.0000  0.0000  0.0000  0.7071  0.0000 -0.7071  0.0000      0.0000  0.0000  0.0000  0.0000  0.0000  0.0000  0.0000  0.0000  0.0000  0.0000
  o =  0.9686  v =  0.0000  0.0000  0.0000  0.0000  0.0000  0.0000 -0.7071  0.0000 -0.7071 -0.0000      0.0000  0.0000  0.0000  0.0000  0.0000  0.0000  0.0000  0.0000  0.0000  0.0000
  o =  0.9979  v =  0.0000  0.0000  0.0000  0.0000  0.0000 -0.7935  0.0000 -0.6085  0.0000 -0.0000      0.0000  0.0000  0.0000  0.0000  0.0000  0.0000  0.0000  0.0000  0.0000  0.0000
atom =   2  type =  1  l = 2
 
 onsite density matrix
 
spin component  1
 
  0.9719  0.0000 -0.0338  0.0000 -0.0000
  0.0000  0.9518  0.0000 -0.0168  0.0000
 -0.0338  0.0000  0.9538  0.0000  0.0000
  0.0000 -0.0168  0.0000  0.9518  0.0000
 -0.0000  0.0000  0.0000  0.0000  0.9323
 
spin component  2
 
  0.0421  0.0000 -0.0122  0.0000  0.0000
  0.0000  0.0506  0.0000 -0.0218  0.0000
 -0.0122  0.0000  0.0370  0.0000 -0.0000
  0.0000 -0.0218  0.0000  0.0506  0.0000
  0.0000  0.0000 -0.0000  0.0000  0.0281
 
 occupancies and eigenvectors
 
  o =  0.0270  v =  0.0000  0.0000  0.0000  0.0000  0.0000 -0.6317  0.0000 -0.7752  0.0000 -0.0000      0.0000  0.0000  0.0000  0.0000  0.0000  0.0000  0.0000  0.0000  0.0000  0.0000
  o =  0.0281  v =  0.0000  0.0000  0.0000  0.0000  0.0000 -0.0000 -0.0000 -0.0000  0.0000  1.0000      0.0000  0.0000  0.0000  0.0000  0.0000  0.0000  0.0000  0.0000  0.0000  0.0000
  o =  0.0288  v =  0.0000  0.0000  0.0000  0.0000  0.0000  0.0000 -0.7071  0.0000 -0.7071 -0.0000      0.0000  0.0000  0.0000  0.0000  0.0000  0.0000  0.0000  0.0000  0.0000  0.0000
  o =  0.0520  v =  0.0000  0.0000  0.0000  0.0000  0.0000 -0.7752  0.0000  0.6317  0.0000 -0.0000      0.0000  0.0000  0.0000  0.0000  0.0000  0.0000  0.0000  0.0000  0.0000  0.0000
  o =  0.0724  v =  0.0000  0.0000  0.0000  0.0000  0.0000  0.0000  0.7071  0.0000 -0.7071  0.0000      0.0000  0.0000  0.0000  0.0000  0.0000  0.0000  0.0000  0.0000  0.0000  0.0000
  o =  0.9278  v = -0.6085  0.0000 -0.7935  0.0000  0.0000  0.0000  0.0000  0.0000  0.0000  0.0000      0.0000  0.0000  0.0000  0.0000  0.0000  0.0000  0.0000  0.0000  0.0000  0.0000
  o =  0.9323  v = -0.0000 -0.0000 -0.0000  0.0000 -1.0000  0.0000  0.0000  0.0000  0.0000  0.0000      0.0000  0.0000  0.0000  0.0000  0.0000  0.0000  0.0000  0.0000  0.0000  0.0000
  o =  0.9350  v =  0.0000 -0.7071  0.0000 -0.7071  0.0000  0.0000  0.0000  0.0000  0.0000  0.0000      0.0000  0.0000  0.0000  0.0000  0.0000  0.0000  0.0000  0.0000  0.0000  0.0000
  o =  0.9686  v =  0.0000 -0.7071  0.0000  0.7071  0.0000  0.0000  0.0000  0.0000  0.0000  0.0000      0.0000  0.0000  0.0000  0.0000  0.0000  0.0000  0.0000  0.0000  0.0000  0.0000
  o =  0.9979  v = -0.7935  0.0000  0.6085  0.0000  0.0000  0.0000  0.0000  0.0000  0.0000  0.0000      0.0000  0.0000  0.0000  0.0000  0.0000  0.0000  0.0000  0.0000  0.0000  0.0000
     EDDAV:  cpu time    0.9932: real time    0.9934
 BZINTS: Fermi energy:  2.032930; 54.000000 electrons
         Band energy:-799.757760;  BLOECHL correction:  0.000000
       DOS:  cpu time    0.0012: real time    0.0012
    CHARGE:  cpu time    0.2021: real time    0.2022
    MIXING:  cpu time    0.0010: real time    0.0010
    --------------------------------------------
      LOOP:  cpu time    2.6951: real time    2.6954

 eigenvalue-minimisations  :  1440
 total energy-change (2. order) : 0.4727923E-01  (-0.3452787E-01)
 number of electron      54.0000001 magnetization       0.0000000
 augmentation part       20.0152574 magnetization       0.0000000

 Broyden mixing:
  rms(total) = 0.54476E+00    rms(broyden)= 0.54476E+00
  rms(prec ) = 0.59677E+00
  weight for this iteration     100.00

 eigenvalues of (default mixing * dielectric matrix)
  average eigenvalue GAMMA=   1.2292
  2.9699  0.9795  0.9795  0.6086  0.6086

 Free energy of the ion-electron system (eV)
  ---------------------------------------------------
  alpha Z        PSCENC =       199.63885461
  Ewald energy   TEWEN  =     -4204.81824948
  -Hartree energ DENC   =     -2153.23756266
  -exchange      EXHF   =         0.00000000
  -V(xc)+E(xc)   XCENC  =       166.05010673
  PAW double counting   =      6521.14834833    -6486.21164544
  entropy T*S    EENTRO =         0.00000000
  eigenvalues    EBANDS =      -799.75776018
  atomic energy  EATOM  =      6689.08348147
  Solvation  Ediel_sol  =         0.00000000
  ---------------------------------------------------
  free energy    TOTEN  =       -68.10442662 eV

  energy without entropy =      -68.10442662  energy(sigma->0) =      -68.10442662


--------------------------------------------------------------------------------------------------------




--------------------------------------- Iteration      1(  11)  ---------------------------------------


    POTLOK:  cpu time    0.0472: real time    0.0472
    SETDIJ:  cpu time    1.4504: real time    1.4505
atom =   1  type =  1  l = 2
 
 onsite density matrix
 
spin component  1
 
  0.0512  0.0000  0.0302  0.0000 -0.0000
  0.0000  0.0436  0.0000  0.0254  0.0000
  0.0302  0.0000  0.0368  0.0000  0.0000
  0.0000  0.0254  0.0000  0.0436  0.0000
 -0.0000  0.0000  0.0000  0.0000  0.0146
 
spin component  2
 
  0.9627  0.0000  0.0186  0.0000  0.0000
  0.0000  0.9585  0.0000  0.0165  0.0000
  0.0186  0.0000  0.9516  0.0000 -0.0000
  0.0000  0.0165  0.0000  0.9585  0.0000
  0.0000  0.0000 -0.0000  0.0000  0.9429
 
 occupancies and eigenvectors
 
  o =  0.0130  v = -0.6192 -0.0000  0.7852  0.0000 -0.0000  0.0000  0.0000  0.0000  0.0000  0.0000      0.0000  0.0000  0.0000  0.0000  0.0000  0.0000  0.0000  0.0000  0.0000  0.0000
  o =  0.0146  v = -0.0000  0.0000  0.0000  0.0000  1.0000  0.0000  0.0000  0.0000  0.0000  0.0000      0.0000  0.0000  0.0000  0.0000  0.0000  0.0000  0.0000  0.0000  0.0000  0.0000
  o =  0.0182  v =  0.0000  0.7071  0.0000 -0.7071 -0.0000  0.0000  0.0000  0.0000  0.0000  0.0000      0.0000  0.0000  0.0000  0.0000  0.0000  0.0000  0.0000  0.0000  0.0000  0.0000
  o =  0.0689  v =  0.0000 -0.7071  0.0000 -0.7071  0.0000  0.0000  0.0000  0.0000  0.0000  0.0000      0.0000  0.0000  0.0000  0.0000  0.0000  0.0000  0.0000  0.0000  0.0000  0.0000
  o =  0.0750  v = -0.7852 -0.0000 -0.6192  0.0000 -0.0000  0.0000  0.0000  0.0000  0.0000  0.0000      0.0000  0.0000  0.0000  0.0000  0.0000  0.0000  0.0000  0.0000  0.0000  0.0000
  o =  0.9377  v =  0.0000  0.0000  0.0000  0.0000  0.0000 -0.5975  0.0000  0.8019 -0.0000  0.0000      0.0000  0.0000  0.0000  0.0000  0.0000  0.0000  0.0000  0.0000  0.0000  0.0000
  o =  0.9420  v =  0.0000  0.0000  0.0000  0.0000  0.0000  0.0000  0.7071 -0.0000 -0.7071 -0.0000      0.0000  0.0000  0.0000  0.0000  0.0000  0.0000  0.0000  0.0000  0.0000  0.0000
  o =  0.9429  v =  0.0000  0.0000  0.0000  0.0000  0.0000  0.0000  0.0000 -0.0000 -0.0000  1.0000      0.0000  0.0000  0.0000  0.0000  0.0000  0.0000  0.0000  0.0000  0.0000  0.0000
  o =  0.9751  v =  0.0000  0.0000  0.0000  0.0000  0.0000 -0.0000 -0.7071 -0.0000 -0.7071 -0.0000      0.0000  0.0000  0.0000  0.0000  0.0000  0.0000  0.0000  0.0000  0.0000  0.0000
  o =  0.9766  v =  0.0000  0.0000  0.0000  0.0000  0.0000 -0.8019  0.0000 -0.5975  0.0000  0.0000      0.0000  0.0000  0.0000  0.0000  0.0000  0.0000  0.0000  0.0000  0.0000  0.0000
atom =   2  type =  1  l = 2
 
 onsite density matrix
 
spin component  1
 
  0.9627  0.0000 -0.0186  0.0000  0.0000
  0.0000  0.9585  0.0000 -0.0165  0.0000
 -0.0186  0.0000  0.9516  0.0000 -0.0000
  0.0000 -0.0165  0.0000  0.9585  0.0000
  0.0000  0.0000 -0.0000  0.0000  0.9429
 
spin component  2
 
  0.0512  0.0000 -0.0302  0.0000 -0.0000
  0.0000  0.0436  0.0000 -0.0254  0.0000
 -0.0302  0.0000  0.0368  0.0000  0.0000
  0.0000 -0.0254  0.0000  0.0436  0.0000
 -0.0000  0.0000  0.0000  0.0000  0.0146
 
 occupancies and eigenvectors
 
  o =  0.0130  v =  0.0000  0.0000  0.0000  0.0000  0.0000 -0.6192  0.0000 -0.7852  0.0000  0.0000      0.0000  0.0000  0.0000  0.0000  0.0000  0.0000  0.0000  0.0000  0.0000  0.0000
  o =  0.0146  v =  0.0000  0.0000  0.0000  0.0000  0.0000 -0.0000 -0.0000 -0.0000  0.0000 -1.0000      0.0000  0.0000  0.0000  0.0000  0.0000  0.0000  0.0000  0.0000  0.0000  0.0000
  o =  0.0182  v =  0.0000  0.0000  0.0000  0.0000  0.0000  0.0000  0.7071  0.0000  0.7071 -0.0000      0.0000  0.0000  0.0000  0.0000  0.0000  0.0000  0.0000  0.0000  0.0000  0.0000
  o =  0.0689  v =  0.0000  0.0000  0.0000  0.0000  0.0000  0.0000  0.7071  0.0000 -0.7071 -0.0000      0.0000  0.0000  0.0000  0.0000  0.0000  0.0000  0.0000  0.0000  0.0000  0.0000
  o =  0.0750  v =  0.0000  0.0000  0.0000  0.0000  0.0000 -0.7852  0.0000  0.6192  0.0000  0.0000      0.0000  0.0000  0.0000  0.0000  0.0000  0.0000  0.0000  0.0000  0.0000  0.0000
  o =  0.9377  v = -0.5975  0.0000 -0.8019  0.0000 -0.0000  0.0000  0.0000  0.0000  0.0000  0.0000      0.0000  0.0000  0.0000  0.0000  0.0000  0.0000  0.0000  0.0000  0.0000  0.0000
  o =  0.9420  v =  0.0000 -0.7071  0.0000 -0.7071 -0.0000  0.0000  0.0000  0.0000  0.0000  0.0000      0.0000  0.0000  0.0000  0.0000  0.0000  0.0000  0.0000  0.0000  0.0000  0.0000
  o =  0.9429  v = -0.0000 -0.0000 -0.0000  0.0000  1.0000  0.0000  0.0000  0.0000  0.0000  0.0000      0.0000  0.0000  0.0000  0.0000  0.0000  0.0000  0.0000  0.0000  0.0000  0.0000
[...]
  band No.  band energies     occupation 
      1     -49.2329      1.00000
      2     -49.1925      1.00000
      3     -49.1726      1.00000
      4     -42.7245      1.00000
      5     -42.6806      1.00000
      6     -42.6497      1.00000
      7     -22.6772      1.00000
      8     -22.5425      1.00000
      9     -22.5030      1.00000
     10     -22.4208      1.00000
     11      -4.4641      1.00000
     12      -4.2151      1.00000
     13      -4.0276      1.00000
     14      -3.8453      1.00000
     15      -3.6858      1.00000
     16      -3.4914      1.00000
     17      -3.1096      1.00000
     18      -2.9309      1.00000
     19      -2.7985      1.00000
     20      -2.3913      1.00000
     21      -2.3031      1.00000
     22      -2.2441      1.00000
     23       0.7991      1.00000
     24       0.8420      1.00000
     25       1.0862      1.00000
     26       1.7134      1.00000
     27       2.0622      1.00000
     28       6.4050      0.00000
     29       6.4344      0.00000
     30       6.5378      0.00000
     31       7.3912      0.00000
     32       7.6840      0.00000
     33       8.9974      0.00000
     34      11.2917      0.00000
     35      12.7571      0.00000
     36      13.1177      0.00000

 k-point     8 :       0.3750    0.1250    0.4167
  band No.  band energies     occupation 
      1     -49.2329      1.00000
      2     -49.1925      1.00000
      3     -49.1727      1.00000
      4     -42.7245      1.00000
      5     -42.6806      1.00000
      6     -42.6497      1.00000
      7     -22.6204      1.00000
      8     -22.5638      1.00000
      9     -22.5139      1.00000
     10     -22.4449      1.00000
     11      -4.5040      1.00000
     12      -4.2480      1.00000
     13      -4.1652      1.00000
     14      -3.9871      1.00000
     15      -3.6176      1.00000
     16      -3.3806      1.00000
     17      -3.2072      1.00000
     18      -3.1017      1.00000
     19      -2.5332      1.00000
     20      -2.3730      1.00000
     21      -2.1942      1.00000
     22      -2.0916      1.00000
     23       0.7858      1.00000
     24       0.8151      1.00000
     25       1.0253      1.00000
     26       1.6702      1.00000
     27       2.1909      1.00000
     28       6.3930      0.00000
     29       6.4274      0.00000
     30       6.5939      0.00000
     31       7.3460      0.00000
     32       7.8653      0.00000
     33       9.6229      0.00000
     34      11.1491      0.00000
     35      11.6706      0.00000
     36      12.9808      0.00000

 k-point     9 :       0.3750    0.3750    0.4167
  band No.  band energies     occupation 
      1     -49.2329      1.00000
      2     -49.1924      1.00000
      3     -49.1727      1.00000
      4     -42.7245      1.00000
      5     -42.6806      1.00000
      6     -42.6498      1.00000
      7     -22.6135      1.00000
      8     -22.5724      1.00000
      9     -22.5145      1.00000
     10     -22.4392      1.00000
     11      -4.7393      1.00000
     12      -4.5298      1.00000
     13      -4.1606      1.00000
     14      -4.0995      1.00000
     15      -3.5909      1.00000
     16      -3.3139      1.00000
     17      -3.1435      1.00000
     18      -2.9111      1.00000
     19      -2.3228      1.00000
     20      -2.2279      1.00000
     21      -2.1162      1.00000
     22      -2.0393      1.00000
     23       0.7834      1.00000
     24       0.8078      1.00000
     25       1.0110      1.00000
     26       1.7045      1.00000
     27       2.1665      1.00000
     28       6.3996      0.00000
     29       6.4248      0.00000
     30       6.6118      0.00000
     31       7.3220      0.00000
     32       7.7692      0.00000
     33      10.1180      0.00000
     34      11.7033      0.00000
     35      11.7354      0.00000
     36      11.9693      0.00000


--------------------------------------------------------------------------------------------------------


 soft charge-density along one line, spin component           1
         0         1         2         3         4         5         6         7         8         9
 total charge-density along one line
 
 soft charge-density along one line, spin component           2
         0         1         2         3         4         5         6         7         8         9
 total charge-density along one line
 
 pseudopotential strength for first ion, spin component:           1
-45.218  -0.000  -0.038   7.794   0.000   0.016  -0.000  -0.000
 -0.000 -45.184  -0.000   0.000   7.780   0.000   0.000   0.000
 -0.038  -0.000 -45.218   0.016   0.000   7.794   0.000   0.000
  7.794   0.000   0.016   5.591  -0.000   0.004  -0.000   0.000
  0.000   7.780   0.000  -0.000   5.585  -0.000  -0.000   0.000
  0.016   0.000   7.794   0.004  -0.000   5.591  -0.000  -0.000
 -0.000   0.000   0.000  -0.000  -0.000  -0.000  -2.977  -0.000
 -0.000   0.000   0.000   0.000   0.000  -0.000  -0.000  -2.959
 -0.000  -0.000   0.000   0.000   0.000   0.000   0.020  -0.000
  0.000   0.000  -0.000  -0.000   0.000   0.000  -0.000  -0.018
  0.000   0.000  -0.000  -0.000  -0.000  -0.000  -0.000   0.000
 -0.000   0.000   0.000  -0.000  -0.000  -0.000  -3.492  -0.000
 -0.000   0.000   0.000   0.000   0.000  -0.000  -0.000  -3.475
 -0.000  -0.000   0.000   0.000   0.000   0.000   0.018  -0.000
  0.000   0.000  -0.000  -0.000   0.000   0.000  -0.000  -0.018
  0.000   0.000  -0.000  -0.000  -0.000  -0.000  -0.000   0.000
  0.000   0.000   0.000   0.000   0.000  -0.000   0.011   0.000
  0.000   0.000   0.000   0.000   0.000  -0.000   0.022   0.000
 pseudopotential strength for first ion, spin component:           2
-50.971  -0.000  -0.005   9.793   0.000   0.016   0.000  -0.000
 -0.000 -50.971  -0.000   0.000   9.779   0.000   0.000   0.000
 -0.005  -0.000 -50.971   0.016   0.000   9.793  -0.000   0.000
  9.793   0.000   0.016   4.708  -0.000   0.001  -0.000   0.000
  0.000   9.779   0.000  -0.000   4.707  -0.000  -0.000  -0.000
  0.016   0.000   9.793   0.001  -0.000   4.708  -0.000  -0.000
  0.000   0.000  -0.000  -0.000  -0.000  -0.000  -7.329  -0.000
 -0.000   0.000   0.000   0.000  -0.000  -0.000  -0.000  -7.320
  0.000  -0.000  -0.000  -0.000   0.000   0.000  -0.009  -0.000
  0.000  -0.000  -0.000  -0.000   0.000   0.000  -0.000  -0.028
 -0.000   0.000   0.000  -0.000  -0.000  -0.000   0.000   0.000
  0.000   0.000  -0.000  -0.000  -0.000  -0.000  -7.800  -0.000
 -0.000   0.000   0.000   0.000  -0.000  -0.000  -0.000  -7.791
  0.000  -0.000  -0.000  -0.000   0.000   0.000  -0.009  -0.000
  0.000  -0.000  -0.000  -0.000   0.000   0.000  -0.000  -0.027
 -0.000   0.000   0.000  -0.000  -0.000  -0.000   0.000   0.000
  0.000   0.000  -0.000  -0.000   0.000   0.000   0.011   0.000
  0.000   0.000  -0.000  -0.000   0.000   0.000   0.023   0.000
 total augmentation occupancy for first ion, spin component:           1
  2.001   0.000   0.000  -0.013   0.000   0.001   0.000   0.000   0.000   0.000   0.000   0.000   0.000   0.000   0.000   0.000
  0.000   2.001   0.000   0.000  -0.013   0.000   0.000   0.000   0.000   0.000   0.000   0.000   0.000   0.000   0.000   0.000
  0.000   0.000   2.001   0.001   0.000  -0.013   0.000   0.000   0.000   0.000   0.000   0.000   0.000   0.000   0.000   0.000
 -0.013   0.000   0.001   0.081   0.000  -0.009   0.000   0.000   0.000   0.000   0.000   0.000   0.000   0.000   0.000   0.000
  0.000  -0.013   0.000   0.000   0.090   0.000   0.000   0.000   0.000   0.000   0.000   0.000   0.000   0.000   0.000   0.000
  0.001   0.000  -0.013  -0.009   0.000   0.081   0.000   0.000   0.000   0.000   0.000   0.000   0.000   0.000   0.000   0.000
  0.000   0.000   0.000   0.000   0.000   0.000   7.768   0.000   3.005   0.000   0.000  -5.796   0.000  -2.826   0.000  -0.000
  0.000   0.000   0.000   0.000   0.000   0.000   0.000   6.573   0.000   2.542   0.000   0.000  -4.646   0.000  -2.388   0.000
  0.000   0.000   0.000   0.000   0.000   0.000   3.005   0.000   5.961   0.000  -0.000  -2.827   0.000  -4.103   0.000   0.000
  0.000   0.000   0.000   0.000   0.000   0.000   0.000   2.542   0.000   6.573   0.000   0.000  -2.388   0.000  -4.646   0.000
  0.000   0.000   0.000   0.000   0.000   0.000  -0.000   0.000  -0.000   0.000   3.894   0.000   0.000   0.000   0.000  -2.114
  0.000   0.000   0.000   0.000   0.000   0.000  -5.796   0.000  -2.827   0.000  -0.000   4.997   0.000   2.692   0.000  -0.000
  0.000   0.000   0.000   0.000   0.000   0.000   0.000  -4.646   0.000  -2.388   0.000   0.000   3.882   0.000   2.271   0.000
  0.000   0.000   0.000   0.000   0.000   0.000  -2.826   0.000  -4.103   0.000  -0.000   2.692   0.000   3.394   0.000   0.000
  0.000   0.000   0.000   0.000   0.000   0.000   0.000  -2.388   0.000  -4.646   0.000   0.000   2.271   0.000   3.882   0.000
  0.000   0.000   0.000   0.000   0.000   0.000   0.000   0.000  -0.000   0.000  -2.114   0.000   0.000   0.000   0.000   1.458
  0.000   0.000   0.000   0.000   0.000   0.000   0.441   0.000  -0.298   0.000  -0.000  -0.418   0.000   0.277   0.000  -0.000
  0.000   0.000   0.000   0.000   0.000   0.000  -0.092   0.000   0.068   0.000   0.000   0.097   0.000  -0.068   0.000  -0.000
 total augmentation occupancy for first ion, spin component:           2
  0.004   0.000  -0.000   0.017   0.000  -0.001   0.000   0.000   0.000   0.000   0.000   0.000   0.000   0.000   0.000   0.000
  0.000   0.004   0.000   0.000   0.018   0.000   0.000   0.000   0.000   0.000   0.000   0.000   0.000   0.000   0.000   0.000
 -0.000   0.000   0.004  -0.001   0.000   0.017   0.000   0.000   0.000   0.000   0.000   0.000   0.000   0.000   0.000   0.000
  0.017   0.000  -0.001  -0.011   0.000  -0.000   0.000   0.000   0.000   0.000   0.000   0.000   0.000   0.000   0.000   0.000
  0.000   0.018   0.000   0.000  -0.010   0.000   0.000   0.000   0.000   0.000   0.000   0.000   0.000   0.000   0.000   0.000
 -0.001   0.000   0.017  -0.000   0.000  -0.011   0.000   0.000   0.000   0.000   0.000   0.000   0.000   0.000   0.000   0.000
  0.000   0.000   0.000   0.000   0.000   0.000  -5.101   0.000  -1.495   0.000   0.000   2.726   0.000   1.098   0.000   0.000
  0.000   0.000   0.000   0.000   0.000   0.000   0.000  -4.548   0.000  -1.275   0.000   0.000   2.299   0.000   0.938   0.000
  0.000   0.000   0.000   0.000   0.000   0.000  -1.495   0.000  -4.147   0.000   0.000   1.098   0.000   2.011   0.000  -0.000
  0.000   0.000   0.000   0.000   0.000   0.000   0.000  -1.275   0.000  -4.548   0.000   0.000   0.938   0.000   2.299   0.000
  0.000   0.000   0.000   0.000   0.000   0.000   0.000   0.000   0.000   0.000  -3.254  -0.000   0.000  -0.000   0.000   1.354
  0.000   0.000   0.000   0.000   0.000   0.000   2.726   0.000   1.098   0.000   0.000  -1.455   0.000  -0.706   0.000  -0.000
  0.000   0.000   0.000   0.000   0.000   0.000   0.000   2.299   0.000   0.938   0.000   0.000  -1.154   0.000  -0.607   0.000
  0.000   0.000   0.000   0.000   0.000   0.000   1.098   0.000   2.011   0.000  -0.000  -0.706   0.000  -0.973   0.000   0.000
  0.000   0.000   0.000   0.000   0.000   0.000   0.000   0.938   0.000   2.299   0.000   0.000  -0.607   0.000  -1.154   0.000
  0.000   0.000   0.000   0.000   0.000   0.000   0.000   0.000  -0.000   0.000   1.354  -0.000   0.000   0.000   0.000  -0.555
  0.000   0.000   0.000   0.000   0.000   0.000  -0.099   0.000   0.056   0.000  -0.000   0.022   0.000   0.001   0.000   0.000
  0.000   0.000   0.000   0.000   0.000   0.000   0.000   0.000  -0.006   0.000   0.000   0.009   0.000  -0.004   0.000   0.000


------------------------ aborting loop because EDIFF is reached ----------------------------------------


 


 total charge     
 
# of ion       s       p       d       tot
------------------------------------------
    1        0.168   6.149   4.965  11.283
    2        0.173   6.145   4.972  11.289
    3        1.733   4.404   0.000   6.137
    4        1.733   4.404   0.000   6.137
    5        1.733   4.400   0.000   6.133
    6        1.733   4.400   0.000   6.133
--------------------------------------------------
tot          7.273  29.902   9.937  47.112
 


 magnetization (x)
 
# of ion       s       p       d       tot
------------------------------------------
    1       -0.022  -0.018  -4.581  -4.621
    2        0.023   0.016   4.578   4.617
    3        0.003   0.025   0.000   0.027
    4        0.003   0.025   0.000   0.027
    5       -0.003  -0.021   0.000  -0.024
    6       -0.003  -0.021   0.000  -0.024
--------------------------------------------------
tot         -0.001   0.006  -0.003   0.003
 
    CHARGE:  cpu time    0.0533: real time    0.0534
    FORLOC:  cpu time    0.0010: real time    0.0010
    FORNL :  cpu time    0.2605: real time    0.2605
    STRESS:  cpu time    2.9179: real time    2.9180
    FORCOR:  cpu time    0.0432: real time    0.0432
    FORHAR:  cpu time    0.0029: real time    0.0029
    MIXING:  cpu time    0.0022: real time    0.0022
    OFIELD:  cpu time    0.0000: real time    0.0000

  FORCE on cell =-STRESS in cart. coord.  units (eV):
  Direction    XX          YY          ZZ          XY          YZ          ZX
  --------------------------------------------------------------------------------------
  Alpha Z   199.63885   199.63885   199.63885
  Ewald   -1586.74077 -1586.74077 -1031.33986     0.00000    -0.00000    -0.00000
  Hartree   593.74219   593.74219   969.09929    -0.00000    -0.00000    -0.00000
  E(xc)    -150.58804  -150.56463  -150.69961    -0.01647    -0.02613    -0.02787
  Local     164.22238   164.22238  -759.63808     0.00000    -0.00000    -0.00000
  n-local  -310.13640  -310.41477  -309.37145     0.01892     0.11094     0.11108
  augment   158.54616   158.54616   158.05433     0.00000     0.00000    -0.00000
  Kinetic   931.16605   931.73566   924.27224    -0.43877    -0.81185    -0.84773
  Fock        0.00000     0.00000     0.00000     0.00000     0.00000     0.00000
  -------------------------------------------------------------------------------------
  Total       0.00776     0.00776     0.01572    -0.00000     0.00000     0.00000
  in kB       0.16069     0.16069     0.32563    -0.00000     0.00000     0.00000
  external pressure =        0.22 kB  Pullay stress =        0.00 kB


 VOLUME and BASIS-vectors are now :
 -----------------------------------------------------------------------------
  energy-cutoff  :      750.00
  volume of cell :       77.33
      direct lattice vectors                 reciprocal lattice vectors
     4.850612339  0.000000000  0.000000000     0.206159538  0.000000000  0.000000000
     0.000000000  4.850612339  0.000000000     0.000000000  0.206159538  0.000000000
     0.000000000  0.000000000  3.286535998     0.000000000  0.000000000  0.304271732

  length of vectors
     4.850612339  4.850612339  3.286535998     0.206159538  0.206159538  0.304271732


 FORCES acting on ions
    electron-ion (+dipol)            ewald-force                    non-local-force                 convergence-correction
 -----------------------------------------------------------------------------------------------
   0.305E-11 -.169E-11 -.263E-11   -.114E-12 0.568E-13 0.678E-14   0.000E+00 0.000E+00 0.000E+00   -.963E-13 -.100E-12 0.256E-15
   0.468E-13 0.741E-14 -.449E-13   0.284E-13 0.284E-13 0.590E-14   0.000E+00 0.000E+00 0.000E+00   -.107E-12 -.883E-13 0.607E-14
   -.325E+02 0.325E+02 0.142E-11   0.337E+02 -.337E+02 -.326E-14   -.120E+01 0.120E+01 0.000E+00   0.169E-05 -.169E-05 0.402E-13
   0.325E+02 -.325E+02 -.285E-11   -.337E+02 0.337E+02 -.337E-14   0.120E+01 -.120E+01 0.000E+00   -.169E-05 0.169E-05 -.701E-13
   0.325E+02 0.325E+02 -.459E-07   -.337E+02 -.337E+02 -.380E-14   0.120E+01 0.120E+01 0.271E-19   -.169E-05 -.169E-05 -.116E-12
   -.325E+02 -.325E+02 0.459E-07   0.337E+02 0.337E+02 -.411E-14   -.120E+01 -.120E+01 -.271E-19   0.169E-05 0.169E-05 0.775E-13
 -----------------------------------------------------------------------------------------------
   0.477E-11 0.216E-11 -.643E-11   -.711E-14 0.000E+00 -.186E-14   -.222E-15 0.000E+00 0.000E+00   -.242E-12 -.177E-12 -.624E-13
 
 
 POSITION                                       TOTAL-FORCE (eV/Angst)
 -----------------------------------------------------------------------------------
      2.42531      2.42531      1.64327         0.000000     -0.000000     -0.000000
      0.00000      0.00000      0.00000         0.000000     -0.000000     -0.000000
      0.95123      3.89938      1.64327         0.002307     -0.002307     -0.000000
      3.89938      0.95123      1.64327        -0.002307      0.002307     -0.000000
      1.47407      1.47407      0.00000        -0.002307     -0.002307      0.000000
      3.37654      3.37654      0.00000         0.002307      0.002307     -0.000000
 -----------------------------------------------------------------------------------
    total drift:                                0.000000      0.000000     -0.000000


--------------------------------------------------------------------------------------------------------



  FREE ENERGIE OF THE ION-ELECTRON SYSTEM (eV)
  ---------------------------------------------------
  free  energy   TOTEN  =       -68.03901243 eV

  energy  without entropy=      -68.03901243  energy(sigma->0) =      -68.03901243
 


--------------------------------------------------------------------------------------------------------


    POTLOK:  cpu time    1.4960: real time    1.4960


--------------------------------------------------------------------------------------------------------




--------------------------------------------------------------------------------------------------------


  
 reached required accuracy - stopping structural energy minimisation
     LOOP+:  cpu time   68.3088: real time   68.3294
    4ORBIT:  cpu time    0.0000: real time    0.0000
 


 total charge     
 
# of ion       s       p       d       tot
------------------------------------------
    1        0.168   6.149   4.965  11.283
    2        0.173   6.145   4.972  11.289
    3        1.733   4.404   0.000   6.137
    4        1.733   4.404   0.000   6.137
    5        1.733   4.400   0.000   6.133
    6        1.733   4.400   0.000   6.133
--------------------------------------------------
tot          7.273  29.902   9.937  47.112
 


 magnetization (x)
 
# of ion       s       p       d       tot
------------------------------------------
    1       -0.022  -0.018  -4.581  -4.621
    2        0.023   0.016   4.578   4.617
    3        0.003   0.025   0.000   0.027
    4        0.003   0.025   0.000   0.027
    5       -0.003  -0.021   0.000  -0.024
    6       -0.003  -0.021   0.000  -0.024
--------------------------------------------------
tot         -0.001   0.006  -0.003   0.003
 
 BZINTS: Fermi energy:  2.308054; 54.000000 electrons
         Band energy:-796.021015;  BLOECHL correction:  0.000000

 total amount of memory used by VASP MPI-rank0    51147. kBytes
=======================================================================

   base      :      30000. kBytes
   nonl-proj :       9741. kBytes
   fftplans  :       2625. kBytes
   grid      :       5402. kBytes
   one-center:        186. kBytes
   wavefun   :       3193. kBytes
 
  
  
 General timing and accounting informations for this job:
 ========================================================
  
                  Total CPU time used (sec):       69.455
                            User time (sec):       47.577
                          System time (sec):       21.878
                         Elapsed time (sec):       69.521
  
                   Maximum memory used (kb):       79756.
                   Average memory used (kb):           0.
  
                          Minor page faults:        15941
                          Major page faults:            7
                 Voluntary context switches:          290
