       N       E                     dE             d eps       ncg     rms          rms(c)
DAV:   1     0.733037990777E+03    0.73304E+03   -0.38398E+04  1296   0.220E+03
DAV:   2     0.138052212926E+02   -0.71923E+03   -0.69708E+03  1488   0.550E+02
DAV:   3    -0.393381803857E+02   -0.53143E+02   -0.52927E+02  1548   0.162E+02
DAV:   4    -0.401030233171E+02   -0.76484E+00   -0.76470E+00  1464   0.208E+01
DAV:   5    -0.401153676705E+02   -0.12344E-01   -0.12344E-01  1524   0.257E+00    0.225E+01
DAV:   6    -0.382303302277E+02    0.18850E+01   -0.15547E+01  1608   0.316E+01    0.143E+01
DAV:   7    -0.389470809428E+02   -0.71675E+00   -0.18294E+00  1548   0.108E+01    0.113E+01
DAV:   8    -0.390082804085E+02   -0.61199E-01   -0.41896E-01  1488   0.552E+00    0.521E+00
DAV:   9    -0.391692114432E+02   -0.16093E+00   -0.48807E-02  1332   0.219E+00    0.127E+00
DAV:  10    -0.391703167141E+02   -0.11053E-02   -0.19911E-02  1608   0.125E+00    0.281E-01
DAV:  11    -0.391705523690E+02   -0.23565E-03   -0.28101E-03  1368   0.355E-01    0.138E-01
DAV:  12    -0.391707041904E+02   -0.15182E-03   -0.10520E-04  1584   0.124E-01    0.553E-02
DAV:  13    -0.391707588657E+02   -0.54675E-04   -0.92261E-05  1368   0.557E-02    0.211E-02
DAV:  14    -0.391707675307E+02   -0.86650E-05   -0.82832E-06  1536   0.216E-02    0.901E-03
DAV:  15    -0.391707673400E+02    0.19071E-06   -0.14626E-06  1416   0.738E-03    0.268E-03
DAV:  16    -0.391707676161E+02   -0.27607E-06   -0.23793E-07  1464   0.287E-03    0.181E-03
DAV:  17    -0.391707675761E+02    0.39992E-07   -0.16922E-08   936   0.105E-03
   1 F= -.39170768E+02 E0= -.39170768E+02  d E =-.391708E+02  mag=     0.0000
       N       E                     dE             d eps       ncg     rms          rms(c)
DAV:   1    -0.391719314071E+02   -0.11638E-02   -0.24039E-02  1296   0.140E+00    0.294E-01
DAV:   2    -0.391708462525E+02    0.10852E-02   -0.33457E-03  1296   0.409E-01    0.166E-01
DAV:   3    -0.391708240705E+02    0.22182E-04   -0.28111E-04  1332   0.184E-01    0.651E-02
DAV:   4    -0.391708095421E+02    0.14528E-04   -0.25414E-05  1560   0.418E-02    0.437E-02
DAV:   5    -0.391708029944E+02    0.65476E-05   -0.55579E-06  1536   0.196E-02    0.154E-02
DAV:   6    -0.391708035828E+02   -0.58837E-06   -0.49203E-07  1584   0.806E-03    0.157E-03
DAV:   7    -0.391708035516E+02    0.31237E-07   -0.80599E-08   828   0.221E-03
   2 F= -.39170804E+02 E0= -.39170804E+02  d E =-.359755E-04  mag=    -0.0000
