 vasp.5.4.4.18Apr17-6-g9f103f2a35 (build Apr 27 2017 11:13:10) complex          
  
 executed on           IFC91_ompi date 2020.05.13  10:02:56
 running on   12 total cores
 distrk:  each k-point on   12 cores,    1 groups
 distr:  one band on NCORES_PER_BAND=   1 cores,   12 groups


--------------------------------------------------------------------------------------------------------


 INCAR:
 POTCAR:    PAW Mn_pv 02Aug2007                   
 POTCAR:    PAW F 31May2000                       

 ----------------------------------------------------------------------------- 
|                                                                             |
|           W    W    AA    RRRRR   N    N  II  N    N   GGGG   !!!           |
|           W    W   A  A   R    R  NN   N  II  NN   N  G    G  !!!           |
|           W    W  A    A  R    R  N N  N  II  N N  N  G       !!!           |
|           W WW W  AAAAAA  RRRRR   N  N N  II  N  N N  G  GGG   !            |
|           WW  WW  A    A  R   R   N   NN  II  N   NN  G    G                |
|           W    W  A    A  R    R  N    N  II  N    N   GGGG   !!!           |
|                                                                             |
|      For optimal performance we recommend to set                            |
|        NCORE= 4 - approx SQRT( number of cores)                             |
|      NCORE specifies how many cores store one orbital (NPAR=cpu/NCORE).     |
|      This setting can  greatly improve the performance of VASP for DFT.     |
|      The default,   NCORE=1            might be grossly inefficient         |
|      on modern multi-core architectures or massively parallel machines.     |
|      Do your own testing !!!!                                               |
|      Unfortunately you need to use the default for GW and RPA calculations. |
|      (for HF NCORE is supported but not extensively tested yet)             |
|                                                                             |
 ----------------------------------------------------------------------------- 

 POTCAR:    PAW Mn_pv 02Aug2007                   
   VRHFIN =Mn: 3p4s3d                                                           
   LEXCH  = CA                                                                  
   EATOM  =  2028.0466 eV,  149.0572 Ry                                         
                                                                                
   TITEL  = PAW Mn_pv 02Aug2007                                                 
   LULTRA =        F    use ultrasoft PP ?                                      
   IUNSCR =        1    unscreen: 0-lin 1-nonlin 2-no                           
   RPACOR =    2.080    partial core radius                                     
   POMASS =   54.938; ZVAL   =   13.000    mass and valenz                      
   RCORE  =    2.300    outmost cutoff radius                                   
   RWIGS  =    2.500; RWIGS  =    1.323    wigner-seitz radius (au A)           
   ENMAX  =  269.944; ENMIN  =  202.458 eV                                      
   ICORE  =        3    local potential                                         
   LCOR   =        T    correct aug charges                                     
   LPAW   =        T    paw PP                                                  
   EAUG   =  569.085                                                            
   DEXC   =    0.000                                                            
   RMAX   =    2.343    core radius for proj-oper                               
   RAUG   =    1.300    factor for augmentation sphere                          
   RDEP   =    2.338    radius for radial grids                                 
   RDEPT  =    1.798    core radius for aug-charge                              
                                                                                
   Atomic configuration                                                         
    8 entries                                                                   
     n  l   j            E        occ.                                          
     1  0  0.50     -6393.6057   2.0000                                         
     2  0  0.50      -735.9993   2.0000                                         
     2  1  1.50      -624.3417   6.0000                                         
     3  0  0.50       -80.9782   2.0000                                         
     3  1  1.50       -50.3144   6.0000                                         
     3  2  2.50        -3.6171   6.0000                                         
     4  0  0.50        -4.3304   1.0000                                         
     4  3  2.50        -1.3606   0.0000                                         
   Description                                                                  
     l       E           TYP  RCUT    TYP  RCUT                                 
     1    -50.3143634     23  2.000                                             
     1     -1.3605826     23  2.000                                             
     2     -3.6171470     23  2.300                                             
     2     -4.9777296     23  2.300                                             
     0     -4.3303688     23  2.300                                             
     0      7.3408788     23  2.300                                             
     3      9.5240782     23  2.300                                             
  local pseudopotential read in
  partial core-charges read in
  partial kinetic energy density read in
  atomic valenz-charges read in
  non local Contribution for L=           1  read in
    real space projection operators read in
  non local Contribution for L=           1  read in
    real space projection operators read in
  non local Contribution for L=           2  read in
    real space projection operators read in
  non local Contribution for L=           2  read in
    real space projection operators read in
  non local Contribution for L=           0  read in
    real space projection operators read in
  non local Contribution for L=           0  read in
    real space projection operators read in
    PAW grid and wavefunctions read in
 
   number of l-projection  operators is LMAX  =           6
   number of lm-projection operators is LMMAX =          18
 
 POTCAR:    PAW F 31May2000                       
   VRHFIN =F: s2p5                                                              
   LEXCH  = CA                                                                  
   EATOM  =   658.3685 eV,   48.3887 Ry                                         
                                                                                
   TITEL  = PAW F 31May2000                                                     
   LULTRA =        F    use ultrasoft PP ?                                      
   IUNSCR =        1    unscreen: 0-lin 1-nonlin 2-no                           
   RPACOR =    1.200    partial core radius                                     
   POMASS =   18.998; ZVAL   =    7.000    mass and valenz                      
   RCORE  =    1.520    outmost cutoff radius                                   
   RWIGS  =    1.500; RWIGS  =    0.794    wigner-seitz radius (au A)           
   ENMAX  =  400.000; ENMIN  =  300.000 eV                                      
   ICORE  =        2    local potential                                         
   LCOR   =        T    correct aug charges                                     
   LPAW   =        T    paw PP                                                  
   EAUG   =  613.614                                                            
   DEXC   =    0.000                                                            
   RMAX   =    1.555    core radius for proj-oper                               
   RAUG   =    1.300    factor for augmentation sphere                          
   RDEP   =    1.539    radius for radial grids                                 
   RDEPT  =    1.299    core radius for aug-charge                              
                                                                                
   Atomic configuration                                                         
    4 entries                                                                   
     n  l   j            E        occ.                                          
     1  0  0.50      -658.3386   2.0000                                         
     2  0  0.50       -29.6221   2.0000                                         
     2  1  0.50       -11.2952   5.0000                                         
     3  2  1.50       -12.2452   0.0000                                         
   Description                                                                  
     l       E           TYP  RCUT    TYP  RCUT                                 
     0    -29.6221019     23  1.200                                             
     0     -9.5240782     23  1.200                                             
     1    -11.2951545     23  1.520                                             
     1      1.3605826     23  1.520                                             
     2    -12.2452434      7  1.500                                             
  local pseudopotential read in
  partial core-charges read in
  partial kinetic energy density read in
  kinetic energy density of atom read in
  atomic valenz-charges read in
  non local Contribution for L=           0  read in
    real space projection operators read in
  non local Contribution for L=           0  read in
    real space projection operators read in
  non local Contribution for L=           1  read in
    real space projection operators read in
  non local Contribution for L=           1  read in
    real space projection operators read in
    PAW grid and wavefunctions read in
 
   number of l-projection  operators is LMAX  =           4
   number of lm-projection operators is LMMAX =           8
 
  PAW Mn_pv 02Aug2007                   :
 energy of atom  1       EATOM=-2028.0466
 kinetic energy error for atom=    0.0047 (will be added to EATOM!!)
  PAW F 31May2000                       :
 energy of atom  2       EATOM= -658.3685
 kinetic energy error for atom=    0.0252 (will be added to EATOM!!)
 
 
 POSCAR: Mn  F                                   
  positions in cartesian coordinates
  No initial velocities read in
 exchange correlation table for  LEXCH =        2
   RHO(1)=    0.500       N(1)  =     2000
   RHO(2)=  100.500       N(2)  =     4000
 


--------------------------------------------------------------------------------------------------------


 ion  position               nearest neighbor table
   1  0.500  0.500  0.500-   3 2.05   4 2.05   5 2.09   6 2.09   5 2.09   6 2.09
   2  0.000  0.000  0.000-   5 2.05   6 2.05   3 2.09   4 2.09   3 2.09   4 2.09
   3  0.197  0.803  0.500-   1 2.05   2 2.09   2 2.09
   4  0.803  0.197  0.500-   1 2.05   2 2.09   2 2.09
   5  0.303  0.303  0.000-   2 2.05   1 2.09   1 2.09
   6  0.697  0.697  0.000-   2 2.05   1 2.09   1 2.09
 
  LATTYP: Found a simple tetragonal cell.
 ALAT       =     4.7808157726
 C/A-ratio  =     0.6772348331
  
  Lattice vectors:
  
 A1 = (   4.7808157726,   0.0000000000,   0.0000000000)
 A2 = (   0.0000000000,   4.7808157726,   0.0000000000)
 A3 = (   0.0000000000,   0.0000000000,   3.2377349717)


Analysis of symmetry for initial positions (statically):
=====================================================================
 Subroutine PRICEL returns:
 Original cell was already a primitive cell.
 

 Routine SETGRP: Setting up the symmetry group for a 
 simple tetragonal supercell.


 Subroutine GETGRP returns: Found 16 space group operations
 (whereof  8 operations were pure point group operations)
 out of a pool of 16 trial point group operations.


The static configuration has the point symmetry D_2h.
 The point group associated with its full space group is D_4h.


Analysis of symmetry for dynamics (positions and initial velocities):
=====================================================================
 Subroutine PRICEL returns:
 Original cell was already a primitive cell.
 

 Routine SETGRP: Setting up the symmetry group for a 
 simple tetragonal supercell.


 Subroutine GETGRP returns: Found 16 space group operations
 (whereof  8 operations were pure point group operations)
 out of a pool of 16 trial point group operations.


The dynamic configuration has the point symmetry D_2h.
 The point group associated with its full space group is D_4h.


Analysis of structural, dynamic, and magnetic symmetry:
=====================================================================
 Subroutine PRICEL returns:
 Original cell was already a primitive cell.
 

 Routine SETGRP: Setting up the symmetry group for a 
 simple tetragonal supercell.


 Subroutine GETGRP returns: Found 16 space group operations
 (whereof  8 operations were pure point group operations)
 out of a pool of 16 trial point group operations.


The magnetic configuration has the point symmetry D_2h.
 The point group associated with its full space group is D_4h.


 Subroutine INISYM returns: Found 16 space group operations
 (whereof  8 operations are pure point group operations),
 and found     1 'primitive' translations

 
 
 KPOINTS: KPOINTS created by Atomic Simulation Env

Automatic generation of k-mesh.
Space group operators:
 irot       det(A)        alpha          n_x          n_y          n_z        tau_x        tau_y        tau_z
    1     1.000000     0.000000     1.000000     0.000000     0.000000     0.000000     0.000000     0.000000
    2    -1.000000     0.000000     1.000000     0.000000     0.000000     0.000000     0.000000     0.000000
    3     1.000000   180.000000     0.000000     0.000000     1.000000     0.000000     0.000000     0.000000
    4    -1.000000   180.000000     0.000000     0.000000     1.000000     0.000000     0.000000     0.000000
    5     1.000000   180.000000     0.707107     0.707107     0.000000     0.000000     0.000000     0.000000
    6    -1.000000   180.000000     0.707107     0.707107     0.000000     0.000000     0.000000     0.000000
    7     1.000000   180.000000     0.707107    -0.707107     0.000000     0.000000     0.000000     0.000000
    8    -1.000000   180.000000     0.707107    -0.707107     0.000000     0.000000     0.000000     0.000000
    9     1.000000    90.000000     0.000000     0.000000    -1.000000     0.500000     0.500000     0.500000
   10    -1.000000    90.000000     0.000000     0.000000    -1.000000     0.500000     0.500000     0.500000
   11     1.000000    90.000000     0.000000     0.000000     1.000000     0.500000     0.500000     0.500000
   12    -1.000000    90.000000     0.000000     0.000000     1.000000     0.500000     0.500000     0.500000
   13     1.000000   180.000000     0.000000     1.000000     0.000000     0.500000     0.500000     0.500000
   14    -1.000000   180.000000     0.000000     1.000000     0.000000     0.500000     0.500000     0.500000
   15     1.000000   180.000000     1.000000     0.000000     0.000000     0.500000     0.500000     0.500000
   16    -1.000000   180.000000     1.000000     0.000000     0.000000     0.500000     0.500000     0.500000
 
 Subroutine IBZKPT returns following result:
 ===========================================
 
 Found      9 irreducible k-points:
 
 Following reciprocal coordinates:
            Coordinates               Weight
  0.125000  0.125000  0.083333      8.000000
  0.375000  0.125000  0.083333     16.000000
  0.375000  0.375000  0.083333      8.000000
  0.125000  0.125000  0.250000      8.000000
  0.375000  0.125000  0.250000     16.000000
  0.375000  0.375000  0.250000      8.000000
  0.125000  0.125000  0.416667      8.000000
  0.375000  0.125000  0.416667     16.000000
  0.375000  0.375000  0.416667      8.000000
 
 Following cartesian coordinates:
            Coordinates               Weight
  0.026146  0.026146  0.025738      8.000000
  0.078438  0.026146  0.025738     16.000000
  0.078438  0.078438  0.025738      8.000000
  0.026146  0.026146  0.077214      8.000000
  0.078438  0.026146  0.077214     16.000000
  0.078438  0.078438  0.077214      8.000000
  0.026146  0.026146  0.128691      8.000000
  0.078438  0.026146  0.128691     16.000000
  0.078438  0.078438  0.128691      8.000000
 
 TETIRR: Found    106 inequivalent tetrahedra from      576


--------------------------------------------------------------------------------------------------------




 Dimension of arrays:
   k-points           NKPTS =      9   k-points in BZ     NKDIM =      9   number of bands    NBANDS=     36
   number of dos      NEDOS =    301   number of ions     NIONS =      6
   non local maximal  LDIM  =      6   non local SUM 2l+1 LMDIM =     18
   total plane-waves  NPLWV =  18000
   max r-space proj   IRMAX =      1   max aug-charges    IRDMAX=  59236
   dimension x,y,z NGX =    30 NGY =   30 NGZ =   20
   dimension x,y,z NGXF=    60 NGYF=   60 NGZF=   40
   support grid    NGXF=   120 NGYF=  120 NGZF=   80
   ions per type =               2   4
   NGX,Y,Z   is equivalent  to a cutoff of  10.43, 10.43, 10.27 a.u.
   NGXF,Y,Z  is equivalent  to a cutoff of  20.86, 20.86, 20.54 a.u.

 SYSTEM =  unknown system                          
 POSCAR =  Mn  F                                   

 Startparameter for this run:
   NWRITE =      2    write-flag & timer
   PREC   = normal    normal or accurate (medium, high low for compatibility)
   ISTART =      0    job   : 0-new  1-cont  2-samecut
   ICHARG =      2    charge: 1-file 2-atom 10-const
   ISPIN  =      2    spin polarized calculation?
   LNONCOLLINEAR =      F non collinear calculations
   LSORBIT =      F    spin-orbit coupling
   INIWAV =      1    electr: 0-lowe 1-rand  2-diag
   LASPH  =      T    aspherical Exc in radial PAW
   METAGGA=      F    non-selfconsistent MetaGGA calc.

 Electronic Relaxation 1
   ENCUT  =  600.0 eV  44.10 Ry    6.64 a.u.   9.55  9.55  6.47*2*pi/ulx,y,z
   ENINI  =  600.0     initial cutoff
   ENAUG  =  613.6 eV  augmentation charge cutoff
   NELM   =     60;   NELMIN=  2; NELMDL= -5     # of ELM steps 
   EDIFF  = 0.1E-05   stopping-criterion for ELM
   LREAL  =      F    real-space projection
   NLSPLINE    = F    spline interpolate recip. space projectors
   LCOMPAT=      F    compatible to vasp.4.4
   GGA_COMPAT  = T    GGA compatible to vasp.4.4-vasp.4.6
   LMAXPAW     = -100 max onsite density
   LMAXMIX     =    4 max onsite mixed and CHGCAR
   VOSKOWN=      0    Vosko Wilk Nusair interpolation
   ROPT   =    0.00000   0.00000
 Ionic relaxation
   EDIFFG = 0.1E-04   stopping-criterion for IOM
   NSW    =      0    number of steps for IOM
   NBLOCK =      1;   KBLOCK =      1    inner block; outer block 
   IBRION =     -1    ionic relax: 0-MD 1-quasi-New 2-CG
   NFREE  =      0    steps in history (QN), initial steepest desc. (CG)
   ISIF   =      2    stress and relaxation
   IWAVPR =     10    prediction:  0-non 1-charg 2-wave 3-comb
   ISYM   =      2    0-nonsym 1-usesym 2-fastsym
   LCORR  =      T    Harris-Foulkes like correction to forces

   POTIM  = 0.5000    time-step for ionic-motion
   TEIN   =    0.0    initial temperature
   TEBEG  =    0.0;   TEEND  =   0.0 temperature during run
   SMASS  =  -3.00    Nose mass-parameter (am)
   estimated Nose-frequenzy (Omega)   =  0.10E-29 period in steps =****** mass=  -0.522E-27a.u.
   SCALEE = 1.0000    scale energy and forces
   NPACO  =    256;   APACO  = 16.0  distance and # of slots for P.C.
   PSTRESS=    0.0 pullay stress

  Mass of Ions in am
   POMASS =  54.94 19.00
  Ionic Valenz
   ZVAL   =  13.00  7.00
  Atomic Wigner-Seitz radii
   RWIGS  =  -1.00 -1.00
  virtual crystal weights 
   VCA    =   1.00  1.00
   NELECT =      54.0000    total number of electrons
   NUPDOWN=      -1.0000    fix difference up-down

 DOS related values:
   EMIN   =  10.00;   EMAX   =-10.00  energy-range for DOS
   EFERMI =   0.00
   ISMEAR =    -5;   SIGMA  =   0.20  broadening in eV -4-tet -1-fermi 0-gaus

 Electronic relaxation 2 (details)
   IALGO  =     38    algorithm
   LDIAG  =      T    sub-space diagonalisation (order eigenvalues)
   LSUBROT=      F    optimize rotation matrix (better conditioning)
   TURBO    =      0    0=normal 1=particle mesh
   IRESTART =      0    0=no restart 2=restart with 2 vectors
   NREBOOT  =      0    no. of reboots
   NMIN     =      0    reboot dimension
   EREF     =   0.00    reference energy to select bands
   IMIX   =      4    mixing-type and parameters
     AMIX     =   0.40;   BMIX     =  1.00
     AMIX_MAG =   1.60;   BMIX_MAG =  1.00
     AMIN     =   0.10
     WC   =   100.;   INIMIX=   1;  MIXPRE=   1;  MAXMIX= -45

 Intra band minimization:
   WEIMIN = 0.0000     energy-eigenvalue tresh-hold
   EBREAK =  0.69E-08  absolut break condition
   DEPER  =   0.30     relativ break condition  

   TIME   =   0.40     timestep for ELM

  volume/ion in A,a.u.               =      12.33        83.23
  Fermi-wavevector in a.u.,A,eV,Ry     =   1.473865  2.785201 29.555629  2.172277
  Thomas-Fermi vector in A             =   2.588706
 
 Write flags
   LWAVE        =      T    write WAVECAR
   LDOWNSAMPLE  =      F    k-point downsampling of WAVECAR
   LCHARG       =      T    write CHGCAR
   LVTOT        =      F    write LOCPOT, total local potential
   LVHAR        =      F    write LOCPOT, Hartree potential only
   LELF         =      F    write electronic localiz. function (ELF)
   LORBIT       =     11    0 simple, 1 ext, 2 COOP (PROOUT), +10 PAW based schemes


 Dipole corrections
   LMONO  =      F    monopole corrections only (constant potential shift)
   LDIPOL =      F    correct potential (dipole corrections)
   IDIPOL =      0    1-x, 2-y, 3-z, 4-all directions 
   EPSILON=  1.0000000 bulk dielectric constant

 LDA+U is selected, type is set to LDAUTYPE =  2
   angular momentum for each species LDAUL =     2   -1
   U (eV)           for each species LDAUU =   2.0  0.0
   J (eV)           for each species LDAUJ =   0.0  0.0
 Exchange correlation treatment:
   GGA     =    --    GGA type
   LEXCH   =     2    internal setting for exchange type
   VOSKOWN=      0    Vosko Wilk Nusair interpolation
   LHFCALC =     F    Hartree Fock is set to
   LHFONE  =     F    Hartree Fock one center treatment
   AEXX    =    0.0000 exact exchange contribution

 Linear response parameters
   LEPSILON=     F    determine dielectric tensor
   LRPA    =     F    only Hartree local field effects (RPA)
   LNABLA  =     F    use nabla operator in PAW spheres
   LVEL    =     F    velocity operator in full k-point grid
   LINTERFAST=   F  fast interpolation
   KINTER  =     0    interpolate to denser k-point grid
   CSHIFT  =0.1000    complex shift for real part using Kramers Kronig
   OMEGAMAX=  -1.0    maximum frequency
   DEG_THRESHOLD= 0.2000000E-02 threshold for treating states as degnerate
   RTIME   =   -0.100 relaxation time in fs
  (WPLASMAI=    0.000 imaginary part of plasma frequency in eV, 0.658/RTIME)
   DFIELD  = 0.0000000 0.0000000 0.0000000 field for delta impulse in time
 
 Orbital magnetization related:
   ORBITALMAG=     F  switch on orbital magnetization
   LCHIMAG   =     F  perturbation theory with respect to B field
   DQ        =  0.001000  dq finite difference perturbation B field
   LLRAUG    =     F  two centre corrections for induced B field



--------------------------------------------------------------------------------------------------------


 Static calculation
 charge density and potential will be updated during run
 spin polarized calculation
 Variant of blocked Davidson
 Davidson routine will perform the subspace rotation
 perform sub-space diagonalisation
    after iterative eigenvector-optimisation
 modified Broyden-mixing scheme, WC =      100.0
 initial mixing is a Kerker type mixing with AMIX =  0.4000 and BMIX =      1.0000
 Hartree-type preconditioning will be used
 using additional bands            9
 reciprocal scheme for non local part
 use partial core corrections
 calculate Harris-corrections to forces 
   (improved forces if not selfconsistent)
 use of overlap-Matrix (Vanderbilt PP)
 Fermi weights with tetrahedron method with Bloechl corrections


--------------------------------------------------------------------------------------------------------


  energy-cutoff  :      600.00
  volume of cell :       74.00
      direct lattice vectors                 reciprocal lattice vectors
     4.780815773  0.000000000  0.000000000     0.209169323  0.000000000  0.000000000
     0.000000000  4.780815773  0.000000000     0.000000000  0.209169323  0.000000000
     0.000000000  0.000000000  3.237734972     0.000000000  0.000000000  0.308857893

  length of vectors
     4.780815773  4.780815773  3.237734972     0.209169323  0.209169323  0.308857893


 
 k-points in units of 2pi/SCALE and weight: KPOINTS created by Atomic Simulation Env
   0.02614617  0.02614617  0.02573816       0.083
   0.07843850  0.02614617  0.02573816       0.167
   0.07843850  0.07843850  0.02573816       0.083
   0.02614617  0.02614617  0.07721447       0.083
   0.07843850  0.02614617  0.07721447       0.167
   0.07843850  0.07843850  0.07721447       0.083
   0.02614617  0.02614617  0.12869079       0.083
   0.07843850  0.02614617  0.12869079       0.167
   0.07843850  0.07843850  0.12869079       0.083
 
 k-points in reciprocal lattice and weights: KPOINTS created by Atomic Simulation Env
   0.12500000  0.12500000  0.08333333       0.083
   0.37500000  0.12500000  0.08333333       0.167
   0.37500000  0.37500000  0.08333333       0.083
   0.12500000  0.12500000  0.25000000       0.083
   0.37500000  0.12500000  0.25000000       0.167
   0.37500000  0.37500000  0.25000000       0.083
   0.12500000  0.12500000  0.41666667       0.083
   0.37500000  0.12500000  0.41666667       0.167
   0.37500000  0.37500000  0.41666667       0.083
 
 position of ions in fractional coordinates (direct lattice) 
   0.50000000  0.50000000  0.50000000
   0.00000000  0.00000000  0.00000000
   0.19652090  0.80347910  0.50000000
   0.80347910  0.19652090  0.50000000
   0.30347910  0.30347910  0.00000000
   0.69652090  0.69652090  0.00000000
 
 position of ions in cartesian coordinates  (Angst):
   2.39040789  2.39040789  1.61886749
   0.00000000  0.00000000  0.00000000
   0.93953022  3.84128555  1.61886749
   3.84128555  0.93953022  1.61886749
   1.45087767  1.45087767  0.00000000
   3.32993811  3.32993811  0.00000000
 


--------------------------------------------------------------------------------------------------------


 k-point  1 :   0.1250 0.1250 0.0833  plane waves:    2485
 k-point  2 :   0.3750 0.1250 0.0833  plane waves:    2472
 k-point  3 :   0.3750 0.3750 0.0833  plane waves:    2471
 k-point  4 :   0.1250 0.1250 0.2500  plane waves:    2485
 k-point  5 :   0.3750 0.1250 0.2500  plane waves:    2469
 k-point  6 :   0.3750 0.3750 0.2500  plane waves:    2460
 k-point  7 :   0.1250 0.1250 0.4167  plane waves:    2458
 k-point  8 :   0.3750 0.1250 0.4167  plane waves:    2456
 k-point  9 :   0.3750 0.3750 0.4167  plane waves:    2468

 maximum and minimum number of plane-waves per node :      2485     2456

 maximum number of plane-waves:      2485
 maximum index in each direction: 
   IXMAX=    9   IYMAX=    9   IZMAX=    6
   IXMIN=   -9   IYMIN=   -9   IZMIN=   -6


 serial   3D FFT for wavefunctions
 parallel 3D FFT for charge:
    minimum data exchange during FFTs selected (reduces bandwidth)


 total amount of memory used by VASP MPI-rank0    43455. kBytes
=======================================================================

   base      :      30000. kBytes
   nonl-proj :       6709. kBytes
   fftplans  :       1875. kBytes
   grid      :       2467. kBytes
   one-center:        186. kBytes
   wavefun   :       2218. kBytes
 
     INWAV:  cpu time    0.0000: real time    0.0000
 Broyden mixing: mesh for mixing (old mesh)
   NGX = 19   NGY = 19   NGZ = 13
  (NGX  = 60   NGY  = 60   NGZ  = 40)
  gives a total of   4693 points

 initial charge density was supplied:
 charge density of overlapping atoms calculated
 number of electron      54.0000000 magnetization       0.0000000
 keeping initial charge density in first step


--------------------------------------------------------------------------------------------------------


 Maximum index for augmentation-charges         4475 (set IRDMAX)


--------------------------------------------------------------------------------------------------------


 First call to EWALD:  gamma=   0.422
 Maximum number of real-space cells 2x 2x 3
 Maximum number of reciprocal cells 3x 3x 2

    FEWALD:  cpu time    0.0010: real time    0.0010


--------------------------------------- Iteration      1(   1)  ---------------------------------------


    POTLOK:  cpu time    0.0064: real time    0.0064
    SETDIJ:  cpu time    0.4226: real time    0.4233
atom =   1  type =  1  l = 2
 
 onsite density matrix
 
spin component  1
 
  0.2837  0.0000  0.0000  0.0000  0.0000
  0.0000  0.2837  0.0000  0.0000  0.0000
  0.0000  0.0000  0.2837  0.0000  0.0000
  0.0000  0.0000  0.0000  0.2837  0.0000
  0.0000  0.0000  0.0000  0.0000  0.2837
 
spin component  2
 
  0.7701  0.0000  0.0000  0.0000  0.0000
  0.0000  0.7701  0.0000  0.0000  0.0000
  0.0000  0.0000  0.7701  0.0000  0.0000
  0.0000  0.0000  0.0000  0.7701  0.0000
  0.0000  0.0000  0.0000  0.0000  0.7701
 
 occupancies and eigenvectors
 
  o =  0.2837  v =  1.0000  0.0000  0.0000  0.0000  0.0000  0.0000  0.0000  0.0000  0.0000  0.0000      0.0000  0.0000  0.0000  0.0000  0.0000  0.0000  0.0000  0.0000  0.0000  0.0000
  o =  0.2837  v =  0.0000  1.0000  0.0000  0.0000  0.0000  0.0000  0.0000  0.0000  0.0000  0.0000      0.0000  0.0000  0.0000  0.0000  0.0000  0.0000  0.0000  0.0000  0.0000  0.0000
  o =  0.2837  v =  0.0000  0.0000  1.0000  0.0000  0.0000  0.0000  0.0000  0.0000  0.0000  0.0000      0.0000  0.0000  0.0000  0.0000  0.0000  0.0000  0.0000  0.0000  0.0000  0.0000
  o =  0.2837  v =  0.0000  0.0000  0.0000  1.0000  0.0000  0.0000  0.0000  0.0000  0.0000  0.0000      0.0000  0.0000  0.0000  0.0000  0.0000  0.0000  0.0000  0.0000  0.0000  0.0000
  o =  0.2837  v =  0.0000  0.0000  0.0000  0.0000  1.0000  0.0000  0.0000  0.0000  0.0000  0.0000      0.0000  0.0000  0.0000  0.0000  0.0000  0.0000  0.0000  0.0000  0.0000  0.0000
  o =  0.7701  v =  0.0000  0.0000  0.0000  0.0000  0.0000  1.0000  0.0000  0.0000  0.0000  0.0000      0.0000  0.0000  0.0000  0.0000  0.0000  0.0000  0.0000  0.0000  0.0000  0.0000
  o =  0.7701  v =  0.0000  0.0000  0.0000  0.0000  0.0000  0.0000  1.0000  0.0000  0.0000  0.0000      0.0000  0.0000  0.0000  0.0000  0.0000  0.0000  0.0000  0.0000  0.0000  0.0000
  o =  0.7701  v =  0.0000  0.0000  0.0000  0.0000  0.0000  0.0000  0.0000  1.0000  0.0000  0.0000      0.0000  0.0000  0.0000  0.0000  0.0000  0.0000  0.0000  0.0000  0.0000  0.0000
  o =  0.7701  v =  0.0000  0.0000  0.0000  0.0000  0.0000  0.0000  0.0000  0.0000  1.0000  0.0000      0.0000  0.0000  0.0000  0.0000  0.0000  0.0000  0.0000  0.0000  0.0000  0.0000
  o =  0.7701  v =  0.0000  0.0000  0.0000  0.0000  0.0000  0.0000  0.0000  0.0000  0.0000  1.0000      0.0000  0.0000  0.0000  0.0000  0.0000  0.0000  0.0000  0.0000  0.0000  0.0000
atom =   2  type =  1  l = 2
 
 onsite density matrix
 
spin component  1
 
  0.7701  0.0000  0.0000  0.0000  0.0000
  0.0000  0.7701  0.0000  0.0000  0.0000
  0.0000  0.0000  0.7701  0.0000  0.0000
  0.0000  0.0000  0.0000  0.7701  0.0000
  0.0000  0.0000  0.0000  0.0000  0.7701
 
spin component  2
 
  0.2837  0.0000  0.0000  0.0000  0.0000
  0.0000  0.2837  0.0000  0.0000  0.0000
  0.0000  0.0000  0.2837  0.0000  0.0000
  0.0000  0.0000  0.0000  0.2837  0.0000
  0.0000  0.0000  0.0000  0.0000  0.2837
 
 occupancies and eigenvectors
 
  o =  0.2837  v =  0.0000  0.0000  0.0000  0.0000  0.0000  1.0000  0.0000  0.0000  0.0000  0.0000      0.0000  0.0000  0.0000  0.0000  0.0000  0.0000  0.0000  0.0000  0.0000  0.0000
  o =  0.2837  v =  0.0000  0.0000  0.0000  0.0000  0.0000  0.0000  1.0000  0.0000  0.0000  0.0000      0.0000  0.0000  0.0000  0.0000  0.0000  0.0000  0.0000  0.0000  0.0000  0.0000
  o =  0.2837  v =  0.0000  0.0000  0.0000  0.0000  0.0000  0.0000  0.0000  1.0000  0.0000  0.0000      0.0000  0.0000  0.0000  0.0000  0.0000  0.0000  0.0000  0.0000  0.0000  0.0000
  o =  0.2837  v =  0.0000  0.0000  0.0000  0.0000  0.0000  0.0000  0.0000  0.0000  1.0000  0.0000      0.0000  0.0000  0.0000  0.0000  0.0000  0.0000  0.0000  0.0000  0.0000  0.0000
  o =  0.2837  v =  0.0000  0.0000  0.0000  0.0000  0.0000  0.0000  0.0000  0.0000  0.0000  1.0000      0.0000  0.0000  0.0000  0.0000  0.0000  0.0000  0.0000  0.0000  0.0000  0.0000
  o =  0.7701  v =  1.0000  0.0000  0.0000  0.0000  0.0000  0.0000  0.0000  0.0000  0.0000  0.0000      0.0000  0.0000  0.0000  0.0000  0.0000  0.0000  0.0000  0.0000  0.0000  0.0000
  o =  0.7701  v =  0.0000  1.0000  0.0000  0.0000  0.0000  0.0000  0.0000  0.0000  0.0000  0.0000      0.0000  0.0000  0.0000  0.0000  0.0000  0.0000  0.0000  0.0000  0.0000  0.0000
  o =  0.7701  v =  0.0000  0.0000  1.0000  0.0000  0.0000  0.0000  0.0000  0.0000  0.0000  0.0000      0.0000  0.0000  0.0000  0.0000  0.0000  0.0000  0.0000  0.0000  0.0000  0.0000
  o =  0.7701  v =  0.0000  0.0000  0.0000  1.0000  0.0000  0.0000  0.0000  0.0000  0.0000  0.0000      0.0000  0.0000  0.0000  0.0000  0.0000  0.0000  0.0000  0.0000  0.0000  0.0000
  o =  0.7701  v =  0.0000  0.0000  0.0000  0.0000  1.0000  0.0000  0.0000  0.0000  0.0000  0.0000      0.0000  0.0000  0.0000  0.0000  0.0000  0.0000  0.0000  0.0000  0.0000  0.0000
     EDDAV:  cpu time    0.3348: real time    0.3699
 BZINTS: Fermi energy: 18.579141; 54.000000 electrons
         Band energy: -46.075749;  BLOECHL correction: -0.080967
       DOS:  cpu time    0.0102: real time    0.0102
    --------------------------------------------
      LOOP:  cpu time    0.7740: real time    0.8099

 eigenvalue-minimisations  :  1296
 total energy-change (2. order) : 0.6696090E+03  (-0.3396700E+04)
 number of electron      54.0000000 magnetization       0.0000000
 augmentation part       54.0000000 magnetization       0.0000000

 Free energy of the ion-electron system (eV)
  ---------------------------------------------------
  alpha Z        PSCENC =       205.88318671
  Ewald energy   TEWEN  =     -4267.23927425
  -Hartree energ DENC   =     -2082.90231390
  -exchange      EXHF   =         0.00000000
  -V(xc)+E(xc)   XCENC  =       295.29939435
  PAW double counting   =      5431.03059579    -5555.84357640
  entropy T*S    EENTRO =         0.00000000
  eigenvalues    EBANDS =       -46.07574924
  atomic energy  EATOM  =      6689.45677594
  Solvation  Ediel_sol  =         0.00000000
  ---------------------------------------------------
  free energy    TOTEN  =       669.60903901 eV

  energy without entropy =      669.60903901  energy(sigma->0) =      669.60903901


--------------------------------------------------------------------------------------------------------




--------------------------------------- Iteration      1(   2)  ---------------------------------------


     EDDAV:  cpu time    0.3630: real time    0.3630
 BZINTS: Fermi energy:  5.161720; 54.000000 electrons
         Band energy:-709.339652;  BLOECHL correction:  0.000000
       DOS:  cpu time    0.0021: real time    0.0021
    --------------------------------------------
      LOOP:  cpu time    0.3651: real time    0.3651

 eigenvalue-minimisations  :  1452
 total energy-change (2. order) :-0.6632639E+03  (-0.6422820E+03)
 number of electron      54.0000000 magnetization       0.0000000
 augmentation part       54.0000000 magnetization       0.0000000

 Free energy of the ion-electron system (eV)
  ---------------------------------------------------
  alpha Z        PSCENC =       205.88318671
  Ewald energy   TEWEN  =     -4267.23927425
  -Hartree energ DENC   =     -2082.90231390
  -exchange      EXHF   =         0.00000000
  -V(xc)+E(xc)   XCENC  =       295.29939435
  PAW double counting   =      5431.03059579    -5555.84357640
  entropy T*S    EENTRO =         0.00000000
  eigenvalues    EBANDS =      -709.33965180
  atomic energy  EATOM  =      6689.45677594
  Solvation  Ediel_sol  =         0.00000000
  ---------------------------------------------------
  free energy    TOTEN  =         6.34513644 eV

  energy without entropy =        6.34513644  energy(sigma->0) =        6.34513644


--------------------------------------------------------------------------------------------------------




--------------------------------------- Iteration      1(   3)  ---------------------------------------


     EDDAV:  cpu time    0.3874: real time    0.3874
 BZINTS: Fermi energy:  4.073500; 54.000000 electrons
         Band energy:-758.187731;  BLOECHL correction:  0.000000
       DOS:  cpu time    0.0018: real time    0.0017
    --------------------------------------------
      LOOP:  cpu time    0.3891: real time    0.3891

 eigenvalue-minimisations  :  1548
 total energy-change (2. order) :-0.4884808E+02  (-0.4860513E+02)
 number of electron      54.0000000 magnetization       0.0000000
 augmentation part       54.0000000 magnetization       0.0000000

 Free energy of the ion-electron system (eV)
  ---------------------------------------------------
  alpha Z        PSCENC =       205.88318671
  Ewald energy   TEWEN  =     -4267.23927425
  -Hartree energ DENC   =     -2082.90231390
  -exchange      EXHF   =         0.00000000
  -V(xc)+E(xc)   XCENC  =       295.29939435
  PAW double counting   =      5431.03059579    -5555.84357640
  entropy T*S    EENTRO =         0.00000000
  eigenvalues    EBANDS =      -758.18773099
  atomic energy  EATOM  =      6689.45677594
  Solvation  Ediel_sol  =         0.00000000
  ---------------------------------------------------
  free energy    TOTEN  =       -42.50294275 eV

  energy without entropy =      -42.50294275  energy(sigma->0) =      -42.50294275


--------------------------------------------------------------------------------------------------------




--------------------------------------- Iteration      1(   4)  ---------------------------------------


     EDDAV:  cpu time    0.3613: real time    0.3613
 BZINTS: Fermi energy:  4.075039; 54.000000 electrons
         Band energy:-758.844251;  BLOECHL correction:  0.000000
       DOS:  cpu time    0.0020: real time    0.0020
    --------------------------------------------
      LOOP:  cpu time    0.3633: real time    0.3633

 eigenvalue-minimisations  :  1440
 total energy-change (2. order) :-0.6565197E+00  (-0.6563581E+00)
 number of electron      54.0000000 magnetization       0.0000000
 augmentation part       54.0000000 magnetization       0.0000000

 Free energy of the ion-electron system (eV)
  ---------------------------------------------------
  alpha Z        PSCENC =       205.88318671
  Ewald energy   TEWEN  =     -4267.23927425
  -Hartree energ DENC   =     -2082.90231390
  -exchange      EXHF   =         0.00000000
  -V(xc)+E(xc)   XCENC  =       295.29939435
  PAW double counting   =      5431.03059579    -5555.84357640
  entropy T*S    EENTRO =         0.00000000
  eigenvalues    EBANDS =      -758.84425069
  atomic energy  EATOM  =      6689.45677594
  Solvation  Ediel_sol  =         0.00000000
  ---------------------------------------------------
  free energy    TOTEN  =       -43.15946245 eV

  energy without entropy =      -43.15946245  energy(sigma->0) =      -43.15946245


--------------------------------------------------------------------------------------------------------




--------------------------------------- Iteration      1(   5)  ---------------------------------------


     EDDAV:  cpu time    0.3894: real time    0.3894
 BZINTS: Fermi energy:  4.060969; 54.000000 electrons
         Band energy:-758.854103;  BLOECHL correction:  0.000000
       DOS:  cpu time    0.0017: real time    0.0017
    CHARGE:  cpu time    0.0376: real time    0.0376
    MIXING:  cpu time    0.0005: real time    0.0005
    --------------------------------------------
      LOOP:  cpu time    0.4292: real time    0.4293

 eigenvalue-minimisations  :  1560
 total energy-change (2. order) :-0.9851833E-02  (-0.9851737E-02)
 number of electron      53.9999996 magnetization       0.0000000
 augmentation part       20.0945001 magnetization       0.0000000

 Broyden mixing:
  rms(total) = 0.24922E+01    rms(broyden)= 0.24922E+01
  rms(prec ) = 0.32313E+01
  weight for this iteration     100.00

 Free energy of the ion-electron system (eV)
  ---------------------------------------------------
  alpha Z        PSCENC =       205.88318671
  Ewald energy   TEWEN  =     -4267.23927425
  -Hartree energ DENC   =     -2082.90231390
  -exchange      EXHF   =         0.00000000
  -V(xc)+E(xc)   XCENC  =       295.29939435
  PAW double counting   =      5431.03059579    -5555.84357640
  entropy T*S    EENTRO =         0.00000000
  eigenvalues    EBANDS =      -758.85410252
  atomic energy  EATOM  =      6689.45677594
  Solvation  Ediel_sol  =         0.00000000
  ---------------------------------------------------
  free energy    TOTEN  =       -43.16931428 eV

  energy without entropy =      -43.16931428  energy(sigma->0) =      -43.16931428


--------------------------------------------------------------------------------------------------------




--------------------------------------- Iteration      1(   6)  ---------------------------------------


    POTLOK:  cpu time    0.0048: real time    0.0048
    SETDIJ:  cpu time    0.4223: real time    0.4223
atom =   1  type =  1  l = 2
 
 onsite density matrix
 
spin component  1
 
 -0.0662  0.0000  0.0063  0.0000  0.0000
  0.0000 -0.0709  0.0000  0.0038  0.0000
  0.0063  0.0000 -0.0677  0.0000 -0.0000
  0.0000  0.0038  0.0000 -0.0709  0.0000
  0.0000  0.0000 -0.0000  0.0000 -0.0790
 
spin component  2
 
  1.0935  0.0000  0.0135  0.0000 -0.0000
  0.0000  1.0924  0.0000  0.0123  0.0000
  0.0135  0.0000  1.0847  0.0000  0.0000
  0.0000  0.0123  0.0000  1.0924  0.0000
 -0.0000  0.0000  0.0000  0.0000  1.0834
 
 occupancies and eigenvectors
 
  o = -0.0790  v =  0.0000  0.0000 -0.0000  0.0000 -1.0000  0.0000  0.0000  0.0000  0.0000  0.0000      0.0000  0.0000  0.0000  0.0000  0.0000  0.0000  0.0000  0.0000  0.0000  0.0000
  o = -0.0748  v =  0.0000  0.7071  0.0000 -0.7071  0.0000  0.0000  0.0000  0.0000  0.0000  0.0000      0.0000  0.0000  0.0000  0.0000  0.0000  0.0000  0.0000  0.0000  0.0000  0.0000
  o = -0.0733  v = -0.6615  0.0000  0.7499  0.0000 -0.0000  0.0000  0.0000  0.0000  0.0000  0.0000      0.0000  0.0000  0.0000  0.0000  0.0000  0.0000  0.0000  0.0000  0.0000  0.0000
  o = -0.0671  v =  0.0000 -0.7071  0.0000 -0.7071 -0.0000  0.0000  0.0000  0.0000  0.0000  0.0000      0.0000  0.0000  0.0000  0.0000  0.0000  0.0000  0.0000  0.0000  0.0000  0.0000
  o = -0.0606  v =  0.7499  0.0000  0.6615  0.0000 -0.0000  0.0000  0.0000  0.0000  0.0000  0.0000      0.0000  0.0000  0.0000  0.0000  0.0000  0.0000  0.0000  0.0000  0.0000  0.0000
  o =  1.0749  v =  0.0000  0.0000  0.0000  0.0000  0.0000 -0.5867  0.0000  0.8098  0.0000 -0.0000      0.0000  0.0000  0.0000  0.0000  0.0000  0.0000  0.0000  0.0000  0.0000  0.0000
  o =  1.0801  v =  0.0000  0.0000  0.0000  0.0000  0.0000  0.0000 -0.7071 -0.0000  0.7071 -0.0000      0.0000  0.0000  0.0000  0.0000  0.0000  0.0000  0.0000  0.0000  0.0000  0.0000
  o =  1.0834  v =  0.0000  0.0000  0.0000  0.0000  0.0000  0.0000 -0.0000  0.0000  0.0000  1.0000      0.0000  0.0000  0.0000  0.0000  0.0000  0.0000  0.0000  0.0000  0.0000  0.0000
  o =  1.1033  v =  0.0000  0.0000  0.0000  0.0000  0.0000 -0.8098  0.0000 -0.5867  0.0000  0.0000      0.0000  0.0000  0.0000  0.0000  0.0000  0.0000  0.0000  0.0000  0.0000  0.0000
  o =  1.1047  v =  0.0000  0.0000  0.0000  0.0000  0.0000  0.0000 -0.7071  0.0000 -0.7071  0.0000      0.0000  0.0000  0.0000  0.0000  0.0000  0.0000  0.0000  0.0000  0.0000  0.0000
atom =   2  type =  1  l = 2
 
 onsite density matrix
 
spin component  1
 
  1.0935  0.0000 -0.0135  0.0000 -0.0000
  0.0000  1.0924  0.0000 -0.0123  0.0000
 -0.0135  0.0000  1.0847  0.0000  0.0000
  0.0000 -0.0123  0.0000  1.0924  0.0000
 -0.0000  0.0000  0.0000  0.0000  1.0834
 
spin component  2
 
 -0.0662  0.0000 -0.0063  0.0000  0.0000
  0.0000 -0.0709  0.0000 -0.0038  0.0000
 -0.0063  0.0000 -0.0677  0.0000  0.0000
  0.0000 -0.0038  0.0000 -0.0709  0.0000
  0.0000  0.0000  0.0000  0.0000 -0.0790
 
 occupancies and eigenvectors
 
  o = -0.0790  v =  0.0000  0.0000  0.0000  0.0000  0.0000  0.0000  0.0000  0.0000  0.0000 -1.0000      0.0000  0.0000  0.0000  0.0000  0.0000  0.0000  0.0000  0.0000  0.0000  0.0000
  o = -0.0748  v =  0.0000  0.0000  0.0000  0.0000  0.0000  0.0000  0.7071  0.0000  0.7071  0.0000      0.0000  0.0000  0.0000  0.0000  0.0000  0.0000  0.0000  0.0000  0.0000  0.0000
  o = -0.0733  v =  0.0000  0.0000  0.0000  0.0000  0.0000 -0.6615  0.0000 -0.7499  0.0000 -0.0000      0.0000  0.0000  0.0000  0.0000  0.0000  0.0000  0.0000  0.0000  0.0000  0.0000
  o = -0.0671  v =  0.0000  0.0000  0.0000  0.0000  0.0000  0.0000  0.7071  0.0000 -0.7071  0.0000      0.0000  0.0000  0.0000  0.0000  0.0000  0.0000  0.0000  0.0000  0.0000  0.0000
  o = -0.0606  v =  0.0000  0.0000  0.0000  0.0000  0.0000  0.7499  0.0000 -0.6615  0.0000 -0.0000      0.0000  0.0000  0.0000  0.0000  0.0000  0.0000  0.0000  0.0000  0.0000  0.0000
  o =  1.0749  v = -0.5867  0.0000 -0.8098  0.0000  0.0000  0.0000  0.0000  0.0000  0.0000  0.0000      0.0000  0.0000  0.0000  0.0000  0.0000  0.0000  0.0000  0.0000  0.0000  0.0000
  o =  1.0801  v = -0.0000 -0.7071 -0.0000 -0.7071  0.0000  0.0000  0.0000  0.0000  0.0000  0.0000      0.0000  0.0000  0.0000  0.0000  0.0000  0.0000  0.0000  0.0000  0.0000  0.0000
  o =  1.0834  v =  0.0000  0.0000  0.0000  0.0000  1.0000  0.0000  0.0000  0.0000  0.0000  0.0000      0.0000  0.0000  0.0000  0.0000  0.0000  0.0000  0.0000  0.0000  0.0000  0.0000
  o =  1.1033  v = -0.8098 -0.0000  0.5867  0.0000  0.0000  0.0000  0.0000  0.0000  0.0000  0.0000      0.0000  0.0000  0.0000  0.0000  0.0000  0.0000  0.0000  0.0000  0.0000  0.0000
  o =  1.1047  v =  0.0000 -0.7071 -0.0000  0.7071 -0.0000  0.0000  0.0000  0.0000  0.0000  0.0000      0.0000  0.0000  0.0000  0.0000  0.0000  0.0000  0.0000  0.0000  0.0000  0.0000
     EDDAV:  cpu time    0.4083: real time    0.4083
 BZINTS: Fermi energy:  2.673100; 54.000000 electrons
         Band energy:-738.438249;  BLOECHL correction:  0.000000
       DOS:  cpu time    0.0020: real time    0.0020
    CHARGE:  cpu time    0.0377: real time    0.0377
    MIXING:  cpu time    0.0005: real time    0.0005
    --------------------------------------------
      LOOP:  cpu time    0.8756: real time    0.8756

 eigenvalue-minimisations  :  1656
 total energy-change (2. order) : 0.2697466E+01  (-0.1510880E+01)
 number of electron      53.9999996 magnetization      -0.0000000
 augmentation part       19.9433954 magnetization      -0.0000000

 Broyden mixing:
  rms(total) = 0.15681E+01    rms(broyden)= 0.15680E+01
  rms(prec ) = 0.16165E+01
  weight for this iteration     100.00

 eigenvalues of (default mixing * dielectric matrix)
  average eigenvalue GAMMA=   0.8221
  0.8221

 Free energy of the ion-electron system (eV)
  ---------------------------------------------------
  alpha Z        PSCENC =       205.88318671
  Ewald energy   TEWEN  =     -4267.23927425
  -Hartree energ DENC   =     -2104.08428500
  -exchange      EXHF   =         0.00000000
  -V(xc)+E(xc)   XCENC  =       295.75938949
  PAW double counting   =      5724.18131064    -5845.99070275
  entropy T*S    EENTRO =         0.00000000
  eigenvalues    EBANDS =      -738.43824892
  atomic energy  EATOM  =      6689.45677594
  Solvation  Ediel_sol  =         0.00000000
  ---------------------------------------------------
  free energy    TOTEN  =       -40.47184813 eV

  energy without entropy =      -40.47184813  energy(sigma->0) =      -40.47184813


--------------------------------------------------------------------------------------------------------




--------------------------------------- Iteration      1(   7)  ---------------------------------------


    POTLOK:  cpu time    0.0048: real time    0.0048
    SETDIJ:  cpu time    0.4321: real time    0.4321
atom =   1  type =  1  l = 2
 
 onsite density matrix
 
spin component  1
 
  0.1335  0.0000  0.0271  0.0000 -0.0000
  0.0000  0.1254  0.0000  0.0212  0.0000
  0.0271  0.0000  0.1196  0.0000 -0.0000
  0.0000  0.0212  0.0000  0.1254  0.0000
 -0.0000  0.0000 -0.0000  0.0000  0.1016
 
spin component  2
 
  0.8915  0.0000  0.0055  0.0000  0.0000
  0.0000  0.8898  0.0000  0.0055  0.0000
  0.0055  0.0000  0.8877  0.0000 -0.0000
  0.0000  0.0055  0.0000  0.8898  0.0000
  0.0000  0.0000 -0.0000  0.0000  0.8848
 
 occupancies and eigenvectors
 
  o =  0.0986  v = -0.6129  0.0000  0.7901  0.0000 -0.0000  0.0000  0.0000  0.0000  0.0000  0.0000      0.0000  0.0000  0.0000  0.0000  0.0000  0.0000  0.0000  0.0000  0.0000  0.0000
  o =  0.1016  v =  0.0000  0.0000 -0.0000 -0.0000 -1.0000  0.0000  0.0000  0.0000  0.0000  0.0000      0.0000  0.0000  0.0000  0.0000  0.0000  0.0000  0.0000  0.0000  0.0000  0.0000
  o =  0.1042  v =  0.0000 -0.7071 -0.0000  0.7071 -0.0000  0.0000  0.0000  0.0000  0.0000  0.0000      0.0000  0.0000  0.0000  0.0000  0.0000  0.0000  0.0000  0.0000  0.0000  0.0000
  o =  0.1466  v =  0.0000  0.7071  0.0000  0.7071  0.0000  0.0000  0.0000  0.0000  0.0000  0.0000      0.0000  0.0000  0.0000  0.0000  0.0000  0.0000  0.0000  0.0000  0.0000  0.0000
  o =  0.1546  v = -0.7901  0.0000 -0.6129  0.0000  0.0000  0.0000  0.0000  0.0000  0.0000  0.0000      0.0000  0.0000  0.0000  0.0000  0.0000  0.0000  0.0000  0.0000  0.0000  0.0000
  o =  0.8837  v =  0.0000  0.0000  0.0000  0.0000  0.0000 -0.5788  0.0000  0.8155  0.0000  0.0000      0.0000  0.0000  0.0000  0.0000  0.0000  0.0000  0.0000  0.0000  0.0000  0.0000
  o =  0.8843  v =  0.0000  0.0000  0.0000  0.0000  0.0000  0.0000  0.7071  0.0000 -0.7071  0.0000      0.0000  0.0000  0.0000  0.0000  0.0000  0.0000  0.0000  0.0000  0.0000  0.0000
  o =  0.8848  v =  0.0000  0.0000  0.0000  0.0000  0.0000  0.0000  0.0000  0.0000  0.0000 -1.0000      0.0000  0.0000  0.0000  0.0000  0.0000  0.0000  0.0000  0.0000  0.0000  0.0000
  o =  0.8953  v =  0.0000  0.0000  0.0000  0.0000  0.0000  0.0000 -0.7071  0.0000 -0.7071 -0.0000      0.0000  0.0000  0.0000  0.0000  0.0000  0.0000  0.0000  0.0000  0.0000  0.0000
  o =  0.8955  v =  0.0000  0.0000  0.0000  0.0000  0.0000 -0.8155  0.0000 -0.5788  0.0000 -0.0000      0.0000  0.0000  0.0000  0.0000  0.0000  0.0000  0.0000  0.0000  0.0000  0.0000
atom =   2  type =  1  l = 2
 
 onsite density matrix
 
spin component  1
 
  0.8915  0.0000 -0.0055  0.0000  0.0000
  0.0000  0.8898  0.0000 -0.0055  0.0000
 -0.0055  0.0000  0.8877  0.0000  0.0000
  0.0000 -0.0055  0.0000  0.8898  0.0000
  0.0000  0.0000  0.0000  0.0000  0.8848
 
spin component  2
 
  0.1335  0.0000 -0.0271  0.0000 -0.0000
  0.0000  0.1254  0.0000 -0.0212  0.0000
 -0.0271  0.0000  0.1196  0.0000 -0.0000
  0.0000 -0.0212  0.0000  0.1254  0.0000
 -0.0000  0.0000 -0.0000  0.0000  0.1016
 
 occupancies and eigenvectors
 
  o =  0.0986  v =  0.0000  0.0000  0.0000  0.0000  0.0000 -0.6129  0.0000 -0.7901  0.0000 -0.0000      0.0000  0.0000  0.0000  0.0000  0.0000  0.0000  0.0000  0.0000  0.0000  0.0000
  o =  0.1016  v =  0.0000  0.0000  0.0000  0.0000  0.0000 -0.0000 -0.0000 -0.0000 -0.0000  1.0000      0.0000  0.0000  0.0000  0.0000  0.0000  0.0000  0.0000  0.0000  0.0000  0.0000
  o =  0.1042  v =  0.0000  0.0000  0.0000  0.0000  0.0000  0.0000  0.7071  0.0000  0.7071  0.0000      0.0000  0.0000  0.0000  0.0000  0.0000  0.0000  0.0000  0.0000  0.0000  0.0000
  o =  0.1466  v =  0.0000  0.0000  0.0000  0.0000  0.0000 -0.0000 -0.7071  0.0000  0.7071 -0.0000      0.0000  0.0000  0.0000  0.0000  0.0000  0.0000  0.0000  0.0000  0.0000  0.0000
  o =  0.1546  v =  0.0000  0.0000  0.0000  0.0000  0.0000 -0.7901  0.0000  0.6129 -0.0000 -0.0000      0.0000  0.0000  0.0000  0.0000  0.0000  0.0000  0.0000  0.0000  0.0000  0.0000
  o =  0.8837  v = -0.5788 -0.0000 -0.8155  0.0000  0.0000  0.0000  0.0000  0.0000  0.0000  0.0000      0.0000  0.0000  0.0000  0.0000  0.0000  0.0000  0.0000  0.0000  0.0000  0.0000
  o =  0.8843  v =  0.0000  0.7071  0.0000  0.7071  0.0000  0.0000  0.0000  0.0000  0.0000  0.0000      0.0000  0.0000  0.0000  0.0000  0.0000  0.0000  0.0000  0.0000  0.0000  0.0000
  o =  0.8848  v = -0.0000  0.0000 -0.0000  0.0000 -1.0000  0.0000  0.0000  0.0000  0.0000  0.0000      0.0000  0.0000  0.0000  0.0000  0.0000  0.0000  0.0000  0.0000  0.0000  0.0000
  o =  0.8953  v =  0.0000 -0.7071  0.0000  0.7071 -0.0000  0.0000  0.0000  0.0000  0.0000  0.0000      0.0000  0.0000  0.0000  0.0000  0.0000  0.0000  0.0000  0.0000  0.0000  0.0000
  o =  0.8955  v = -0.8155 -0.0000  0.5788  0.0000  0.0000  0.0000  0.0000  0.0000  0.0000  0.0000      0.0000  0.0000  0.0000  0.0000  0.0000  0.0000  0.0000  0.0000  0.0000  0.0000
     EDDAV:  cpu time    0.3704: real time    0.3704
 BZINTS: Fermi energy:  2.812010; 54.000000 electrons
         Band energy:-738.028047;  BLOECHL correction:  0.000000
       DOS:  cpu time    0.0017: real time    0.0017
    CHARGE:  cpu time    0.0374: real time    0.0374
    MIXING:  cpu time    0.0006: real time    0.0006
    --------------------------------------------
      LOOP:  cpu time    0.8470: real time    0.8470

 eigenvalue-minimisations  :  1476
 total energy-change (2. order) :-0.4088687E+00  (-0.1314246E+00)
 number of electron      53.9999996 magnetization      -0.0000000
 augmentation part       19.9520759 magnetization      -0.0000000

 Broyden mixing:
  rms(total) = 0.11754E+01    rms(broyden)= 0.11754E+01
  rms(prec ) = 0.12007E+01
  weight for this iteration     100.00

 eigenvalues of (default mixing * dielectric matrix)
  average eigenvalue GAMMA=   1.4639
  0.7143  2.2135

 Free energy of the ion-electron system (eV)
  ---------------------------------------------------
  alpha Z        PSCENC =       205.88318671
  Ewald energy   TEWEN  =     -4267.23927425
  -Hartree energ DENC   =     -2099.61416878
  -exchange      EXHF   =         0.00000000
  -V(xc)+E(xc)   XCENC  =       296.22909667
  PAW double counting   =      5972.30293021    -6099.87121616
  entropy T*S    EENTRO =         0.00000000
  eigenvalues    EBANDS =      -738.02804716
  atomic energy  EATOM  =      6689.45677594
  Solvation  Ediel_sol  =         0.00000000
  ---------------------------------------------------
  free energy    TOTEN  =       -40.88071682 eV

  energy without entropy =      -40.88071682  energy(sigma->0) =      -40.88071682


--------------------------------------------------------------------------------------------------------




--------------------------------------- Iteration      1(   8)  ---------------------------------------


    POTLOK:  cpu time    0.0047: real time    0.0047
    SETDIJ:  cpu time    0.4224: real time    0.4224
atom =   1  type =  1  l = 2
 
 onsite density matrix
 
spin component  1
 
 -0.0310  0.0000  0.0267  0.0000  0.0000
  0.0000 -0.0403  0.0000  0.0197  0.0000
  0.0267  0.0000 -0.0427  0.0000 -0.0000
  0.0000  0.0197  0.0000 -0.0403  0.0000
  0.0000  0.0000 -0.0000  0.0000 -0.0665
 
spin component  2
 
  1.0586  0.0000  0.0231  0.0000 -0.0000
  0.0000  1.0527  0.0000  0.0214  0.0000
  0.0231  0.0000  1.0426  0.0000  0.0000
  0.0000  0.0214  0.0000  1.0527  0.0000
 -0.0000  0.0000  0.0000  0.0000  1.0339
 
 occupancies and eigenvectors
 
  o = -0.0665  v =  0.0000 -0.0000 -0.0000  0.0000 -1.0000  0.0000  0.0000  0.0000  0.0000  0.0000      0.0000  0.0000  0.0000  0.0000  0.0000  0.0000  0.0000  0.0000  0.0000  0.0000
  o = -0.0643  v =  0.6267  0.0000 -0.7793 -0.0000  0.0000  0.0000  0.0000  0.0000  0.0000  0.0000      0.0000  0.0000  0.0000  0.0000  0.0000  0.0000  0.0000  0.0000  0.0000  0.0000
  o = -0.0600  v = -0.0000  0.7071  0.0000 -0.7071 -0.0000  0.0000  0.0000  0.0000  0.0000  0.0000      0.0000  0.0000  0.0000  0.0000  0.0000  0.0000  0.0000  0.0000  0.0000  0.0000
  o = -0.0206  v = -0.0000  0.7071 -0.0000  0.7071 -0.0000  0.0000  0.0000  0.0000  0.0000  0.0000      0.0000  0.0000  0.0000  0.0000  0.0000  0.0000  0.0000  0.0000  0.0000  0.0000
  o = -0.0095  v =  0.7793  0.0000  0.6267  0.0000 -0.0000  0.0000  0.0000  0.0000  0.0000  0.0000      0.0000  0.0000  0.0000  0.0000  0.0000  0.0000  0.0000  0.0000  0.0000  0.0000
  o =  1.0261  v =  0.0000  0.0000  0.0000  0.0000  0.0000 -0.5795  0.0000  0.8150  0.0000 -0.0000      0.0000  0.0000  0.0000  0.0000  0.0000  0.0000  0.0000  0.0000  0.0000  0.0000
  o =  1.0312  v =  0.0000  0.0000  0.0000  0.0000  0.0000  0.0000 -0.7071 -0.0000  0.7071 -0.0000      0.0000  0.0000  0.0000  0.0000  0.0000  0.0000  0.0000  0.0000  0.0000  0.0000
  o =  1.0339  v =  0.0000  0.0000  0.0000  0.0000  0.0000  0.0000 -0.0000  0.0000  0.0000  1.0000      0.0000  0.0000  0.0000  0.0000  0.0000  0.0000  0.0000  0.0000  0.0000  0.0000
  o =  1.0741  v =  0.0000  0.0000  0.0000  0.0000  0.0000  0.0000 -0.7071  0.0000 -0.7071  0.0000      0.0000  0.0000  0.0000  0.0000  0.0000  0.0000  0.0000  0.0000  0.0000  0.0000
  o =  1.0751  v =  0.0000  0.0000  0.0000  0.0000  0.0000 -0.8150  0.0000 -0.5795  0.0000  0.0000      0.0000  0.0000  0.0000  0.0000  0.0000  0.0000  0.0000  0.0000  0.0000  0.0000
atom =   2  type =  1  l = 2
 
 onsite density matrix
 
spin component  1
 
  1.0586  0.0000 -0.0231  0.0000  0.0000
  0.0000  1.0527  0.0000 -0.0214  0.0000
 -0.0231  0.0000  1.0426  0.0000 -0.0000
  0.0000 -0.0214  0.0000  1.0527  0.0000
  0.0000  0.0000 -0.0000  0.0000  1.0339
 
spin component  2
 
 -0.0310  0.0000 -0.0267  0.0000  0.0000
  0.0000 -0.0403  0.0000 -0.0197  0.0000
 -0.0267  0.0000 -0.0427  0.0000  0.0000
  0.0000 -0.0197  0.0000 -0.0403  0.0000
  0.0000  0.0000  0.0000  0.0000 -0.0665
 
 occupancies and eigenvectors
 
  o = -0.0665  v =  0.0000  0.0000  0.0000  0.0000  0.0000  0.0000  0.0000  0.0000  0.0000 -1.0000      0.0000  0.0000  0.0000  0.0000  0.0000  0.0000  0.0000  0.0000  0.0000  0.0000
  o = -0.0643  v =  0.0000  0.0000  0.0000  0.0000  0.0000 -0.6267  0.0000 -0.7793  0.0000 -0.0000      0.0000  0.0000  0.0000  0.0000  0.0000  0.0000  0.0000  0.0000  0.0000  0.0000
  o = -0.0600  v =  0.0000  0.0000  0.0000  0.0000  0.0000  0.0000 -0.7071  0.0000 -0.7071 -0.0000      0.0000  0.0000  0.0000  0.0000  0.0000  0.0000  0.0000  0.0000  0.0000  0.0000
  o = -0.0206  v =  0.0000  0.0000  0.0000  0.0000  0.0000  0.0000  0.7071  0.0000 -0.7071  0.0000      0.0000  0.0000  0.0000  0.0000  0.0000  0.0000  0.0000  0.0000  0.0000  0.0000
  o = -0.0095  v =  0.0000  0.0000  0.0000  0.0000  0.0000  0.7793  0.0000 -0.6267  0.0000 -0.0000      0.0000  0.0000  0.0000  0.0000  0.0000  0.0000  0.0000  0.0000  0.0000  0.0000
  o =  1.0261  v =  0.5795 -0.0000  0.8150 -0.0000  0.0000  0.0000  0.0000  0.0000  0.0000  0.0000      0.0000  0.0000  0.0000  0.0000  0.0000  0.0000  0.0000  0.0000  0.0000  0.0000
  o =  1.0312  v = -0.0000 -0.7071 -0.0000 -0.7071  0.0000  0.0000  0.0000  0.0000  0.0000  0.0000      0.0000  0.0000  0.0000  0.0000  0.0000  0.0000  0.0000  0.0000  0.0000  0.0000
  o =  1.0339  v = -0.0000  0.0000 -0.0000  0.0000  1.0000  0.0000  0.0000  0.0000  0.0000  0.0000      0.0000  0.0000  0.0000  0.0000  0.0000  0.0000  0.0000  0.0000  0.0000  0.0000
  o =  1.0741  v = -0.0000  0.7071  0.0000 -0.7071  0.0000  0.0000  0.0000  0.0000  0.0000  0.0000      0.0000  0.0000  0.0000  0.0000  0.0000  0.0000  0.0000  0.0000  0.0000  0.0000
  o =  1.0751  v =  0.8150  0.0000 -0.5795 -0.0000  0.0000  0.0000  0.0000  0.0000  0.0000  0.0000      0.0000  0.0000  0.0000  0.0000  0.0000  0.0000  0.0000  0.0000  0.0000  0.0000
     EDDAV:  cpu time    0.3797: real time    0.3797
 BZINTS: Fermi energy:  2.621038; 54.000000 electrons
         Band energy:-741.966807;  BLOECHL correction:  0.000000
       DOS:  cpu time    0.0019: real time    0.0019
    CHARGE:  cpu time    0.0374: real time    0.0374
    MIXING:  cpu time    0.0006: real time    0.0006
    --------------------------------------------
      LOOP:  cpu time    0.8467: real time    0.8467

 eigenvalue-minimisations  :  1524
 total energy-change (2. order) : 0.1293061E+00  (-0.4969005E-01)
 number of electron      53.9999996 magnetization       0.0000000
 augmentation part       19.9570064 magnetization       0.0000000

 Broyden mixing:
  rms(total) = 0.43373E+00    rms(broyden)= 0.43373E+00
  rms(prec ) = 0.46900E+00
  weight for this iteration     100.00

 eigenvalues of (default mixing * dielectric matrix)
  average eigenvalue GAMMA=   1.2175
  1.9820  1.0240  0.6465

 Free energy of the ion-electron system (eV)
  ---------------------------------------------------
  alpha Z        PSCENC =       205.88318671
  Ewald energy   TEWEN  =     -4267.23927425
  -Hartree energ DENC   =     -2095.65415911
  -exchange      EXHF   =         0.00000000
  -V(xc)+E(xc)   XCENC  =       295.70610209
  PAW double counting   =      6271.28679557    -6398.22403041
  entropy T*S    EENTRO =         0.00000000
  eigenvalues    EBANDS =      -741.96680730
  atomic energy  EATOM  =      6689.45677594
  Solvation  Ediel_sol  =         0.00000000
  ---------------------------------------------------
  free energy    TOTEN  =       -40.75141076 eV

  energy without entropy =      -40.75141076  energy(sigma->0) =      -40.75141076


--------------------------------------------------------------------------------------------------------




--------------------------------------- Iteration      1(   9)  ---------------------------------------


    POTLOK:  cpu time    0.0047: real time    0.0047
    SETDIJ:  cpu time    0.4226: real time    0.4226
atom =   1  type =  1  l = 2
 
 onsite density matrix
 
spin component  1
 
  0.0637  0.0000  0.0324  0.0000 -0.0000
  0.0000  0.0528  0.0000  0.0259  0.0000
  0.0324  0.0000  0.0464  0.0000 -0.0000
  0.0000  0.0259  0.0000  0.0528  0.0000
 -0.0000  0.0000 -0.0000  0.0000  0.0228
 
spin component  2
 
  0.9636  0.0000  0.0236  0.0000  0.0000
  0.0000  0.9571  0.0000  0.0203  0.0000
  0.0236  0.0000  0.9494  0.0000  0.0000
  0.0000  0.0203  0.0000  0.9571  0.0000
  0.0000  0.0000  0.0000  0.0000  0.9366
 
 occupancies and eigenvectors
 
  o =  0.0216  v = -0.6087  0.0000  0.7934  0.0000  0.0000  0.0000  0.0000  0.0000  0.0000  0.0000      0.0000  0.0000  0.0000  0.0000  0.0000  0.0000  0.0000  0.0000  0.0000  0.0000
  o =  0.0228  v = -0.0000 -0.0000  0.0000  0.0000 -1.0000  0.0000  0.0000  0.0000  0.0000  0.0000      0.0000  0.0000  0.0000  0.0000  0.0000  0.0000  0.0000  0.0000  0.0000  0.0000
  o =  0.0268  v =  0.0000  0.7071  0.0000 -0.7071 -0.0000  0.0000  0.0000  0.0000  0.0000  0.0000      0.0000  0.0000  0.0000  0.0000  0.0000  0.0000  0.0000  0.0000  0.0000  0.0000
  o =  0.0787  v =  0.0000  0.7071  0.0000  0.7071 -0.0000  0.0000  0.0000  0.0000  0.0000  0.0000      0.0000  0.0000  0.0000  0.0000  0.0000  0.0000  0.0000  0.0000  0.0000  0.0000
  o =  0.0886  v = -0.7934  0.0000 -0.6087  0.0000  0.0000  0.0000  0.0000  0.0000  0.0000  0.0000      0.0000  0.0000  0.0000  0.0000  0.0000  0.0000  0.0000  0.0000  0.0000  0.0000
  o =  0.9318  v =  0.0000  0.0000  0.0000  0.0000  0.0000 -0.5969  0.0000  0.8023  0.0000  0.0000      0.0000  0.0000  0.0000  0.0000  0.0000  0.0000  0.0000  0.0000  0.0000  0.0000
  o =  0.9366  v =  0.0000  0.0000  0.0000  0.0000  0.0000  0.0000 -0.0000 -0.0000  0.0000  1.0000      0.0000  0.0000  0.0000  0.0000  0.0000  0.0000  0.0000  0.0000  0.0000  0.0000
  o =  0.9368  v =  0.0000  0.0000  0.0000  0.0000  0.0000  0.0000  0.7071 -0.0000 -0.7071  0.0000      0.0000  0.0000  0.0000  0.0000  0.0000  0.0000  0.0000  0.0000  0.0000  0.0000
  o =  0.9775  v =  0.0000  0.0000  0.0000  0.0000  0.0000  0.0000  0.7071 -0.0000  0.7071  0.0000      0.0000  0.0000  0.0000  0.0000  0.0000  0.0000  0.0000  0.0000  0.0000  0.0000
  o =  0.9812  v =  0.0000  0.0000  0.0000  0.0000  0.0000 -0.8023  0.0000 -0.5969  0.0000 -0.0000      0.0000  0.0000  0.0000  0.0000  0.0000  0.0000  0.0000  0.0000  0.0000  0.0000
atom =   2  type =  1  l = 2
 
 onsite density matrix
 
spin component  1
 
  0.9636  0.0000 -0.0236  0.0000  0.0000
  0.0000  0.9571  0.0000 -0.0203  0.0000
 -0.0236  0.0000  0.9494  0.0000 -0.0000
  0.0000 -0.0203  0.0000  0.9571  0.0000
  0.0000  0.0000 -0.0000  0.0000  0.9366
 
spin component  2
 
  0.0637  0.0000 -0.0324  0.0000 -0.0000
  0.0000  0.0528  0.0000 -0.0259  0.0000
 -0.0324  0.0000  0.0464  0.0000 -0.0000
  0.0000 -0.0259  0.0000  0.0528  0.0000
 -0.0000  0.0000 -0.0000  0.0000  0.0228
 
 occupancies and eigenvectors
 
  o =  0.0216  v =  0.0000  0.0000  0.0000  0.0000  0.0000 -0.6087 -0.0000 -0.7934  0.0000 -0.0000      0.0000  0.0000  0.0000  0.0000  0.0000  0.0000  0.0000  0.0000  0.0000  0.0000
  o =  0.0228  v =  0.0000  0.0000  0.0000  0.0000  0.0000 -0.0000  0.0000 -0.0000  0.0000  1.0000      0.0000  0.0000  0.0000  0.0000  0.0000  0.0000  0.0000  0.0000  0.0000  0.0000
  o =  0.0268  v =  0.0000  0.0000  0.0000  0.0000  0.0000  0.0000 -0.7071  0.0000 -0.7071  0.0000      0.0000  0.0000  0.0000  0.0000  0.0000  0.0000  0.0000  0.0000  0.0000  0.0000
  o =  0.0787  v =  0.0000  0.0000  0.0000  0.0000  0.0000  0.0000  0.7071  0.0000 -0.7071 -0.0000      0.0000  0.0000  0.0000  0.0000  0.0000  0.0000  0.0000  0.0000  0.0000  0.0000
  o =  0.0886  v =  0.0000  0.0000  0.0000  0.0000  0.0000 -0.7934 -0.0000  0.6087  0.0000 -0.0000      0.0000  0.0000  0.0000  0.0000  0.0000  0.0000  0.0000  0.0000  0.0000  0.0000
  o =  0.9318  v = -0.5969  0.0000 -0.8023  0.0000  0.0000  0.0000  0.0000  0.0000  0.0000  0.0000      0.0000  0.0000  0.0000  0.0000  0.0000  0.0000  0.0000  0.0000  0.0000  0.0000
  o =  0.9366  v =  0.0000 -0.0000  0.0000 -0.0000  1.0000  0.0000  0.0000  0.0000  0.0000  0.0000      0.0000  0.0000  0.0000  0.0000  0.0000  0.0000  0.0000  0.0000  0.0000  0.0000
  o =  0.9368  v =  0.0000  0.7071  0.0000  0.7071  0.0000  0.0000  0.0000  0.0000  0.0000  0.0000      0.0000  0.0000  0.0000  0.0000  0.0000  0.0000  0.0000  0.0000  0.0000  0.0000
  o =  0.9775  v =  0.0000  0.7071  0.0000 -0.7071  0.0000  0.0000  0.0000  0.0000  0.0000  0.0000      0.0000  0.0000  0.0000  0.0000  0.0000  0.0000  0.0000  0.0000  0.0000  0.0000
  o =  0.9812  v = -0.8023  0.0000  0.5969  0.0000 -0.0000  0.0000  0.0000  0.0000  0.0000  0.0000      0.0000  0.0000  0.0000  0.0000  0.0000  0.0000  0.0000  0.0000  0.0000  0.0000
     EDDAV:  cpu time    0.3805: real time    0.3805
 BZINTS: Fermi energy:  2.634494; 54.000000 electrons
         Band energy:-739.618711;  BLOECHL correction:  0.000000
       DOS:  cpu time    0.0017: real time    0.0017
    CHARGE:  cpu time    0.0379: real time    0.0379
    MIXING:  cpu time    0.0006: real time    0.0006
    --------------------------------------------
      LOOP:  cpu time    0.8480: real time    0.8480

 eigenvalue-minimisations  :  1512
 total energy-change (2. order) :-0.2216724E+00  (-0.8269014E-02)
 number of electron      53.9999996 magnetization       0.0000000
 augmentation part       19.9593858 magnetization       0.0000000

 Broyden mixing:
  rms(total) = 0.15216E+00    rms(broyden)= 0.15216E+00
  rms(prec ) = 0.15759E+00
  weight for this iteration     100.00

 eigenvalues of (default mixing * dielectric matrix)
  average eigenvalue GAMMA=   1.2003
  2.5905  0.7981  0.7981  0.6147

 Free energy of the ion-electron system (eV)
  ---------------------------------------------------
  alpha Z        PSCENC =       205.88318671
  Ewald energy   TEWEN  =     -4267.23927425
  -Hartree energ DENC   =     -2095.80860154
  -exchange      EXHF   =         0.00000000
  -V(xc)+E(xc)   XCENC  =       295.95753599
  PAW double counting   =      6367.51901445    -6497.12300969
  entropy T*S    EENTRO =         0.00000000
  eigenvalues    EBANDS =      -739.61871076
  atomic energy  EATOM  =      6689.45677594
  Solvation  Ediel_sol  =         0.00000000
  ---------------------------------------------------
  free energy    TOTEN  =       -40.97308314 eV

  energy without entropy =      -40.97308314  energy(sigma->0) =      -40.97308314


--------------------------------------------------------------------------------------------------------




--------------------------------------- Iteration      1(  10)  ---------------------------------------


    POTLOK:  cpu time    0.0051: real time    0.0051
    SETDIJ:  cpu time    0.4224: real time    0.4224
atom =   1  type =  1  l = 2
 
 onsite density matrix
 
spin component  1
 
  0.0651  0.0000  0.0347  0.0000 -0.0000
  0.0000  0.0538  0.0000  0.0273  0.0000
  0.0347  0.0000  0.0472  0.0000 -0.0000
  0.0000  0.0273  0.0000  0.0538  0.0000
 -0.0000  0.0000 -0.0000  0.0000  0.0219
 
spin component  2
 
  0.9625  0.0000  0.0213  0.0000 -0.0000
  0.0000  0.9564  0.0000  0.0190  0.0000
  0.0213  0.0000  0.9489  0.0000 -0.0000
  0.0000  0.0190  0.0000  0.9564  0.0000
 -0.0000  0.0000 -0.0000  0.0000  0.9380
 
 occupancies and eigenvectors
 
  o =  0.0204  v = -0.6121  0.0000  0.7908  0.0000  0.0000  0.0000  0.0000  0.0000  0.0000  0.0000      0.0000  0.0000  0.0000  0.0000  0.0000  0.0000  0.0000  0.0000  0.0000  0.0000
  o =  0.0219  v = -0.0000 -0.0000  0.0000  0.0000 -1.0000  0.0000  0.0000  0.0000  0.0000  0.0000      0.0000  0.0000  0.0000  0.0000  0.0000  0.0000  0.0000  0.0000  0.0000  0.0000
  o =  0.0266  v =  0.0000 -0.7071  0.0000  0.7071  0.0000  0.0000  0.0000  0.0000  0.0000  0.0000      0.0000  0.0000  0.0000  0.0000  0.0000  0.0000  0.0000  0.0000  0.0000  0.0000
  o =  0.0811  v =  0.0000 -0.7071  0.0000 -0.7071  0.0000  0.0000  0.0000  0.0000  0.0000  0.0000      0.0000  0.0000  0.0000  0.0000  0.0000  0.0000  0.0000  0.0000  0.0000  0.0000
  o =  0.0920  v = -0.7908  0.0000 -0.6121  0.0000  0.0000  0.0000  0.0000  0.0000  0.0000  0.0000      0.0000  0.0000  0.0000  0.0000  0.0000  0.0000  0.0000  0.0000  0.0000  0.0000
  o =  0.9334  v =  0.0000  0.0000  0.0000  0.0000  0.0000 -0.5894  0.0000  0.8078  0.0000 -0.0000      0.0000  0.0000  0.0000  0.0000  0.0000  0.0000  0.0000  0.0000  0.0000  0.0000
  o =  0.9374  v =  0.0000  0.0000  0.0000  0.0000  0.0000  0.0000  0.7071  0.0000 -0.7071 -0.0000      0.0000  0.0000  0.0000  0.0000  0.0000  0.0000  0.0000  0.0000  0.0000  0.0000
  o =  0.9380  v =  0.0000  0.0000  0.0000  0.0000  0.0000  0.0000 -0.0000 -0.0000  0.0000 -1.0000      0.0000  0.0000  0.0000  0.0000  0.0000  0.0000  0.0000  0.0000  0.0000  0.0000
  o =  0.9754  v =  0.0000  0.0000  0.0000  0.0000  0.0000  0.0000  0.7071  0.0000  0.7071 -0.0000      0.0000  0.0000  0.0000  0.0000  0.0000  0.0000  0.0000  0.0000  0.0000  0.0000
  o =  0.9781  v =  0.0000  0.0000  0.0000  0.0000  0.0000 -0.8078  0.0000 -0.5894  0.0000  0.0000      0.0000  0.0000  0.0000  0.0000  0.0000  0.0000  0.0000  0.0000  0.0000  0.0000
atom =   2  type =  1  l = 2
 
 onsite density matrix
 
spin component  1
 
  0.9625  0.0000 -0.0213  0.0000 -0.0000
  0.0000  0.9564  0.0000 -0.0190  0.0000
 -0.0213  0.0000  0.9489  0.0000 -0.0000
  0.0000 -0.0190  0.0000  0.9564  0.0000
 -0.0000  0.0000 -0.0000  0.0000  0.9380
 
spin component  2
 
  0.0651  0.0000 -0.0347  0.0000  0.0000
  0.0000  0.0538  0.0000 -0.0273  0.0000
 -0.0347  0.0000  0.0472  0.0000 -0.0000
  0.0000 -0.0273  0.0000  0.0538  0.0000
  0.0000  0.0000 -0.0000  0.0000  0.0219
 
 occupancies and eigenvectors
 
  o =  0.0204  v =  0.0000  0.0000  0.0000  0.0000  0.0000 -0.6121  0.0000 -0.7908  0.0000 -0.0000      0.0000  0.0000  0.0000  0.0000  0.0000  0.0000  0.0000  0.0000  0.0000  0.0000
  o =  0.0219  v =  0.0000  0.0000  0.0000  0.0000  0.0000 -0.0000 -0.0000 -0.0000  0.0000  1.0000      0.0000  0.0000  0.0000  0.0000  0.0000  0.0000  0.0000  0.0000  0.0000  0.0000
  o =  0.0266  v =  0.0000  0.0000  0.0000  0.0000  0.0000  0.0000 -0.7071  0.0000 -0.7071 -0.0000      0.0000  0.0000  0.0000  0.0000  0.0000  0.0000  0.0000  0.0000  0.0000  0.0000
  o =  0.0811  v =  0.0000  0.0000  0.0000  0.0000  0.0000  0.0000  0.7071  0.0000 -0.7071  0.0000      0.0000  0.0000  0.0000  0.0000  0.0000  0.0000  0.0000  0.0000  0.0000  0.0000
  o =  0.0920  v =  0.0000  0.0000  0.0000  0.0000  0.0000 -0.7908  0.0000  0.6121  0.0000 -0.0000      0.0000  0.0000  0.0000  0.0000  0.0000  0.0000  0.0000  0.0000  0.0000  0.0000
  o =  0.9334  v = -0.5894  0.0000 -0.8078  0.0000 -0.0000  0.0000  0.0000  0.0000  0.0000  0.0000      0.0000  0.0000  0.0000  0.0000  0.0000  0.0000  0.0000  0.0000  0.0000  0.0000
  o =  0.9374  v =  0.0000 -0.7071  0.0000 -0.7071  0.0000  0.0000  0.0000  0.0000  0.0000  0.0000      0.0000  0.0000  0.0000  0.0000  0.0000  0.0000  0.0000  0.0000  0.0000  0.0000
  o =  0.9380  v =  0.0000  0.0000 -0.0000  0.0000  1.0000  0.0000  0.0000  0.0000  0.0000  0.0000      0.0000  0.0000  0.0000  0.0000  0.0000  0.0000  0.0000  0.0000  0.0000  0.0000
  o =  0.9754  v =  0.0000  0.7071  0.0000 -0.7071 -0.0000  0.0000  0.0000  0.0000  0.0000  0.0000      0.0000  0.0000  0.0000  0.0000  0.0000  0.0000  0.0000  0.0000  0.0000  0.0000
  o =  0.9781  v = -0.8078  0.0000  0.5894  0.0000  0.0000  0.0000  0.0000  0.0000  0.0000  0.0000      0.0000  0.0000  0.0000  0.0000  0.0000  0.0000  0.0000  0.0000  0.0000  0.0000
     EDDAV:  cpu time    0.3890: real time    0.3891
 BZINTS: Fermi energy:  2.631363; 54.000000 electrons
         Band energy:-739.209033;  BLOECHL correction:  0.000000
       DOS:  cpu time    0.0018: real time    0.0018
    CHARGE:  cpu time    0.0372: real time    0.0372
    MIXING:  cpu time    0.0007: real time    0.0007
    --------------------------------------------
      LOOP:  cpu time    0.8562: real time    0.8562

 eigenvalue-minimisations  :  1560
 total energy-change (2. order) :-0.7987389E-03  (-0.1330091E-02)
 number of electron      53.9999996 magnetization       0.0000000
 augmentation part       19.9559218 magnetization       0.0000000

 Broyden mixing:
  rms(total) = 0.23251E-01    rms(broyden)= 0.23245E-01
  rms(prec ) = 0.25194E-01
  weight for this iteration     100.00

 eigenvalues of (default mixing * dielectric matrix)
  average eigenvalue GAMMA=   1.1450
  2.4882  1.0031  0.8612  0.7644  0.6082

 Free energy of the ion-electron system (eV)
  ---------------------------------------------------
  alpha Z        PSCENC =       205.88318671
  Ewald energy   TEWEN  =     -4267.23927425
  -Hartree energ DENC   =     -2096.32486871
  -exchange      EXHF   =         0.00000000
  -V(xc)+E(xc)   XCENC  =       296.03271418
  PAW double counting   =      6359.38465266    -6488.95803526
  entropy T*S    EENTRO =         0.00000000
  eigenvalues    EBANDS =      -739.20903315
  atomic energy  EATOM  =      6689.45677594
  Solvation  Ediel_sol  =         0.00000000
  ---------------------------------------------------
  free energy    TOTEN  =       -40.97388188 eV

  energy without entropy =      -40.97388188  energy(sigma->0) =      -40.97388188


--------------------------------------------------------------------------------------------------------




--------------------------------------- Iteration      1(  11)  ---------------------------------------


    POTLOK:  cpu time    0.0047: real time    0.0047
    SETDIJ:  cpu time    0.4222: real time    0.4222
atom =   1  type =  1  l = 2
 
 onsite density matrix
 
spin component  1
 
  0.0633  0.0000  0.0343  0.0000  0.0000
  0.0000  0.0520  0.0000  0.0271  0.0000
  0.0343  0.0000  0.0453  0.0000 -0.0000
  0.0000  0.0271  0.0000  0.0520  0.0000
  0.0000  0.0000 -0.0000  0.0000  0.0204
 
spin component  2
 
  0.9652  0.0000  0.0213  0.0000  0.0000
  0.0000  0.9592  0.0000  0.0190  0.0000
  0.0213  0.0000  0.9516  0.0000  0.0000
  0.0000  0.0190  0.0000  0.9592  0.0000
  0.0000  0.0000  0.0000  0.0000  0.9408
 
 occupancies and eigenvectors
 
  o =  0.0188  v = -0.6113 -0.0000  0.7914  0.0000  0.0000  0.0000  0.0000  0.0000  0.0000  0.0000      0.0000  0.0000  0.0000  0.0000  0.0000  0.0000  0.0000  0.0000  0.0000  0.0000
  o =  0.0204  v = -0.0000  0.0000  0.0000  0.0000 -1.0000  0.0000  0.0000  0.0000  0.0000  0.0000      0.0000  0.0000  0.0000  0.0000  0.0000  0.0000  0.0000  0.0000  0.0000  0.0000
  o =  0.0249  v =  0.0000  0.7071  0.0000 -0.7071  0.0000  0.0000  0.0000  0.0000  0.0000  0.0000      0.0000  0.0000  0.0000  0.0000  0.0000  0.0000  0.0000  0.0000  0.0000  0.0000
  o =  0.0790  v =  0.0000  0.7071  0.0000  0.7071  0.0000  0.0000  0.0000  0.0000  0.0000  0.0000      0.0000  0.0000  0.0000  0.0000  0.0000  0.0000  0.0000  0.0000  0.0000  0.0000
  o =  0.0898  v = -0.7914 -0.0000 -0.6113  0.0000  0.0000  0.0000  0.0000  0.0000  0.0000  0.0000      0.0000  0.0000  0.0000  0.0000  0.0000  0.0000  0.0000  0.0000  0.0000  0.0000
  o =  0.9361  v =  0.0000  0.0000  0.0000  0.0000  0.0000 -0.5899  0.0000  0.8075 -0.0000 -0.0000      0.0000  0.0000  0.0000  0.0000  0.0000  0.0000  0.0000  0.0000  0.0000  0.0000
  o =  0.9402  v =  0.0000  0.0000  0.0000  0.0000  0.0000  0.0000  0.7071 -0.0000 -0.7071 -0.0000      0.0000  0.0000  0.0000  0.0000  0.0000  0.0000  0.0000  0.0000  0.0000  0.0000
  o =  0.9408  v =  0.0000  0.0000  0.0000  0.0000  0.0000 -0.0000  0.0000  0.0000 -0.0000  1.0000      0.0000  0.0000  0.0000  0.0000  0.0000  0.0000  0.0000  0.0000  0.0000  0.0000
  o =  0.9782  v =  0.0000  0.0000  0.0000  0.0000  0.0000 -0.0000 -0.7071 -0.0000 -0.7071 -0.0000      0.0000  0.0000  0.0000  0.0000  0.0000  0.0000  0.0000  0.0000  0.0000  0.0000
  o =  0.9808  v =  0.0000  0.0000  0.0000  0.0000  0.0000 -0.8075  0.0000 -0.5899  0.0000 -0.0000      0.0000  0.0000  0.0000  0.0000  0.0000  0.0000  0.0000  0.0000  0.0000  0.0000
atom =   2  type =  1  l = 2
 
 onsite density matrix
 
spin component  1
 
  0.9652  0.0000 -0.0213  0.0000  0.0000
  0.0000  0.9592  0.0000 -0.0190  0.0000
 -0.0213  0.0000  0.9516  0.0000 -0.0000
  0.0000 -0.0190  0.0000  0.9592  0.0000
  0.0000  0.0000 -0.0000  0.0000  0.9408
 
spin component  2
 
  0.0633  0.0000 -0.0343  0.0000 -0.0000
  0.0000  0.0520  0.0000 -0.0271  0.0000
 -0.0343  0.0000  0.0453  0.0000 -0.0000
  0.0000 -0.0271  0.0000  0.0520  0.0000
 -0.0000  0.0000 -0.0000  0.0000  0.0204
 
 occupancies and eigenvectors
 
  o =  0.0188  v =  0.0000  0.0000  0.0000  0.0000  0.0000 -0.6113 -0.0000 -0.7914  0.0000 -0.0000      0.0000  0.0000  0.0000  0.0000  0.0000  0.0000  0.0000  0.0000  0.0000  0.0000
  o =  0.0204  v =  0.0000  0.0000  0.0000  0.0000  0.0000 -0.0000  0.0000 -0.0000  0.0000  1.0000      0.0000  0.0000  0.0000  0.0000  0.0000  0.0000  0.0000  0.0000  0.0000  0.0000
  o =  0.0249  v =  0.0000  0.0000  0.0000  0.0000  0.0000  0.0000 -0.7071  0.0000 -0.7071  0.0000      0.0000  0.0000  0.0000  0.0000  0.0000  0.0000  0.0000  0.0000  0.0000  0.0000
  o =  0.0790  v =  0.0000  0.0000  0.0000  0.0000  0.0000  0.0000  0.7071  0.0000 -0.7071 -0.0000      0.0000  0.0000  0.0000  0.0000  0.0000  0.0000  0.0000  0.0000  0.0000  0.0000
  o =  0.0898  v =  0.0000  0.0000  0.0000  0.0000  0.0000 -0.7914 -0.0000  0.6113  0.0000 -0.0000      0.0000  0.0000  0.0000  0.0000  0.0000  0.0000  0.0000  0.0000  0.0000  0.0000
  o =  0.9361  v = -0.5899  0.0000 -0.8075  0.0000  0.0000  0.0000  0.0000  0.0000  0.0000  0.0000      0.0000  0.0000  0.0000  0.0000  0.0000  0.0000  0.0000  0.0000  0.0000  0.0000
  o =  0.9402  v =  0.0000 -0.7071  0.0000 -0.7071 -0.0000  0.0000  0.0000  0.0000  0.0000  0.0000      0.0000  0.0000  0.0000  0.0000  0.0000  0.0000  0.0000  0.0000  0.0000  0.0000
  o =  0.9408  v =  0.0000 -0.0000  0.0000  0.0000  1.0000  0.0000  0.0000  0.0000  0.0000  0.0000      0.0000  0.0000  0.0000  0.0000  0.0000  0.0000  0.0000  0.0000  0.0000  0.0000
[...]
     33       8.9397      0.00000
     34      10.2909      0.00000
     35      10.4946      0.00000
     36      11.6658      0.00000

 k-point     7 :       0.1250    0.1250    0.4167
  band No.  band energies     occupation 
      1     -45.8529      1.00000
      2     -45.8200      1.00000
      3     -45.7921      1.00000
      4     -41.3217      1.00000
      5     -41.3034      1.00000
      6     -41.2663      1.00000
      7     -20.5872      1.00000
      8     -20.4276      1.00000
      9     -20.3778      1.00000
     10     -20.2791      1.00000
     11      -4.1907      1.00000
     12      -3.9481      1.00000
     13      -3.6687      1.00000
     14      -3.5211      1.00000
     15      -3.3717      1.00000
     16      -3.1358      1.00000
     17      -2.6955      1.00000
     18      -2.5063      1.00000
     19      -2.4009      1.00000
     20      -1.8986      1.00000
     21      -1.8036      1.00000
     22      -1.7397      1.00000
     23       0.9388      1.00000
     24       1.0267      1.00000
     25       1.2980      1.00000
     26       1.9566      1.00000
     27       2.3148      1.00000
     28       6.3310      0.00000
     29       6.3463      0.00000
     30       6.4736      0.00000
     31       7.3008      0.00000
     32       7.5909      0.00000
     33       8.9318      0.00000
     34      11.1274      0.00000
     35      12.6033      0.00000
     36      12.8519      0.00000

 k-point     8 :       0.3750    0.1250    0.4167
  band No.  band energies     occupation 
      1     -45.8529      1.00000
      2     -45.8200      1.00000
      3     -45.7921      1.00000
      4     -41.3217      1.00000
      5     -41.3034      1.00000
      6     -41.2663      1.00000
      7     -20.5161      1.00000
      8     -20.4475      1.00000
      9     -20.3950      1.00000
     10     -20.3125      1.00000
     11      -4.2095      1.00000
     12      -3.9743      1.00000
     13      -3.8930      1.00000
     14      -3.6498      1.00000
     15      -3.3032      1.00000
     16      -2.9950      1.00000
     17      -2.8197      1.00000
     18      -2.6813      1.00000
     19      -2.1013      1.00000
     20      -1.8772      1.00000
     21      -1.6771      1.00000
     22      -1.5541      1.00000
     23       0.9381      1.00000
     24       0.9724      1.00000
     25       1.2094      1.00000
     26       1.9023      1.00000
     27       2.4729      1.00000
     28       6.3122      0.00000
     29       6.3365      0.00000
     30       6.5395      0.00000
     31       7.2604      0.00000
     32       7.7844      0.00000
     33       9.5430      0.00000
     34      10.9290      0.00000
     35      11.5669      0.00000
     36      12.6342      0.00000

 k-point     9 :       0.3750    0.3750    0.4167
  band No.  band energies     occupation 
      1     -45.8530      1.00000
      2     -45.8200      1.00000
      3     -45.7922      1.00000
      4     -41.3218      1.00000
      5     -41.3034      1.00000
      6     -41.2664      1.00000
      7     -20.4940      1.00000
      8     -20.4721      1.00000
      9     -20.3956      1.00000
     10     -20.3040      1.00000
     11      -4.4660      1.00000
     12      -4.2408      1.00000
     13      -3.8802      1.00000
     14      -3.8206      1.00000
     15      -3.2887      1.00000
     16      -2.9260      1.00000
     17      -2.7237      1.00000
     18      -2.4846      1.00000
     19      -1.8653      1.00000
     20      -1.7037      1.00000
     21      -1.5947      1.00000
     22      -1.4909      1.00000
     23       0.9499      1.00000
     24       0.9518      1.00000
     25       1.1878      1.00000
     26       1.9483      1.00000
     27       2.4470      1.00000
     28       6.3141      0.00000
     29       6.3289      0.00000
     30       6.5618      0.00000
     31       7.2276      0.00000
     32       7.6797      0.00000
     33      10.0730      0.00000
     34      11.4831      0.00000
     35      11.5369      0.00000
     36      11.6932      0.00000


--------------------------------------------------------------------------------------------------------


 soft charge-density along one line, spin component           1
         0         1         2         3         4         5         6         7         8         9
 total charge-density along one line
 
 soft charge-density along one line, spin component           2
         0         1         2         3         4         5         6         7         8         9
 total charge-density along one line
 
 pseudopotential strength for first ion, spin component:           1
-41.853  -0.000  -0.033   7.883   0.000   0.013   0.000   0.000
 -0.000 -41.828  -0.000   0.000   7.872   0.000  -0.000  -0.000
 -0.033  -0.000 -41.853   0.013   0.000   7.883  -0.000  -0.000
  7.883   0.000   0.013   5.350  -0.000  -0.005  -0.000  -0.000
  0.000   7.872   0.000  -0.000   5.355  -0.000   0.000  -0.000
  0.013   0.000   7.883  -0.005  -0.000   5.350  -0.000   0.000
  0.000  -0.000  -0.000  -0.000   0.000  -0.000  -2.148  -0.000
  0.000  -0.000  -0.000  -0.000  -0.000   0.000  -0.000  -2.118
  0.000   0.000  -0.000   0.000  -0.000  -0.000  -0.031   0.000
 -0.000  -0.000   0.000   0.000  -0.000  -0.000  -0.000  -0.054
  0.000   0.000  -0.000   0.000  -0.000   0.000   0.000   0.000
  0.000  -0.000  -0.000  -0.000   0.000  -0.000  -2.615  -0.000
  0.000  -0.000  -0.000  -0.000  -0.000   0.000  -0.000  -2.584
  0.000   0.000  -0.000   0.000  -0.000  -0.000  -0.033   0.000
 -0.000  -0.000   0.000   0.000  -0.000  -0.000  -0.000  -0.055
  0.000   0.000  -0.000   0.000  -0.000   0.000   0.000   0.000
 -0.000  -0.000   0.000  -0.000  -0.000   0.000   0.007   0.000
 -0.000  -0.000   0.000  -0.000  -0.000   0.000   0.013   0.000
 pseudopotential strength for first ion, spin component:           2
-44.886  -0.000  -0.026   9.351   0.000   0.009   0.000   0.000
 -0.000 -44.867  -0.000   0.000   9.344   0.000  -0.000  -0.000
 -0.026  -0.000 -44.886   0.009   0.000   9.351  -0.000  -0.000
  9.351   0.000   0.009   4.862  -0.000  -0.003   0.000  -0.000
  0.000   9.344   0.000  -0.000   4.864  -0.000   0.000  -0.000
  0.009   0.000   9.351  -0.003  -0.000   4.862  -0.000   0.000
  0.000  -0.000  -0.000   0.000   0.000  -0.000  -6.476  -0.000
  0.000  -0.000  -0.000  -0.000  -0.000   0.000  -0.000  -6.457
  0.000   0.000  -0.000   0.000  -0.000  -0.000  -0.011   0.000
 -0.000  -0.000   0.000   0.000  -0.000  -0.000  -0.000  -0.040
  0.000   0.000  -0.000   0.000  -0.000  -0.000   0.000   0.000
  0.000  -0.000  -0.000   0.000   0.000  -0.000  -6.945  -0.000
  0.000  -0.000  -0.000  -0.000  -0.000   0.000  -0.000  -6.927
  0.000   0.000  -0.000   0.000  -0.000  -0.000  -0.012   0.000
 -0.000  -0.000   0.000   0.000  -0.000  -0.000  -0.000  -0.041
  0.000   0.000  -0.000   0.000  -0.000  -0.000   0.000   0.000
 -0.000  -0.000   0.000  -0.000  -0.000   0.000   0.004   0.000
 -0.000  -0.000   0.000  -0.000  -0.000   0.000   0.008   0.000
 total augmentation occupancy for first ion, spin component:           1
  1.998   0.000  -0.000  -0.014   0.000   0.000   0.000   0.000   0.000   0.000   0.000   0.000   0.000   0.000   0.000   0.000
  0.000   1.998   0.000   0.000  -0.013   0.000   0.000   0.000   0.000   0.000   0.000   0.000   0.000   0.000   0.000   0.000
 -0.000   0.000   1.998   0.000   0.000  -0.014   0.000   0.000   0.000   0.000   0.000   0.000   0.000   0.000   0.000   0.000
 -0.014   0.000   0.000   0.098   0.000  -0.011   0.000   0.000   0.000   0.000   0.000   0.000   0.000   0.000   0.000   0.000
  0.000  -0.013   0.000   0.000   0.108   0.000   0.000   0.000   0.000   0.000   0.000   0.000   0.000   0.000   0.000   0.000
  0.000   0.000  -0.014  -0.011   0.000   0.098   0.000   0.000   0.000   0.000   0.000   0.000   0.000   0.000   0.000   0.000
  0.000   0.000   0.000   0.000   0.000   0.000   8.312   0.000   3.364   0.000   0.000  -6.421   0.000  -3.198   0.000   0.000
  0.000   0.000   0.000   0.000   0.000   0.000   0.000   6.872   0.000   2.860   0.000   0.000  -5.041   0.000  -2.701   0.000
  0.000   0.000   0.000   0.000   0.000   0.000   3.364   0.000   6.197   0.000   0.000  -3.200   0.000  -4.433   0.000   0.000
  0.000   0.000   0.000   0.000   0.000   0.000   0.000   2.860   0.000   6.872   0.000   0.000  -2.701   0.000  -5.041   0.000
  0.000   0.000   0.000   0.000   0.000   0.000  -0.000   0.000   0.000   0.000   3.910   0.000   0.000  -0.000   0.000  -2.211
  0.000   0.000   0.000   0.000   0.000   0.000  -6.421   0.000  -3.200   0.000   0.000   5.703   0.000   3.083   0.000  -0.000
  0.000   0.000   0.000   0.000   0.000   0.000   0.000  -5.041   0.000  -2.701   0.000   0.000   4.370   0.000   2.584   0.000
  0.000   0.000   0.000   0.000   0.000   0.000  -3.198   0.000  -4.433   0.000   0.000   3.083   0.000   3.813   0.000  -0.000
  0.000   0.000   0.000   0.000   0.000   0.000   0.000  -2.701   0.000  -5.041   0.000   0.000   2.584   0.000   4.370   0.000
  0.000   0.000   0.000   0.000   0.000   0.000   0.000   0.000  -0.000   0.000  -2.211  -0.000   0.000   0.000   0.000   1.629
  0.000   0.000   0.000   0.000   0.000   0.000   0.288   0.000  -0.209   0.000   0.000  -0.323   0.000   0.219   0.000  -0.000
  0.000   0.000   0.000   0.000   0.000   0.000  -0.006   0.000   0.025   0.000   0.000   0.036   0.000  -0.036   0.000   0.000
 total augmentation occupancy for first ion, spin component:           2
  0.004   0.000  -0.000   0.016   0.000  -0.000   0.000   0.000   0.000   0.000   0.000   0.000   0.000   0.000   0.000   0.000
  0.000   0.004   0.000   0.000   0.017   0.000   0.000   0.000   0.000   0.000   0.000   0.000   0.000   0.000   0.000   0.000
 -0.000   0.000   0.004  -0.000   0.000   0.016   0.000   0.000   0.000   0.000   0.000   0.000   0.000   0.000   0.000   0.000
  0.016   0.000  -0.000  -0.009   0.000  -0.001   0.000   0.000   0.000   0.000   0.000   0.000   0.000   0.000   0.000   0.000
  0.000   0.017   0.000   0.000  -0.008   0.000   0.000   0.000   0.000   0.000   0.000   0.000   0.000   0.000   0.000   0.000
 -0.000   0.000   0.016  -0.001   0.000  -0.009   0.000   0.000   0.000   0.000   0.000   0.000   0.000   0.000   0.000   0.000
  0.000   0.000   0.000   0.000   0.000   0.000  -5.454   0.000  -1.766   0.000  -0.000   3.107   0.000   1.357   0.000   0.000
  0.000   0.000   0.000   0.000   0.000   0.000   0.000  -4.706   0.000  -1.544   0.000   0.000   2.507   0.000   1.186   0.000
  0.000   0.000   0.000   0.000   0.000   0.000  -1.766   0.000  -4.244   0.000   0.000   1.358   0.000   2.164   0.000   0.000
  0.000   0.000   0.000   0.000   0.000   0.000   0.000  -1.544   0.000  -4.706   0.000   0.000   1.186   0.000   2.507   0.000
  0.000   0.000   0.000   0.000   0.000   0.000  -0.000   0.000  -0.000   0.000  -3.189   0.000   0.000  -0.000   0.000   1.343
  0.000   0.000   0.000   0.000   0.000   0.000   3.107   0.000   1.358   0.000   0.000  -1.845   0.000  -0.951   0.000   0.000
  0.000   0.000   0.000   0.000   0.000   0.000   0.000   2.507   0.000   1.186   0.000   0.000  -1.395   0.000  -0.833   0.000
  0.000   0.000   0.000   0.000   0.000   0.000   1.357   0.000   2.164   0.000  -0.000  -0.951   0.000  -1.164   0.000   0.000
  0.000   0.000   0.000   0.000   0.000   0.000   0.000   1.186   0.000   2.507   0.000   0.000  -0.833   0.000  -1.395   0.000
  0.000   0.000   0.000   0.000   0.000   0.000   0.000   0.000  -0.000   0.000   1.343   0.000   0.000   0.000   0.000  -0.584
  0.000   0.000   0.000   0.000   0.000   0.000   0.011   0.000   0.014   0.000  -0.000  -0.024   0.000   0.006   0.000  -0.000
  0.000   0.000   0.000   0.000   0.000   0.000  -0.054   0.000   0.012   0.000   0.000   0.033   0.000  -0.005   0.000  -0.000


------------------------ aborting loop because EDIFF is reached ----------------------------------------


 


 total charge     
 
# of ion       s       p       d       tot
------------------------------------------
    1        0.180   6.175   4.988  11.342
    2        0.185   6.169   4.996  11.350
    3        1.722   4.359   0.000   6.081
    4        1.722   4.359   0.000   6.081
    5        1.722   4.355   0.000   6.077
    6        1.722   4.355   0.000   6.077
--------------------------------------------------
tot          7.253  29.771   9.983  47.007
 


 magnetization (x)
 
# of ion       s       p       d       tot
------------------------------------------
    1       -0.013  -0.014  -4.528  -4.555
    2        0.014   0.012   4.525   4.551
    3        0.002   0.026   0.000   0.028
    4        0.002   0.026   0.000   0.028
    5       -0.003  -0.021   0.000  -0.024
    6       -0.003  -0.021   0.000  -0.024
--------------------------------------------------
tot         -0.001   0.008  -0.003   0.003
 
    CHARGE:  cpu time    0.0378: real time    0.0378
    FORLOC:  cpu time    0.0008: real time    0.0008
    FORNL :  cpu time    0.1740: real time    0.1740
    STRESS:  cpu time    0.5130: real time    0.5130
    FORCOR:  cpu time    0.0041: real time    0.0041
    FORHAR:  cpu time    0.0021: real time    0.0021
    MIXING:  cpu time    0.0007: real time    0.0007
    OFIELD:  cpu time    0.0000: real time    0.0000

  FORCE on cell =-STRESS in cart. coord.  units (eV):
  Direction    XX          YY          ZZ          XY          YZ          ZX
  --------------------------------------------------------------------------------------
  Alpha Z   205.88319   205.88319   205.88319
  Ewald   -1607.70851 -1607.70851 -1051.82577     0.00000     0.00000    -0.00000
  Hartree   574.49362   574.49362   947.62857    -0.00000    -0.00000    -0.00000
  E(xc)    -309.37079  -309.37079  -309.41399     0.00000    -0.00000    -0.00000
  Local     185.96700   185.96700  -736.01593     0.00000     0.00000     0.00000
  n-local  -237.95414  -238.26246  -237.22723     0.01650     0.11054     0.10823
  augment   267.02253   267.02253   266.46270    -0.00000    -0.00000    -0.00000
  Kinetic   921.53077   922.14780   914.48382    -0.54402    -0.98577    -1.03298
  Fock        0.00000     0.00000     0.00000     0.00000     0.00000     0.00000
  -------------------------------------------------------------------------------------
  Total       0.01803     0.01803    -0.02465     0.00000     0.00000     0.00000
  in kB       0.39030     0.39030    -0.53364     0.00000     0.00000     0.00000
  external pressure =        0.08 kB  Pullay stress =        0.00 kB


 VOLUME and BASIS-vectors are now :
 -----------------------------------------------------------------------------
  energy-cutoff  :      600.00
  volume of cell :       74.00
      direct lattice vectors                 reciprocal lattice vectors
     4.780815773  0.000000000  0.000000000     0.209169323  0.000000000  0.000000000
     0.000000000  4.780815773  0.000000000     0.000000000  0.209169323  0.000000000
     0.000000000  0.000000000  3.237734972     0.000000000  0.000000000  0.308857893

  length of vectors
     4.780815773  4.780815773  3.237734972     0.209169323  0.209169323  0.308857893


 FORCES acting on ions
    electron-ion (+dipol)            ewald-force                    non-local-force                 convergence-correction
 -----------------------------------------------------------------------------------------------
   -.181E-11 0.652E-11 -.394E-13   -.171E-12 -.114E-12 -.238E-13   0.000E+00 0.000E+00 0.000E+00   -.891E-13 -.197E-13 0.989E-13
   -.455E-13 -.272E-13 0.476E-13   -.568E-13 0.199E-12 -.262E-13   0.000E+00 0.000E+00 0.000E+00   0.866E-13 0.525E-13 -.703E-13
   -.326E+02 0.326E+02 -.451E-11   0.338E+02 -.338E+02 0.163E-13   -.117E+01 0.117E+01 0.434E-18   -.143E-03 0.143E-03 0.386E-13
   0.326E+02 -.326E+02 -.530E-11   -.338E+02 0.338E+02 0.164E-13   0.117E+01 -.117E+01 -.434E-18   0.143E-03 -.143E-03 0.965E-14
   0.326E+02 0.326E+02 -.107E-08   -.338E+02 -.338E+02 0.997E-14   0.117E+01 0.117E+01 0.434E-18   0.143E-03 0.143E-03 -.697E-10
   -.326E+02 -.326E+02 0.108E-08   0.338E+02 0.338E+02 0.100E-13   -.117E+01 -.117E+01 -.434E-18   -.143E-03 -.143E-03 0.697E-10
 -----------------------------------------------------------------------------------------------
   -.350E-11 0.796E-11 -.201E-11   0.000E+00 -.711E-14 0.263E-14   -.222E-15 0.000E+00 0.000E+00   0.295E-13 0.196E-13 0.245E-15
 
 
 POSITION                                       TOTAL-FORCE (eV/Angst)
 -----------------------------------------------------------------------------------
      2.39041      2.39041      1.61887         0.000000     -0.000000      0.000000
      0.00000      0.00000      0.00000         0.000000     -0.000000      0.000000
      0.93953      3.84129      1.61887        -0.001801      0.001801      0.000000
      3.84129      0.93953      1.61887         0.001801     -0.001801     -0.000000
      1.45088      1.45088      0.00000         0.001801      0.001801      0.000000
      3.32994      3.32994      0.00000        -0.001801     -0.001801     -0.000000
 -----------------------------------------------------------------------------------
    total drift:                               -0.000000      0.000000     -0.000000


--------------------------------------------------------------------------------------------------------



  FREE ENERGIE OF THE ION-ELECTRON SYSTEM (eV)
  ---------------------------------------------------
  free  energy   TOTEN  =       -40.97393764 eV

  energy  without entropy=      -40.97393764  energy(sigma->0) =      -40.97393764
 


--------------------------------------------------------------------------------------------------------


    POTLOK:  cpu time    0.4273: real time    0.4273


--------------------------------------------------------------------------------------------------------


 writing wavefunctions
     LOOP+:  cpu time   12.4475: real time   12.4835
    4ORBIT:  cpu time    0.0000: real time    0.0000
 


 total charge     
 
# of ion       s       p       d       tot
------------------------------------------
    1        0.180   6.175   4.988  11.342
    2        0.185   6.169   4.996  11.350
    3        1.722   4.359   0.000   6.081
    4        1.722   4.359   0.000   6.081
    5        1.722   4.355   0.000   6.077
    6        1.722   4.355   0.000   6.077
--------------------------------------------------
tot          7.253  29.771   9.983  47.007
 


 magnetization (x)
 
# of ion       s       p       d       tot
------------------------------------------
    1       -0.013  -0.014  -4.528  -4.555
    2        0.014   0.012   4.525   4.551
    3        0.002   0.026   0.000   0.028
    4        0.002   0.026   0.000   0.028
    5       -0.003  -0.021   0.000  -0.024
    6       -0.003  -0.021   0.000  -0.024
--------------------------------------------------
tot         -0.001   0.008  -0.003   0.003
 
 BZINTS: Fermi energy:  2.637870; 54.000000 electrons
         Band energy:-739.055614;  BLOECHL correction:  0.000000

 total amount of memory used by VASP MPI-rank0    43455. kBytes
=======================================================================

   base      :      30000. kBytes
   nonl-proj :       6709. kBytes
   fftplans  :       1875. kBytes
   grid      :       2467. kBytes
   one-center:        186. kBytes
   wavefun   :       2218. kBytes
 
  
  
 General timing and accounting informations for this job:
 ========================================================
  
                  Total CPU time used (sec):       13.773
                            User time (sec):       10.575
                          System time (sec):        3.198
                         Elapsed time (sec):       14.164
  
                   Maximum memory used (kb):       58764.
                   Average memory used (kb):           0.
  
                          Minor page faults:         9027
                          Major page faults:            5
                 Voluntary context switches:          142
