       N       E                     dE             d eps       ncg     rms          rms(c)
DAV:   1     0.960928902871E+03    0.96093E+03   -0.37423E+04  3468   0.200E+03
DAV:   2     0.403905775465E+03   -0.55702E+03   -0.53300E+03  3996   0.511E+02
DAV:   3     0.369551898197E+03   -0.34354E+02   -0.33829E+02  3924   0.135E+02
DAV:   4     0.369126485390E+03   -0.42541E+00   -0.42511E+00  4044   0.165E+01
DAV:   5     0.369119437767E+03   -0.70476E-02   -0.70469E-02  4020   0.197E+00    0.588E+01
DAV:   6    -0.688147003242E+02   -0.43793E+03   -0.28335E+02  4320   0.212E+02    0.629E+01
DAV:   7    -0.714477242001E+02   -0.26330E+01   -0.50540E+01  3528   0.454E+01    0.172E+01
DAV:   8    -0.686348945989E+02    0.28128E+01   -0.71439E+00  4284   0.219E+01    0.648E+00
DAV:   9    -0.681680565969E+02    0.46684E+00   -0.48503E+00  4068   0.188E+01    0.812E+00
DAV:  10    -0.680974002783E+02    0.70656E-01   -0.42828E-01  3720   0.573E+00    0.581E+00
DAV:  11    -0.680726858810E+02    0.24714E-01   -0.10315E+00  4080   0.736E+00    0.191E+00
DAV:  12    -0.680369788061E+02    0.35707E-01   -0.97232E-02  4428   0.314E+00    0.128E+00
DAV:  13    -0.680293146814E+02    0.76641E-02   -0.72589E-02  4008   0.159E+00    0.109E+00
DAV:  14    -0.680242658430E+02    0.50488E-02   -0.50084E-02  3480   0.254E+00    0.410E-01
DAV:  15    -0.680250703318E+02   -0.80449E-03   -0.39647E-03  3876   0.421E-01    0.387E-01
DAV:  16    -0.680244964034E+02    0.57393E-03   -0.25415E-03  3600   0.373E-01    0.144E-01
DAV:  17    -0.680243686567E+02    0.12775E-03   -0.25668E-03  3888   0.364E-01    0.101E-01
DAV:  18    -0.680241925700E+02    0.17609E-03   -0.10896E-04  3588   0.789E-02    0.343E-02
DAV:  19    -0.680242013066E+02   -0.87366E-05   -0.83550E-05  4212   0.554E-02    0.561E-03
DAV:  20    -0.680242105153E+02   -0.92087E-05   -0.55780E-06  3684   0.158E-02    0.570E-03
DAV:  21    -0.680242145358E+02   -0.40205E-05   -0.81633E-07  3840   0.679E-03    0.261E-03
DAV:  22    -0.680242159141E+02   -0.13783E-05   -0.39543E-07  3360   0.379E-03    0.138E-03
DAV:  23    -0.680242162142E+02   -0.30014E-06   -0.12219E-07  2568   0.248E-03    0.521E-04
DAV:  24    -0.680242177123E+02   -0.14981E-05   -0.12305E-08  1800   0.921E-04    0.303E-04
DAV:  25    -0.680242178480E+02   -0.13575E-06   -0.25443E-09  1752   0.349E-04    0.343E-04
DAV:  26    -0.680242177400E+02    0.10805E-06   -0.14780E-09  1800   0.290E-04    0.242E-04
DAV:  27    -0.680242176708E+02    0.69139E-07   -0.46575E-10  1752   0.129E-04
   1 F= -.68024218E+02 E0= -.68024218E+02  d E =-.680242E+02  mag=    -0.0000
