 vasp.5.4.4.18Apr17-6-g9f103f2a35 (build Apr 27 2017 11:13:10) complex          
  
 executed on           IFC91_ompi date 2020.05.13  12:39:46
 running on   12 total cores
 distrk:  each k-point on   12 cores,    1 groups
 distr:  one band on NCORES_PER_BAND=   1 cores,   12 groups


--------------------------------------------------------------------------------------------------------


 INCAR:
 POTCAR:    PAW_PBE Mn_pv 02Aug2007               
 POTCAR:    PAW_PBE F 08Apr2002                   

 ----------------------------------------------------------------------------- 
|                                                                             |
|           W    W    AA    RRRRR   N    N  II  N    N   GGGG   !!!           |
|           W    W   A  A   R    R  NN   N  II  NN   N  G    G  !!!           |
|           W    W  A    A  R    R  N N  N  II  N N  N  G       !!!           |
|           W WW W  AAAAAA  RRRRR   N  N N  II  N  N N  G  GGG   !            |
|           WW  WW  A    A  R   R   N   NN  II  N   NN  G    G                |
|           W    W  A    A  R    R  N    N  II  N    N   GGGG   !!!           |
|                                                                             |
|      For optimal performance we recommend to set                            |
|        NCORE= 4 - approx SQRT( number of cores)                             |
|      NCORE specifies how many cores store one orbital (NPAR=cpu/NCORE).     |
|      This setting can  greatly improve the performance of VASP for DFT.     |
|      The default,   NCORE=1            might be grossly inefficient         |
|      on modern multi-core architectures or massively parallel machines.     |
|      Do your own testing !!!!                                               |
|      Unfortunately you need to use the default for GW and RPA calculations. |
|      (for HF NCORE is supported but not extensively tested yet)             |
|                                                                             |
 ----------------------------------------------------------------------------- 

 POTCAR:    PAW_PBE Mn_pv 02Aug2007               
   VRHFIN =Mn: 3p4s3d                                                           
   LEXCH  = PE                                                                  
   EATOM  =  2025.2664 eV,  148.8529 Ry                                         
                                                                                
   TITEL  = PAW_PBE Mn_pv 02Aug2007                                             
   LULTRA =        F    use ultrasoft PP ?                                      
   IUNSCR =        1    unscreen: 0-lin 1-nonlin 2-no                           
   RPACOR =    2.080    partial core radius                                     
   POMASS =   54.938; ZVAL   =   13.000    mass and valenz                      
   RCORE  =    2.300    outmost cutoff radius                                   
   RWIGS  =    2.500; RWIGS  =    1.323    wigner-seitz radius (au A)           
   ENMAX  =  269.864; ENMIN  =  202.398 eV                                      
   ICORE  =        3    local potential                                         
   LCOR   =        T    correct aug charges                                     
   LPAW   =        T    paw PP                                                  
   EAUG   =  569.085                                                            
   DEXC   =    0.000                                                            
   RMAX   =    2.343    core radius for proj-oper                               
   RAUG   =    1.300    factor for augmentation sphere                          
   RDEP   =    2.338    radius for radial grids                                 
   RDEPT  =    1.798    core radius for aug-charge                              
                                                                                
   Atomic configuration                                                         
    8 entries                                                                   
     n  l   j            E        occ.                                          
     1  0  0.50     -6424.8287   2.0000                                         
     2  0  0.50      -739.1154   2.0000                                         
     2  1  1.50      -625.3949   6.0000                                         
     3  0  0.50       -81.6100   2.0000                                         
     3  1  1.50       -50.4667   6.0000                                         
     3  2  2.50        -3.3745   6.0000                                         
     4  0  0.50        -4.1331   1.0000                                         
     4  3  2.50        -1.3606   0.0000                                         
   Description                                                                  
     l       E           TYP  RCUT    TYP  RCUT                                 
     1    -50.4666628     23  2.000                                             
     1     -1.3605826     23  2.000                                             
     2     -3.3744729     23  2.300                                             
     2     -4.7350555     23  2.300                                             
     0     -4.1331431     23  2.300                                             
     0      7.6656591     23  2.300                                             
     3      9.5240782     23  2.300                                             
  local pseudopotential read in
  partial core-charges read in
  partial kinetic energy density read in
  atomic valenz-charges read in
  non local Contribution for L=           1  read in
    real space projection operators read in
  non local Contribution for L=           1  read in
    real space projection operators read in
  non local Contribution for L=           2  read in
    real space projection operators read in
  non local Contribution for L=           2  read in
    real space projection operators read in
  non local Contribution for L=           0  read in
    real space projection operators read in
  non local Contribution for L=           0  read in
    real space projection operators read in
    PAW grid and wavefunctions read in
 
   number of l-projection  operators is LMAX  =           6
   number of lm-projection operators is LMMAX =          18
 
 POTCAR:    PAW_PBE F 08Apr2002                   
   VRHFIN =F: s2p5                                                              
   LEXCH  = PE                                                                  
   EATOM  =   659.6475 eV,   48.4827 Ry                                         
                                                                                
   TITEL  = PAW_PBE F 08Apr2002                                                 
   LULTRA =        F    use ultrasoft PP ?                                      
   IUNSCR =        1    unscreen: 0-lin 1-nonlin 2-no                           
   RPACOR =    1.200    partial core radius                                     
   POMASS =   18.998; ZVAL   =    7.000    mass and valenz                      
   RCORE  =    1.520    outmost cutoff radius                                   
   RWIGS  =    1.500; RWIGS  =    0.794    wigner-seitz radius (au A)           
   ENMAX  =  400.000; ENMIN  =  300.000 eV                                      
   ICORE  =        2    local potential                                         
   LCOR   =        T    correct aug charges                                     
   LPAW   =        T    paw PP                                                  
   EAUG   =  613.614                                                            
   RMAX   =    1.555    core radius for proj-oper                               
   RAUG   =    1.300    factor for augmentation sphere                          
   RDEP   =    1.539    radius for radial grids                                 
   RDEPT  =    1.299    core radius for aug-charge                              
                                                                                
   Atomic configuration                                                         
    4 entries                                                                   
     n  l   j            E        occ.                                          
     1  0  0.50      -663.3661   2.0000                                         
     2  0  0.50       -29.8995   2.0000                                         
     2  1  0.50       -11.1114   5.0000                                         
     3  2  1.50       -10.8847   0.0000                                         
   Description                                                                  
     l       E           TYP  RCUT    TYP  RCUT                                 
     0    -29.8995018     23  1.200                                             
     0     -9.5240782     23  1.200                                             
     1    -11.1113914     23  1.520                                             
     1      1.3605826     23  1.520                                             
     2    -10.8846608      7  1.500                                             
  local pseudopotential read in
  partial core-charges read in
  partial kinetic energy density read in
  atomic valenz-charges read in
  non local Contribution for L=           0  read in
    real space projection operators read in
  non local Contribution for L=           0  read in
    real space projection operators read in
  non local Contribution for L=           1  read in
    real space projection operators read in
  non local Contribution for L=           1  read in
    real space projection operators read in
    PAW grid and wavefunctions read in
 
   number of l-projection  operators is LMAX  =           4
   number of lm-projection operators is LMMAX =           8
 
  PAW_PBE Mn_pv 02Aug2007               :
 energy of atom  1       EATOM=-2025.2664
 kinetic energy error for atom=    0.0047 (will be added to EATOM!!)
  PAW_PBE F 08Apr2002                   :
 energy of atom  2       EATOM= -659.6475
 kinetic energy error for atom=    0.0256 (will be added to EATOM!!)
 
 
 POSCAR: Mn  F                                   
  positions in cartesian coordinates
  No initial velocities read in

 METAGGA = SCAN     LMAXTAU =  6    LMIXTAU =  F

 exchange correlation table for  LEXCH =        8
   RHO(1)=    0.500       N(1)  =     2000
   RHO(2)=  100.500       N(2)  =     4000
 


--------------------------------------------------------------------------------------------------------


 ion  position               nearest neighbor table
   1  0.500  0.500  0.500-   3 2.09   4 2.09   5 2.12   6 2.12   5 2.12   6 2.12
   2  0.000  0.000  0.000-   5 2.09   6 2.09   3 2.12   4 2.12   3 2.12   4 2.12
   3  0.196  0.804  0.500-   1 2.09   2 2.12   2 2.12
   4  0.804  0.196  0.500-   1 2.09   2 2.12   2 2.12
   5  0.304  0.304  0.000-   2 2.09   1 2.12   1 2.12
   6  0.696  0.696  0.000-   2 2.09   1 2.12   1 2.12
 
  LATTYP: Found a simple tetragonal cell.
 ALAT       =     4.8525685001
 C/A-ratio  =     0.6775817662
  
  Lattice vectors:
  
 A1 = (   4.8525685001,   0.0000000000,   0.0000000000)
 A2 = (   0.0000000000,   4.8525685001,   0.0000000000)
 A3 = (   0.0000000000,   0.0000000000,   3.2880119349)


Analysis of symmetry for initial positions (statically):
=====================================================================
 Subroutine PRICEL returns:
 Original cell was already a primitive cell.
 

 Routine SETGRP: Setting up the symmetry group for a 
 simple tetragonal supercell.


 Subroutine GETGRP returns: Found 16 space group operations
 (whereof  8 operations were pure point group operations)
 out of a pool of 16 trial point group operations.


The static configuration has the point symmetry D_2h.
 The point group associated with its full space group is D_4h.


Analysis of symmetry for dynamics (positions and initial velocities):
=====================================================================
 Subroutine PRICEL returns:
 Original cell was already a primitive cell.
 

 Routine SETGRP: Setting up the symmetry group for a 
 simple tetragonal supercell.


 Subroutine GETGRP returns: Found 16 space group operations
 (whereof  8 operations were pure point group operations)
 out of a pool of 16 trial point group operations.


The dynamic configuration has the point symmetry D_2h.
 The point group associated with its full space group is D_4h.


Analysis of structural, dynamic, and magnetic symmetry:
=====================================================================
 Subroutine PRICEL returns:
 Original cell was already a primitive cell.
 

 Routine SETGRP: Setting up the symmetry group for a 
 simple tetragonal supercell.


 Subroutine GETGRP returns: Found 16 space group operations
 (whereof  8 operations were pure point group operations)
 out of a pool of 16 trial point group operations.


The magnetic configuration has the point symmetry D_2h.
 The point group associated with its full space group is D_4h.


 Subroutine INISYM returns: Found 16 space group operations
 (whereof  8 operations are pure point group operations),
 and found     1 'primitive' translations

 
 
 KPOINTS: KPOINTS created by Atomic Simulation Env

Automatic generation of k-mesh.
Space group operators:
 irot       det(A)        alpha          n_x          n_y          n_z        tau_x        tau_y        tau_z
    1     1.000000     0.000000     1.000000     0.000000     0.000000     0.000000     0.000000     0.000000
    2    -1.000000     0.000000     1.000000     0.000000     0.000000     0.000000     0.000000     0.000000
    3     1.000000   180.000000     0.000000     0.000000     1.000000     0.000000     0.000000     0.000000
    4    -1.000000   180.000000     0.000000     0.000000     1.000000     0.000000     0.000000     0.000000
    5     1.000000   180.000000     0.707107     0.707107     0.000000     0.000000     0.000000     0.000000
    6    -1.000000   180.000000     0.707107     0.707107     0.000000     0.000000     0.000000     0.000000
    7     1.000000   180.000000     0.707107    -0.707107     0.000000     0.000000     0.000000     0.000000
    8    -1.000000   180.000000     0.707107    -0.707107     0.000000     0.000000     0.000000     0.000000
    9     1.000000    90.000000     0.000000     0.000000    -1.000000     0.500000     0.500000     0.500000
   10    -1.000000    90.000000     0.000000     0.000000    -1.000000     0.500000     0.500000     0.500000
   11     1.000000    90.000000     0.000000     0.000000     1.000000     0.500000     0.500000     0.500000
   12    -1.000000    90.000000     0.000000     0.000000     1.000000     0.500000     0.500000     0.500000
   13     1.000000   180.000000     0.000000     1.000000     0.000000     0.500000     0.500000     0.500000
   14    -1.000000   180.000000     0.000000     1.000000     0.000000     0.500000     0.500000     0.500000
   15     1.000000   180.000000     1.000000     0.000000     0.000000     0.500000     0.500000     0.500000
   16    -1.000000   180.000000     1.000000     0.000000     0.000000     0.500000     0.500000     0.500000
 
 Subroutine IBZKPT returns following result:
 ===========================================
 
 Found     24 irreducible k-points:
 
 Following reciprocal coordinates:
            Coordinates               Weight
  0.000000  0.000000  0.062500      2.000000
  0.200000  0.000000  0.062500      8.000000
  0.400000  0.000000  0.062500      8.000000
  0.200000  0.200000  0.062500      8.000000
  0.400000  0.200000  0.062500     16.000000
  0.400000  0.400000  0.062500      8.000000
  0.000000  0.000000  0.187500      2.000000
  0.200000  0.000000  0.187500      8.000000
  0.400000  0.000000  0.187500      8.000000
  0.200000  0.200000  0.187500      8.000000
  0.400000  0.200000  0.187500     16.000000
  0.400000  0.400000  0.187500      8.000000
  0.000000  0.000000  0.312500      2.000000
  0.200000  0.000000  0.312500      8.000000
  0.400000  0.000000  0.312500      8.000000
  0.200000  0.200000  0.312500      8.000000
  0.400000  0.200000  0.312500     16.000000
  0.400000  0.400000  0.312500      8.000000
  0.000000  0.000000  0.437500      2.000000
  0.200000  0.000000  0.437500      8.000000
  0.400000  0.000000  0.437500      8.000000
  0.200000  0.200000  0.437500      8.000000
  0.400000  0.200000  0.437500     16.000000
  0.400000  0.400000  0.437500      8.000000
 
 Following cartesian coordinates:
            Coordinates               Weight
  0.000000  0.000000  0.019008      2.000000
  0.041215  0.000000  0.019008      8.000000
  0.082431  0.000000  0.019008      8.000000
  0.041215  0.041215  0.019008      8.000000
  0.082431  0.041215  0.019008     16.000000
  0.082431  0.082431  0.019008      8.000000
  0.000000  0.000000  0.057025      2.000000
  0.041215  0.000000  0.057025      8.000000
  0.082431  0.000000  0.057025      8.000000
  0.041215  0.041215  0.057025      8.000000
  0.082431  0.041215  0.057025     16.000000
  0.082431  0.082431  0.057025      8.000000
  0.000000  0.000000  0.095042      2.000000
  0.041215  0.000000  0.095042      8.000000
  0.082431  0.000000  0.095042      8.000000
  0.041215  0.041215  0.095042      8.000000
  0.082431  0.041215  0.095042     16.000000
  0.082431  0.082431  0.095042      8.000000
  0.000000  0.000000  0.133059      2.000000
  0.041215  0.000000  0.133059      8.000000
  0.082431  0.000000  0.133059      8.000000
  0.041215  0.041215  0.133059      8.000000
  0.082431  0.041215  0.133059     16.000000
  0.082431  0.082431  0.133059      8.000000
 


--------------------------------------------------------------------------------------------------------




 Dimension of arrays:
   k-points           NKPTS =     24   k-points in BZ     NKDIM =     24   number of bands    NBANDS=     36
   number of dos      NEDOS =    301   number of ions     NIONS =      6
   non local maximal  LDIM  =      6   non local SUM 2l+1 LMDIM =     18
   total plane-waves  NPLWV =  18000
   max r-space proj   IRMAX =      1   max aug-charges    IRDMAX=  56627
   dimension x,y,z NGX =    30 NGY =   30 NGZ =   20
   dimension x,y,z NGXF=    60 NGYF=   60 NGZF=   40
   support grid    NGXF=   120 NGYF=  120 NGZF=   80
   ions per type =               2   4
   NGX,Y,Z   is equivalent  to a cutoff of  10.28, 10.28, 10.11 a.u.
   NGXF,Y,Z  is equivalent  to a cutoff of  20.56, 20.56, 20.22 a.u.

 SYSTEM =  unknown system                          
 POSCAR =  Mn  F                                   

 Startparameter for this run:
   NWRITE =      2    write-flag & timer
   PREC   = normal    normal or accurate (medium, high low for compatibility)
   ISTART =      0    job   : 0-new  1-cont  2-samecut
   ICHARG =      2    charge: 1-file 2-atom 10-const
   ISPIN  =      2    spin polarized calculation?
   LNONCOLLINEAR =      F non collinear calculations
   LSORBIT =      F    spin-orbit coupling
   INIWAV =      1    electr: 0-lowe 1-rand  2-diag
   LASPH  =      T    aspherical Exc in radial PAW
   METAGGA=      F    non-selfconsistent MetaGGA calc.

 Electronic Relaxation 1
   ENCUT  =  600.0 eV  44.10 Ry    6.64 a.u.   9.69  9.69  6.57*2*pi/ulx,y,z
   ENINI  =  600.0     initial cutoff
   ENAUG  =  613.6 eV  augmentation charge cutoff
   NELM   =     60;   NELMIN=  2; NELMDL= -5     # of ELM steps 
   EDIFF  = 0.1E-06   stopping-criterion for ELM
   LREAL  =      F    real-space projection
   NLSPLINE    = F    spline interpolate recip. space projectors
   LCOMPAT=      F    compatible to vasp.4.4
   GGA_COMPAT  = T    GGA compatible to vasp.4.4-vasp.4.6
   LMAXPAW     = -100 max onsite density
   LMAXMIX     =    4 max onsite mixed and CHGCAR
   VOSKOWN=      0    Vosko Wilk Nusair interpolation
   ROPT   =    0.00000   0.00000
 Ionic relaxation
   EDIFFG = -.5E-02   stopping-criterion for IOM
   NSW    =     50    number of steps for IOM
   NBLOCK =      1;   KBLOCK =     50    inner block; outer block 
   IBRION =      2    ionic relax: 0-MD 1-quasi-New 2-CG
   NFREE  =      1    steps in history (QN), initial steepest desc. (CG)
   ISIF   =      3    stress and relaxation
   IWAVPR =     11    prediction:  0-non 1-charg 2-wave 3-comb
   ISYM   =      2    0-nonsym 1-usesym 2-fastsym
   LCORR  =      T    Harris-Foulkes like correction to forces

   POTIM  = 0.5000    time-step for ionic-motion
   TEIN   =    0.0    initial temperature
   TEBEG  =    0.0;   TEEND  =   0.0 temperature during run
   SMASS  =  -3.00    Nose mass-parameter (am)
   estimated Nose-frequenzy (Omega)   =  0.10E-29 period in steps =****** mass=  -0.538E-27a.u.
   SCALEE = 1.0000    scale energy and forces
   NPACO  =    256;   APACO  = 16.0  distance and # of slots for P.C.
   PSTRESS=    0.0 pullay stress

  Mass of Ions in am
   POMASS =  54.94 19.00
  Ionic Valenz
   ZVAL   =  13.00  7.00
  Atomic Wigner-Seitz radii
   RWIGS  =  -1.00 -1.00
  virtual crystal weights 
   VCA    =   1.00  1.00
   NELECT =      54.0000    total number of electrons
   NUPDOWN=      -1.0000    fix difference up-down

 DOS related values:
   EMIN   =  10.00;   EMAX   =-10.00  energy-range for DOS
   EFERMI =   0.00
   ISMEAR =     0;   SIGMA  =   0.02  broadening in eV -4-tet -1-fermi 0-gaus

 Electronic relaxation 2 (details)
   IALGO  =     38    algorithm
   LDIAG  =      T    sub-space diagonalisation (order eigenvalues)
   LSUBROT=      F    optimize rotation matrix (better conditioning)
   TURBO    =      0    0=normal 1=particle mesh
   IRESTART =      0    0=no restart 2=restart with 2 vectors
   NREBOOT  =      0    no. of reboots
   NMIN     =      0    reboot dimension
   EREF     =   0.00    reference energy to select bands
   IMIX   =      4    mixing-type and parameters
     AMIX     =   0.40;   BMIX     =  1.00
     AMIX_MAG =   1.60;   BMIX_MAG =  1.00
     AMIN     =   0.10
     WC   =   100.;   INIMIX=   1;  MIXPRE=   1;  MAXMIX= -45

 Intra band minimization:
   WEIMIN = 0.0010     energy-eigenvalue tresh-hold
   EBREAK =  0.69E-09  absolut break condition
   DEPER  =   0.30     relativ break condition  

   TIME   =   0.40     timestep for ELM

  volume/ion in A,a.u.               =      12.90        87.08
  Fermi-wavevector in a.u.,A,eV,Ry     =   1.451824  2.743549 28.678246  2.107792
  Thomas-Fermi vector in A             =   2.569276
 
 Write flags
   LWAVE        =      F    write WAVECAR
   LDOWNSAMPLE  =      F    k-point downsampling of WAVECAR
   LCHARG       =      F    write CHGCAR
   LVTOT        =      F    write LOCPOT, total local potential
   LVHAR        =      F    write LOCPOT, Hartree potential only
   LELF         =      F    write electronic localiz. function (ELF)
   LORBIT       =     11    0 simple, 1 ext, 2 COOP (PROOUT), +10 PAW based schemes


 Dipole corrections
   LMONO  =      F    monopole corrections only (constant potential shift)
   LDIPOL =      F    correct potential (dipole corrections)
   IDIPOL =      0    1-x, 2-y, 3-z, 4-all directions 
   EPSILON=  1.0000000 bulk dielectric constant

 LDA+U is selected, type is set to LDAUTYPE =  2
   angular momentum for each species LDAUL =     2   -1
   U (eV)           for each species LDAUU =   0.0  0.0
   J (eV)           for each species LDAUJ =   0.0  0.0
 Exchange correlation treatment:
   GGA     =    --    GGA type
   LEXCH   =     8    internal setting for exchange type
   VOSKOWN=      0    Vosko Wilk Nusair interpolation
   LHFCALC =     F    Hartree Fock is set to
   LHFONE  =     F    Hartree Fock one center treatment
   AEXX    =    0.0000 exact exchange contribution

 Linear response parameters
   LEPSILON=     F    determine dielectric tensor
   LRPA    =     F    only Hartree local field effects (RPA)
   LNABLA  =     F    use nabla operator in PAW spheres
   LVEL    =     F    velocity operator in full k-point grid
   LINTERFAST=   F  fast interpolation
   KINTER  =     0    interpolate to denser k-point grid
   CSHIFT  =0.1000    complex shift for real part using Kramers Kronig
   OMEGAMAX=  -1.0    maximum frequency
   DEG_THRESHOLD= 0.2000000E-02 threshold for treating states as degnerate
   RTIME   =   -0.100 relaxation time in fs
  (WPLASMAI=    0.000 imaginary part of plasma frequency in eV, 0.658/RTIME)
   DFIELD  = 0.0000000 0.0000000 0.0000000 field for delta impulse in time
 
 Orbital magnetization related:
   ORBITALMAG=     F  switch on orbital magnetization
   LCHIMAG   =     F  perturbation theory with respect to B field
   DQ        =  0.001000  dq finite difference perturbation B field
   LLRAUG    =     F  two centre corrections for induced B field



--------------------------------------------------------------------------------------------------------


 conjugate gradient relaxation of ions
 charge density and potential will be updated during run
 spin polarized calculation
 Variant of blocked Davidson
 Davidson routine will perform the subspace rotation
 perform sub-space diagonalisation
    after iterative eigenvector-optimisation
 modified Broyden-mixing scheme, WC =      100.0
 initial mixing is a Kerker type mixing with AMIX =  0.4000 and BMIX =      1.0000
 Hartree-type preconditioning will be used
 using additional bands            9
 reciprocal scheme for non local part
 use partial core corrections
 calculate Harris-corrections to forces 
   (improved forces if not selfconsistent)
 use gradient corrections 
 use of overlap-Matrix (Vanderbilt PP)
 Gauss-broadening in eV      SIGMA  =   0.02


--------------------------------------------------------------------------------------------------------


  energy-cutoff  :      600.00
  volume of cell :       77.42
      direct lattice vectors                 reciprocal lattice vectors
     4.852568500  0.000000000  0.000000000     0.206076431  0.000000000  0.000000000
     0.000000000  4.852568500  0.000000000     0.000000000  0.206076431  0.000000000
     0.000000000  0.000000000  3.288011935     0.000000000  0.000000000  0.304135149

  length of vectors
     4.852568500  4.852568500  3.288011935     0.206076431  0.206076431  0.304135149


 
 k-points in units of 2pi/SCALE and weight: KPOINTS created by Atomic Simulation Env
   0.00000000  0.00000000  0.01900845       0.010
   0.04121529  0.00000000  0.01900845       0.040
   0.08243057  0.00000000  0.01900845       0.040
   0.04121529  0.04121529  0.01900845       0.040
   0.08243057  0.04121529  0.01900845       0.080
   0.08243057  0.08243057  0.01900845       0.040
   0.00000000  0.00000000  0.05702534       0.010
   0.04121529  0.00000000  0.05702534       0.040
   0.08243057  0.00000000  0.05702534       0.040
   0.04121529  0.04121529  0.05702534       0.040
   0.08243057  0.04121529  0.05702534       0.080
   0.08243057  0.08243057  0.05702534       0.040
   0.00000000  0.00000000  0.09504223       0.010
   0.04121529  0.00000000  0.09504223       0.040
   0.08243057  0.00000000  0.09504223       0.040
   0.04121529  0.04121529  0.09504223       0.040
   0.08243057  0.04121529  0.09504223       0.080
   0.08243057  0.08243057  0.09504223       0.040
   0.00000000  0.00000000  0.13305913       0.010
   0.04121529  0.00000000  0.13305913       0.040
   0.08243057  0.00000000  0.13305913       0.040
   0.04121529  0.04121529  0.13305913       0.040
   0.08243057  0.04121529  0.13305913       0.080
   0.08243057  0.08243057  0.13305913       0.040
 
 k-points in reciprocal lattice and weights: KPOINTS created by Atomic Simulation Env
   0.00000000  0.00000000  0.06250000       0.010
   0.20000000  0.00000000  0.06250000       0.040
   0.40000000  0.00000000  0.06250000       0.040
   0.20000000  0.20000000  0.06250000       0.040
   0.40000000  0.20000000  0.06250000       0.080
   0.40000000  0.40000000  0.06250000       0.040
   0.00000000  0.00000000  0.18750000       0.010
   0.20000000  0.00000000  0.18750000       0.040
   0.40000000  0.00000000  0.18750000       0.040
   0.20000000  0.20000000  0.18750000       0.040
   0.40000000  0.20000000  0.18750000       0.080
   0.40000000  0.40000000  0.18750000       0.040
   0.00000000  0.00000000  0.31250000       0.010
   0.20000000  0.00000000  0.31250000       0.040
   0.40000000  0.00000000  0.31250000       0.040
   0.20000000  0.20000000  0.31250000       0.040
   0.40000000  0.20000000  0.31250000       0.080
   0.40000000  0.40000000  0.31250000       0.040
   0.00000000  0.00000000  0.43750000       0.010
   0.20000000  0.00000000  0.43750000       0.040
   0.40000000  0.00000000  0.43750000       0.040
   0.20000000  0.20000000  0.43750000       0.040
   0.40000000  0.20000000  0.43750000       0.080
   0.40000000  0.40000000  0.43750000       0.040
 
 position of ions in fractional coordinates (direct lattice) 
   0.50000000  0.50000000  0.50000000
   0.00000000  0.00000000  0.00000000
   0.19609954  0.80390046  0.50000000
   0.80390046  0.19609954  0.50000000
   0.30390046  0.30390046  0.00000000
   0.69609954  0.69609954  0.00000000
 
 position of ions in cartesian coordinates  (Angst):
   2.42628425  2.42628425  1.64400597
   0.00000000  0.00000000  0.00000000
   0.95158645  3.90098205  1.64400597
   3.90098205  0.95158645  1.64400597
   1.47469780  1.47469780  0.00000000
   3.37787070  3.37787070  0.00000000
 


--------------------------------------------------------------------------------------------------------


 k-point  1 :   0.0000 0.0000 0.0625  plane waves:    2605
 k-point  2 :   0.2000 0.0000 0.0625  plane waves:    2589
 k-point  3 :   0.4000 0.0000 0.0625  plane waves:    2593
 k-point  4 :   0.2000 0.2000 0.0625  plane waves:    2581
 k-point  5 :   0.4000 0.2000 0.0625  plane waves:    2590
 k-point  6 :   0.4000 0.4000 0.0625  plane waves:    2578
 k-point  7 :   0.0000 0.0000 0.1875  plane waves:    2601
 k-point  8 :   0.2000 0.0000 0.1875  plane waves:    2596
 k-point  9 :   0.4000 0.0000 0.1875  plane waves:    2581
 k-point 10 :   0.2000 0.2000 0.1875  plane waves:    2588
 k-point 11 :   0.4000 0.2000 0.1875  plane waves:    2583
 k-point 12 :   0.4000 0.4000 0.1875  plane waves:    2583
 k-point 13 :   0.0000 0.0000 0.3125  plane waves:    2589
 k-point 14 :   0.2000 0.0000 0.3125  plane waves:    2581
 k-point 15 :   0.4000 0.0000 0.3125  plane waves:    2583
 k-point 16 :   0.2000 0.2000 0.3125  plane waves:    2581
 k-point 17 :   0.4000 0.2000 0.3125  plane waves:    2587
 k-point 18 :   0.4000 0.4000 0.3125  plane waves:    2584
 k-point 19 :   0.0000 0.0000 0.4375  plane waves:    2574
 k-point 20 :   0.2000 0.0000 0.4375  plane waves:    2569
 k-point 21 :   0.4000 0.0000 0.4375  plane waves:    2575
 k-point 22 :   0.2000 0.2000 0.4375  plane waves:    2574
 k-point 23 :   0.4000 0.2000 0.4375  plane waves:    2578
 k-point 24 :   0.4000 0.4000 0.4375  plane waves:    2574

 maximum and minimum number of plane-waves per node :      2605     2569

 maximum number of plane-waves:      2605
 maximum index in each direction: 
   IXMAX=    9   IYMAX=    9   IZMAX=    6
   IXMIN=  -10   IYMIN=  -10   IZMIN=   -7


 serial   3D FFT for wavefunctions
 parallel 3D FFT for charge:
    minimum data exchange during FFTs selected (reduces bandwidth)


 total amount of memory used by VASP MPI-rank0    60406. kBytes
=======================================================================

   base      :      30000. kBytes
   nonl-proj :      18332. kBytes
   fftplans  :       1875. kBytes
   grid      :       3820. kBytes
   one-center:        186. kBytes
   wavefun   :       6193. kBytes
 
     INWAV:  cpu time    0.0000: real time    0.0000
 Broyden mixing: mesh for mixing (old mesh)
   NGX = 19   NGY = 19   NGZ = 13
  (NGX  = 60   NGY  = 60   NGZ  = 40)
  gives a total of   4693 points

 initial charge density was supplied:
 charge density of overlapping atoms calculated
 number of electron      54.0000000 magnetization       0.0000000
 keeping initial charge density in first step


--------------------------------------------------------------------------------------------------------


 Maximum index for augmentation-charges         4323 (set IRDMAX)


--------------------------------------------------------------------------------------------------------


 First call to EWALD:  gamma=   0.416
 Maximum number of real-space cells 2x 2x 3
 Maximum number of reciprocal cells 3x 3x 2

    FEWALD:  cpu time    0.0010: real time    0.0010


--------------------------------------- Iteration      1(   1)  ---------------------------------------


    POTLOK:  cpu time    0.0354: real time    0.0354
    SETDIJ:  cpu time    0.7780: real time    0.7780
atom =   1  type =  1  l = 2
 
 onsite density matrix
 
spin component  1
 
  0.2835  0.0000  0.0000  0.0000  0.0000
  0.0000  0.2835  0.0000  0.0000  0.0000
  0.0000  0.0000  0.2835  0.0000  0.0000
  0.0000  0.0000  0.0000  0.2835  0.0000
  0.0000  0.0000  0.0000  0.0000  0.2835
 
spin component  2
 
  0.7694  0.0000  0.0000  0.0000  0.0000
  0.0000  0.7694  0.0000  0.0000  0.0000
  0.0000  0.0000  0.7694  0.0000  0.0000
  0.0000  0.0000  0.0000  0.7694  0.0000
  0.0000  0.0000  0.0000  0.0000  0.7694
 
 occupancies and eigenvectors
 
  o =  0.2835  v =  1.0000  0.0000  0.0000  0.0000  0.0000  0.0000  0.0000  0.0000  0.0000  0.0000      0.0000  0.0000  0.0000  0.0000  0.0000  0.0000  0.0000  0.0000  0.0000  0.0000
  o =  0.2835  v =  0.0000  1.0000  0.0000  0.0000  0.0000  0.0000  0.0000  0.0000  0.0000  0.0000      0.0000  0.0000  0.0000  0.0000  0.0000  0.0000  0.0000  0.0000  0.0000  0.0000
  o =  0.2835  v =  0.0000  0.0000  1.0000  0.0000  0.0000  0.0000  0.0000  0.0000  0.0000  0.0000      0.0000  0.0000  0.0000  0.0000  0.0000  0.0000  0.0000  0.0000  0.0000  0.0000
  o =  0.2835  v =  0.0000  0.0000  0.0000  1.0000  0.0000  0.0000  0.0000  0.0000  0.0000  0.0000      0.0000  0.0000  0.0000  0.0000  0.0000  0.0000  0.0000  0.0000  0.0000  0.0000
  o =  0.2835  v =  0.0000  0.0000  0.0000  0.0000  1.0000  0.0000  0.0000  0.0000  0.0000  0.0000      0.0000  0.0000  0.0000  0.0000  0.0000  0.0000  0.0000  0.0000  0.0000  0.0000
  o =  0.7694  v =  0.0000  0.0000  0.0000  0.0000  0.0000  1.0000  0.0000  0.0000  0.0000  0.0000      0.0000  0.0000  0.0000  0.0000  0.0000  0.0000  0.0000  0.0000  0.0000  0.0000
  o =  0.7694  v =  0.0000  0.0000  0.0000  0.0000  0.0000  0.0000  1.0000  0.0000  0.0000  0.0000      0.0000  0.0000  0.0000  0.0000  0.0000  0.0000  0.0000  0.0000  0.0000  0.0000
  o =  0.7694  v =  0.0000  0.0000  0.0000  0.0000  0.0000  0.0000  0.0000  1.0000  0.0000  0.0000      0.0000  0.0000  0.0000  0.0000  0.0000  0.0000  0.0000  0.0000  0.0000  0.0000
  o =  0.7694  v =  0.0000  0.0000  0.0000  0.0000  0.0000  0.0000  0.0000  0.0000  1.0000  0.0000      0.0000  0.0000  0.0000  0.0000  0.0000  0.0000  0.0000  0.0000  0.0000  0.0000
  o =  0.7694  v =  0.0000  0.0000  0.0000  0.0000  0.0000  0.0000  0.0000  0.0000  0.0000  1.0000      0.0000  0.0000  0.0000  0.0000  0.0000  0.0000  0.0000  0.0000  0.0000  0.0000
atom =   2  type =  1  l = 2
 
 onsite density matrix
 
spin component  1
 
  0.7694  0.0000  0.0000  0.0000  0.0000
  0.0000  0.7694  0.0000  0.0000  0.0000
  0.0000  0.0000  0.7694  0.0000  0.0000
  0.0000  0.0000  0.0000  0.7694  0.0000
  0.0000  0.0000  0.0000  0.0000  0.7694
 
spin component  2
 
  0.2835  0.0000  0.0000  0.0000  0.0000
  0.0000  0.2835  0.0000  0.0000  0.0000
  0.0000  0.0000  0.2835  0.0000  0.0000
  0.0000  0.0000  0.0000  0.2835  0.0000
  0.0000  0.0000  0.0000  0.0000  0.2835
 
 occupancies and eigenvectors
 
  o =  0.2835  v =  0.0000  0.0000  0.0000  0.0000  0.0000  1.0000  0.0000  0.0000  0.0000  0.0000      0.0000  0.0000  0.0000  0.0000  0.0000  0.0000  0.0000  0.0000  0.0000  0.0000
  o =  0.2835  v =  0.0000  0.0000  0.0000  0.0000  0.0000  0.0000  1.0000  0.0000  0.0000  0.0000      0.0000  0.0000  0.0000  0.0000  0.0000  0.0000  0.0000  0.0000  0.0000  0.0000
  o =  0.2835  v =  0.0000  0.0000  0.0000  0.0000  0.0000  0.0000  0.0000  1.0000  0.0000  0.0000      0.0000  0.0000  0.0000  0.0000  0.0000  0.0000  0.0000  0.0000  0.0000  0.0000
  o =  0.2835  v =  0.0000  0.0000  0.0000  0.0000  0.0000  0.0000  0.0000  0.0000  1.0000  0.0000      0.0000  0.0000  0.0000  0.0000  0.0000  0.0000  0.0000  0.0000  0.0000  0.0000
  o =  0.2835  v =  0.0000  0.0000  0.0000  0.0000  0.0000  0.0000  0.0000  0.0000  0.0000  1.0000      0.0000  0.0000  0.0000  0.0000  0.0000  0.0000  0.0000  0.0000  0.0000  0.0000
  o =  0.7694  v =  1.0000  0.0000  0.0000  0.0000  0.0000  0.0000  0.0000  0.0000  0.0000  0.0000      0.0000  0.0000  0.0000  0.0000  0.0000  0.0000  0.0000  0.0000  0.0000  0.0000
  o =  0.7694  v =  0.0000  1.0000  0.0000  0.0000  0.0000  0.0000  0.0000  0.0000  0.0000  0.0000      0.0000  0.0000  0.0000  0.0000  0.0000  0.0000  0.0000  0.0000  0.0000  0.0000
  o =  0.7694  v =  0.0000  0.0000  1.0000  0.0000  0.0000  0.0000  0.0000  0.0000  0.0000  0.0000      0.0000  0.0000  0.0000  0.0000  0.0000  0.0000  0.0000  0.0000  0.0000  0.0000
  o =  0.7694  v =  0.0000  0.0000  0.0000  1.0000  0.0000  0.0000  0.0000  0.0000  0.0000  0.0000      0.0000  0.0000  0.0000  0.0000  0.0000  0.0000  0.0000  0.0000  0.0000  0.0000
  o =  0.7694  v =  0.0000  0.0000  0.0000  0.0000  1.0000  0.0000  0.0000  0.0000  0.0000  0.0000      0.0000  0.0000  0.0000  0.0000  0.0000  0.0000  0.0000  0.0000  0.0000  0.0000
     EDDAV:  cpu time    1.8973: real time    1.9159
       DOS:  cpu time    0.0007: real time    0.0007
    --------------------------------------------
      LOOP:  cpu time    2.7114: real time    2.7300

 eigenvalue-minimisations  :  3468
 total energy-change (2. order) : 0.9609289E+03  (-0.3742276E+04)
 number of electron      54.0000000 magnetization       0.0000000
 augmentation part       54.0000000 magnetization       0.0000000

 Free energy of the ion-electron system (eV)
  ---------------------------------------------------
  alpha Z        PSCENC =       199.38838823
  Ewald energy   TEWEN  =     -4203.06823030
  -Hartree energ DENC   =     -2130.62061717
  -exchange      EXHF   =         0.00000000
  -V(xc)+E(xc)   XCENC  =        -3.96110837
  PAW double counting   =      5566.43601843    -5528.13058630
  entropy T*S    EENTRO =        -0.00028954
  eigenvalues    EBANDS =       371.87457431
  atomic energy  EATOM  =      6689.01075358
  Solvation  Ediel_sol  =         0.00000000
  ---------------------------------------------------
  free energy    TOTEN  =       960.92890287 eV

  energy without entropy =      960.92919241  energy(sigma->0) =      960.92904764


--------------------------------------------------------------------------------------------------------




--------------------------------------- Iteration      1(   2)  ---------------------------------------


     EDDAV:  cpu time    2.0755: real time    2.0755
       DOS:  cpu time    0.0007: real time    0.0007
    --------------------------------------------
      LOOP:  cpu time    2.0761: real time    2.0762

 eigenvalue-minimisations  :  3996
 total energy-change (2. order) :-0.5570231E+03  (-0.5330024E+03)
 number of electron      54.0000000 magnetization       0.0000000
 augmentation part       54.0000000 magnetization       0.0000000

 Free energy of the ion-electron system (eV)
  ---------------------------------------------------
  alpha Z        PSCENC =       199.38838823
  Ewald energy   TEWEN  =     -4203.06823030
  -Hartree energ DENC   =     -2130.62061717
  -exchange      EXHF   =         0.00000000
  -V(xc)+E(xc)   XCENC  =        -3.96110837
  PAW double counting   =      5566.43601843    -5528.13058630
  entropy T*S    EENTRO =        -0.00125597
  eigenvalues    EBANDS =      -185.14758668
  atomic energy  EATOM  =      6689.01075358
  Solvation  Ediel_sol  =         0.00000000
  ---------------------------------------------------
  free energy    TOTEN  =       403.90577546 eV

  energy without entropy =      403.90703143  energy(sigma->0) =      403.90640345


--------------------------------------------------------------------------------------------------------




--------------------------------------- Iteration      1(   3)  ---------------------------------------


     EDDAV:  cpu time    2.0525: real time    2.0525
       DOS:  cpu time    0.0003: real time    0.0003
    --------------------------------------------
      LOOP:  cpu time    2.0528: real time    2.0528

 eigenvalue-minimisations  :  3924
 total energy-change (2. order) :-0.3435388E+02  (-0.3382890E+02)
 number of electron      54.0000000 magnetization       0.0000000
 augmentation part       54.0000000 magnetization       0.0000000

 Free energy of the ion-electron system (eV)
  ---------------------------------------------------
  alpha Z        PSCENC =       199.38838823
  Ewald energy   TEWEN  =     -4203.06823030
  -Hartree energ DENC   =     -2130.62061717
  -exchange      EXHF   =         0.00000000
  -V(xc)+E(xc)   XCENC  =        -3.96110837
  PAW double counting   =      5566.43601843    -5528.13058630
  entropy T*S    EENTRO =        -0.00000000
  eigenvalues    EBANDS =      -219.50271991
  atomic energy  EATOM  =      6689.01075358
  Solvation  Ediel_sol  =         0.00000000
  ---------------------------------------------------
  free energy    TOTEN  =       369.55189820 eV

  energy without entropy =      369.55189820  energy(sigma->0) =      369.55189820


--------------------------------------------------------------------------------------------------------




--------------------------------------- Iteration      1(   4)  ---------------------------------------


     EDDAV:  cpu time    2.1067: real time    2.1068
       DOS:  cpu time    0.0003: real time    0.0003
    --------------------------------------------
      LOOP:  cpu time    2.1071: real time    2.1071

 eigenvalue-minimisations  :  4044
 total energy-change (2. order) :-0.4254128E+00  (-0.4251094E+00)
 number of electron      54.0000000 magnetization       0.0000000
 augmentation part       54.0000000 magnetization       0.0000000

 Free energy of the ion-electron system (eV)
  ---------------------------------------------------
  alpha Z        PSCENC =       199.38838823
  Ewald energy   TEWEN  =     -4203.06823030
  -Hartree energ DENC   =     -2130.62061717
  -exchange      EXHF   =         0.00000000
  -V(xc)+E(xc)   XCENC  =        -3.96110837
  PAW double counting   =      5566.43601843    -5528.13058630
  entropy T*S    EENTRO =        -0.00000000
  eigenvalues    EBANDS =      -219.92813272
  atomic energy  EATOM  =      6689.01075358
  Solvation  Ediel_sol  =         0.00000000
  ---------------------------------------------------
  free energy    TOTEN  =       369.12648539 eV

  energy without entropy =      369.12648539  energy(sigma->0) =      369.12648539


--------------------------------------------------------------------------------------------------------




--------------------------------------- Iteration      1(   5)  ---------------------------------------


     EDDAV:  cpu time    2.0830: real time    2.0830
       DOS:  cpu time    0.0003: real time    0.0003
    CHARGE:  cpu time    0.3066: real time    0.3066
    MIXING:  cpu time    0.0006: real time    0.0006
    --------------------------------------------
      LOOP:  cpu time    2.3904: real time    2.3904

 eigenvalue-minimisations  :  4020
 total energy-change (2. order) :-0.7047623E-02  (-0.7046942E-02)
 number of electron      54.0000009 magnetization      -0.0000000
 augmentation part       22.6529875 magnetization      -0.0000000

 Broyden mixing:
  rms(total) = 0.58797E+01    rms(broyden)= 0.58792E+01
  rms(prec ) = 0.61147E+01
  weight for this iteration     100.00

 Free energy of the ion-electron system (eV)
  ---------------------------------------------------
  alpha Z        PSCENC =       199.38838823
  Ewald energy   TEWEN  =     -4203.06823030
  -Hartree energ DENC   =     -2130.62061717
  -exchange      EXHF   =         0.00000000
  -V(xc)+E(xc)   XCENC  =        -3.96110837
  PAW double counting   =      5566.43601843    -5528.13058630
  entropy T*S    EENTRO =        -0.00000000
  eigenvalues    EBANDS =      -219.93518034
  atomic energy  EATOM  =      6689.01075358
  Solvation  Ediel_sol  =         0.00000000
  ---------------------------------------------------
  free energy    TOTEN  =       369.11943777 eV

  energy without entropy =      369.11943777  energy(sigma->0) =      369.11943777


--------------------------------------------------------------------------------------------------------




--------------------------------------- Iteration      1(   6)  ---------------------------------------


    POTLOK:  cpu time    0.0332: real time    0.0332
    SETDIJ:  cpu time    0.7923: real time    0.7923
atom =   1  type =  1  l = 2
 
 onsite density matrix
 
spin component  1
 
  0.0359  0.0000  0.0669  0.0000 -0.0000
  0.0000  0.0074  0.0000  0.0614  0.0000
  0.0669  0.0000 -0.0036  0.0000  0.0000
  0.0000  0.0614  0.0000  0.0074  0.0000
 -0.0000  0.0000  0.0000  0.0000 -0.0736
 
spin component  2
 
  1.0563  0.0000 -0.0323  0.0000  0.0000
  0.0000  1.0711  0.0000 -0.0297  0.0000
 -0.0323  0.0000  1.0750  0.0000  0.0000
  0.0000 -0.0297  0.0000  1.0711  0.0000
  0.0000  0.0000  0.0000  0.0000  1.1111
 
 occupancies and eigenvectors
 
  o = -0.0736  v =  0.0000  0.0000 -0.0000  0.0000  1.0000  0.0000  0.0000  0.0000  0.0000  0.0000      0.0000  0.0000  0.0000  0.0000  0.0000  0.0000  0.0000  0.0000  0.0000  0.0000
  o = -0.0540  v =  0.0000  0.7071  0.0000 -0.7071 -0.0000  0.0000  0.0000  0.0000  0.0000  0.0000      0.0000  0.0000  0.0000  0.0000  0.0000  0.0000  0.0000  0.0000  0.0000  0.0000
  o = -0.0536  v = -0.5986  0.0000  0.8010  0.0000  0.0000  0.0000  0.0000  0.0000  0.0000  0.0000      0.0000  0.0000  0.0000  0.0000  0.0000  0.0000  0.0000  0.0000  0.0000  0.0000
  o =  0.0687  v =  0.0000 -0.7071  0.0000 -0.7071  0.0000  0.0000  0.0000  0.0000  0.0000  0.0000      0.0000  0.0000  0.0000  0.0000  0.0000  0.0000  0.0000  0.0000  0.0000  0.0000
  o =  0.0859  v =  0.8010  0.0000  0.5986  0.0000  0.0000  0.0000  0.0000  0.0000  0.0000  0.0000      0.0000  0.0000  0.0000  0.0000  0.0000  0.0000  0.0000  0.0000  0.0000  0.0000
  o =  1.0320  v =  0.0000  0.0000  0.0000  0.0000  0.0000 -0.7997  0.0000 -0.6004  0.0000  0.0000      0.0000  0.0000  0.0000  0.0000  0.0000  0.0000  0.0000  0.0000  0.0000  0.0000
  o =  1.0415  v =  0.0000  0.0000  0.0000  0.0000  0.0000  0.0000  0.7071  0.0000  0.7071  0.0000      0.0000  0.0000  0.0000  0.0000  0.0000  0.0000  0.0000  0.0000  0.0000  0.0000
  o =  1.0993  v =  0.0000  0.0000  0.0000  0.0000  0.0000 -0.6004  0.0000  0.7997  0.0000 -0.0000      0.0000  0.0000  0.0000  0.0000  0.0000  0.0000  0.0000  0.0000  0.0000  0.0000
  o =  1.1008  v =  0.0000  0.0000  0.0000  0.0000  0.0000  0.0000  0.7071  0.0000 -0.7071  0.0000      0.0000  0.0000  0.0000  0.0000  0.0000  0.0000  0.0000  0.0000  0.0000  0.0000
  o =  1.1111  v =  0.0000  0.0000  0.0000  0.0000  0.0000  0.0000  0.0000 -0.0000  0.0000 -1.0000      0.0000  0.0000  0.0000  0.0000  0.0000  0.0000  0.0000  0.0000  0.0000  0.0000
atom =   2  type =  1  l = 2
 
 onsite density matrix
 
spin component  1
 
  1.0563  0.0000  0.0323  0.0000  0.0000
  0.0000  1.0711  0.0000  0.0297  0.0000
  0.0323  0.0000  1.0750  0.0000  0.0000
  0.0000  0.0297  0.0000  1.0711  0.0000
  0.0000  0.0000  0.0000  0.0000  1.1111
 
spin component  2
 
  0.0359  0.0000 -0.0669  0.0000 -0.0000
  0.0000  0.0074  0.0000 -0.0614  0.0000
 -0.0669  0.0000 -0.0036  0.0000 -0.0000
  0.0000 -0.0614  0.0000  0.0074  0.0000
 -0.0000  0.0000 -0.0000  0.0000 -0.0736
 
 occupancies and eigenvectors
 
  o = -0.0736  v =  0.0000  0.0000  0.0000  0.0000  0.0000  0.0000  0.0000  0.0000  0.0000  1.0000      0.0000  0.0000  0.0000  0.0000  0.0000  0.0000  0.0000  0.0000  0.0000  0.0000
  o = -0.0540  v =  0.0000  0.0000  0.0000  0.0000  0.0000 -0.0000  0.7071 -0.0000  0.7071 -0.0000      0.0000  0.0000  0.0000  0.0000  0.0000  0.0000  0.0000  0.0000  0.0000  0.0000
  o = -0.0536  v =  0.0000  0.0000  0.0000  0.0000  0.0000 -0.5986 -0.0000 -0.8010 -0.0000  0.0000      0.0000  0.0000  0.0000  0.0000  0.0000  0.0000  0.0000  0.0000  0.0000  0.0000
  o =  0.0687  v =  0.0000  0.0000  0.0000  0.0000  0.0000  0.0000  0.7071 -0.0000 -0.7071  0.0000      0.0000  0.0000  0.0000  0.0000  0.0000  0.0000  0.0000  0.0000  0.0000  0.0000
  o =  0.0859  v =  0.0000  0.0000  0.0000  0.0000  0.0000 -0.8010  0.0000  0.5986 -0.0000 -0.0000      0.0000  0.0000  0.0000  0.0000  0.0000  0.0000  0.0000  0.0000  0.0000  0.0000
  o =  1.0320  v =  0.7997 -0.0000 -0.6004  0.0000  0.0000  0.0000  0.0000  0.0000  0.0000  0.0000      0.0000  0.0000  0.0000  0.0000  0.0000  0.0000  0.0000  0.0000  0.0000  0.0000
  o =  1.0415  v =  0.0000  0.7071 -0.0000 -0.7071  0.0000  0.0000  0.0000  0.0000  0.0000  0.0000      0.0000  0.0000  0.0000  0.0000  0.0000  0.0000  0.0000  0.0000  0.0000  0.0000
  o =  1.0993  v = -0.6004 -0.0000 -0.7997 -0.0000  0.0000  0.0000  0.0000  0.0000  0.0000  0.0000      0.0000  0.0000  0.0000  0.0000  0.0000  0.0000  0.0000  0.0000  0.0000  0.0000
  o =  1.1008  v = -0.0000  0.7071 -0.0000  0.7071  0.0000  0.0000  0.0000  0.0000  0.0000  0.0000      0.0000  0.0000  0.0000  0.0000  0.0000  0.0000  0.0000  0.0000  0.0000  0.0000
  o =  1.1111  v =  0.0000 -0.0000  0.0000 -0.0000  1.0000  0.0000  0.0000  0.0000  0.0000  0.0000      0.0000  0.0000  0.0000  0.0000  0.0000  0.0000  0.0000  0.0000  0.0000  0.0000
     EDDAV:  cpu time    2.0937: real time    2.0937
       DOS:  cpu time    0.0007: real time    0.0007
    CHARGE:  cpu time    0.3038: real time    0.3038
    MIXING:  cpu time    0.0006: real time    0.0006
    --------------------------------------------
      LOOP:  cpu time    3.2242: real time    3.2242

 eigenvalue-minimisations  :  4320
 total energy-change (2. order) :-0.4379341E+03  (-0.2833477E+02)
 number of electron      54.0000008 magnetization      -0.0000000
 augmentation part       19.6214477 magnetization      -0.0000000

 Broyden mixing:
  rms(total) = 0.62869E+01    rms(broyden)= 0.62868E+01
  rms(prec ) = 0.67986E+01
  weight for this iteration     100.00

 eigenvalues of (default mixing * dielectric matrix)
  average eigenvalue GAMMA=   0.4165
  0.4165

 Free energy of the ion-electron system (eV)
  ---------------------------------------------------
  alpha Z        PSCENC =       199.38838823
  Ewald energy   TEWEN  =     -4203.06823030
  -Hartree energ DENC   =     -2199.43146569
  -exchange      EXHF   =         0.00000000
  -V(xc)+E(xc)   XCENC  =       144.31869053
  PAW double counting   =      6428.45423154    -6394.95372934
  entropy T*S    EENTRO =        -0.00129614
  eigenvalues    EBANDS =      -732.53204275
  atomic energy  EATOM  =      6689.01075358
  Solvation  Ediel_sol  =         0.00000000
  ---------------------------------------------------
  free energy    TOTEN  =       -68.81470032 eV

  energy without entropy =      -68.81340419  energy(sigma->0) =      -68.81405226


--------------------------------------------------------------------------------------------------------




--------------------------------------- Iteration      1(   7)  ---------------------------------------


    POTLOK:  cpu time    0.0326: real time    0.0326
    SETDIJ:  cpu time    0.7780: real time    0.7780
atom =   1  type =  1  l = 2
 
 onsite density matrix
 
spin component  1
 
  0.0931  0.0000  0.0430  0.0000  0.0000
  0.0000  0.0545  0.0000  0.0245  0.0000
  0.0430  0.0000  0.0631  0.0000  0.0000
  0.0000  0.0245  0.0000  0.0545  0.0000
  0.0000  0.0000  0.0000  0.0000  0.0177
 
spin component  2
 
  0.9609  0.0000 -0.0169  0.0000 -0.0000
  0.0000  1.0029  0.0000  0.0087  0.0000
 -0.0169  0.0000  0.9803  0.0000  0.0000
  0.0000  0.0087  0.0000  1.0029  0.0000
 -0.0000  0.0000  0.0000  0.0000  0.9998
 
 occupancies and eigenvectors
 
  o =  0.0177  v =  0.0000 -0.0000 -0.0000  0.0000  1.0000  0.0000  0.0000  0.0000  0.0000  0.0000      0.0000  0.0000  0.0000  0.0000  0.0000  0.0000  0.0000  0.0000  0.0000  0.0000
  o =  0.0300  v =  0.0000  0.7071  0.0000 -0.7071  0.0000  0.0000  0.0000  0.0000  0.0000  0.0000      0.0000  0.0000  0.0000  0.0000  0.0000  0.0000  0.0000  0.0000  0.0000  0.0000
  o =  0.0325  v = -0.5792 -0.0000  0.8152  0.0000  0.0000  0.0000  0.0000  0.0000  0.0000  0.0000      0.0000  0.0000  0.0000  0.0000  0.0000  0.0000  0.0000  0.0000  0.0000  0.0000
  o =  0.0790  v =  0.0000 -0.7071  0.0000 -0.7071 -0.0000  0.0000  0.0000  0.0000  0.0000  0.0000      0.0000  0.0000  0.0000  0.0000  0.0000  0.0000  0.0000  0.0000  0.0000  0.0000
  o =  0.1236  v = -0.8152  0.0000 -0.5792  0.0000 -0.0000  0.0000  0.0000  0.0000  0.0000  0.0000      0.0000  0.0000  0.0000  0.0000  0.0000  0.0000  0.0000  0.0000  0.0000  0.0000
  o =  0.9511  v =  0.0000  0.0000  0.0000  0.0000  0.0000 -0.8653  0.0000 -0.5012  0.0000 -0.0000      0.0000  0.0000  0.0000  0.0000  0.0000  0.0000  0.0000  0.0000  0.0000  0.0000
  o =  0.9900  v =  0.0000  0.0000  0.0000  0.0000  0.0000 -0.5012  0.0000  0.8653  0.0000  0.0000      0.0000  0.0000  0.0000  0.0000  0.0000  0.0000  0.0000  0.0000  0.0000  0.0000
  o =  0.9943  v =  0.0000  0.0000  0.0000  0.0000  0.0000  0.0000  0.7071  0.0000 -0.7071 -0.0000      0.0000  0.0000  0.0000  0.0000  0.0000  0.0000  0.0000  0.0000  0.0000  0.0000
  o =  0.9998  v =  0.0000  0.0000  0.0000  0.0000  0.0000  0.0000 -0.0000  0.0000  0.0000 -1.0000      0.0000  0.0000  0.0000  0.0000  0.0000  0.0000  0.0000  0.0000  0.0000  0.0000
  o =  1.0116  v =  0.0000  0.0000  0.0000  0.0000  0.0000  0.0000 -0.7071  0.0000 -0.7071  0.0000      0.0000  0.0000  0.0000  0.0000  0.0000  0.0000  0.0000  0.0000  0.0000  0.0000
atom =   2  type =  1  l = 2
 
 onsite density matrix
 
spin component  1
 
  0.9609  0.0000  0.0169  0.0000 -0.0000
  0.0000  1.0029  0.0000 -0.0087  0.0000
  0.0169  0.0000  0.9803  0.0000  0.0000
  0.0000 -0.0087  0.0000  1.0029  0.0000
 -0.0000  0.0000  0.0000  0.0000  0.9998
 
spin component  2
 
  0.0931  0.0000 -0.0430  0.0000 -0.0000
  0.0000  0.0545  0.0000 -0.0245  0.0000
 -0.0430  0.0000  0.0631  0.0000 -0.0000
  0.0000 -0.0245  0.0000  0.0545  0.0000
 -0.0000  0.0000 -0.0000  0.0000  0.0177
 
 occupancies and eigenvectors
 
  o =  0.0177  v =  0.0000  0.0000  0.0000  0.0000  0.0000  0.0000  0.0000  0.0000  0.0000  1.0000      0.0000  0.0000  0.0000  0.0000  0.0000  0.0000  0.0000  0.0000  0.0000  0.0000
  o =  0.0300  v =  0.0000  0.0000  0.0000  0.0000  0.0000  0.0000 -0.7071  0.0000 -0.7071  0.0000      0.0000  0.0000  0.0000  0.0000  0.0000  0.0000  0.0000  0.0000  0.0000  0.0000
  o =  0.0325  v =  0.0000  0.0000  0.0000  0.0000  0.0000 -0.5792  0.0000 -0.8152  0.0000  0.0000      0.0000  0.0000  0.0000  0.0000  0.0000  0.0000  0.0000  0.0000  0.0000  0.0000
  o =  0.0790  v =  0.0000  0.0000  0.0000  0.0000  0.0000  0.0000  0.7071  0.0000 -0.7071 -0.0000      0.0000  0.0000  0.0000  0.0000  0.0000  0.0000  0.0000  0.0000  0.0000  0.0000
  o =  0.1236  v =  0.0000  0.0000  0.0000  0.0000  0.0000 -0.8152 -0.0000  0.5792  0.0000 -0.0000      0.0000  0.0000  0.0000  0.0000  0.0000  0.0000  0.0000  0.0000  0.0000  0.0000
  o =  0.9511  v =  0.8653  0.0000 -0.5012  0.0000  0.0000  0.0000  0.0000  0.0000  0.0000  0.0000      0.0000  0.0000  0.0000  0.0000  0.0000  0.0000  0.0000  0.0000  0.0000  0.0000
  o =  0.9900  v =  0.5012 -0.0000  0.8653  0.0000 -0.0000  0.0000  0.0000  0.0000  0.0000  0.0000      0.0000  0.0000  0.0000  0.0000  0.0000  0.0000  0.0000  0.0000  0.0000  0.0000
  o =  0.9943  v =  0.0000 -0.7071  0.0000 -0.7071  0.0000  0.0000  0.0000  0.0000  0.0000  0.0000      0.0000  0.0000  0.0000  0.0000  0.0000  0.0000  0.0000  0.0000  0.0000  0.0000
  o =  0.9998  v =  0.0000  0.0000  0.0000  0.0000  1.0000  0.0000  0.0000  0.0000  0.0000  0.0000      0.0000  0.0000  0.0000  0.0000  0.0000  0.0000  0.0000  0.0000  0.0000  0.0000
  o =  1.0116  v =  0.0000 -0.7071  0.0000  0.7071  0.0000  0.0000  0.0000  0.0000  0.0000  0.0000      0.0000  0.0000  0.0000  0.0000  0.0000  0.0000  0.0000  0.0000  0.0000  0.0000
     EDDAV:  cpu time    1.8381: real time    1.8381
       DOS:  cpu time    0.0003: real time    0.0003
    CHARGE:  cpu time    0.3018: real time    0.3018
    MIXING:  cpu time    0.0006: real time    0.0006
    --------------------------------------------
      LOOP:  cpu time    2.9514: real time    2.9514

 eigenvalue-minimisations  :  3528
 total energy-change (2. order) :-0.2633024E+01  (-0.5053990E+01)
 number of electron      54.0000008 magnetization       0.0000000
 augmentation part       19.6969136 magnetization       0.0000000

 Broyden mixing:
  rms(total) = 0.17213E+01    rms(broyden)= 0.17211E+01
  rms(prec ) = 0.25094E+01
  weight for this iteration     100.00

 eigenvalues of (default mixing * dielectric matrix)
  average eigenvalue GAMMA=   0.6903
  0.6903  0.6903

 Free energy of the ion-electron system (eV)
  ---------------------------------------------------
  alpha Z        PSCENC =       199.38838823
  Ewald energy   TEWEN  =     -4203.06823030
  -Hartree energ DENC   =     -2178.44131814
  -exchange      EXHF   =         0.00000000
  -V(xc)+E(xc)   XCENC  =       167.81142075
  PAW double counting   =      6482.89095196    -6449.91067193
  entropy T*S    EENTRO =        -0.00000000
  eigenvalues    EBANDS =      -779.12901835
  atomic energy  EATOM  =      6689.01075358
  Solvation  Ediel_sol  =         0.00000000
  ---------------------------------------------------
  free energy    TOTEN  =       -71.44772420 eV

  energy without entropy =      -71.44772420  energy(sigma->0) =      -71.44772420


--------------------------------------------------------------------------------------------------------




--------------------------------------- Iteration      1(   8)  ---------------------------------------


    POTLOK:  cpu time    0.0325: real time    0.0325
    SETDIJ:  cpu time    0.7781: real time    0.7781
atom =   1  type =  1  l = 2
 
 onsite density matrix
 
spin component  1
 
  0.0376  0.0000  0.0072  0.0000 -0.0000
  0.0000  0.0507  0.0000  0.0219  0.0000
  0.0072  0.0000  0.0372  0.0000  0.0000
  0.0000  0.0219  0.0000  0.0507  0.0000
 -0.0000  0.0000  0.0000  0.0000  0.0245
 
spin component  2
 
  0.9988  0.0000  0.0286  0.0000  0.0000
  0.0000  0.9809  0.0000  0.0120  0.0000
  0.0286  0.0000  0.9833  0.0000  0.0000
  0.0000  0.0120  0.0000  0.9809  0.0000
  0.0000  0.0000  0.0000  0.0000  0.9674
 
 occupancies and eigenvectors
 
  o =  0.0245  v =  0.0000  0.0000 -0.0000  0.0000  1.0000  0.0000  0.0000  0.0000  0.0000  0.0000      0.0000  0.0000  0.0000  0.0000  0.0000  0.0000  0.0000  0.0000  0.0000  0.0000
  o =  0.0287  v =  0.0000 -0.7071  0.0000  0.7071  0.0000  0.0000  0.0000  0.0000  0.0000  0.0000      0.0000  0.0000  0.0000  0.0000  0.0000  0.0000  0.0000  0.0000  0.0000  0.0000
  o =  0.0301  v = -0.6976  0.0000  0.7165  0.0000  0.0000  0.0000  0.0000  0.0000  0.0000  0.0000      0.0000  0.0000  0.0000  0.0000  0.0000  0.0000  0.0000  0.0000  0.0000  0.0000
  o =  0.0446  v = -0.7165 -0.0000 -0.6976  0.0000 -0.0000  0.0000  0.0000  0.0000  0.0000  0.0000      0.0000  0.0000  0.0000  0.0000  0.0000  0.0000  0.0000  0.0000  0.0000  0.0000
  o =  0.0726  v =  0.0000 -0.7071  0.0000 -0.7071  0.0000  0.0000  0.0000  0.0000  0.0000  0.0000      0.0000  0.0000  0.0000  0.0000  0.0000  0.0000  0.0000  0.0000  0.0000  0.0000
  o =  0.9614  v =  0.0000  0.0000  0.0000  0.0000  0.0000 -0.6078  0.0000  0.7941  0.0000  0.0000      0.0000  0.0000  0.0000  0.0000  0.0000  0.0000  0.0000  0.0000  0.0000  0.0000
  o =  0.9674  v =  0.0000  0.0000  0.0000  0.0000  0.0000  0.0000 -0.0000 -0.0000  0.0000  1.0000      0.0000  0.0000  0.0000  0.0000  0.0000  0.0000  0.0000  0.0000  0.0000  0.0000
  o =  0.9689  v =  0.0000  0.0000  0.0000  0.0000  0.0000  0.0000  0.7071  0.0000 -0.7071  0.0000      0.0000  0.0000  0.0000  0.0000  0.0000  0.0000  0.0000  0.0000  0.0000  0.0000
  o =  0.9929  v =  0.0000  0.0000  0.0000  0.0000  0.0000  0.0000 -0.7071  0.0000 -0.7071 -0.0000      0.0000  0.0000  0.0000  0.0000  0.0000  0.0000  0.0000  0.0000  0.0000  0.0000
  o =  1.0207  v =  0.0000  0.0000  0.0000  0.0000  0.0000 -0.7941  0.0000 -0.6078  0.0000 -0.0000      0.0000  0.0000  0.0000  0.0000  0.0000  0.0000  0.0000  0.0000  0.0000  0.0000
atom =   2  type =  1  l = 2
 
 onsite density matrix
 
spin component  1
 
  0.9988  0.0000 -0.0286  0.0000 -0.0000
  0.0000  0.9809  0.0000 -0.0120  0.0000
 -0.0286  0.0000  0.9833  0.0000  0.0000
  0.0000 -0.0120  0.0000  0.9809  0.0000
 -0.0000  0.0000  0.0000  0.0000  0.9674
 
spin component  2
 
  0.0376  0.0000 -0.0072  0.0000 -0.0000
  0.0000  0.0507  0.0000 -0.0219  0.0000
 -0.0072  0.0000  0.0372  0.0000 -0.0000
  0.0000 -0.0219  0.0000  0.0507  0.0000
 -0.0000  0.0000 -0.0000  0.0000  0.0245
 
 occupancies and eigenvectors
 
  o =  0.0245  v =  0.0000  0.0000  0.0000  0.0000  0.0000  0.0000  0.0000  0.0000  0.0000  1.0000      0.0000  0.0000  0.0000  0.0000  0.0000  0.0000  0.0000  0.0000  0.0000  0.0000
  o =  0.0287  v =  0.0000  0.0000  0.0000  0.0000  0.0000  0.0000  0.7071  0.0000  0.7071 -0.0000      0.0000  0.0000  0.0000  0.0000  0.0000  0.0000  0.0000  0.0000  0.0000  0.0000
  o =  0.0301  v =  0.0000  0.0000  0.0000  0.0000  0.0000 -0.6976  0.0000 -0.7165  0.0000  0.0000      0.0000  0.0000  0.0000  0.0000  0.0000  0.0000  0.0000  0.0000  0.0000  0.0000
  o =  0.0446  v =  0.0000  0.0000  0.0000  0.0000  0.0000 -0.7165 -0.0000  0.6976  0.0000 -0.0000      0.0000  0.0000  0.0000  0.0000  0.0000  0.0000  0.0000  0.0000  0.0000  0.0000
  o =  0.0726  v =  0.0000  0.0000  0.0000  0.0000  0.0000  0.0000  0.7071  0.0000 -0.7071 -0.0000      0.0000  0.0000  0.0000  0.0000  0.0000  0.0000  0.0000  0.0000  0.0000  0.0000
  o =  0.9614  v = -0.6078  0.0000 -0.7941  0.0000 -0.0000  0.0000  0.0000  0.0000  0.0000  0.0000      0.0000  0.0000  0.0000  0.0000  0.0000  0.0000  0.0000  0.0000  0.0000  0.0000
  o =  0.9674  v =  0.0000 -0.0000  0.0000  0.0000 -1.0000  0.0000  0.0000  0.0000  0.0000  0.0000      0.0000  0.0000  0.0000  0.0000  0.0000  0.0000  0.0000  0.0000  0.0000  0.0000
  o =  0.9689  v =  0.0000 -0.7071  0.0000 -0.7071  0.0000  0.0000  0.0000  0.0000  0.0000  0.0000      0.0000  0.0000  0.0000  0.0000  0.0000  0.0000  0.0000  0.0000  0.0000  0.0000
  o =  0.9929  v =  0.0000 -0.7071  0.0000  0.7071  0.0000  0.0000  0.0000  0.0000  0.0000  0.0000      0.0000  0.0000  0.0000  0.0000  0.0000  0.0000  0.0000  0.0000  0.0000  0.0000
  o =  1.0207  v = -0.7941  0.0000  0.6078  0.0000  0.0000  0.0000  0.0000  0.0000  0.0000  0.0000      0.0000  0.0000  0.0000  0.0000  0.0000  0.0000  0.0000  0.0000  0.0000  0.0000
     EDDAV:  cpu time    2.0777: real time    2.0777
       DOS:  cpu time    0.0003: real time    0.0003
    CHARGE:  cpu time    0.3012: real time    0.3012
    MIXING:  cpu time    0.0006: real time    0.0006
    --------------------------------------------
      LOOP:  cpu time    3.1905: real time    3.1905

 eigenvalue-minimisations  :  4284
 total energy-change (2. order) : 0.2812830E+01  (-0.7143931E+00)
 number of electron      54.0000007 magnetization       0.0000000
 augmentation part       19.8653296 magnetization       0.0000000

 Broyden mixing:
  rms(total) = 0.64848E+00    rms(broyden)= 0.64830E+00
  rms(prec ) = 0.97446E+00
  weight for this iteration     100.00

 eigenvalues of (default mixing * dielectric matrix)
  average eigenvalue GAMMA=   0.7941
  1.0607  0.6608  0.6608

 Free energy of the ion-electron system (eV)
  ---------------------------------------------------
  alpha Z        PSCENC =       199.38838823
  Ewald energy   TEWEN  =     -4203.06823030
  -Hartree energ DENC   =     -2171.07340483
  -exchange      EXHF   =         0.00000000
  -V(xc)+E(xc)   XCENC  =       170.48834586
  PAW double counting   =      6414.15999048    -6379.08033122
  entropy T*S    EENTRO =        -0.00000000
  eigenvalues    EBANDS =      -788.46040640
  atomic energy  EATOM  =      6689.01075358
  Solvation  Ediel_sol  =         0.00000000
  ---------------------------------------------------
  free energy    TOTEN  =       -68.63489460 eV

  energy without entropy =      -68.63489460  energy(sigma->0) =      -68.63489460


--------------------------------------------------------------------------------------------------------




--------------------------------------- Iteration      1(   9)  ---------------------------------------


    POTLOK:  cpu time    0.0324: real time    0.0324
    SETDIJ:  cpu time    0.7782: real time    0.7782
atom =   1  type =  1  l = 2
 
 onsite density matrix
 
spin component  1
 
  0.0786  0.0000  0.0449  0.0000  0.0000
  0.0000  0.0467  0.0000  0.0193  0.0000
  0.0449  0.0000  0.0541  0.0000 -0.0000
  0.0000  0.0193  0.0000  0.0467  0.0000
  0.0000  0.0000 -0.0000  0.0000  0.0224
 
spin component  2
 
  0.9392  0.0000 -0.0006  0.0000 -0.0000
  0.0000  0.9585  0.0000  0.0166  0.0000
 -0.0006  0.0000  0.9411  0.0000  0.0000
  0.0000  0.0166  0.0000  0.9585  0.0000
 -0.0000  0.0000  0.0000  0.0000  0.9426
 
 occupancies and eigenvectors
 
  o =  0.0198  v = -0.6068 -0.0000  0.7949  0.0000  0.0000  0.0000  0.0000  0.0000  0.0000  0.0000      0.0000  0.0000  0.0000  0.0000  0.0000  0.0000  0.0000  0.0000  0.0000  0.0000
  o =  0.0224  v = -0.0000  0.0000  0.0000  0.0000 -1.0000  0.0000  0.0000  0.0000  0.0000  0.0000      0.0000  0.0000  0.0000  0.0000  0.0000  0.0000  0.0000  0.0000  0.0000  0.0000
  o =  0.0274  v =  0.0000 -0.7071  0.0000  0.7071 -0.0000  0.0000  0.0000  0.0000  0.0000  0.0000      0.0000  0.0000  0.0000  0.0000  0.0000  0.0000  0.0000  0.0000  0.0000  0.0000
  o =  0.0661  v =  0.0000 -0.7071  0.0000 -0.7071 -0.0000  0.0000  0.0000  0.0000  0.0000  0.0000      0.0000  0.0000  0.0000  0.0000  0.0000  0.0000  0.0000  0.0000  0.0000  0.0000
  o =  0.1129  v = -0.7949 -0.0000 -0.6068  0.0000  0.0000  0.0000  0.0000  0.0000  0.0000  0.0000      0.0000  0.0000  0.0000  0.0000  0.0000  0.0000  0.0000  0.0000  0.0000  0.0000
  o =  0.9390  v =  0.0000  0.0000  0.0000  0.0000  0.0000  0.9580 -0.0000  0.2869  0.0000 -0.0000      0.0000  0.0000  0.0000  0.0000  0.0000  0.0000  0.0000  0.0000  0.0000  0.0000
  o =  0.9413  v =  0.0000  0.0000  0.0000  0.0000  0.0000  0.2869  0.0000 -0.9580  0.0000  0.0000      0.0000  0.0000  0.0000  0.0000  0.0000  0.0000  0.0000  0.0000  0.0000  0.0000
  o =  0.9418  v =  0.0000  0.0000  0.0000  0.0000  0.0000  0.0000  0.7071  0.0000 -0.7071 -0.0000      0.0000  0.0000  0.0000  0.0000  0.0000  0.0000  0.0000  0.0000  0.0000  0.0000
  o =  0.9426  v =  0.0000  0.0000  0.0000  0.0000  0.0000  0.0000 -0.0000 -0.0000  0.0000 -1.0000      0.0000  0.0000  0.0000  0.0000  0.0000  0.0000  0.0000  0.0000  0.0000  0.0000
  o =  0.9751  v =  0.0000  0.0000  0.0000  0.0000  0.0000  0.0000  0.7071  0.0000  0.7071 -0.0000      0.0000  0.0000  0.0000  0.0000  0.0000  0.0000  0.0000  0.0000  0.0000  0.0000
atom =   2  type =  1  l = 2
 
 onsite density matrix
 
spin component  1
 
  0.9392  0.0000  0.0006  0.0000 -0.0000
  0.0000  0.9585  0.0000 -0.0166  0.0000
  0.0006  0.0000  0.9411  0.0000  0.0000
  0.0000 -0.0166  0.0000  0.9585  0.0000
 -0.0000  0.0000  0.0000  0.0000  0.9426
 
spin component  2
 
  0.0786  0.0000 -0.0449  0.0000  0.0000
  0.0000  0.0467  0.0000 -0.0193  0.0000
 -0.0449  0.0000  0.0541  0.0000  0.0000
  0.0000 -0.0193  0.0000  0.0467  0.0000
  0.0000  0.0000  0.0000  0.0000  0.0224
 
 occupancies and eigenvectors
 
  o =  0.0198  v =  0.0000  0.0000  0.0000  0.0000  0.0000 -0.6068  0.0000 -0.7949  0.0000  0.0000      0.0000  0.0000  0.0000  0.0000  0.0000  0.0000  0.0000  0.0000  0.0000  0.0000
  o =  0.0224  v =  0.0000  0.0000  0.0000  0.0000  0.0000  0.0000  0.0000  0.0000  0.0000  1.0000      0.0000  0.0000  0.0000  0.0000  0.0000  0.0000  0.0000  0.0000  0.0000  0.0000
  o =  0.0274  v =  0.0000  0.0000  0.0000  0.0000  0.0000 -0.0000 -0.7071 -0.0000 -0.7071  0.0000      0.0000  0.0000  0.0000  0.0000  0.0000  0.0000  0.0000  0.0000  0.0000  0.0000
  o =  0.0661  v =  0.0000  0.0000  0.0000  0.0000  0.0000  0.0000  0.7071  0.0000 -0.7071 -0.0000      0.0000  0.0000  0.0000  0.0000  0.0000  0.0000  0.0000  0.0000  0.0000  0.0000
  o =  0.1129  v =  0.0000  0.0000  0.0000  0.0000  0.0000 -0.7949  0.0000  0.6068 -0.0000  0.0000      0.0000  0.0000  0.0000  0.0000  0.0000  0.0000  0.0000  0.0000  0.0000  0.0000
  o =  0.9390  v = -0.9580  0.0000  0.2869  0.0000 -0.0000  0.0000  0.0000  0.0000  0.0000  0.0000      0.0000  0.0000  0.0000  0.0000  0.0000  0.0000  0.0000  0.0000  0.0000  0.0000
  o =  0.9413  v = -0.2869  0.0000 -0.9580  0.0000  0.0000  0.0000  0.0000  0.0000  0.0000  0.0000      0.0000  0.0000  0.0000  0.0000  0.0000  0.0000  0.0000  0.0000  0.0000  0.0000
  o =  0.9418  v =  0.0000  0.7071  0.0000  0.7071  0.0000  0.0000  0.0000  0.0000  0.0000  0.0000      0.0000  0.0000  0.0000  0.0000  0.0000  0.0000  0.0000  0.0000  0.0000  0.0000
  o =  0.9426  v =  0.0000 -0.0000  0.0000 -0.0000  1.0000  0.0000  0.0000  0.0000  0.0000  0.0000      0.0000  0.0000  0.0000  0.0000  0.0000  0.0000  0.0000  0.0000  0.0000  0.0000
  o =  0.9751  v =  0.0000 -0.7071  0.0000  0.7071  0.0000  0.0000  0.0000  0.0000  0.0000  0.0000      0.0000  0.0000  0.0000  0.0000  0.0000  0.0000  0.0000  0.0000  0.0000  0.0000
     EDDAV:  cpu time    2.0107: real time    2.0107
       DOS:  cpu time    0.0003: real time    0.0003
    CHARGE:  cpu time    0.3018: real time    0.3018
    MIXING:  cpu time    0.0007: real time    0.0007
    --------------------------------------------
      LOOP:  cpu time    3.1241: real time    3.1241

 eigenvalue-minimisations  :  4068
 total energy-change (2. order) : 0.4668380E+00  (-0.4850322E+00)
 number of electron      54.0000007 magnetization       0.0000000
 augmentation part       19.9941952 magnetization       0.0000000

 Broyden mixing:
  rms(total) = 0.81246E+00    rms(broyden)= 0.81242E+00
  rms(prec ) = 0.89685E+00
  weight for this iteration     100.00

 eigenvalues of (default mixing * dielectric matrix)
  average eigenvalue GAMMA=   0.9456
  1.7130  0.5746  0.7473  0.7473

 Free energy of the ion-electron system (eV)
  ---------------------------------------------------
  alpha Z        PSCENC =       199.38838823
  Ewald energy   TEWEN  =     -4203.06823030
  -Hartree energ DENC   =     -2163.14888524
  -exchange      EXHF   =         0.00000000
  -V(xc)+E(xc)   XCENC  =       168.54331350
  PAW double counting   =      6442.08068641    -6405.87482853
  entropy T*S    EENTRO =        -0.00000000
  eigenvalues    EBANDS =      -795.09925425
  atomic energy  EATOM  =      6689.01075358
  Solvation  Ediel_sol  =         0.00000000
  ---------------------------------------------------
  free energy    TOTEN  =       -68.16805660 eV

  energy without entropy =      -68.16805660  energy(sigma->0) =      -68.16805660


--------------------------------------------------------------------------------------------------------




--------------------------------------- Iteration      1(  10)  ---------------------------------------


    POTLOK:  cpu time    0.0329: real time    0.0329
    SETDIJ:  cpu time    0.7776: real time    0.7777
atom =   1  type =  1  l = 2
 
 onsite density matrix
 
spin component  1
 
  0.0365  0.0000  0.0075  0.0000 -0.0000
  0.0000  0.0516  0.0000  0.0214  0.0000
  0.0075  0.0000  0.0353  0.0000  0.0000
  0.0000  0.0214  0.0000  0.0516  0.0000
 -0.0000  0.0000  0.0000  0.0000  0.0293
 
spin component  2
 
  0.9780  0.0000  0.0379  0.0000  0.0000
  0.0000  0.9514  0.0000  0.0165  0.0000
  0.0379  0.0000  0.9563  0.0000 -0.0000
  0.0000  0.0165  0.0000  0.9514  0.0000
  0.0000  0.0000 -0.0000  0.0000  0.9323
 
 occupancies and eigenvectors
 
  o =  0.0284  v = -0.6784 -0.0000  0.7347  0.0000 -0.0000  0.0000  0.0000  0.0000  0.0000  0.0000      0.0000  0.0000  0.0000  0.0000  0.0000  0.0000  0.0000  0.0000  0.0000  0.0000
  o =  0.0293  v = -0.0000  0.0000  0.0000  0.0000  1.0000  0.0000  0.0000  0.0000  0.0000  0.0000      0.0000  0.0000  0.0000  0.0000  0.0000  0.0000  0.0000  0.0000  0.0000  0.0000
  o =  0.0302  v =  0.0000  0.7071  0.0000 -0.7071 -0.0000  0.0000  0.0000  0.0000  0.0000  0.0000      0.0000  0.0000  0.0000  0.0000  0.0000  0.0000  0.0000  0.0000  0.0000  0.0000
  o =  0.0435  v = -0.7347 -0.0000 -0.6784  0.0000 -0.0000  0.0000  0.0000  0.0000  0.0000  0.0000      0.0000  0.0000  0.0000  0.0000  0.0000  0.0000  0.0000  0.0000  0.0000  0.0000
  o =  0.0729  v =  0.0000  0.7071  0.0000  0.7071 -0.0000  0.0000  0.0000  0.0000  0.0000  0.0000      0.0000  0.0000  0.0000  0.0000  0.0000  0.0000  0.0000  0.0000  0.0000  0.0000
  o =  0.9277  v =  0.0000  0.0000  0.0000  0.0000  0.0000 -0.6020 -0.0000  0.7985  0.0000  0.0000      0.0000  0.0000  0.0000  0.0000  0.0000  0.0000  0.0000  0.0000  0.0000  0.0000
  o =  0.9323  v =  0.0000  0.0000  0.0000  0.0000  0.0000 -0.0000  0.0000  0.0000 -0.0000 -1.0000      0.0000  0.0000  0.0000  0.0000  0.0000  0.0000  0.0000  0.0000  0.0000  0.0000
  o =  0.9350  v =  0.0000  0.0000  0.0000  0.0000  0.0000  0.0000  0.7071 -0.0000 -0.7071  0.0000      0.0000  0.0000  0.0000  0.0000  0.0000  0.0000  0.0000  0.0000  0.0000  0.0000
  o =  0.9679  v =  0.0000  0.0000  0.0000  0.0000  0.0000  0.0000  0.7071 -0.0000  0.7071  0.0000      0.0000  0.0000  0.0000  0.0000  0.0000  0.0000  0.0000  0.0000  0.0000  0.0000
  o =  1.0066  v =  0.0000  0.0000  0.0000  0.0000  0.0000 -0.7985  0.0000 -0.6020  0.0000  0.0000      0.0000  0.0000  0.0000  0.0000  0.0000  0.0000  0.0000  0.0000  0.0000  0.0000
atom =   2  type =  1  l = 2
 
 onsite density matrix
 
spin component  1
 
  0.9780  0.0000 -0.0379  0.0000  0.0000
  0.0000  0.9514  0.0000 -0.0165  0.0000
 -0.0379  0.0000  0.9563  0.0000  0.0000
  0.0000 -0.0165  0.0000  0.9514  0.0000
  0.0000  0.0000  0.0000  0.0000  0.9323
 
spin component  2
 
  0.0365  0.0000 -0.0075  0.0000 -0.0000
  0.0000  0.0516  0.0000 -0.0214  0.0000
 -0.0075  0.0000  0.0353  0.0000 -0.0000
  0.0000 -0.0214  0.0000  0.0516  0.0000
 -0.0000  0.0000 -0.0000  0.0000  0.0293
 
 occupancies and eigenvectors
 
  o =  0.0284  v =  0.0000  0.0000  0.0000  0.0000  0.0000 -0.6784  0.0000 -0.7347  0.0000 -0.0000      0.0000  0.0000  0.0000  0.0000  0.0000  0.0000  0.0000  0.0000  0.0000  0.0000
  o =  0.0293  v =  0.0000  0.0000  0.0000  0.0000  0.0000 -0.0000 -0.0000 -0.0000 -0.0000  1.0000      0.0000  0.0000  0.0000  0.0000  0.0000  0.0000  0.0000  0.0000  0.0000  0.0000
  o =  0.0302  v =  0.0000  0.0000  0.0000  0.0000  0.0000  0.0000  0.7071  0.0000  0.7071  0.0000      0.0000  0.0000  0.0000  0.0000  0.0000  0.0000  0.0000  0.0000  0.0000  0.0000
  o =  0.0435  v =  0.0000  0.0000  0.0000  0.0000  0.0000 -0.7347  0.0000  0.6784  0.0000 -0.0000      0.0000  0.0000  0.0000  0.0000  0.0000  0.0000  0.0000  0.0000  0.0000  0.0000
  o =  0.0729  v =  0.0000  0.0000  0.0000  0.0000  0.0000  0.0000 -0.7071 -0.0000  0.7071 -0.0000      0.0000  0.0000  0.0000  0.0000  0.0000  0.0000  0.0000  0.0000  0.0000  0.0000
  o =  0.9277  v = -0.6020  0.0000 -0.7985  0.0000  0.0000  0.0000  0.0000  0.0000  0.0000  0.0000      0.0000  0.0000  0.0000  0.0000  0.0000  0.0000  0.0000  0.0000  0.0000  0.0000
  o =  0.9323  v =  0.0000  0.0000 -0.0000  0.0000 -1.0000  0.0000  0.0000  0.0000  0.0000  0.0000      0.0000  0.0000  0.0000  0.0000  0.0000  0.0000  0.0000  0.0000  0.0000  0.0000
  o =  0.9350  v =  0.0000 -0.7071 -0.0000 -0.7071 -0.0000  0.0000  0.0000  0.0000  0.0000  0.0000      0.0000  0.0000  0.0000  0.0000  0.0000  0.0000  0.0000  0.0000  0.0000  0.0000
  o =  0.9679  v =  0.0000  0.7071  0.0000 -0.7071  0.0000  0.0000  0.0000  0.0000  0.0000  0.0000      0.0000  0.0000  0.0000  0.0000  0.0000  0.0000  0.0000  0.0000  0.0000  0.0000
  o =  1.0066  v = -0.7985  0.0000  0.6020  0.0000 -0.0000  0.0000  0.0000  0.0000  0.0000  0.0000      0.0000  0.0000  0.0000  0.0000  0.0000  0.0000  0.0000  0.0000  0.0000  0.0000
     EDDAV:  cpu time    1.8992: real time    1.8992
       DOS:  cpu time    0.0003: real time    0.0003
    CHARGE:  cpu time    0.3013: real time    0.3013
    MIXING:  cpu time    0.0007: real time    0.0007
    --------------------------------------------
      LOOP:  cpu time    3.0120: real time    3.0121

 eigenvalue-minimisations  :  3720
 total energy-change (2. order) : 0.7065632E-01  (-0.4282770E-01)
 number of electron      54.0000007 magnetization      -0.0000000
 augmentation part       19.9919705 magnetization      -0.0000000

 Broyden mixing:
  rms(total) = 0.58136E+00    rms(broyden)= 0.58136E+00
  rms(prec ) = 0.64366E+00
  weight for this iteration     100.00

 eigenvalues of (default mixing * dielectric matrix)
  average eigenvalue GAMMA=   1.1865
  2.7697  0.9864  0.9864  0.5949  0.5949

 Free energy of the ion-electron system (eV)
  ---------------------------------------------------
  alpha Z        PSCENC =       199.38838823
  Ewald energy   TEWEN  =     -4203.06823030
  -Hartree energ DENC   =     -2156.41469333
  -exchange      EXHF   =         0.00000000
  -V(xc)+E(xc)   XCENC  =       165.79252042
  PAW double counting   =      6506.49967284    -6471.45089482
  entropy T*S    EENTRO =        -0.00000000
  eigenvalues    EBANDS =      -797.85491690
  atomic energy  EATOM  =      6689.01075358
  Solvation  Ediel_sol  =         0.00000000
  ---------------------------------------------------
  free energy    TOTEN  =       -68.09740028 eV

  energy without entropy =      -68.09740028  energy(sigma->0) =      -68.09740028


--------------------------------------------------------------------------------------------------------




--------------------------------------- Iteration      1(  11)  ---------------------------------------


    POTLOK:  cpu time    0.0325: real time    0.0325
    SETDIJ:  cpu time    0.7778: real time    0.7778
atom =   1  type =  1  l = 2
 
 onsite density matrix
 
spin component  1
 
  0.0483  0.0000  0.0278  0.0000  0.0000
  0.0000  0.0438  0.0000  0.0251  0.0000
  0.0278  0.0000  0.0356  0.0000  0.0000
  0.0000  0.0251  0.0000  0.0438  0.0000
  0.0000  0.0000  0.0000  0.0000  0.0154
 
spin component  2
 
  0.9651  0.0000  0.0206  0.0000 -0.0000
  0.0000  0.9590  0.0000  0.0170  0.0000
  0.0206  0.0000  0.9529  0.0000 -0.0000
  0.0000  0.0170  0.0000  0.9590  0.0000
 -0.0000  0.0000 -0.0000  0.0000  0.9425
 
 occupancies and eigenvectors
 
  o =  0.0135  v = -0.6232  0.0000  0.7821 -0.0000 -0.0000  0.0000  0.0000  0.0000  0.0000  0.0000      0.0000  0.0000  0.0000  0.0000  0.0000  0.0000  0.0000  0.0000  0.0000  0.0000
  o =  0.0154  v = -0.0000  0.0000  0.0000 -0.0000  1.0000  0.0000  0.0000  0.0000  0.0000  0.0000      0.0000  0.0000  0.0000  0.0000  0.0000  0.0000  0.0000  0.0000  0.0000  0.0000
  o =  0.0187  v =  0.0000  0.7071 -0.0000 -0.7071 -0.0000  0.0000  0.0000  0.0000  0.0000  0.0000      0.0000  0.0000  0.0000  0.0000  0.0000  0.0000  0.0000  0.0000  0.0000  0.0000
  o =  0.0688  v = -0.0000 -0.7071 -0.0000 -0.7071  0.0000  0.0000  0.0000  0.0000  0.0000  0.0000      0.0000  0.0000  0.0000  0.0000  0.0000  0.0000  0.0000  0.0000  0.0000  0.0000
  o =  0.0705  v = -0.7821  0.0000 -0.6232  0.0000 -0.0000  0.0000  0.0000  0.0000  0.0000  0.0000      0.0000  0.0000  0.0000  0.0000  0.0000  0.0000  0.0000  0.0000  0.0000  0.0000
  o =  0.9375  v =  0.0000  0.0000  0.0000  0.0000  0.0000 -0.5980  0.0000  0.8015  0.0000  0.0000      0.0000  0.0000  0.0000  0.0000  0.0000  0.0000  0.0000  0.0000  0.0000  0.0000
  o =  0.9419  v =  0.0000  0.0000  0.0000  0.0000  0.0000  0.0000 -0.7071 -0.0000  0.7071  0.0000      0.0000  0.0000  0.0000  0.0000  0.0000  0.0000  0.0000  0.0000  0.0000  0.0000
[...]
     34      10.9946      0.00000
     35      11.4426      0.00000
     36      12.7122      0.00000

 k-point    22 :       0.2000    0.2000    0.4375
  band No.  band energies     occupation 
      1     -49.2459      1.00000
      2     -49.2056      1.00000
      3     -49.1850      1.00000
      4     -42.7370      1.00000
      5     -42.6937      1.00000
      6     -42.6626      1.00000
      7     -22.6357      1.00000
      8     -22.5507      1.00000
      9     -22.5232      1.00000
     10     -22.4261      1.00000
     11      -4.5461      1.00000
     12      -4.2412      1.00000
     13      -4.0901      1.00000
     14      -3.8433      1.00000
     15      -3.8338      1.00000
     16      -3.3848      1.00000
     17      -3.1536      1.00000
     18      -2.9404      1.00000
     19      -2.6041      1.00000
     20      -2.3605      1.00000
     21      -2.2835      1.00000
     22      -2.1975      1.00000
     23       0.7890      1.00000
     24       0.8063      1.00000
     25       1.0523      1.00000
     26       1.6563      1.00000
     27       2.0822      1.00000
     28       6.3829      0.00000
     29       6.4070      0.00000
     30       6.5606      0.00000
     31       7.3584      0.00000
     32       7.8045      0.00000
     33       9.4128      0.00000
     34      11.1650      0.00000
     35      12.4860      0.00000
     36      12.7775      0.00000

 k-point    23 :       0.4000    0.2000    0.4375
  band No.  band energies     occupation 
      1     -49.2459      1.00000
      2     -49.2056      1.00000
      3     -49.1850      1.00000
      4     -42.7370      1.00000
      5     -42.6937      1.00000
      6     -42.6626      1.00000
      7     -22.6011      1.00000
      8     -22.5680      1.00000
      9     -22.5211      1.00000
     10     -22.4444      1.00000
     11      -4.6078      1.00000
     12      -4.3716      1.00000
     13      -4.1640      1.00000
     14      -4.0062      1.00000
     15      -3.5787      1.00000
     16      -3.3861      1.00000
     17      -3.1802      1.00000
     18      -3.0709      1.00000
     19      -2.4431      1.00000
     20      -2.3286      1.00000
     21      -2.1531      1.00000
     22      -2.0889      1.00000
     23       0.7635      1.00000
     24       0.7969      1.00000
     25       1.0098      1.00000
     26       1.6530      1.00000
     27       2.1781      1.00000
     28       6.3753      0.00000
     29       6.4085      0.00000
     30       6.6009      0.00000
     31       7.3259      0.00000
     32       7.8453      0.00000
     33       9.9826      0.00000
     34      11.2489      0.00000
     35      11.5733      0.00000
     36      12.7599      0.00000

 k-point    24 :       0.4000    0.4000    0.4375
  band No.  band energies     occupation 
      1     -49.2459      1.00000
      2     -49.2056      1.00000
      3     -49.1850      1.00000
      4     -42.7370      1.00000
      5     -42.6937      1.00000
      6     -42.6626      1.00000
      7     -22.6145      1.00000
      8     -22.5599      1.00000
      9     -22.5169      1.00000
     10     -22.4406      1.00000
     11      -4.7638      1.00000
     12      -4.5766      1.00000
     13      -4.1499      1.00000
     14      -4.1325      1.00000
     15      -3.6060      1.00000
     16      -3.3063      1.00000
     17      -3.1507      1.00000
     18      -2.9220      1.00000
     19      -2.2729      1.00000
     20      -2.2037      1.00000
     21      -2.0845      1.00000
     22      -2.0440      1.00000
     23       0.7575      1.00000
     24       0.7924      1.00000
     25       0.9999      1.00000
     26       1.6935      1.00000
     27       2.1712      1.00000
     28       6.3804      0.00000
     29       6.4097      0.00000
     30       6.6153      0.00000
     31       7.2987      0.00000
     32       7.7376      0.00000
     33      10.4007      0.00000
     34      11.7176      0.00000
     35      11.7309      0.00000
     36      11.9740      0.00000


--------------------------------------------------------------------------------------------------------


 soft charge-density along one line, spin component           1
         0         1         2         3         4         5         6         7         8         9
 total charge-density along one line
 
 soft charge-density along one line, spin component           2
         0         1         2         3         4         5         6         7         8         9
 total charge-density along one line
 
 pseudopotential strength for first ion, spin component:           1
-45.227  -0.000  -0.038   7.798   0.000   0.016  -0.000   0.000
 -0.000 -45.193  -0.000   0.000   7.784   0.000   0.000   0.000
 -0.038  -0.000 -45.227   0.016   0.000   7.798   0.000   0.000
  7.798   0.000   0.016   5.590  -0.000   0.004  -0.000  -0.000
  0.000   7.784   0.000  -0.000   5.585  -0.000  -0.000   0.000
  0.016   0.000   7.798   0.004  -0.000   5.590  -0.000  -0.000
 -0.000   0.000   0.000  -0.000  -0.000  -0.000  -2.984  -0.000
  0.000   0.000   0.000  -0.000   0.000  -0.000  -0.000  -2.966
 -0.000   0.000   0.000   0.000  -0.000   0.000   0.020  -0.000
  0.000   0.000   0.000  -0.000   0.000  -0.000  -0.000  -0.018
  0.000   0.000  -0.000  -0.000  -0.000  -0.000  -0.000   0.000
 -0.000   0.000   0.000  -0.000  -0.000  -0.000  -3.499  -0.000
  0.000   0.000   0.000  -0.000   0.000  -0.000  -0.000  -3.482
 -0.000   0.000   0.000   0.000  -0.000   0.000   0.018  -0.000
  0.000   0.000   0.000  -0.000   0.000  -0.000  -0.000  -0.018
  0.000   0.000  -0.000  -0.000  -0.000  -0.000  -0.000   0.000
  0.000  -0.000   0.000   0.000  -0.000  -0.000   0.011   0.000
  0.000  -0.000   0.000   0.000  -0.000  -0.000   0.022   0.000
 pseudopotential strength for first ion, spin component:           2
-50.980  -0.000  -0.005   9.797   0.000   0.016   0.000   0.000
 -0.000 -50.980  -0.000   0.000   9.783   0.000   0.000   0.000
 -0.005  -0.000 -50.980   0.016   0.000   9.797  -0.000   0.000
  9.797   0.000   0.016   4.707  -0.000   0.001  -0.000  -0.000
  0.000   9.783   0.000  -0.000   4.706  -0.000  -0.000  -0.000
  0.016   0.000   9.797   0.001  -0.000   4.707  -0.000  -0.000
  0.000   0.000  -0.000  -0.000  -0.000  -0.000  -7.337  -0.000
  0.000   0.000   0.000  -0.000  -0.000  -0.000  -0.000  -7.327
  0.000   0.000  -0.000  -0.000  -0.000   0.000  -0.009  -0.000
  0.000  -0.000   0.000  -0.000   0.000  -0.000  -0.000  -0.027
 -0.000   0.000   0.000  -0.000  -0.000  -0.000   0.000   0.000
  0.000   0.000  -0.000  -0.000  -0.000  -0.000  -7.808  -0.000
  0.000   0.000   0.000  -0.000  -0.000  -0.000  -0.000  -7.799
  0.000   0.000  -0.000  -0.000  -0.000   0.000  -0.008  -0.000
  0.000  -0.000   0.000  -0.000   0.000  -0.000  -0.000  -0.027
 -0.000   0.000   0.000  -0.000  -0.000  -0.000   0.000   0.000
  0.000  -0.000  -0.000  -0.000  -0.000   0.000   0.011   0.000
  0.000  -0.000  -0.000  -0.000  -0.000   0.000   0.023   0.000
 total augmentation occupancy for first ion, spin component:           1
  2.001   0.000   0.000  -0.013   0.000   0.001   0.000   0.000   0.000   0.000   0.000   0.000   0.000   0.000   0.000   0.000
  0.000   2.001   0.000   0.000  -0.013   0.000   0.000   0.000   0.000   0.000   0.000   0.000   0.000   0.000   0.000   0.000
  0.000   0.000   2.001   0.001   0.000  -0.013   0.000   0.000   0.000   0.000   0.000   0.000   0.000   0.000   0.000   0.000
 -0.013   0.000   0.001   0.081   0.000  -0.009   0.000   0.000   0.000   0.000   0.000   0.000   0.000   0.000   0.000   0.000
  0.000  -0.013   0.000   0.000   0.090   0.000   0.000   0.000   0.000   0.000   0.000   0.000   0.000   0.000   0.000   0.000
  0.001   0.000  -0.013  -0.009   0.000   0.081   0.000   0.000   0.000   0.000   0.000   0.000   0.000   0.000   0.000   0.000
  0.000   0.000   0.000   0.000   0.000   0.000   7.757   0.000   2.996   0.000  -0.000  -5.784   0.000  -2.817   0.000  -0.000
  0.000   0.000   0.000   0.000   0.000   0.000   0.000   6.564   0.000   2.534   0.000   0.000  -4.636   0.000  -2.380   0.000
  0.000   0.000   0.000   0.000   0.000   0.000   2.996   0.000   5.955   0.000  -0.000  -2.819   0.000  -4.096   0.000   0.000
  0.000   0.000   0.000   0.000   0.000   0.000   0.000   2.534   0.000   6.564   0.000   0.000  -2.380   0.000  -4.636   0.000
  0.000   0.000   0.000   0.000   0.000   0.000  -0.000   0.000  -0.000   0.000   3.894   0.000   0.000   0.000   0.000  -2.113
  0.000   0.000   0.000   0.000   0.000   0.000  -5.784   0.000  -2.819   0.000   0.000   4.984   0.000   2.683   0.000   0.000
  0.000   0.000   0.000   0.000   0.000   0.000   0.000  -4.636   0.000  -2.380   0.000   0.000   3.872   0.000   2.263   0.000
  0.000   0.000   0.000   0.000   0.000   0.000  -2.817   0.000  -4.096   0.000   0.000   2.683   0.000   3.385   0.000   0.000
  0.000   0.000   0.000   0.000   0.000   0.000   0.000  -2.380   0.000  -4.636   0.000   0.000   2.263   0.000   3.872   0.000
  0.000   0.000   0.000   0.000   0.000   0.000  -0.000   0.000   0.000   0.000  -2.113  -0.000   0.000   0.000   0.000   1.456
  0.000   0.000   0.000   0.000   0.000   0.000   0.440   0.000  -0.297   0.000   0.000  -0.417   0.000   0.276   0.000   0.000
  0.000   0.000   0.000   0.000   0.000   0.000  -0.091   0.000   0.068   0.000   0.000   0.097   0.000  -0.068   0.000   0.000
 total augmentation occupancy for first ion, spin component:           2
  0.004   0.000  -0.000   0.017   0.000  -0.001   0.000   0.000   0.000   0.000   0.000   0.000   0.000   0.000   0.000   0.000
  0.000   0.004   0.000   0.000   0.018   0.000   0.000   0.000   0.000   0.000   0.000   0.000   0.000   0.000   0.000   0.000
 -0.000   0.000   0.004  -0.001   0.000   0.017   0.000   0.000   0.000   0.000   0.000   0.000   0.000   0.000   0.000   0.000
  0.017   0.000  -0.001  -0.011   0.000  -0.000   0.000   0.000   0.000   0.000   0.000   0.000   0.000   0.000   0.000   0.000
  0.000   0.018   0.000   0.000  -0.010   0.000   0.000   0.000   0.000   0.000   0.000   0.000   0.000   0.000   0.000   0.000
 -0.001   0.000   0.017  -0.000   0.000  -0.011   0.000   0.000   0.000   0.000   0.000   0.000   0.000   0.000   0.000   0.000
  0.000   0.000   0.000   0.000   0.000   0.000  -5.102   0.000  -1.493   0.000   0.000   2.727   0.000   1.097   0.000  -0.000
  0.000   0.000   0.000   0.000   0.000   0.000   0.000  -4.548   0.000  -1.273   0.000   0.000   2.299   0.000   0.936   0.000
  0.000   0.000   0.000   0.000   0.000   0.000  -1.493   0.000  -4.149   0.000  -0.000   1.097   0.000   2.012   0.000   0.000
  0.000   0.000   0.000   0.000   0.000   0.000   0.000  -1.273   0.000  -4.548   0.000   0.000   0.936   0.000   2.299   0.000
  0.000   0.000   0.000   0.000   0.000   0.000   0.000   0.000  -0.000   0.000  -3.256  -0.000   0.000  -0.000   0.000   1.355
  0.000   0.000   0.000   0.000   0.000   0.000   2.727   0.000   1.097   0.000   0.000  -1.455   0.000  -0.706   0.000  -0.000
  0.000   0.000   0.000   0.000   0.000   0.000   0.000   2.299   0.000   0.936   0.000   0.000  -1.155   0.000  -0.606   0.000
  0.000   0.000   0.000   0.000   0.000   0.000   1.097   0.000   2.012   0.000  -0.000  -0.706   0.000  -0.974   0.000   0.000
  0.000   0.000   0.000   0.000   0.000   0.000   0.000   0.936   0.000   2.299   0.000   0.000  -0.606   0.000  -1.155   0.000
  0.000   0.000   0.000   0.000   0.000   0.000   0.000   0.000   0.000   0.000   1.355   0.000   0.000   0.000   0.000  -0.556
  0.000   0.000   0.000   0.000   0.000   0.000  -0.098   0.000   0.055   0.000  -0.000   0.022   0.000   0.001   0.000   0.000
  0.000   0.000   0.000   0.000   0.000   0.000  -0.000   0.000  -0.006   0.000   0.000   0.009   0.000  -0.004   0.000  -0.000


------------------------ aborting loop because EDIFF is reached ----------------------------------------


 


 total charge     
 
# of ion       s       p       d       tot
------------------------------------------
    1        0.168   6.148   4.965  11.282
    2        0.172   6.145   4.970  11.287
    3        1.731   4.401   0.000   6.132
    4        1.731   4.401   0.000   6.132
    5        1.730   4.398   0.000   6.129
    6        1.730   4.398   0.000   6.129
--------------------------------------------------
tot          7.262  29.891   9.936  47.090
 


 magnetization (x)
 
# of ion       s       p       d       tot
------------------------------------------
    1       -0.022  -0.018  -4.581  -4.621
    2        0.023   0.016   4.579   4.618
    3        0.003   0.024   0.000   0.027
    4        0.003   0.024   0.000   0.027
    5       -0.003  -0.021   0.000  -0.024
    6       -0.003  -0.021   0.000  -0.024
--------------------------------------------------
tot         -0.001   0.005  -0.002   0.002
 
    CHARGE:  cpu time    0.0589: real time    0.0589
    FORLOC:  cpu time    0.0008: real time    0.0008
    FORNL :  cpu time    0.3149: real time    0.3149
    STRESS:  cpu time    5.3446: real time    5.3446
    FORCOR:  cpu time    0.0295: real time    0.0295
    FORHAR:  cpu time    0.0021: real time    0.0021
    MIXING:  cpu time    0.0016: real time    0.0016
    OFIELD:  cpu time    0.0000: real time    0.0000

  FORCE on cell =-STRESS in cart. coord.  units (eV):
  Direction    XX          YY          ZZ          XY          YZ          ZX
  --------------------------------------------------------------------------------------
  Alpha Z   199.38839   199.38839   199.38839
  Ewald   -1586.09778 -1586.09778 -1030.87583    -0.00000     0.00000     0.00000
  Hartree   594.08517   594.08517   969.39660    -0.00000    -0.00000    -0.00000
  E(xc)    -150.54859  -150.52333  -150.65997    -0.01227    -0.01930    -0.02631
  Local     163.67438   163.67438  -759.97174    -0.00000     0.00000    -0.00000
  n-local  -310.01895  -310.32001  -309.26878     0.01440     0.08439     0.10539
  augment   158.51921   158.51921   158.02703    -0.00000     0.00000    -0.00000
  Kinetic   930.83132   931.45082   923.95838    -0.32814    -0.60528    -0.80241
  Fock        0.00000     0.00000     0.00000     0.00000     0.00000     0.00000
  -------------------------------------------------------------------------------------
  Total       0.00500     0.00500    -0.00590    -0.00000     0.00000     0.00000
  in kB       0.10343     0.10343    -0.12219    -0.00000     0.00000     0.00000
  external pressure =        0.03 kB  Pullay stress =        0.00 kB


 VOLUME and BASIS-vectors are now :
 -----------------------------------------------------------------------------
  energy-cutoff  :      600.00
  volume of cell :       77.42
      direct lattice vectors                 reciprocal lattice vectors
     4.852568500  0.000000000  0.000000000     0.206076431  0.000000000  0.000000000
     0.000000000  4.852568500  0.000000000     0.000000000  0.206076431  0.000000000
     0.000000000  0.000000000  3.288011935     0.000000000  0.000000000  0.304135149

  length of vectors
     4.852568500  4.852568500  3.288011935     0.206076431  0.206076431  0.304135149


 FORCES acting on ions
    electron-ion (+dipol)            ewald-force                    non-local-force                 convergence-correction
 -----------------------------------------------------------------------------------------------
   -.179E-11 0.656E-11 -.446E-13   -.568E-13 -.568E-13 -.305E-14   0.000E+00 0.000E+00 0.000E+00   0.466E-14 0.691E-14 0.108E-12
   -.443E-13 -.346E-13 0.512E-13   0.171E-12 0.171E-12 -.494E-14   0.000E+00 0.000E+00 0.000E+00   0.373E-13 0.308E-13 -.160E-12
   -.325E+02 0.325E+02 0.105E-11   0.337E+02 -.337E+02 0.930E-15   -.120E+01 0.120E+01 0.217E-18   0.112E-05 -.112E-05 0.191E-12
   0.325E+02 -.325E+02 -.825E-11   -.337E+02 0.337E+02 0.116E-14   0.120E+01 -.120E+01 -.217E-18   -.112E-05 0.112E-05 -.656E-13
   0.325E+02 0.325E+02 0.515E-08   -.337E+02 -.337E+02 -.175E-14   0.120E+01 0.120E+01 0.217E-18   -.112E-05 -.112E-05 -.815E-12
   -.325E+02 -.325E+02 -.515E-08   0.337E+02 0.337E+02 -.154E-14   -.120E+01 -.120E+01 -.217E-18   0.112E-05 0.112E-05 0.707E-12
 -----------------------------------------------------------------------------------------------
   0.897E-12 0.747E-11 -.699E-11   0.000E+00 0.000E+00 -.918E-14   -.222E-15 -.222E-15 0.000E+00   0.321E-13 0.394E-13 -.355E-13
 
 
 POSITION                                       TOTAL-FORCE (eV/Angst)
 -----------------------------------------------------------------------------------
      2.42628      2.42628      1.64401         0.000000     -0.000000     -0.000000
      0.00000      0.00000      0.00000         0.000000     -0.000000     -0.000000
      0.95159      3.90098      1.64401         0.001587     -0.001587     -0.000000
      3.90098      0.95159      1.64401        -0.001587      0.001587      0.000000
      1.47470      1.47470      0.00000        -0.001587     -0.001587     -0.000000
      3.37787      3.37787      0.00000         0.001587      0.001587      0.000000
 -----------------------------------------------------------------------------------
    total drift:                                0.000000      0.000000     -0.000000


--------------------------------------------------------------------------------------------------------



  FREE ENERGIE OF THE ION-ELECTRON SYSTEM (eV)
  ---------------------------------------------------
  free  energy   TOTEN  =       -68.02421767 eV

  energy  without entropy=      -68.02421767  energy(sigma->0) =      -68.02421767
 


--------------------------------------------------------------------------------------------------------


    POTLOK:  cpu time    1.5097: real time    1.5097


--------------------------------------------------------------------------------------------------------




--------------------------------------------------------------------------------------------------------


  
 reached required accuracy - stopping structural energy minimisation
     LOOP+:  cpu time   93.9229: real time   93.9433
    4ORBIT:  cpu time    0.0000: real time    0.0000
 


 total charge     
 
# of ion       s       p       d       tot
------------------------------------------
    1        0.168   6.148   4.965  11.282
    2        0.172   6.145   4.970  11.287
    3        1.731   4.401   0.000   6.132
    4        1.731   4.401   0.000   6.132
    5        1.730   4.398   0.000   6.129
    6        1.730   4.398   0.000   6.129
--------------------------------------------------
tot          7.262  29.891   9.936  47.090
 


 magnetization (x)
 
# of ion       s       p       d       tot
------------------------------------------
    1       -0.022  -0.018  -4.581  -4.621
    2        0.023   0.016   4.579   4.618
    3        0.003   0.024   0.000   0.027
    4        0.003   0.024   0.000   0.027
    5       -0.003  -0.021   0.000  -0.024
    6       -0.003  -0.021   0.000  -0.024
--------------------------------------------------
tot         -0.001   0.005  -0.002   0.002
 

 total amount of memory used by VASP MPI-rank0    60406. kBytes
=======================================================================

   base      :      30000. kBytes
   nonl-proj :      18332. kBytes
   fftplans  :       1875. kBytes
   grid      :       3820. kBytes
   one-center:        186. kBytes
   wavefun   :       6193. kBytes
 
  
  
 General timing and accounting informations for this job:
 ========================================================
  
                  Total CPU time used (sec):       95.290
                            User time (sec):       74.070
                          System time (sec):       21.221
                         Elapsed time (sec):       95.362
  
                   Maximum memory used (kb):       76564.
                   Average memory used (kb):           0.
  
                          Minor page faults:        16536
                          Major page faults:            6
                 Voluntary context switches:          308
