       N       E                     dE             d eps       ncg     rms          rms(c)
DAV:   1     0.677258383133E+03    0.67726E+03   -0.34080E+04  4320   0.187E+03
DAV:   2     0.902547652729E+01   -0.66823E+03   -0.64835E+03  5004   0.508E+02
DAV:   3    -0.394453183721E+02   -0.48471E+02   -0.48278E+02  5088   0.151E+02
DAV:   4    -0.400982904611E+02   -0.65297E+00   -0.65283E+00  4872   0.192E+01
DAV:   5    -0.401090346291E+02   -0.10744E-01   -0.10744E-01  5148   0.237E+00    0.225E+01
DAV:   6    -0.382192058884E+02    0.18898E+01   -0.15683E+01  5364   0.317E+01    0.143E+01
DAV:   7    -0.389386971503E+02   -0.71949E+00   -0.18210E+00  5124   0.108E+01    0.113E+01
DAV:   8    -0.389960027137E+02   -0.57306E-01   -0.42115E-01  5016   0.550E+00    0.520E+00
DAV:   9    -0.391606979191E+02   -0.16470E+00   -0.48704E-02  4524   0.218E+00    0.127E+00
DAV:  10    -0.391616459279E+02   -0.94801E-03   -0.19667E-02  5280   0.124E+00    0.281E-01
DAV:  11    -0.391618975067E+02   -0.25158E-03   -0.28033E-03  4512   0.353E-01    0.135E-01
DAV:  12    -0.391620496465E+02   -0.15214E-03   -0.10274E-04  5028   0.122E-01    0.540E-02
DAV:  13    -0.391621046272E+02   -0.54981E-04   -0.90317E-05  4512   0.547E-02    0.212E-02
DAV:  14    -0.391621134242E+02   -0.87970E-05   -0.83493E-06  5040   0.213E-02    0.909E-03
DAV:  15    -0.391621132276E+02    0.19665E-06   -0.14745E-06  4764   0.736E-03    0.266E-03
DAV:  16    -0.391621134919E+02   -0.26428E-06   -0.22109E-07  4608   0.275E-03    0.177E-03
DAV:  17    -0.391621134529E+02    0.38926E-07   -0.17530E-08  3168   0.105E-03
   1 F= -.39162113E+02 E0= -.39162113E+02  d E =-.391621E+02  mag=     0.0000
