       N       E                     dE             d eps       ncg     rms          rms(c)
DAV:   1     0.703843524699E+03    0.70384E+03   -0.35594E+04  1296   0.198E+03
DAV:   2     0.110694927003E+02   -0.69277E+03   -0.66977E+03  1524   0.526E+02
DAV:   3    -0.394055514542E+02   -0.50475E+02   -0.50270E+02  1500   0.156E+02
DAV:   4    -0.400996367293E+02   -0.69409E+00   -0.69387E+00  1488   0.200E+01
DAV:   5    -0.401112213857E+02   -0.11585E-01   -0.11585E-01  1536   0.247E+00    0.225E+01
DAV:   6    -0.382246873698E+02    0.18865E+01   -0.15589E+01  1608   0.316E+01    0.143E+01
DAV:   7    -0.389431939530E+02   -0.71851E+00   -0.18266E+00  1548   0.108E+01    0.113E+01
DAV:   8    -0.390035508727E+02   -0.60357E-01   -0.41888E-01  1488   0.550E+00    0.521E+00
DAV:   9    -0.391651619109E+02   -0.16161E+00   -0.48590E-02  1332   0.218E+00    0.128E+00
DAV:  10    -0.391662429166E+02   -0.10810E-02   -0.19870E-02  1596   0.124E+00    0.281E-01
DAV:  11    -0.391664846210E+02   -0.24170E-03   -0.28032E-03  1380   0.353E-01    0.136E-01
DAV:  12    -0.391666368468E+02   -0.15223E-03   -0.10385E-04  1584   0.123E-01    0.547E-02
DAV:  13    -0.391666918839E+02   -0.55037E-04   -0.90985E-05  1368   0.551E-02    0.211E-02
DAV:  14    -0.391667006252E+02   -0.87413E-05   -0.83148E-06  1536   0.214E-02    0.901E-03
DAV:  15    -0.391667004350E+02    0.19012E-06   -0.14541E-06  1416   0.734E-03    0.267E-03
DAV:  16    -0.391667007071E+02   -0.27202E-06   -0.23180E-07  1428   0.282E-03    0.182E-03
DAV:  17    -0.391667006676E+02    0.39492E-07   -0.17167E-08   948   0.105E-03
   1 F= -.39166701E+02 E0= -.39166701E+02  d E =-.391667E+02  mag=     0.0000
       N       E                     dE             d eps       ncg     rms          rms(c)
DAV:   1    -0.391675645914E+02   -0.86388E-03   -0.18030E-02  1296   0.121E+00    0.254E-01
DAV:   2    -0.391667519477E+02    0.81264E-03   -0.25075E-03  1296   0.354E-01    0.142E-01
DAV:   3    -0.391667356498E+02    0.16298E-04   -0.21235E-04  1296   0.159E-01    0.567E-02
DAV:   4    -0.391667248000E+02    0.10850E-04   -0.18741E-05  1536   0.354E-02    0.378E-02
DAV:   5    -0.391667212635E+02    0.35365E-05   -0.41623E-06  1512   0.168E-02    0.132E-02
DAV:   6    -0.391667213406E+02   -0.77104E-07   -0.36172E-07  1512   0.680E-03
   2 F= -.39166721E+02 E0= -.39166721E+02  d E =-.206731E-04  mag=    -0.0000
