 vasp.5.4.4.18Apr17-6-g9f103f2a35 (build Apr 27 2017 11:13:10) complex          
  
 executed on           IFC91_ompi date 2021.06.08  16:25:32
 running on   12 total cores
 distrk:  each k-point on   12 cores,    1 groups
 distr:  one band on NCORES_PER_BAND=   1 cores,   12 groups


--------------------------------------------------------------------------------------------------------


 INCAR:
 POTCAR:    PAW Mn_pv 02Aug2007                   
 POTCAR:    PAW F 31May2000                       

 ----------------------------------------------------------------------------- 
|                                                                             |
|           W    W    AA    RRRRR   N    N  II  N    N   GGGG   !!!           |
|           W    W   A  A   R    R  NN   N  II  NN   N  G    G  !!!           |
|           W    W  A    A  R    R  N N  N  II  N N  N  G       !!!           |
|           W WW W  AAAAAA  RRRRR   N  N N  II  N  N N  G  GGG   !            |
|           WW  WW  A    A  R   R   N   NN  II  N   NN  G    G                |
|           W    W  A    A  R    R  N    N  II  N    N   GGGG   !!!           |
|                                                                             |
|      For optimal performance we recommend to set                            |
|        NCORE= 4 - approx SQRT( number of cores)                             |
|      NCORE specifies how many cores store one orbital (NPAR=cpu/NCORE).     |
|      This setting can  greatly improve the performance of VASP for DFT.     |
|      The default,   NCORE=1            might be grossly inefficient         |
|      on modern multi-core architectures or massively parallel machines.     |
|      Do your own testing !!!!                                               |
|      Unfortunately you need to use the default for GW and RPA calculations. |
|      (for HF NCORE is supported but not extensively tested yet)             |
|                                                                             |
 ----------------------------------------------------------------------------- 

 POTCAR:    PAW Mn_pv 02Aug2007                   
   VRHFIN =Mn: 3p4s3d                                                           
   LEXCH  = CA                                                                  
   EATOM  =  2028.0466 eV,  149.0572 Ry                                         
                                                                                
   TITEL  = PAW Mn_pv 02Aug2007                                                 
   LULTRA =        F    use ultrasoft PP ?                                      
   IUNSCR =        1    unscreen: 0-lin 1-nonlin 2-no                           
   RPACOR =    2.080    partial core radius                                     
   POMASS =   54.938; ZVAL   =   13.000    mass and valenz                      
   RCORE  =    2.300    outmost cutoff radius                                   
   RWIGS  =    2.500; RWIGS  =    1.323    wigner-seitz radius (au A)           
   ENMAX  =  269.944; ENMIN  =  202.458 eV                                      
   ICORE  =        3    local potential                                         
   LCOR   =        T    correct aug charges                                     
   LPAW   =        T    paw PP                                                  
   EAUG   =  569.085                                                            
   DEXC   =    0.000                                                            
   RMAX   =    2.343    core radius for proj-oper                               
   RAUG   =    1.300    factor for augmentation sphere                          
   RDEP   =    2.338    radius for radial grids                                 
   RDEPT  =    1.798    core radius for aug-charge                              
                                                                                
   Atomic configuration                                                         
    8 entries                                                                   
     n  l   j            E        occ.                                          
     1  0  0.50     -6393.6057   2.0000                                         
     2  0  0.50      -735.9993   2.0000                                         
     2  1  1.50      -624.3417   6.0000                                         
     3  0  0.50       -80.9782   2.0000                                         
     3  1  1.50       -50.3144   6.0000                                         
     3  2  2.50        -3.6171   6.0000                                         
     4  0  0.50        -4.3304   1.0000                                         
     4  3  2.50        -1.3606   0.0000                                         
   Description                                                                  
     l       E           TYP  RCUT    TYP  RCUT                                 
     1    -50.3143634     23  2.000                                             
     1     -1.3605826     23  2.000                                             
     2     -3.6171470     23  2.300                                             
     2     -4.9777296     23  2.300                                             
     0     -4.3303688     23  2.300                                             
     0      7.3408788     23  2.300                                             
     3      9.5240782     23  2.300                                             
  local pseudopotential read in
  partial core-charges read in
  partial kinetic energy density read in
  atomic valenz-charges read in
  non local Contribution for L=           1  read in
    real space projection operators read in
  non local Contribution for L=           1  read in
    real space projection operators read in
  non local Contribution for L=           2  read in
    real space projection operators read in
  non local Contribution for L=           2  read in
    real space projection operators read in
  non local Contribution for L=           0  read in
    real space projection operators read in
  non local Contribution for L=           0  read in
    real space projection operators read in
    PAW grid and wavefunctions read in
 
   number of l-projection  operators is LMAX  =           6
   number of lm-projection operators is LMMAX =          18
 
 POTCAR:    PAW F 31May2000                       
   VRHFIN =F: s2p5                                                              
   LEXCH  = CA                                                                  
   EATOM  =   658.3685 eV,   48.3887 Ry                                         
                                                                                
   TITEL  = PAW F 31May2000                                                     
   LULTRA =        F    use ultrasoft PP ?                                      
   IUNSCR =        1    unscreen: 0-lin 1-nonlin 2-no                           
   RPACOR =    1.200    partial core radius                                     
   POMASS =   18.998; ZVAL   =    7.000    mass and valenz                      
   RCORE  =    1.520    outmost cutoff radius                                   
   RWIGS  =    1.500; RWIGS  =    0.794    wigner-seitz radius (au A)           
   ENMAX  =  400.000; ENMIN  =  300.000 eV                                      
   ICORE  =        2    local potential                                         
   LCOR   =        T    correct aug charges                                     
   LPAW   =        T    paw PP                                                  
   EAUG   =  613.614                                                            
   DEXC   =    0.000                                                            
   RMAX   =    1.555    core radius for proj-oper                               
   RAUG   =    1.300    factor for augmentation sphere                          
   RDEP   =    1.539    radius for radial grids                                 
   RDEPT  =    1.299    core radius for aug-charge                              
                                                                                
   Atomic configuration                                                         
    4 entries                                                                   
     n  l   j            E        occ.                                          
     1  0  0.50      -658.3386   2.0000                                         
     2  0  0.50       -29.6221   2.0000                                         
     2  1  0.50       -11.2952   5.0000                                         
     3  2  1.50       -12.2452   0.0000                                         
   Description                                                                  
     l       E           TYP  RCUT    TYP  RCUT                                 
     0    -29.6221019     23  1.200                                             
     0     -9.5240782     23  1.200                                             
     1    -11.2951545     23  1.520                                             
     1      1.3605826     23  1.520                                             
     2    -12.2452434      7  1.500                                             
  local pseudopotential read in
  partial core-charges read in
  partial kinetic energy density read in
  kinetic energy density of atom read in
  atomic valenz-charges read in
  non local Contribution for L=           0  read in
    real space projection operators read in
  non local Contribution for L=           0  read in
    real space projection operators read in
  non local Contribution for L=           1  read in
    real space projection operators read in
  non local Contribution for L=           1  read in
    real space projection operators read in
    PAW grid and wavefunctions read in
 
   number of l-projection  operators is LMAX  =           4
   number of lm-projection operators is LMMAX =           8
 
  PAW Mn_pv 02Aug2007                   :
 energy of atom  1       EATOM=-2028.0466
 kinetic energy error for atom=    0.0047 (will be added to EATOM!!)
  PAW F 31May2000                       :
 energy of atom  2       EATOM= -658.3685
 kinetic energy error for atom=    0.0252 (will be added to EATOM!!)
 
 
 POSCAR: Mn  F                                   
  positions in cartesian coordinates
  No initial velocities read in
 exchange correlation table for  LEXCH =        2
   RHO(1)=    0.500       N(1)  =     2000
   RHO(2)=  100.500       N(2)  =     4000
 


--------------------------------------------------------------------------------------------------------


 ion  position               nearest neighbor table
   1  0.500  0.500  0.500-   3 2.03   4 2.03   5 2.09   6 2.09   5 2.09   6 2.09
   2  0.000  0.000  0.000-   5 2.03   6 2.03   3 2.09   4 2.09   3 2.09   4 2.09
   3  0.198  0.802  0.500-   1 2.03   2 2.09   2 2.09
   4  0.802  0.198  0.500-   1 2.03   2 2.09   2 2.09
   5  0.302  0.302  0.000-   2 2.03   1 2.09   1 2.09
   6  0.698  0.698  0.000-   2 2.03   1 2.09   1 2.09
 

IMPORTANT INFORMATION: All symmetrisations will be switched off!
NOSYMM: (Re-)initialisation of all symmetry stuff for point group C_1.

 
 
 KPOINTS: KPOINTS created by Atomic Simulation Env

Automatic generation of k-mesh.
Space group operators:
 irot       det(A)        alpha          n_x          n_y          n_z        tau_x        tau_y        tau_z
    1     1.000000     0.000000     1.000000     0.000000     0.000000     0.000000     0.000000     0.000000
 
 Subroutine IBZKPT returns following result:
 ===========================================
 
 Found     48 irreducible k-points:
 
 Following reciprocal coordinates:
            Coordinates               Weight
  0.125000  0.125000  0.083333      2.000000
  0.375000  0.125000  0.083333      2.000000
 -0.375000  0.125000  0.083333      2.000000
 -0.125000  0.125000  0.083333      2.000000
  0.125000  0.375000  0.083333      2.000000
  0.375000  0.375000  0.083333      2.000000
 -0.375000  0.375000  0.083333      2.000000
 -0.125000  0.375000  0.083333      2.000000
  0.125000 -0.375000  0.083333      2.000000
  0.375000 -0.375000  0.083333      2.000000
 -0.375000 -0.375000  0.083333      2.000000
 -0.125000 -0.375000  0.083333      2.000000
  0.125000 -0.125000  0.083333      2.000000
  0.375000 -0.125000  0.083333      2.000000
 -0.375000 -0.125000  0.083333      2.000000
 -0.125000 -0.125000  0.083333      2.000000
  0.125000  0.125000  0.250000      2.000000
  0.375000  0.125000  0.250000      2.000000
 -0.375000  0.125000  0.250000      2.000000
 -0.125000  0.125000  0.250000      2.000000
  0.125000  0.375000  0.250000      2.000000
  0.375000  0.375000  0.250000      2.000000
 -0.375000  0.375000  0.250000      2.000000
 -0.125000  0.375000  0.250000      2.000000
  0.125000 -0.375000  0.250000      2.000000
  0.375000 -0.375000  0.250000      2.000000
 -0.375000 -0.375000  0.250000      2.000000
 -0.125000 -0.375000  0.250000      2.000000
  0.125000 -0.125000  0.250000      2.000000
  0.375000 -0.125000  0.250000      2.000000
 -0.375000 -0.125000  0.250000      2.000000
 -0.125000 -0.125000  0.250000      2.000000
  0.125000  0.125000  0.416667      2.000000
  0.375000  0.125000  0.416667      2.000000
 -0.375000  0.125000  0.416667      2.000000
 -0.125000  0.125000  0.416667      2.000000
  0.125000  0.375000  0.416667      2.000000
  0.375000  0.375000  0.416667      2.000000
 -0.375000  0.375000  0.416667      2.000000
 -0.125000  0.375000  0.416667      2.000000
  0.125000 -0.375000  0.416667      2.000000
  0.375000 -0.375000  0.416667      2.000000
 -0.375000 -0.375000  0.416667      2.000000
 -0.125000 -0.375000  0.416667      2.000000
  0.125000 -0.125000  0.416667      2.000000
  0.375000 -0.125000  0.416667      2.000000
 -0.375000 -0.125000  0.416667      2.000000
 -0.125000 -0.125000  0.416667      2.000000
 
 Following cartesian coordinates:
            Coordinates               Weight
  0.026245  0.026245  0.025928      2.000000
  0.078734  0.026245  0.025928      2.000000
 -0.078734  0.026245  0.025928      2.000000
 -0.026245  0.026245  0.025928      2.000000
  0.026245  0.078734  0.025928      2.000000
  0.078734  0.078734  0.025928      2.000000
 -0.078734  0.078734  0.025928      2.000000
 -0.026245  0.078734  0.025928      2.000000
  0.026245 -0.078734  0.025928      2.000000
  0.078734 -0.078734  0.025928      2.000000
 -0.078734 -0.078734  0.025928      2.000000
 -0.026245 -0.078734  0.025928      2.000000
  0.026245 -0.026245  0.025928      2.000000
  0.078734 -0.026245  0.025928      2.000000
 -0.078734 -0.026245  0.025928      2.000000
 -0.026245 -0.026245  0.025928      2.000000
  0.026245  0.026245  0.077784      2.000000
  0.078734  0.026245  0.077784      2.000000
 -0.078734  0.026245  0.077784      2.000000
 -0.026245  0.026245  0.077784      2.000000
  0.026245  0.078734  0.077784      2.000000
  0.078734  0.078734  0.077784      2.000000
 -0.078734  0.078734  0.077784      2.000000
 -0.026245  0.078734  0.077784      2.000000
  0.026245 -0.078734  0.077784      2.000000
  0.078734 -0.078734  0.077784      2.000000
 -0.078734 -0.078734  0.077784      2.000000
 -0.026245 -0.078734  0.077784      2.000000
  0.026245 -0.026245  0.077784      2.000000
  0.078734 -0.026245  0.077784      2.000000
 -0.078734 -0.026245  0.077784      2.000000
 -0.026245 -0.026245  0.077784      2.000000
  0.026245  0.026245  0.129639      2.000000
  0.078734  0.026245  0.129639      2.000000
 -0.078734  0.026245  0.129639      2.000000
 -0.026245  0.026245  0.129639      2.000000
  0.026245  0.078734  0.129639      2.000000
  0.078734  0.078734  0.129639      2.000000
 -0.078734  0.078734  0.129639      2.000000
 -0.026245  0.078734  0.129639      2.000000
  0.026245 -0.078734  0.129639      2.000000
  0.078734 -0.078734  0.129639      2.000000
 -0.078734 -0.078734  0.129639      2.000000
 -0.026245 -0.078734  0.129639      2.000000
  0.026245 -0.026245  0.129639      2.000000
  0.078734 -0.026245  0.129639      2.000000
 -0.078734 -0.026245  0.129639      2.000000
 -0.026245 -0.026245  0.129639      2.000000
 
 TETIRR: Found    288 inequivalent tetrahedra from      576


--------------------------------------------------------------------------------------------------------




 Dimension of arrays:
   k-points           NKPTS =     48   k-points in BZ     NKDIM =     48   number of bands    NBANDS=     36
   number of dos      NEDOS =    301   number of ions     NIONS =      6
   non local maximal  LDIM  =      6   non local SUM 2l+1 LMDIM =     18
   total plane-waves  NPLWV =  18000
   max r-space proj   IRMAX =      1   max aug-charges    IRDMAX=  60120
   dimension x,y,z NGX =    30 NGY =   30 NGZ =   20
   dimension x,y,z NGXF=    60 NGYF=   60 NGZF=   40
   support grid    NGXF=   120 NGYF=  120 NGZF=   80
   ions per type =               2   4
   NGX,Y,Z   is equivalent  to a cutoff of  10.47, 10.47, 10.34 a.u.
   NGXF,Y,Z  is equivalent  to a cutoff of  20.94, 20.94, 20.69 a.u.

 SYSTEM =  unknown system                          
 POSCAR =  Mn  F                                   

 Startparameter for this run:
   NWRITE =      2    write-flag & timer
   PREC   = normal    normal or accurate (medium, high low for compatibility)
   ISTART =      1    job   : 0-new  1-cont  2-samecut
   ICHARG =      0    charge: 1-file 2-atom 10-const
   ISPIN  =      2    spin polarized calculation?
   LNONCOLLINEAR =      F non collinear calculations
   LSORBIT =      F    spin-orbit coupling
   INIWAV =      1    electr: 0-lowe 1-rand  2-diag
   LASPH  =      T    aspherical Exc in radial PAW
   METAGGA=      F    non-selfconsistent MetaGGA calc.

 Electronic Relaxation 1
   ENCUT  =  600.0 eV  44.10 Ry    6.64 a.u.   9.51  9.51  6.42*2*pi/ulx,y,z
   ENINI  =  600.0     initial cutoff
   ENAUG  =  613.6 eV  augmentation charge cutoff
   NELM   =     60;   NELMIN=  2; NELMDL=  0     # of ELM steps 
   EDIFF  = 0.1E-07   stopping-criterion for ELM
   LREAL  =      F    real-space projection
   NLSPLINE    = F    spline interpolate recip. space projectors
   LCOMPAT=      F    compatible to vasp.4.4
   GGA_COMPAT  = T    GGA compatible to vasp.4.4-vasp.4.6
   LMAXPAW     = -100 max onsite density
   LMAXMIX     =    4 max onsite mixed and CHGCAR
   VOSKOWN=      0    Vosko Wilk Nusair interpolation
   ROPT   =    0.00000   0.00000
 Ionic relaxation
   EDIFFG = 0.1E-06   stopping-criterion for IOM
   NSW    =      0    number of steps for IOM
   NBLOCK =      1;   KBLOCK =      1    inner block; outer block 
   IBRION =     -1    ionic relax: 0-MD 1-quasi-New 2-CG
   NFREE  =      0    steps in history (QN), initial steepest desc. (CG)
   ISIF   =      2    stress and relaxation
   IWAVPR =     10    prediction:  0-non 1-charg 2-wave 3-comb
   ISYM   =      0    0-nonsym 1-usesym 2-fastsym
   LCORR  =      T    Harris-Foulkes like correction to forces

   POTIM  = 0.5000    time-step for ionic-motion
   TEIN   =    0.0    initial temperature
   TEBEG  =    0.0;   TEEND  =   0.0 temperature during run
   SMASS  =  -3.00    Nose mass-parameter (am)
   estimated Nose-frequenzy (Omega)   =  0.10E-29 period in steps =****** mass=  -0.518E-27a.u.
   SCALEE = 1.0000    scale energy and forces
   NPACO  =    256;   APACO  = 16.0  distance and # of slots for P.C.
   PSTRESS=    0.0 pullay stress

  Mass of Ions in am
   POMASS =  54.94 19.00
  Ionic Valenz
   ZVAL   =  13.00  7.00
  Atomic Wigner-Seitz radii
   RWIGS  =  -1.00 -1.00
  virtual crystal weights 
   VCA    =   1.00  1.00
   NELECT =      54.0000    total number of electrons
   NUPDOWN=      -1.0000    fix difference up-down

 DOS related values:
   EMIN   =  10.00;   EMAX   =-10.00  energy-range for DOS
   EFERMI =   0.00
   ISMEAR =    -5;   SIGMA  =   0.20  broadening in eV -4-tet -1-fermi 0-gaus

 Electronic relaxation 2 (details)
   IALGO  =     38    algorithm
   LDIAG  =      T    sub-space diagonalisation (order eigenvalues)
   LSUBROT=      F    optimize rotation matrix (better conditioning)
   TURBO    =      0    0=normal 1=particle mesh
   IRESTART =      0    0=no restart 2=restart with 2 vectors
   NREBOOT  =      0    no. of reboots
   NMIN     =      0    reboot dimension
   EREF     =   0.00    reference energy to select bands
   IMIX   =      4    mixing-type and parameters
     AMIX     =   0.40;   BMIX     =  1.00
     AMIX_MAG =   1.60;   BMIX_MAG =  1.00
     AMIN     =   0.10
     WC   =   100.;   INIMIX=   1;  MIXPRE=   1;  MAXMIX= -45

 Intra band minimization:
   WEIMIN = 0.0000     energy-eigenvalue tresh-hold
   EBREAK =  0.69E-10  absolut break condition
   DEPER  =   0.30     relativ break condition  

   TIME   =   0.40     timestep for ELM

  volume/ion in A,a.u.               =      12.15        82.00
  Fermi-wavevector in a.u.,A,eV,Ry     =   1.481182  2.799028 29.849814  2.193899
  Thomas-Fermi vector in A             =   2.595124
 
 Write flags
   LWAVE        =      T    write WAVECAR
   LDOWNSAMPLE  =      F    k-point downsampling of WAVECAR
   LCHARG       =      T    write CHGCAR
   LVTOT        =      F    write LOCPOT, total local potential
   LVHAR        =      F    write LOCPOT, Hartree potential only
   LELF         =      F    write electronic localiz. function (ELF)
   LORBIT       =     11    0 simple, 1 ext, 2 COOP (PROOUT), +10 PAW based schemes


 Dipole corrections
   LMONO  =      F    monopole corrections only (constant potential shift)
   LDIPOL =      F    correct potential (dipole corrections)
   IDIPOL =      0    1-x, 2-y, 3-z, 4-all directions 
   EPSILON=  1.0000000 bulk dielectric constant

 LDA+U is selected, type is set to LDAUTYPE =  2
   angular momentum for each species LDAUL =     2   -1
   U (eV)           for each species LDAUU =   0.0  0.0
   J (eV)           for each species LDAUJ =   0.0  0.0
 Exchange correlation treatment:
   GGA     =    --    GGA type
   LEXCH   =     2    internal setting for exchange type
   VOSKOWN=      0    Vosko Wilk Nusair interpolation
   LHFCALC =     F    Hartree Fock is set to
   LHFONE  =     F    Hartree Fock one center treatment
   AEXX    =    0.0000 exact exchange contribution

 Linear response parameters
   LEPSILON=     F    determine dielectric tensor
   LRPA    =     F    only Hartree local field effects (RPA)
   LNABLA  =     F    use nabla operator in PAW spheres
   LVEL    =     F    velocity operator in full k-point grid
   LINTERFAST=   F  fast interpolation
   KINTER  =     0    interpolate to denser k-point grid
   CSHIFT  =0.1000    complex shift for real part using Kramers Kronig
   OMEGAMAX=  -1.0    maximum frequency
   DEG_THRESHOLD= 0.2000000E-02 threshold for treating states as degnerate
   RTIME   =   -0.100 relaxation time in fs
  (WPLASMAI=    0.000 imaginary part of plasma frequency in eV, 0.658/RTIME)
   DFIELD  = 0.0000000 0.0000000 0.0000000 field for delta impulse in time
 
 Orbital magnetization related:
   ORBITALMAG=     F  switch on orbital magnetization
   LCHIMAG   =     F  perturbation theory with respect to B field
   DQ        =  0.001000  dq finite difference perturbation B field
   LLRAUG    =     F  two centre corrections for induced B field



--------------------------------------------------------------------------------------------------------


 Static calculation
 charge density and potential will be updated during run
 spin polarized calculation
 Variant of blocked Davidson
 Davidson routine will perform the subspace rotation
 perform sub-space diagonalisation
    after iterative eigenvector-optimisation
 modified Broyden-mixing scheme, WC =      100.0
 initial mixing is a Kerker type mixing with AMIX =  0.4000 and BMIX =      1.0000
 Hartree-type preconditioning will be used
 using additional bands            9
 reciprocal scheme for non local part
 use partial core corrections
 calculate Harris-corrections to forces 
   (improved forces if not selfconsistent)
 use of overlap-Matrix (Vanderbilt PP)
 Fermi weights with tetrahedron method with Bloechl corrections


--------------------------------------------------------------------------------------------------------


  energy-cutoff  :      600.00
  volume of cell :       72.91
      direct lattice vectors                 reciprocal lattice vectors
     4.762889507  0.000000000  0.000000000     0.209956582  0.000000000  0.000000000
     0.000000000  4.762889507  0.000000000     0.000000000  0.209956582  0.000000000
     0.000000000  0.000000000  3.214046596     0.000000000  0.000000000  0.311134257

  length of vectors
     4.762889507  4.762889507  3.214046596     0.209956582  0.209956582  0.311134257


 
 old parameters found on file WAVECAR:
  energy-cutoff  :      600.00
  volume of cell :       72.91
      direct lattice vectors                 reciprocal lattice vectors
     4.762889507  0.000000000  0.000000000     0.209956582  0.000000000  0.000000000
     0.000000000  4.762889507  0.000000000     0.000000000  0.209956582  0.000000000
     0.000000000  0.000000000  3.214046596     0.000000000  0.000000000  0.311134257

  length of vectors

 
 k-points in units of 2pi/SCALE and weight: KPOINTS created by Atomic Simulation Env
   0.02624457  0.02624457  0.02592785       0.021
   0.07873372  0.02624457  0.02592785       0.021
  -0.07873372  0.02624457  0.02592785       0.021
  -0.02624457  0.02624457  0.02592785       0.021
   0.02624457  0.07873372  0.02592785       0.021
   0.07873372  0.07873372  0.02592785       0.021
  -0.07873372  0.07873372  0.02592785       0.021
  -0.02624457  0.07873372  0.02592785       0.021
   0.02624457 -0.07873372  0.02592785       0.021
   0.07873372 -0.07873372  0.02592785       0.021
  -0.07873372 -0.07873372  0.02592785       0.021
  -0.02624457 -0.07873372  0.02592785       0.021
   0.02624457 -0.02624457  0.02592785       0.021
   0.07873372 -0.02624457  0.02592785       0.021
  -0.07873372 -0.02624457  0.02592785       0.021
  -0.02624457 -0.02624457  0.02592785       0.021
   0.02624457  0.02624457  0.07778356       0.021
   0.07873372  0.02624457  0.07778356       0.021
  -0.07873372  0.02624457  0.07778356       0.021
  -0.02624457  0.02624457  0.07778356       0.021
   0.02624457  0.07873372  0.07778356       0.021
   0.07873372  0.07873372  0.07778356       0.021
  -0.07873372  0.07873372  0.07778356       0.021
  -0.02624457  0.07873372  0.07778356       0.021
   0.02624457 -0.07873372  0.07778356       0.021
   0.07873372 -0.07873372  0.07778356       0.021
  -0.07873372 -0.07873372  0.07778356       0.021
  -0.02624457 -0.07873372  0.07778356       0.021
   0.02624457 -0.02624457  0.07778356       0.021
   0.07873372 -0.02624457  0.07778356       0.021
  -0.07873372 -0.02624457  0.07778356       0.021
  -0.02624457 -0.02624457  0.07778356       0.021
   0.02624457  0.02624457  0.12963927       0.021
   0.07873372  0.02624457  0.12963927       0.021
  -0.07873372  0.02624457  0.12963927       0.021
  -0.02624457  0.02624457  0.12963927       0.021
   0.02624457  0.07873372  0.12963927       0.021
   0.07873372  0.07873372  0.12963927       0.021
  -0.07873372  0.07873372  0.12963927       0.021
  -0.02624457  0.07873372  0.12963927       0.021
   0.02624457 -0.07873372  0.12963927       0.021
   0.07873372 -0.07873372  0.12963927       0.021
  -0.07873372 -0.07873372  0.12963927       0.021
  -0.02624457 -0.07873372  0.12963927       0.021
   0.02624457 -0.02624457  0.12963927       0.021
   0.07873372 -0.02624457  0.12963927       0.021
  -0.07873372 -0.02624457  0.12963927       0.021
  -0.02624457 -0.02624457  0.12963927       0.021
 
 k-points in reciprocal lattice and weights: KPOINTS created by Atomic Simulation Env
   0.12500000  0.12500000  0.08333333       0.021
   0.37500000  0.12500000  0.08333333       0.021
  -0.37500000  0.12500000  0.08333333       0.021
  -0.12500000  0.12500000  0.08333333       0.021
   0.12500000  0.37500000  0.08333333       0.021
   0.37500000  0.37500000  0.08333333       0.021
  -0.37500000  0.37500000  0.08333333       0.021
  -0.12500000  0.37500000  0.08333333       0.021
   0.12500000 -0.37500000  0.08333333       0.021
   0.37500000 -0.37500000  0.08333333       0.021
  -0.37500000 -0.37500000  0.08333333       0.021
  -0.12500000 -0.37500000  0.08333333       0.021
   0.12500000 -0.12500000  0.08333333       0.021
   0.37500000 -0.12500000  0.08333333       0.021
  -0.37500000 -0.12500000  0.08333333       0.021
  -0.12500000 -0.12500000  0.08333333       0.021
   0.12500000  0.12500000  0.25000000       0.021
   0.37500000  0.12500000  0.25000000       0.021
  -0.37500000  0.12500000  0.25000000       0.021
  -0.12500000  0.12500000  0.25000000       0.021
   0.12500000  0.37500000  0.25000000       0.021
   0.37500000  0.37500000  0.25000000       0.021
  -0.37500000  0.37500000  0.25000000       0.021
  -0.12500000  0.37500000  0.25000000       0.021
   0.12500000 -0.37500000  0.25000000       0.021
   0.37500000 -0.37500000  0.25000000       0.021
  -0.37500000 -0.37500000  0.25000000       0.021
  -0.12500000 -0.37500000  0.25000000       0.021
   0.12500000 -0.12500000  0.25000000       0.021
   0.37500000 -0.12500000  0.25000000       0.021
  -0.37500000 -0.12500000  0.25000000       0.021
  -0.12500000 -0.12500000  0.25000000       0.021
   0.12500000  0.12500000  0.41666667       0.021
   0.37500000  0.12500000  0.41666667       0.021
  -0.37500000  0.12500000  0.41666667       0.021
  -0.12500000  0.12500000  0.41666667       0.021
   0.12500000  0.37500000  0.41666667       0.021
   0.37500000  0.37500000  0.41666667       0.021
  -0.37500000  0.37500000  0.41666667       0.021
  -0.12500000  0.37500000  0.41666667       0.021
   0.12500000 -0.37500000  0.41666667       0.021
   0.37500000 -0.37500000  0.41666667       0.021
  -0.37500000 -0.37500000  0.41666667       0.021
  -0.12500000 -0.37500000  0.41666667       0.021
   0.12500000 -0.12500000  0.41666667       0.021
   0.37500000 -0.12500000  0.41666667       0.021
  -0.37500000 -0.12500000  0.41666667       0.021
  -0.12500000 -0.12500000  0.41666667       0.021
 
 position of ions in fractional coordinates (direct lattice) 
   0.50000000  0.50000000  0.50000000
   0.00000000  0.00000000  0.00000000
   0.19811861  0.80188139  0.50000000
   0.80188139  0.19811861  0.50000000
   0.30188139  0.30188139  0.00000000
   0.69811861  0.69811861  0.00000000
 
 position of ions in cartesian coordinates  (Angst):
   2.38144475  2.38144475  1.60702330
   0.00000000  0.00000000  0.00000000
   0.94361705  3.81927246  1.60702330
   3.81927246  0.94361705  1.60702330
   1.43782771  1.43782771  0.00000000
   3.32506180  3.32506180  0.00000000
 


--------------------------------------------------------------------------------------------------------


 k-point  1 :   0.1250 0.1250 0.0833  plane waves:    2448
 k-point  2 :   0.3750 0.1250 0.0833  plane waves:    2440
 k-point  3 :  -0.3750 0.1250 0.0833  plane waves:    2440
 k-point  4 :  -0.1250 0.1250 0.0833  plane waves:    2448
 k-point  5 :   0.1250 0.3750 0.0833  plane waves:    2440
 k-point  6 :   0.3750 0.3750 0.0833  plane waves:    2432
 k-point  7 :  -0.3750 0.3750 0.0833  plane waves:    2432
 k-point  8 :  -0.1250 0.3750 0.0833  plane waves:    2440
 k-point  9 :   0.1250-0.3750 0.0833  plane waves:    2440
 k-point 10 :   0.3750-0.3750 0.0833  plane waves:    2432
 k-point 11 :  -0.3750-0.3750 0.0833  plane waves:    2432
 k-point 12 :  -0.1250-0.3750 0.0833  plane waves:    2440
 k-point 13 :   0.1250-0.1250 0.0833  plane waves:    2448
 k-point 14 :   0.3750-0.1250 0.0833  plane waves:    2440
 k-point 15 :  -0.3750-0.1250 0.0833  plane waves:    2440
 k-point 16 :  -0.1250-0.1250 0.0833  plane waves:    2448
 k-point 17 :   0.1250 0.1250 0.2500  plane waves:    2446
 k-point 18 :   0.3750 0.1250 0.2500  plane waves:    2440
 k-point 19 :  -0.3750 0.1250 0.2500  plane waves:    2440
 k-point 20 :  -0.1250 0.1250 0.2500  plane waves:    2446
 k-point 21 :   0.1250 0.3750 0.2500  plane waves:    2440
 k-point 22 :   0.3750 0.3750 0.2500  plane waves:    2423
 k-point 23 :  -0.3750 0.3750 0.2500  plane waves:    2423
 k-point 24 :  -0.1250 0.3750 0.2500  plane waves:    2440
 k-point 25 :   0.1250-0.3750 0.2500  plane waves:    2440
 k-point 26 :   0.3750-0.3750 0.2500  plane waves:    2423
 k-point 27 :  -0.3750-0.3750 0.2500  plane waves:    2423
 k-point 28 :  -0.1250-0.3750 0.2500  plane waves:    2440
 k-point 29 :   0.1250-0.1250 0.2500  plane waves:    2446
 k-point 30 :   0.3750-0.1250 0.2500  plane waves:    2440
 k-point 31 :  -0.3750-0.1250 0.2500  plane waves:    2440
 k-point 32 :  -0.1250-0.1250 0.2500  plane waves:    2446
 k-point 33 :   0.1250 0.1250 0.4167  plane waves:    2434
 k-point 34 :   0.3750 0.1250 0.4167  plane waves:    2417
 k-point 35 :  -0.3750 0.1250 0.4167  plane waves:    2417
 k-point 36 :  -0.1250 0.1250 0.4167  plane waves:    2434
 k-point 37 :   0.1250 0.3750 0.4167  plane waves:    2417
 k-point 38 :   0.3750 0.3750 0.4167  plane waves:    2442
 k-point 39 :  -0.3750 0.3750 0.4167  plane waves:    2442
 k-point 40 :  -0.1250 0.3750 0.4167  plane waves:    2417
 k-point 41 :   0.1250-0.3750 0.4167  plane waves:    2417
 k-point 42 :   0.3750-0.3750 0.4167  plane waves:    2442
 k-point 43 :  -0.3750-0.3750 0.4167  plane waves:    2442
 k-point 44 :  -0.1250-0.3750 0.4167  plane waves:    2417
 k-point 45 :   0.1250-0.1250 0.4167  plane waves:    2434
 k-point 46 :   0.3750-0.1250 0.4167  plane waves:    2417
 k-point 47 :  -0.3750-0.1250 0.4167  plane waves:    2417
 k-point 48 :  -0.1250-0.1250 0.4167  plane waves:    2434

 maximum and minimum number of plane-waves per node :      2448     2417

 maximum number of plane-waves:      2448
 maximum index in each direction: 
   IXMAX=    9   IYMAX=    9   IZMAX=    6
   IXMIN=   -9   IYMIN=   -9   IZMIN=   -6


 serial   3D FFT for wavefunctions
 parallel 3D FFT for charge:
    minimum data exchange during FFTs selected (reduces bandwidth)


 total amount of memory used by VASP MPI-rank0    80216. kBytes
=======================================================================

   base      :      30000. kBytes
   nonl-proj :      34076. kBytes
   fftplans  :       1875. kBytes
   grid      :       2467. kBytes
   one-center:        186. kBytes
   wavefun   :      11612. kBytes
 
     INWAV:  cpu time    0.4307: real time    0.4307
 Broyden mixing: mesh for mixing (old mesh)
   NGX = 19   NGY = 19   NGZ = 13
  (NGX  = 60   NGY  = 60   NGZ  = 40)
  gives a total of   4693 points

 charge density for first step will be calculated from the start-wavefunctions


--------------------------------------------------------------------------------------------------------


 Maximum index for augmentation-charges         4567 (set IRDMAX)


--------------------------------------------------------------------------------------------------------


 initial charge from wavefunction
 First call to EWALD:  gamma=   0.424
 Maximum number of real-space cells 2x 2x 3
 Maximum number of reciprocal cells 3x 3x 2

    FEWALD:  cpu time    0.0013: real time    0.0013


--------------------------------------- Iteration      1(   1)  ---------------------------------------


    POTLOK:  cpu time    0.0065: real time    0.0065
    SETDIJ:  cpu time    1.9384: real time    1.9384
atom =   1  type =  1  l = 2
 
 onsite density matrix
 
spin component  1
 
  0.0797  0.0000  0.0395  0.0000  0.0000
  0.0000  0.0676  0.0000  0.0285 -0.0000
  0.0395  0.0000  0.0622  0.0000  0.0000
  0.0000  0.0285  0.0000  0.0676  0.0000
  0.0000 -0.0000  0.0000  0.0000  0.0283
 
spin component  2
 
  0.9533  0.0000  0.0173  0.0000  0.0000
  0.0000  0.9496  0.0000  0.0180 -0.0000
  0.0173  0.0000  0.9393  0.0000  0.0000
  0.0000  0.0180  0.0000  0.9496  0.0000
  0.0000 -0.0000  0.0000  0.0000  0.9332
 
 occupancies and eigenvectors
 
  o =  0.0283  v =  0.0000  0.0000 -0.0000 -0.0000  1.0000  0.0000  0.0000  0.0000  0.0000  0.0000      0.0000  0.0000  0.0000  0.0000  0.0000  0.0000  0.0000  0.0000  0.0000  0.0000
  o =  0.0305  v = -0.6259  0.0000  0.7799  0.0000  0.0000  0.0000  0.0000  0.0000  0.0000  0.0000      0.0000  0.0000  0.0000  0.0000  0.0000  0.0000  0.0000  0.0000  0.0000  0.0000
  o =  0.0391  v =  0.0000 -0.7071 -0.0000  0.7071  0.0000  0.0000  0.0000  0.0000  0.0000  0.0000      0.0000  0.0000  0.0000  0.0000  0.0000  0.0000  0.0000  0.0000  0.0000  0.0000
  o =  0.0961  v = -0.0000  0.7071 -0.0000  0.7071 -0.0000  0.0000  0.0000  0.0000  0.0000  0.0000      0.0000  0.0000  0.0000  0.0000  0.0000  0.0000  0.0000  0.0000  0.0000  0.0000
  o =  0.1114  v = -0.7799 -0.0000 -0.6259 -0.0000 -0.0000  0.0000  0.0000  0.0000  0.0000  0.0000      0.0000  0.0000  0.0000  0.0000  0.0000  0.0000  0.0000  0.0000  0.0000  0.0000
  o =  0.9276  v =  0.0000  0.0000  0.0000  0.0000  0.0000 -0.5589 -0.0000  0.8292 -0.0000 -0.0000      0.0000  0.0000  0.0000  0.0000  0.0000  0.0000  0.0000  0.0000  0.0000  0.0000
  o =  0.9316  v =  0.0000  0.0000  0.0000  0.0000  0.0000  0.0000 -0.7071 -0.0000  0.7071 -0.0003      0.0000  0.0000  0.0000  0.0000  0.0000  0.0000  0.0000  0.0000  0.0000  0.0000
  o =  0.9332  v =  0.0000  0.0000  0.0000  0.0000  0.0000 -0.0000 -0.0002  0.0000  0.0002  1.0000      0.0000  0.0000  0.0000  0.0000  0.0000  0.0000  0.0000  0.0000  0.0000  0.0000
  o =  0.9650  v =  0.0000  0.0000  0.0000  0.0000  0.0000 -0.8292  0.0002 -0.5589  0.0002 -0.0000      0.0000  0.0000  0.0000  0.0000  0.0000  0.0000  0.0000  0.0000  0.0000  0.0000
  o =  0.9677  v =  0.0000  0.0000  0.0000  0.0000  0.0000  0.0002  0.7071  0.0001  0.7071  0.0000      0.0000  0.0000  0.0000  0.0000  0.0000  0.0000  0.0000  0.0000  0.0000  0.0000
atom =   2  type =  1  l = 2
 
 onsite density matrix
 
spin component  1
 
  0.9533  0.0000 -0.0173  0.0000 -0.0000
  0.0000  0.9496  0.0000 -0.0180 -0.0000
 -0.0173  0.0000  0.9393  0.0000  0.0000
  0.0000 -0.0180  0.0000  0.9496  0.0000
 -0.0000 -0.0000  0.0000  0.0000  0.9332
 
spin component  2
 
  0.0797  0.0000 -0.0395  0.0000 -0.0000
  0.0000  0.0676  0.0000 -0.0285 -0.0000
 -0.0395  0.0000  0.0622  0.0000  0.0000
  0.0000 -0.0285  0.0000  0.0676  0.0000
 -0.0000 -0.0000  0.0000  0.0000  0.0283
 
 occupancies and eigenvectors
 
  o =  0.0283  v =  0.0000  0.0000  0.0000  0.0000  0.0000 -0.0000  0.0000 -0.0000 -0.0000  1.0000      0.0000  0.0000  0.0000  0.0000  0.0000  0.0000  0.0000  0.0000  0.0000  0.0000
  o =  0.0305  v =  0.0000  0.0000  0.0000  0.0000  0.0000 -0.6259  0.0000 -0.7799  0.0000 -0.0000      0.0000  0.0000  0.0000  0.0000  0.0000  0.0000  0.0000  0.0000  0.0000  0.0000
  o =  0.0391  v =  0.0000  0.0000  0.0000  0.0000  0.0000  0.0000  0.7071  0.0001  0.7071  0.0000      0.0000  0.0000  0.0000  0.0000  0.0000  0.0000  0.0000  0.0000  0.0000  0.0000
  o =  0.0961  v =  0.0000  0.0000  0.0000  0.0000  0.0000 -0.0000  0.7071  0.0000 -0.7071 -0.0000      0.0000  0.0000  0.0000  0.0000  0.0000  0.0000  0.0000  0.0000  0.0000  0.0000
  o =  0.1114  v =  0.0000  0.0000  0.0000  0.0000  0.0000 -0.7799 -0.0000  0.6259 -0.0000  0.0000      0.0000  0.0000  0.0000  0.0000  0.0000  0.0000  0.0000  0.0000  0.0000  0.0000
  o =  0.9276  v =  0.5589 -0.0001  0.8292 -0.0001 -0.0000  0.0000  0.0000  0.0000  0.0000  0.0000      0.0000  0.0000  0.0000  0.0000  0.0000  0.0000  0.0000  0.0000  0.0000  0.0000
  o =  0.9316  v = -0.0001 -0.7071 -0.0001 -0.7071  0.0000  0.0000  0.0000  0.0000  0.0000  0.0000      0.0000  0.0000  0.0000  0.0000  0.0000  0.0000  0.0000  0.0000  0.0000  0.0000
  o =  0.9332  v =  0.0000  0.0000  0.0000 -0.0000  1.0000  0.0000  0.0000  0.0000  0.0000  0.0000      0.0000  0.0000  0.0000  0.0000  0.0000  0.0000  0.0000  0.0000  0.0000  0.0000
  o =  0.9650  v =  0.8292  0.0000 -0.5589  0.0000 -0.0000  0.0000  0.0000  0.0000  0.0000  0.0000      0.0000  0.0000  0.0000  0.0000  0.0000  0.0000  0.0000  0.0000  0.0000  0.0000
  o =  0.9677  v = -0.0000  0.7071  0.0000 -0.7071 -0.0000  0.0000  0.0000  0.0000  0.0000  0.0000      0.0000  0.0000  0.0000  0.0000  0.0000  0.0000  0.0000  0.0000  0.0000  0.0000
     EDDAV:  cpu time    2.0464: real time    2.0658
 BZINTS: Fermi energy:  3.587524; 54.000000 electrons
         Band energy:-727.007824;  BLOECHL correction:  0.000000
       DOS:  cpu time    0.0056: real time    0.0056
    CHARGE:  cpu time    0.0973: real time    0.0973
    MIXING:  cpu time    0.0005: real time    0.0005
    --------------------------------------------
      LOOP:  cpu time    4.0947: real time    4.1141

 eigenvalue-minimisations  :  8412
 total energy-change (2. order) :-0.4193395E+02  (-0.2294066E-05)
 number of electron      54.0000000 magnetization      -0.0000000
 augmentation part       19.9392743 magnetization       0.0000410

 Broyden mixing:
  rms(total) = 0.15768E-02    rms(broyden)= 0.15766E-02
  rms(prec ) = 0.23147E-02
  weight for this iteration     100.00

 Free energy of the ion-electron system (eV)
  ---------------------------------------------------
  alpha Z        PSCENC =       208.96474121
  Ewald energy   TEWEN  =     -4289.10428141
  -Hartree energ DENC   =     -2081.81316854
  -exchange      EXHF   =         0.00000000
  -V(xc)+E(xc)   XCENC  =       295.82633613
  PAW double counting   =      6340.01410482    -6478.27063552
  entropy T*S    EENTRO =         0.00000000
  eigenvalues    EBANDS =      -727.00782433
  atomic energy  EATOM  =      6689.45677594
  Solvation  Ediel_sol  =         0.00000000
  ---------------------------------------------------
  free energy    TOTEN  =       -41.93395170 eV

  energy without entropy =      -41.93395170  energy(sigma->0) =      -41.93395170


--------------------------------------------------------------------------------------------------------




--------------------------------------- Iteration      1(   2)  ---------------------------------------


    POTLOK:  cpu time    0.0051: real time    0.0051
    SETDIJ:  cpu time    1.9383: real time    1.9384
atom =   1  type =  1  l = 2
 
 onsite density matrix
 
spin component  1
 
  0.0798  0.0000  0.0395  0.0000  0.0000
  0.0000  0.0676  0.0000  0.0286 -0.0000
  0.0395  0.0000  0.0622  0.0000  0.0000
  0.0000  0.0286  0.0000  0.0676  0.0000
  0.0000 -0.0000  0.0000  0.0000  0.0283
 
spin component  2
 
  0.9533  0.0000  0.0173  0.0000 -0.0000
  0.0000  0.9496  0.0000  0.0180 -0.0000
  0.0173  0.0000  0.9393 -0.0000  0.0000
  0.0000  0.0180 -0.0000  0.9496  0.0000
 -0.0000 -0.0000  0.0000  0.0000  0.9332
 
 occupancies and eigenvectors
 
  o =  0.0283  v = -0.0000  0.0000  0.0000 -0.0000  1.0000  0.0000  0.0000  0.0000  0.0000  0.0000      0.0000  0.0000  0.0000  0.0000  0.0000  0.0000  0.0000  0.0000  0.0000  0.0000
  o =  0.0305  v = -0.6258  0.0000  0.7800 -0.0000 -0.0000  0.0000  0.0000  0.0000  0.0000  0.0000      0.0000  0.0000  0.0000  0.0000  0.0000  0.0000  0.0000  0.0000  0.0000  0.0000
  o =  0.0391  v =  0.0000  0.7071 -0.0000 -0.7071 -0.0000  0.0000  0.0000  0.0000  0.0000  0.0000      0.0000  0.0000  0.0000  0.0000  0.0000  0.0000  0.0000  0.0000  0.0000  0.0000
  o =  0.0962  v =  0.0000 -0.7071  0.0000 -0.7071 -0.0000  0.0000  0.0000  0.0000  0.0000  0.0000      0.0000  0.0000  0.0000  0.0000  0.0000  0.0000  0.0000  0.0000  0.0000  0.0000
  o =  0.1115  v = -0.7800 -0.0000 -0.6258 -0.0000 -0.0000  0.0000  0.0000  0.0000  0.0000  0.0000      0.0000  0.0000  0.0000  0.0000  0.0000  0.0000  0.0000  0.0000  0.0000  0.0000
  o =  0.9276  v =  0.0000  0.0000  0.0000  0.0000  0.0000 -0.5588 -0.0000  0.8293  0.0000 -0.0000      0.0000  0.0000  0.0000  0.0000  0.0000  0.0000  0.0000  0.0000  0.0000  0.0000
  o =  0.9316  v =  0.0000  0.0000  0.0000  0.0000  0.0000 -0.0000  0.7071  0.0000 -0.7071  0.0002      0.0000  0.0000  0.0000  0.0000  0.0000  0.0000  0.0000  0.0000  0.0000  0.0000
  o =  0.9332  v =  0.0000  0.0000  0.0000  0.0000  0.0000 -0.0000 -0.0001  0.0000  0.0001  1.0000      0.0000  0.0000  0.0000  0.0000  0.0000  0.0000  0.0000  0.0000  0.0000  0.0000
  o =  0.9649  v =  0.0000  0.0000  0.0000  0.0000  0.0000 -0.8293  0.0001 -0.5588  0.0001  0.0000      0.0000  0.0000  0.0000  0.0000  0.0000  0.0000  0.0000  0.0000  0.0000  0.0000
  o =  0.9676  v =  0.0000  0.0000  0.0000  0.0000  0.0000  0.0001  0.7071  0.0001  0.7071 -0.0000      0.0000  0.0000  0.0000  0.0000  0.0000  0.0000  0.0000  0.0000  0.0000  0.0000
atom =   2  type =  1  l = 2
 
 onsite density matrix
 
spin component  1
 
  0.9533  0.0000 -0.0173  0.0000 -0.0000
  0.0000  0.9496  0.0000 -0.0180 -0.0000
 -0.0173  0.0000  0.9393 -0.0000  0.0000
  0.0000 -0.0180 -0.0000  0.9496  0.0000
 -0.0000 -0.0000  0.0000  0.0000  0.9332
 
spin component  2
 
  0.0798  0.0000 -0.0395  0.0000  0.0000
  0.0000  0.0676  0.0000 -0.0286 -0.0000
 -0.0395  0.0000  0.0622  0.0000 -0.0000
  0.0000 -0.0286  0.0000  0.0676 -0.0000
  0.0000 -0.0000 -0.0000 -0.0000  0.0283
 
 occupancies and eigenvectors
 
  o =  0.0283  v =  0.0000  0.0000  0.0000  0.0000  0.0000 -0.0000  0.0000 -0.0000  0.0000  1.0000      0.0000  0.0000  0.0000  0.0000  0.0000  0.0000  0.0000  0.0000  0.0000  0.0000
  o =  0.0305  v =  0.0000  0.0000  0.0000  0.0000  0.0000 -0.6259  0.0000 -0.7799  0.0000 -0.0000      0.0000  0.0000  0.0000  0.0000  0.0000  0.0000  0.0000  0.0000  0.0000  0.0000
  o =  0.0391  v =  0.0000  0.0000  0.0000  0.0000  0.0000 -0.0000 -0.7071 -0.0000 -0.7071  0.0000      0.0000  0.0000  0.0000  0.0000  0.0000  0.0000  0.0000  0.0000  0.0000  0.0000
  o =  0.0962  v =  0.0000  0.0000  0.0000  0.0000  0.0000  0.0000  0.7071 -0.0000 -0.7071 -0.0000      0.0000  0.0000  0.0000  0.0000  0.0000  0.0000  0.0000  0.0000  0.0000  0.0000
  o =  0.1115  v =  0.0000  0.0000  0.0000  0.0000  0.0000 -0.7799  0.0000  0.6259 -0.0000 -0.0000      0.0000  0.0000  0.0000  0.0000  0.0000  0.0000  0.0000  0.0000  0.0000  0.0000
  o =  0.9276  v = -0.5588  0.0001 -0.8293  0.0001 -0.0000  0.0000  0.0000  0.0000  0.0000  0.0000      0.0000  0.0000  0.0000  0.0000  0.0000  0.0000  0.0000  0.0000  0.0000  0.0000
  o =  0.9316  v =  0.0000  0.7071  0.0001  0.7071 -0.0001  0.0000  0.0000  0.0000  0.0000  0.0000      0.0000  0.0000  0.0000  0.0000  0.0000  0.0000  0.0000  0.0000  0.0000  0.0000
  o =  0.9332  v =  0.0000  0.0001 -0.0000  0.0001  1.0000  0.0000  0.0000  0.0000  0.0000  0.0000      0.0000  0.0000  0.0000  0.0000  0.0000  0.0000  0.0000  0.0000  0.0000  0.0000
  o =  0.9649  v = -0.8293  0.0000  0.5588 -0.0000  0.0000  0.0000  0.0000  0.0000  0.0000  0.0000      0.0000  0.0000  0.0000  0.0000  0.0000  0.0000  0.0000  0.0000  0.0000  0.0000
  o =  0.9676  v =  0.0000  0.7071 -0.0000 -0.7071 -0.0000  0.0000  0.0000  0.0000  0.0000  0.0000      0.0000  0.0000  0.0000  0.0000  0.0000  0.0000  0.0000  0.0000  0.0000  0.0000
     EDDAV:  cpu time    2.2110: real time    2.2110
 BZINTS: Fermi energy:  3.547073; 54.000000 electrons
         Band energy:-727.011646;  BLOECHL correction:  0.000000
       DOS:  cpu time    0.0047: real time    0.0047
    CHARGE:  cpu time    0.0974: real time    0.0974
    MIXING:  cpu time    0.0005: real time    0.0005
    --------------------------------------------
      LOOP:  cpu time    4.2571: real time    4.2571

 eigenvalue-minimisations  :  9144
 total energy-change (2. order) : 0.2475230E-05  (-0.1267676E-05)
 number of electron      54.0000000 magnetization      -0.0000000
 augmentation part       19.9391697 magnetization      -0.0000058

 Broyden mixing:
  rms(total) = 0.12727E-02    rms(broyden)= 0.12726E-02
  rms(prec ) = 0.12768E-02
  weight for this iteration     100.00

 eigenvalues of (default mixing * dielectric matrix)
  average eigenvalue GAMMA=   0.4717
  0.4717

 Free energy of the ion-electron system (eV)
  ---------------------------------------------------
  alpha Z        PSCENC =       208.96474121
  Ewald energy   TEWEN  =     -4289.10428141
  -Hartree energ DENC   =     -2081.80543441
  -exchange      EXHF   =         0.00000000
  -V(xc)+E(xc)   XCENC  =       295.82476797
  PAW double counting   =      6340.17256594    -6478.43143842
  entropy T*S    EENTRO =         0.00000000
  eigenvalues    EBANDS =      -727.01164605
  atomic energy  EATOM  =      6689.45677594
  Solvation  Ediel_sol  =         0.00000000
  ---------------------------------------------------
  free energy    TOTEN  =       -41.93394922 eV

  energy without entropy =      -41.93394922  energy(sigma->0) =      -41.93394922


--------------------------------------------------------------------------------------------------------




--------------------------------------- Iteration      1(   3)  ---------------------------------------


    POTLOK:  cpu time    0.0048: real time    0.0048
    SETDIJ:  cpu time    1.9382: real time    1.9382
atom =   1  type =  1  l = 2
 
 onsite density matrix
 
spin component  1
 
  0.0797  0.0000  0.0395  0.0000 -0.0000
  0.0000  0.0676  0.0000  0.0285 -0.0000
  0.0395  0.0000  0.0622  0.0000  0.0000
  0.0000  0.0285  0.0000  0.0676  0.0000
 -0.0000 -0.0000  0.0000  0.0000  0.0283
 
spin component  2
 
  0.9533  0.0000  0.0173  0.0000  0.0000
  0.0000  0.9497  0.0000  0.0180 -0.0000
  0.0173  0.0000  0.9393  0.0000  0.0000
  0.0000  0.0180  0.0000  0.9497  0.0000
  0.0000 -0.0000  0.0000  0.0000  0.9333
 
 occupancies and eigenvectors
 
  o =  0.0283  v =  0.0000  0.0000 -0.0000 -0.0000  1.0000  0.0000  0.0000  0.0000  0.0000  0.0000      0.0000  0.0000  0.0000  0.0000  0.0000  0.0000  0.0000  0.0000  0.0000  0.0000
  o =  0.0305  v = -0.6259 -0.0000  0.7799  0.0000  0.0000  0.0000  0.0000  0.0000  0.0000  0.0000      0.0000  0.0000  0.0000  0.0000  0.0000  0.0000  0.0000  0.0000  0.0000  0.0000
  o =  0.0391  v =  0.0000 -0.7071 -0.0000  0.7071  0.0000  0.0000  0.0000  0.0000  0.0000  0.0000      0.0000  0.0000  0.0000  0.0000  0.0000  0.0000  0.0000  0.0000  0.0000  0.0000
  o =  0.0962  v = -0.0000  0.7071 -0.0000  0.7071  0.0000  0.0000  0.0000  0.0000  0.0000  0.0000      0.0000  0.0000  0.0000  0.0000  0.0000  0.0000  0.0000  0.0000  0.0000  0.0000
  o =  0.1114  v = -0.7799 -0.0000 -0.6259 -0.0000 -0.0000  0.0000  0.0000  0.0000  0.0000  0.0000      0.0000  0.0000  0.0000  0.0000  0.0000  0.0000  0.0000  0.0000  0.0000  0.0000
  o =  0.9276  v =  0.0000  0.0000  0.0000  0.0000  0.0000 -0.5589  0.0000  0.8292 -0.0000 -0.0000      0.0000  0.0000  0.0000  0.0000  0.0000  0.0000  0.0000  0.0000  0.0000  0.0000
  o =  0.9316  v =  0.0000  0.0000  0.0000  0.0000  0.0000  0.0000  0.7071 -0.0000 -0.7071  0.0001      0.0000  0.0000  0.0000  0.0000  0.0000  0.0000  0.0000  0.0000  0.0000  0.0000
  o =  0.9333  v =  0.0000  0.0000  0.0000  0.0000  0.0000 -0.0000 -0.0001  0.0000  0.0001  1.0000      0.0000  0.0000  0.0000  0.0000  0.0000  0.0000  0.0000  0.0000  0.0000  0.0000
  o =  0.9650  v =  0.0000  0.0000  0.0000  0.0000  0.0000 -0.8292  0.0001 -0.5589  0.0001 -0.0000      0.0000  0.0000  0.0000  0.0000  0.0000  0.0000  0.0000  0.0000  0.0000  0.0000
  o =  0.9677  v =  0.0000  0.0000  0.0000  0.0000  0.0000  0.0001  0.7071  0.0001  0.7071 -0.0000      0.0000  0.0000  0.0000  0.0000  0.0000  0.0000  0.0000  0.0000  0.0000  0.0000
atom =   2  type =  1  l = 2
 
 onsite density matrix
 
spin component  1
 
  0.9533  0.0000 -0.0173  0.0000  0.0000
  0.0000  0.9497  0.0000 -0.0180 -0.0000
 -0.0173  0.0000  0.9393  0.0000  0.0000
  0.0000 -0.0180  0.0000  0.9497  0.0000
  0.0000 -0.0000  0.0000  0.0000  0.9333
 
spin component  2
 
  0.0797  0.0000 -0.0395  0.0000 -0.0000
  0.0000  0.0676  0.0000 -0.0285 -0.0000
 -0.0395  0.0000  0.0622  0.0000 -0.0000
  0.0000 -0.0285  0.0000  0.0676  0.0000
 -0.0000 -0.0000 -0.0000  0.0000  0.0283
 
 occupancies and eigenvectors
 
  o =  0.0283  v =  0.0000  0.0000  0.0000  0.0000  0.0000  0.0000 -0.0000  0.0000 -0.0000  1.0000      0.0000  0.0000  0.0000  0.0000  0.0000  0.0000  0.0000  0.0000  0.0000  0.0000
  o =  0.0305  v =  0.0000  0.0000  0.0000  0.0000  0.0000  0.6259 -0.0000  0.7799 -0.0000 -0.0000      0.0000  0.0000  0.0000  0.0000  0.0000  0.0000  0.0000  0.0000  0.0000  0.0000
  o =  0.0391  v =  0.0000  0.0000  0.0000  0.0000  0.0000  0.0000  0.7071  0.0000  0.7071  0.0000      0.0000  0.0000  0.0000  0.0000  0.0000  0.0000  0.0000  0.0000  0.0000  0.0000
  o =  0.0962  v =  0.0000  0.0000  0.0000  0.0000  0.0000  0.0000  0.7071 -0.0000 -0.7071 -0.0000      0.0000  0.0000  0.0000  0.0000  0.0000  0.0000  0.0000  0.0000  0.0000  0.0000
  o =  0.1114  v =  0.0000  0.0000  0.0000  0.0000  0.0000 -0.7799  0.0000  0.6259 -0.0000  0.0000      0.0000  0.0000  0.0000  0.0000  0.0000  0.0000  0.0000  0.0000  0.0000  0.0000
  o =  0.9276  v = -0.5589  0.0000 -0.8292  0.0000  0.0000  0.0000  0.0000  0.0000  0.0000  0.0000      0.0000  0.0000  0.0000  0.0000  0.0000  0.0000  0.0000  0.0000  0.0000  0.0000
  o =  0.9316  v = -0.0000 -0.7071 -0.0000 -0.7071 -0.0000  0.0000  0.0000  0.0000  0.0000  0.0000      0.0000  0.0000  0.0000  0.0000  0.0000  0.0000  0.0000  0.0000  0.0000  0.0000
  o =  0.9333  v =  0.0000 -0.0000  0.0000 -0.0000  1.0000  0.0000  0.0000  0.0000  0.0000  0.0000      0.0000  0.0000  0.0000  0.0000  0.0000  0.0000  0.0000  0.0000  0.0000  0.0000
  o =  0.9650  v = -0.8292 -0.0000  0.5589 -0.0000 -0.0000  0.0000  0.0000  0.0000  0.0000  0.0000      0.0000  0.0000  0.0000  0.0000  0.0000  0.0000  0.0000  0.0000  0.0000  0.0000
  o =  0.9677  v =  0.0000 -0.7071 -0.0000  0.7071  0.0000  0.0000  0.0000  0.0000  0.0000  0.0000      0.0000  0.0000  0.0000  0.0000  0.0000  0.0000  0.0000  0.0000  0.0000  0.0000
     EDDAV:  cpu time    2.1041: real time    2.1041
 BZINTS: Fermi energy:  3.553837; 54.000000 electrons
         Band energy:-727.012600;  BLOECHL correction:  0.000000
       DOS:  cpu time    0.0055: real time    0.0055
    CHARGE:  cpu time    0.0972: real time    0.0973
    MIXING:  cpu time    0.0006: real time    0.0006
    --------------------------------------------
      LOOP:  cpu time    4.1503: real time    4.1503

 eigenvalue-minimisations  :  8520
 total energy-change (2. order) :-0.1442977E-06  (-0.1175231E-06)
 number of electron      54.0000000 magnetization      -0.0000000
 augmentation part       19.9391995 magnetization      -0.0000028

 Broyden mixing:
  rms(total) = 0.16341E-03    rms(broyden)= 0.16293E-03
  rms(prec ) = 0.20532E-03
  weight for this iteration     100.00

 eigenvalues of (default mixing * dielectric matrix)
  average eigenvalue GAMMA=   0.7379
  0.7379  0.7379

 Free energy of the ion-electron system (eV)
  ---------------------------------------------------
  alpha Z        PSCENC =       208.96474121
  Ewald energy   TEWEN  =     -4289.10428141
  -Hartree energ DENC   =     -2081.80472629
  -exchange      EXHF   =         0.00000000
  -V(xc)+E(xc)   XCENC  =       295.82477909
  PAW double counting   =      6340.14754804    -6478.40618567
  entropy T*S    EENTRO =         0.00000000
  eigenvalues    EBANDS =      -727.01260027
  atomic energy  EATOM  =      6689.45677594
  Solvation  Ediel_sol  =         0.00000000
  ---------------------------------------------------
  free energy    TOTEN  =       -41.93394937 eV

  energy without entropy =      -41.93394937  energy(sigma->0) =      -41.93394937


--------------------------------------------------------------------------------------------------------




--------------------------------------- Iteration      1(   4)  ---------------------------------------


    POTLOK:  cpu time    0.0047: real time    0.0047
    SETDIJ:  cpu time    1.9381: real time    1.9381
atom =   1  type =  1  l = 2
 
 onsite density matrix
 
spin component  1
 
  0.0797  0.0000  0.0395  0.0000  0.0000
  0.0000  0.0676  0.0000  0.0285 -0.0000
  0.0395  0.0000  0.0622  0.0000  0.0000
  0.0000  0.0285  0.0000  0.0676  0.0000
  0.0000 -0.0000  0.0000  0.0000  0.0283
 
spin component  2
 
  0.9533  0.0000  0.0173  0.0000 -0.0000
  0.0000  0.9496  0.0000  0.0180 -0.0000
  0.0173  0.0000  0.9393  0.0000  0.0000
  0.0000  0.0180  0.0000  0.9496  0.0000
 -0.0000 -0.0000  0.0000  0.0000  0.9333
 
 occupancies and eigenvectors
 
  o =  0.0283  v = -0.0000 -0.0000  0.0000  0.0000 -1.0000  0.0000  0.0000  0.0000  0.0000  0.0000      0.0000  0.0000  0.0000  0.0000  0.0000  0.0000  0.0000  0.0000  0.0000  0.0000
  o =  0.0305  v = -0.6259  0.0000  0.7799  0.0000  0.0000  0.0000  0.0000  0.0000  0.0000  0.0000      0.0000  0.0000  0.0000  0.0000  0.0000  0.0000  0.0000  0.0000  0.0000  0.0000
  o =  0.0391  v =  0.0000  0.7071  0.0000 -0.7071 -0.0000  0.0000  0.0000  0.0000  0.0000  0.0000      0.0000  0.0000  0.0000  0.0000  0.0000  0.0000  0.0000  0.0000  0.0000  0.0000
  o =  0.0962  v = -0.0000  0.7071 -0.0000  0.7071 -0.0000  0.0000  0.0000  0.0000  0.0000  0.0000      0.0000  0.0000  0.0000  0.0000  0.0000  0.0000  0.0000  0.0000  0.0000  0.0000
  o =  0.1114  v = -0.7799 -0.0000 -0.6259 -0.0000 -0.0000  0.0000  0.0000  0.0000  0.0000  0.0000      0.0000  0.0000  0.0000  0.0000  0.0000  0.0000  0.0000  0.0000  0.0000  0.0000
  o =  0.9276  v =  0.0000  0.0000  0.0000  0.0000  0.0000 -0.5589 -0.0000  0.8292  0.0000 -0.0000      0.0000  0.0000  0.0000  0.0000  0.0000  0.0000  0.0000  0.0000  0.0000  0.0000
  o =  0.9316  v =  0.0000  0.0000  0.0000  0.0000  0.0000  0.0000 -0.7071 -0.0000  0.7071 -0.0001      0.0000  0.0000  0.0000  0.0000  0.0000  0.0000  0.0000  0.0000  0.0000  0.0000
  o =  0.9333  v =  0.0000  0.0000  0.0000  0.0000  0.0000 -0.0000 -0.0000  0.0000  0.0000  1.0000      0.0000  0.0000  0.0000  0.0000  0.0000  0.0000  0.0000  0.0000  0.0000  0.0000
  o =  0.9650  v =  0.0000  0.0000  0.0000  0.0000  0.0000 -0.8292  0.0000 -0.5589  0.0000 -0.0000      0.0000  0.0000  0.0000  0.0000  0.0000  0.0000  0.0000  0.0000  0.0000  0.0000
  o =  0.9677  v =  0.0000  0.0000  0.0000  0.0000  0.0000  0.0000  0.7071  0.0000  0.7071 -0.0000      0.0000  0.0000  0.0000  0.0000  0.0000  0.0000  0.0000  0.0000  0.0000  0.0000
atom =   2  type =  1  l = 2
 
 onsite density matrix
 
spin component  1
 
  0.9533  0.0000 -0.0173  0.0000 -0.0000
  0.0000  0.9496  0.0000 -0.0180 -0.0000
 -0.0173  0.0000  0.9393  0.0000  0.0000
  0.0000 -0.0180  0.0000  0.9496  0.0000
 -0.0000 -0.0000  0.0000  0.0000  0.9333
 
spin component  2
 
  0.0797  0.0000 -0.0395  0.0000  0.0000
  0.0000  0.0676  0.0000 -0.0285 -0.0000
 -0.0395  0.0000  0.0622  0.0000  0.0000
  0.0000 -0.0285  0.0000  0.0676  0.0000
  0.0000 -0.0000  0.0000  0.0000  0.0283
 
 occupancies and eigenvectors
 
  o =  0.0283  v =  0.0000  0.0000  0.0000  0.0000  0.0000 -0.0000  0.0000 -0.0000 -0.0000  1.0000      0.0000  0.0000  0.0000  0.0000  0.0000  0.0000  0.0000  0.0000  0.0000  0.0000
  o =  0.0305  v =  0.0000  0.0000  0.0000  0.0000  0.0000 -0.6259  0.0000 -0.7799  0.0000 -0.0000      0.0000  0.0000  0.0000  0.0000  0.0000  0.0000  0.0000  0.0000  0.0000  0.0000
  o =  0.0391  v =  0.0000  0.0000  0.0000  0.0000  0.0000  0.0000  0.7071  0.0000  0.7071 -0.0000      0.0000  0.0000  0.0000  0.0000  0.0000  0.0000  0.0000  0.0000  0.0000  0.0000
  o =  0.0962  v =  0.0000  0.0000  0.0000  0.0000  0.0000  0.0000  0.7071 -0.0000 -0.7071 -0.0000      0.0000  0.0000  0.0000  0.0000  0.0000  0.0000  0.0000  0.0000  0.0000  0.0000
  o =  0.1114  v =  0.0000  0.0000  0.0000  0.0000  0.0000 -0.7799 -0.0000  0.6259 -0.0000  0.0000      0.0000  0.0000  0.0000  0.0000  0.0000  0.0000  0.0000  0.0000  0.0000  0.0000
  o =  0.9276  v = -0.5589  0.0000 -0.8292  0.0000  0.0000  0.0000  0.0000  0.0000  0.0000  0.0000      0.0000  0.0000  0.0000  0.0000  0.0000  0.0000  0.0000  0.0000  0.0000  0.0000
  o =  0.9316  v = -0.0000 -0.7071 -0.0000 -0.7071  0.0000  0.0000  0.0000  0.0000  0.0000  0.0000      0.0000  0.0000  0.0000  0.0000  0.0000  0.0000  0.0000  0.0000  0.0000  0.0000
  o =  0.9333  v =  0.0000  0.0000 -0.0000  0.0000  1.0000  0.0000  0.0000  0.0000  0.0000  0.0000      0.0000  0.0000  0.0000  0.0000  0.0000  0.0000  0.0000  0.0000  0.0000  0.0000
  o =  0.9650  v = -0.8292 -0.0000  0.5589  0.0000  0.0000  0.0000  0.0000  0.0000  0.0000  0.0000      0.0000  0.0000  0.0000  0.0000  0.0000  0.0000  0.0000  0.0000  0.0000  0.0000
  o =  0.9677  v =  0.0000 -0.7071 -0.0000  0.7071  0.0000  0.0000  0.0000  0.0000  0.0000  0.0000      0.0000  0.0000  0.0000  0.0000  0.0000  0.0000  0.0000  0.0000  0.0000  0.0000
     EDDAV:  cpu time    1.8772: real time    1.8773
 BZINTS: Fermi energy:  3.526162; 54.000000 electrons
         Band energy:-727.011863;  BLOECHL correction:  0.000000
       DOS:  cpu time    0.0047: real time    0.0047
    CHARGE:  cpu time    0.0974: real time    0.0974
    MIXING:  cpu time    0.0006: real time    0.0006
    --------------------------------------------
      LOOP:  cpu time    3.9227: real time    3.9227

 eigenvalue-minimisations  :  7548
 total energy-change (2. order) : 0.1191438E-07  (-0.5512700E-08)
 number of electron      54.0000000 magnetization      -0.0000000
 augmentation part       19.9391950 magnetization       0.0000000

 Broyden mixing:
  rms(total) = 0.38522E-04    rms(broyden)= 0.36529E-04
  rms(prec ) = 0.40892E-04
  weight for this iteration     100.00

 eigenvalues of (default mixing * dielectric matrix)
  average eigenvalue GAMMA=   0.7654
  0.8361  0.8361  0.6241

 Free energy of the ion-electron system (eV)
  ---------------------------------------------------
  alpha Z        PSCENC =       208.96474121
  Ewald energy   TEWEN  =     -4289.10428141
  -Hartree energ DENC   =     -2081.80566359
  -exchange      EXHF   =         0.00000000
  -V(xc)+E(xc)   XCENC  =       295.82487454
  PAW double counting   =      6340.12330854    -6478.38184127
  entropy T*S    EENTRO =         0.00000000
  eigenvalues    EBANDS =      -727.01186332
  atomic energy  EATOM  =      6689.45677594
  Solvation  Ediel_sol  =         0.00000000
  ---------------------------------------------------
  free energy    TOTEN  =       -41.93394935 eV

  energy without entropy =      -41.93394935  energy(sigma->0) =      -41.93394935


--------------------------------------------------------------------------------------------------------




--------------------------------------- Iteration      1(   5)  ---------------------------------------


    POTLOK:  cpu time    0.0048: real time    0.0048
    SETDIJ:  cpu time    1.9396: real time    1.9396
atom =   1  type =  1  l = 2
 
 onsite density matrix
 
spin component  1
 
  0.0797  0.0000  0.0395  0.0000 -0.0000
  0.0000  0.0676  0.0000  0.0285 -0.0000
  0.0395  0.0000  0.0622  0.0000  0.0000
  0.0000  0.0285  0.0000  0.0676  0.0000
 -0.0000 -0.0000  0.0000  0.0000  0.0283
 
spin component  2
 
  0.9533  0.0000  0.0173  0.0000 -0.0000
  0.0000  0.9496  0.0000  0.0180 -0.0000
  0.0173  0.0000  0.9393  0.0000  0.0000
  0.0000  0.0180  0.0000  0.9496  0.0000
 -0.0000 -0.0000  0.0000  0.0000  0.9333
 
 occupancies and eigenvectors
 
  o =  0.0283  v =  0.0000  0.0000 -0.0000 -0.0000  1.0000  0.0000  0.0000  0.0000  0.0000  0.0000      0.0000  0.0000  0.0000  0.0000  0.0000  0.0000  0.0000  0.0000  0.0000  0.0000
  o =  0.0305  v = -0.6259 -0.0000  0.7799  0.0000  0.0000  0.0000  0.0000  0.0000  0.0000  0.0000      0.0000  0.0000  0.0000  0.0000  0.0000  0.0000  0.0000  0.0000  0.0000  0.0000
  o =  0.0391  v =  0.0000 -0.7071 -0.0000  0.7071  0.0000  0.0000  0.0000  0.0000  0.0000  0.0000      0.0000  0.0000  0.0000  0.0000  0.0000  0.0000  0.0000  0.0000  0.0000  0.0000
  o =  0.0962  v = -0.0000  0.7071 -0.0000  0.7071 -0.0000  0.0000  0.0000  0.0000  0.0000  0.0000      0.0000  0.0000  0.0000  0.0000  0.0000  0.0000  0.0000  0.0000  0.0000  0.0000
  o =  0.1114  v = -0.7799 -0.0000 -0.6259 -0.0000 -0.0000  0.0000  0.0000  0.0000  0.0000  0.0000      0.0000  0.0000  0.0000  0.0000  0.0000  0.0000  0.0000  0.0000  0.0000  0.0000
  o =  0.9276  v =  0.0000  0.0000  0.0000  0.0000  0.0000 -0.5589  0.0000  0.8292  0.0000 -0.0000      0.0000  0.0000  0.0000  0.0000  0.0000  0.0000  0.0000  0.0000  0.0000  0.0000
  o =  0.9316  v =  0.0000  0.0000  0.0000  0.0000  0.0000  0.0000  0.7071  0.0000 -0.7071  0.0000      0.0000  0.0000  0.0000  0.0000  0.0000  0.0000  0.0000  0.0000  0.0000  0.0000
  o =  0.9333  v =  0.0000  0.0000  0.0000  0.0000  0.0000  0.0000  0.0000 -0.0000 -0.0000 -1.0000      0.0000  0.0000  0.0000  0.0000  0.0000  0.0000  0.0000  0.0000  0.0000  0.0000
  o =  0.9650  v =  0.0000  0.0000  0.0000  0.0000  0.0000 -0.8292  0.0000 -0.5589  0.0000 -0.0000      0.0000  0.0000  0.0000  0.0000  0.0000  0.0000  0.0000  0.0000  0.0000  0.0000
  o =  0.9677  v =  0.0000  0.0000  0.0000  0.0000  0.0000  0.0000  0.7071  0.0000  0.7071 -0.0000      0.0000  0.0000  0.0000  0.0000  0.0000  0.0000  0.0000  0.0000  0.0000  0.0000
atom =   2  type =  1  l = 2
 
 onsite density matrix
 
spin component  1
 
  0.9533  0.0000 -0.0173  0.0000  0.0000
  0.0000  0.9496  0.0000 -0.0180 -0.0000
 -0.0173  0.0000  0.9393 -0.0000  0.0000
  0.0000 -0.0180 -0.0000  0.9496  0.0000
  0.0000 -0.0000  0.0000  0.0000  0.9333
 
spin component  2
 
  0.0797  0.0000 -0.0395  0.0000 -0.0000
  0.0000  0.0676  0.0000 -0.0285 -0.0000
 -0.0395  0.0000  0.0622  0.0000  0.0000
  0.0000 -0.0285  0.0000  0.0676  0.0000
 -0.0000 -0.0000  0.0000  0.0000  0.0283
 
 occupancies and eigenvectors
 
  o =  0.0283  v =  0.0000  0.0000  0.0000  0.0000  0.0000 -0.0000 -0.0000 -0.0000 -0.0000  1.0000      0.0000  0.0000  0.0000  0.0000  0.0000  0.0000  0.0000  0.0000  0.0000  0.0000
  o =  0.0305  v =  0.0000  0.0000  0.0000  0.0000  0.0000 -0.6259  0.0000 -0.7799  0.0000 -0.0000      0.0000  0.0000  0.0000  0.0000  0.0000  0.0000  0.0000  0.0000  0.0000  0.0000
  o =  0.0391  v =  0.0000  0.0000  0.0000  0.0000  0.0000 -0.0000 -0.7071 -0.0000 -0.7071 -0.0000      0.0000  0.0000  0.0000  0.0000  0.0000  0.0000  0.0000  0.0000  0.0000  0.0000
  o =  0.0962  v =  0.0000  0.0000  0.0000  0.0000  0.0000 -0.0000 -0.7071  0.0000  0.7071  0.0000      0.0000  0.0000  0.0000  0.0000  0.0000  0.0000  0.0000  0.0000  0.0000  0.0000
  o =  0.1114  v =  0.0000  0.0000  0.0000  0.0000  0.0000 -0.7799 -0.0000  0.6259 -0.0000  0.0000      0.0000  0.0000  0.0000  0.0000  0.0000  0.0000  0.0000  0.0000  0.0000  0.0000
  o =  0.9276  v = -0.5589  0.0000 -0.8292  0.0000  0.0000  0.0000  0.0000  0.0000  0.0000  0.0000      0.0000  0.0000  0.0000  0.0000  0.0000  0.0000  0.0000  0.0000  0.0000  0.0000
  o =  0.9316  v = -0.0000 -0.7071 -0.0000 -0.7071  0.0000  0.0000  0.0000  0.0000  0.0000  0.0000      0.0000  0.0000  0.0000  0.0000  0.0000  0.0000  0.0000  0.0000  0.0000  0.0000
  o =  0.9333  v =  0.0000  0.0000  0.0000  0.0000  1.0000  0.0000  0.0000  0.0000  0.0000  0.0000      0.0000  0.0000  0.0000  0.0000  0.0000  0.0000  0.0000  0.0000  0.0000  0.0000
  o =  0.9650  v = -0.8292 -0.0000  0.5589  0.0000  0.0000  0.0000  0.0000  0.0000  0.0000  0.0000      0.0000  0.0000  0.0000  0.0000  0.0000  0.0000  0.0000  0.0000  0.0000  0.0000
  o =  0.9677  v =  0.0000 -0.7071 -0.0000  0.7071  0.0000  0.0000  0.0000  0.0000  0.0000  0.0000      0.0000  0.0000  0.0000  0.0000  0.0000  0.0000  0.0000  0.0000  0.0000  0.0000
     EDDAV:  cpu time    1.6553: real time    1.6553
 BZINTS: Fermi energy:  3.508886; 54.000000 electrons
         Band energy:-727.011930;  BLOECHL correction:  0.000000
       DOS:  cpu time    0.0047: real time    0.0047
    --------------------------------------------
      LOOP:  cpu time    3.6043: real time    3.6043

 eigenvalue-minimisations  :  6060
 total energy-change (2. order) :-0.1482476E-09  (-0.4708585E-09)
 number of electron      54.0000000 magnetization      -0.0000000
 augmentation part       19.9391950 magnetization       0.0000000

 Free energy of the ion-electron system (eV)
  ---------------------------------------------------
  alpha Z        PSCENC =       208.96474121
  Ewald energy   TEWEN  =     -4289.10428141
  -Hartree energ DENC   =     -2081.80561005
  -exchange      EXHF   =         0.00000000
  -V(xc)+E(xc)   XCENC  =       295.82486904
  PAW double counting   =      6340.10999451    -6478.36850834
  entropy T*S    EENTRO =         0.00000000
  eigenvalues    EBANDS =      -727.01193026
  atomic energy  EATOM  =      6689.45677594
  Solvation  Ediel_sol  =         0.00000000
  ---------------------------------------------------
  free energy    TOTEN  =       -41.93394935 eV

  energy without entropy =      -41.93394935  energy(sigma->0) =      -41.93394935


--------------------------------------------------------------------------------------------------------




 average (electrostatic) potential at core
  the test charge radii are     0.9577  0.7167
  (the norm of the test charge is              1.0000)
       1 -71.0190       2 -71.0190       3 -76.7713       4 -76.7713       5 -76.7713
       6 -76.7713
 
 
 
 E-fermi :   3.5089     XC(G=0): -10.8808     alpha+bet : -9.1586


 spin component 1

 k-point     1 :       0.1250    0.1250    0.0833
  band No.  band energies     occupation 
      1     -45.6597      1.00000
      2     -45.5974      1.00000
      3     -45.5876      1.00000
      4     -41.2277      1.00000
      5     -41.1791      1.00000
      6     -41.1721      1.00000
      7     -20.9499      1.00000
      8     -20.3893      1.00000
      9     -20.3419      1.00000
     10     -20.2714      1.00000
     11      -4.8227      1.00000
     12      -3.8511      1.00000
     13      -3.4710      1.00000
     14      -3.2177      1.00000
     15      -3.0352      1.00000
     16      -2.8656      1.00000
     17      -2.6598      1.00000
     18      -2.6036      1.00000
     19      -2.0165      1.00000
     20      -1.5668      1.00000
     21      -1.4256      1.00000
     22      -1.0982      1.00000
     23       1.6825      1.00000
     24       2.0009      1.00000
     25       2.1285      1.00000
     26       3.2493      1.00000
     27       3.3118      1.00000
     28       5.2888      0.00000
     29       5.8556      0.00000
     30       5.8841      0.00000
     31       5.8869      0.00000
     32       6.9617      0.00000
     33       7.0874      0.00000
     34      10.3498      0.00000
     35      10.7265      0.00000
     36      13.0151      0.00000

 k-point     2 :       0.3750    0.1250    0.0833
  band No.  band energies     occupation 
      1     -45.6598      1.00000
      2     -45.5974      1.00000
      3     -45.5876      1.00000
      4     -41.2278      1.00000
      5     -41.1792      1.00000
      6     -41.1721      1.00000
      7     -20.8012      1.00000
      8     -20.5534      1.00000
      9     -20.3300      1.00000
     10     -20.2792      1.00000
     11      -4.4866      1.00000
     12      -3.9425      1.00000
     13      -3.3588      1.00000
     14      -3.1520      1.00000
     15      -3.0268      1.00000
     16      -2.8469      1.00000
     17      -2.5847      1.00000
     18      -2.4831      1.00000
     19      -2.3680      1.00000
     20      -1.9826      1.00000
     21      -1.4902      1.00000
     22      -1.3195      1.00000
     23       1.7191      1.00000
     24       2.0278      1.00000
     25       2.1541      1.00000
     26       3.3444      1.00000
     27       3.4303      1.00000
     28       5.3145      0.00000
     29       5.8355      0.00000
     30       5.8483      0.00000
     31       6.7048      0.00000
     32       6.9191      0.00000
     33       7.3012      0.00000
     34       8.9720      0.00000
     35      11.4020      0.00000
     36      12.4032      0.00000

 k-point     3 :      -0.3750    0.1250    0.0833
  band No.  band energies     occupation 
      1     -45.6598      1.00000
      2     -45.5974      1.00000
      3     -45.5876      1.00000
      4     -41.2277      1.00000
      5     -41.1792      1.00000
      6     -41.1721      1.00000
      7     -20.7894      1.00000
      8     -20.5765      1.00000
      9     -20.3156      1.00000
     10     -20.2821      1.00000
     11      -4.4491      1.00000
     12      -4.0861      1.00000
     13      -3.2742      1.00000
     14      -3.2249      1.00000
     15      -2.8659      1.00000
     16      -2.8034      1.00000
     17      -2.7074      1.00000
     18      -2.4760      1.00000
     19      -2.3390      1.00000
     20      -1.9689      1.00000
     21      -1.5192      1.00000
     22      -1.2987      1.00000
     23       1.7428      1.00000
     24       2.0004      1.00000
     25       2.1699      1.00000
     26       3.2840      1.00000
     27       3.4054      1.00000
     28       5.3424      0.00000
     29       5.7839      0.00000
     30       5.8389      0.00000
     31       6.6279      0.00000
     32       6.9581      0.00000
     33       7.4833      0.00000
     34       8.9021      0.00000
     35      11.2716      0.00000
     36      12.6079      0.00000

 k-point     4 :      -0.1250    0.1250    0.0833
  band No.  band energies     occupation 
      1     -45.6597      1.00000
      2     -45.5974      1.00000
      3     -45.5876      1.00000
      4     -41.2277      1.00000
      5     -41.1792      1.00000
      6     -41.1721      1.00000
      7     -20.9461      1.00000
      8     -20.4199      1.00000
      9     -20.3134      1.00000
     10     -20.2730      1.00000
     11      -4.8230      1.00000
     12      -3.9254      1.00000
     13      -3.4352      1.00000
     14      -3.2613      1.00000
     15      -2.8981      1.00000
     16      -2.8971      1.00000
     17      -2.6778      1.00000
     18      -2.6149      1.00000
     19      -1.9855      1.00000
     20      -1.5379      1.00000
     21      -1.4515      1.00000
     22      -1.0928      1.00000
     23       1.7100      1.00000
     24       1.9742      1.00000
     25       2.1453      1.00000
     26       3.1159      1.00000
     27       3.3450      1.00000
     28       5.2980      0.00000
     29       5.8295      0.00000
     30       5.8751      0.00000
     31       5.8821      0.00000
     32       6.9912      0.00000
     33       7.1609      0.00000
     34      10.3231      0.00000
     35      10.6590      0.00000
     36      13.1481      0.00000

 k-point     5 :       0.1250    0.3750    0.0833
  band No.  band energies     occupation 
      1     -45.6598      1.00000
      2     -45.5974      1.00000
      3     -45.5876      1.00000
      4     -41.2278      1.00000
      5     -41.1792      1.00000
      6     -41.1721      1.00000
      7     -20.8012      1.00000
      8     -20.5534      1.00000
      9     -20.3300      1.00000
     10     -20.2792      1.00000
     11      -4.4866      1.00000
     12      -3.9425      1.00000
     13      -3.3588      1.00000
     14      -3.1520      1.00000
     15      -3.0268      1.00000
     16      -2.8469      1.00000
     17      -2.5847      1.00000
     18      -2.4831      1.00000
     19      -2.3680      1.00000
     20      -1.9826      1.00000
     21      -1.4902      1.00000
     22      -1.3195      1.00000
     23       1.7191      1.00000
     24       2.0278      1.00000
     25       2.1541      1.00000
     26       3.3444      1.00000
     27       3.4303      1.00000
     28       5.3145      0.00000
     29       5.8355      0.00000
     30       5.8483      0.00000
     31       6.7048      0.00000
     32       6.9191      0.00000
     33       7.3012      0.00000
     34       8.9720      0.00000
     35      11.4020      0.00000
     36      12.4032      0.00000

 k-point     6 :       0.3750    0.3750    0.0833
  band No.  band energies     occupation 
      1     -45.6598      1.00000
      2     -45.5974      1.00000
      3     -45.5875      1.00000
      4     -41.2278      1.00000
      5     -41.1793      1.00000
      6     -41.1721      1.00000
      7     -20.7285      1.00000
      8     -20.5694      1.00000
      9     -20.3711      1.00000
     10     -20.2971      1.00000
     11      -4.5391      1.00000
     12      -4.2585      1.00000
     13      -3.4102      1.00000
     14      -3.0994      1.00000
     15      -2.7864      1.00000
     16      -2.6830      1.00000
     17      -2.3369      1.00000
     18      -2.3100      1.00000
     19      -2.2344      1.00000
     20      -1.9789      1.00000
     21      -1.7755      1.00000
     22      -1.5687      1.00000
     23       1.6898      1.00000
     24       2.0030      1.00000
     25       2.1894      1.00000
     26       3.1473      1.00000
     27       3.3236      1.00000
     28       5.3940      0.00000
     29       5.8557      0.00000
     30       5.8779      0.00000
     31       6.4732      0.00000
     32       6.9584      0.00000
     33       8.3051      0.00000
     34       9.6207      0.00000
     35      10.1116      0.00000
     36      11.1297      0.00000

 k-point     7 :      -0.3750    0.3750    0.0833
  band No.  band energies     occupation 
      1     -45.6598      1.00000
      2     -45.5975      1.00000
      3     -45.5875      1.00000
      4     -41.2278      1.00000
      5     -41.1793      1.00000
      6     -41.1721      1.00000
      7     -20.6964      1.00000
      8     -20.6189      1.00000
      9     -20.3479      1.00000
     10     -20.3028      1.00000
     11      -4.4747      1.00000
     12      -4.3777      1.00000
     13      -3.3573      1.00000
     14      -3.1773      1.00000
     15      -2.6873      1.00000
     16      -2.6040      1.00000
     17      -2.4787      1.00000
     18      -2.2941      1.00000
     19      -2.1739      1.00000
     20      -2.0192      1.00000
     21      -1.7613      1.00000
     22      -1.5405      1.00000
     23       1.7134      1.00000
     24       1.9765      1.00000
     25       2.2035      1.00000
     26       3.0163      1.00000
     27       3.3713      1.00000
     28       5.4156      0.00000
     29       5.8273      0.00000
     30       5.8462      0.00000
     31       6.4834      0.00000
     32       6.9890      0.00000
     33       8.4128      0.00000
     34       9.7090      0.00000
     35       9.8281      0.00000
     36      11.2563      0.00000

 k-point     8 :      -0.1250    0.3750    0.0833
  band No.  band energies     occupation 
      1     -45.6598      1.00000
      2     -45.5974      1.00000
      3     -45.5876      1.00000
      4     -41.2277      1.00000
      5     -41.1792      1.00000
      6     -41.1721      1.00000
      7     -20.7894      1.00000
      8     -20.5765      1.00000
      9     -20.3156      1.00000
     10     -20.2821      1.00000
     11      -4.4491      1.00000
     12      -4.0861      1.00000
     13      -3.2742      1.00000
     14      -3.2249      1.00000
     15      -2.8659      1.00000
     16      -2.8034      1.00000
     17      -2.7074      1.00000
     18      -2.4760      1.00000
     19      -2.3390      1.00000
     20      -1.9689      1.00000
     21      -1.5192      1.00000
     22      -1.2987      1.00000
     23       1.7428      1.00000
     24       2.0004      1.00000
     25       2.1699      1.00000
     26       3.2840      1.00000
     27       3.4054      1.00000
     28       5.3424      0.00000
     29       5.7839      0.00000
     30       5.8389      0.00000
     31       6.6279      0.00000
     32       6.9581      0.00000
     33       7.4833      0.00000
     34       8.9021      0.00000
     35      11.2716      0.00000
     36      12.6078      0.00000

 k-point     9 :       0.1250   -0.3750    0.0833
  band No.  band energies     occupation 
      1     -45.6598      1.00000
      2     -45.5974      1.00000
      3     -45.5876      1.00000
      4     -41.2277      1.00000
      5     -41.1792      1.00000
      6     -41.1721      1.00000
      7     -20.7894      1.00000
      8     -20.5765      1.00000
      9     -20.3156      1.00000
     10     -20.2821      1.00000
     11      -4.4491      1.00000
     12      -4.0861      1.00000
     13      -3.2742      1.00000
     14      -3.2249      1.00000
     15      -2.8659      1.00000
[...]
     18      -2.6962      1.00000
     19      -2.0312      1.00000
     20      -1.8486      1.00000
     21      -1.6556      1.00000
     22      -1.5379      1.00000
     23       1.9036      1.00000
     24       1.9819      1.00000
     25       2.1027      1.00000
     26       2.8844      1.00000
     27       3.4194      1.00000
     28       5.6072      0.00000
     29       5.6522      0.00000
     30       5.8160      0.00000
     31       6.6731      0.00000
     32       7.2247      0.00000
     33       9.7322      0.00000
     34      11.1124      0.00000
     35      11.7951      0.00000
     36      12.8667      0.00000

 k-point    48 :      -0.1250   -0.1250    0.4167
  band No.  band energies     occupation 
      1     -45.6549      1.00000
      2     -45.6163      1.00000
      3     -45.5955      1.00000
      4     -41.2201      1.00000
      5     -41.2118      1.00000
      6     -41.1766      1.00000
      7     -20.5934      1.00000
      8     -20.4223      1.00000
      9     -20.3778      1.00000
     10     -20.2899      1.00000
     11      -4.1401      1.00000
     12      -3.8464      1.00000
     13      -3.6892      1.00000
     14      -3.4884      1.00000
     15      -3.3124      1.00000
     16      -3.0850      1.00000
     17      -2.6928      1.00000
     18      -2.5576      1.00000
     19      -2.3522      1.00000
     20      -1.8484      1.00000
     21      -1.7875      1.00000
     22      -1.7242      1.00000
     23       1.9651      1.00000
     24       1.9720      1.00000
     25       2.1820      1.00000
     26       2.9431      1.00000
     27       3.3054      1.00000
     28       5.6297      0.00000
     29       5.6620      0.00000
     30       5.7800      0.00000
     31       6.6852      0.00000
     32       7.0355      0.00000
     33       9.0968      0.00000
     34      11.3015      0.00000
     35      12.8229      0.00000
     36      13.0815      0.00000


--------------------------------------------------------------------------------------------------------


 soft charge-density along one line, spin component           1
         0         1         2         3         4         5         6         7         8         9
 total charge-density along one line
 
 soft charge-density along one line, spin component           2
         0         1         2         3         4         5         6         7         8         9
 total charge-density along one line
 
 pseudopotential strength for first ion, spin component:           1
-41.790   0.000  -0.032   7.853  -0.000   0.013   0.000  -0.000
  0.000 -41.768   0.000  -0.000   7.844  -0.000   0.000   0.000
 -0.032   0.000 -41.790   0.013  -0.000   7.853  -0.000   0.000
  7.853  -0.000   0.013   5.356   0.000  -0.005  -0.000   0.000
 -0.000   7.844  -0.000   0.000   5.360   0.000  -0.000  -0.000
  0.013  -0.000   7.853  -0.005   0.000   5.356  -0.000  -0.000
  0.000   0.000  -0.000  -0.000  -0.000  -0.000  -2.861   0.000
 -0.000   0.000   0.000   0.000  -0.000  -0.000   0.000  -2.849
  0.000  -0.000   0.000   0.000   0.000  -0.000   0.026   0.000
  0.000  -0.000  -0.000  -0.000   0.000   0.000   0.000  -0.007
  0.000  -0.000  -0.000   0.000   0.000   0.000   0.000  -0.000
  0.000   0.000  -0.000  -0.000  -0.000  -0.000  -3.351   0.000
 -0.000   0.000   0.000   0.000  -0.000  -0.000   0.000  -3.339
  0.000  -0.000   0.000   0.000   0.000  -0.000   0.026   0.000
  0.000  -0.000  -0.000  -0.000   0.000   0.000   0.000  -0.007
  0.000  -0.000  -0.000   0.000   0.000   0.000   0.000  -0.000
 -0.000   0.000   0.000  -0.000  -0.000   0.000   0.006  -0.000
 -0.000   0.000   0.000  -0.000  -0.000   0.000   0.012  -0.000
 pseudopotential strength for first ion, spin component:           2
-44.758   0.000  -0.026   9.291  -0.000   0.009   0.000  -0.000
  0.000 -44.735   0.000  -0.000   9.282  -0.000   0.000   0.000
 -0.026   0.000 -44.758   0.009  -0.000   9.291   0.000   0.000
  9.291  -0.000   0.009   4.877   0.000  -0.003   0.000   0.000
 -0.000   9.282  -0.000   0.000   4.881   0.000  -0.000  -0.000
  0.009  -0.000   9.291  -0.003   0.000   4.877  -0.000  -0.000
  0.000   0.000   0.000   0.000  -0.000  -0.000  -5.544   0.000
 -0.000   0.000   0.000   0.000  -0.000  -0.000   0.000  -5.535
  0.000  -0.000   0.000   0.000   0.000  -0.000   0.028   0.000
  0.000  -0.000  -0.000  -0.000   0.000   0.000   0.000  -0.005
  0.000  -0.000  -0.000   0.000   0.000  -0.000   0.000  -0.000
  0.000   0.000   0.000   0.000  -0.000  -0.000  -5.991   0.000
 -0.000   0.000   0.000   0.000  -0.000  -0.000   0.000  -5.983
  0.000  -0.000   0.000   0.000   0.000  -0.000   0.028   0.000
  0.000  -0.000  -0.000  -0.000   0.000   0.000   0.000  -0.005
  0.000  -0.000  -0.000   0.000   0.000  -0.000   0.000  -0.000
 -0.000   0.000   0.000  -0.000  -0.000   0.000   0.004  -0.000
 -0.000   0.000   0.000  -0.000  -0.000   0.000   0.007  -0.000
 total augmentation occupancy for first ion, spin component:           1
  1.998  -0.000  -0.000  -0.014  -0.000   0.000  -0.000  -0.000  -0.000  -0.000   0.000   0.000   0.000   0.000   0.000  -0.000
 -0.000   1.998  -0.000  -0.000  -0.014  -0.000  -0.000  -0.000   0.000   0.000   0.000   0.000  -0.000  -0.000  -0.000   0.000
 -0.000  -0.000   1.998   0.000  -0.000  -0.014  -0.000  -0.000   0.000  -0.000   0.000  -0.000   0.000  -0.000   0.000  -0.000
 -0.014  -0.000   0.000   0.101  -0.000  -0.013  -0.000   0.000  -0.000   0.000   0.000   0.000  -0.000   0.000  -0.000  -0.000
 -0.000  -0.014  -0.000  -0.000   0.108  -0.000  -0.000  -0.000  -0.000   0.000   0.000   0.000  -0.000   0.000  -0.000  -0.000
  0.000  -0.000  -0.014  -0.013  -0.000   0.101  -0.000   0.000   0.000  -0.000   0.000   0.000  -0.000  -0.000   0.000  -0.000
 -0.000  -0.000  -0.000  -0.000  -0.000  -0.000   8.304  -0.000   3.346  -0.000  -0.000  -6.483   0.000  -3.206   0.000   0.000
 -0.000  -0.000  -0.000   0.000  -0.000   0.000  -0.000   6.720  -0.000   2.796   0.000   0.000  -4.945   0.000  -2.646  -0.000
 -0.000   0.000   0.000  -0.000  -0.000   0.000   3.346  -0.000   6.014  -0.000   0.000  -3.207   0.000  -4.319   0.000  -0.000
 -0.000   0.000  -0.000   0.000   0.000  -0.000  -0.000   2.796  -0.000   6.720  -0.000   0.000  -2.646   0.000  -4.945   0.000
  0.000   0.000   0.000   0.000   0.000   0.000  -0.000   0.000   0.000  -0.000   3.859   0.000  -0.000  -0.000   0.000  -2.201
  0.000   0.000  -0.000   0.000   0.000   0.000  -6.483   0.000  -3.207   0.000   0.000   5.833  -0.000   3.115  -0.000  -0.000
  0.000  -0.000   0.000  -0.000  -0.000  -0.000   0.000  -4.945   0.000  -2.646  -0.000  -0.000   4.333  -0.000   2.536   0.000
  0.000  -0.000  -0.000   0.000   0.000  -0.000  -3.206   0.000  -4.319   0.000  -0.000   3.115  -0.000   3.769  -0.000   0.000
  0.000  -0.000   0.000  -0.000  -0.000   0.000   0.000  -2.646   0.000  -4.945   0.000  -0.000   2.536  -0.000   4.333  -0.000
 -0.000   0.000  -0.000  -0.000  -0.000  -0.000   0.000  -0.000  -0.000   0.000  -2.201  -0.000   0.000   0.000  -0.000   1.658
 -0.000  -0.000  -0.000   0.000   0.000   0.000   0.337   0.000  -0.152   0.000  -0.000  -0.377  -0.000   0.168  -0.000   0.000
  0.000   0.000   0.000  -0.000   0.000  -0.000  -0.008  -0.000   0.019  -0.000   0.000   0.042   0.000  -0.030   0.000  -0.000
 total augmentation occupancy for first ion, spin component:           2
  0.004   0.000  -0.000   0.016   0.000  -0.001  -0.000   0.000   0.000   0.000   0.000   0.000   0.000  -0.000  -0.000  -0.000
  0.000   0.004   0.000   0.000   0.017   0.000  -0.000  -0.000   0.000   0.000   0.000   0.000   0.000   0.000  -0.000  -0.000
 -0.000   0.000   0.004  -0.001   0.000   0.016  -0.000  -0.000   0.000   0.000   0.000   0.000   0.000  -0.000  -0.000  -0.000
  0.016   0.000  -0.001  -0.009   0.000  -0.001   0.000   0.000   0.000   0.000   0.000   0.000  -0.000  -0.000  -0.000  -0.000
  0.000   0.017   0.000   0.000  -0.008   0.000   0.000   0.000   0.000   0.000  -0.000  -0.000  -0.000  -0.000  -0.000   0.000
 -0.001   0.000   0.016  -0.001   0.000  -0.009  -0.000  -0.000   0.000   0.000  -0.000   0.000  -0.000  -0.000  -0.000  -0.000
 -0.000  -0.000  -0.000   0.000   0.000  -0.000  -5.201   0.000  -1.628   0.000   0.000   2.863  -0.000   1.220  -0.000  -0.000
  0.000  -0.000  -0.000   0.000   0.000  -0.000   0.000  -4.462   0.000  -1.436  -0.000  -0.000   2.279  -0.000   1.073   0.000
  0.000   0.000   0.000   0.000   0.000   0.000  -1.628   0.000  -3.975   0.000  -0.000   1.220  -0.000   1.930  -0.000  -0.000
  0.000   0.000   0.000   0.000   0.000   0.000   0.000  -1.436   0.000  -4.462   0.000  -0.000   1.073  -0.000   2.279   0.000
  0.000   0.000   0.000   0.000  -0.000  -0.000   0.000  -0.000  -0.000   0.000  -3.081  -0.000   0.000   0.000  -0.000   1.249
  0.000   0.000   0.000   0.000  -0.000   0.000   2.863  -0.000   1.220  -0.000  -0.000  -1.582   0.000  -0.804   0.000   0.000
  0.000   0.000   0.000  -0.000  -0.000  -0.000  -0.000   2.279  -0.000   1.073   0.000   0.000  -1.157   0.000  -0.714  -0.000
 -0.000   0.000  -0.000  -0.000  -0.000  -0.000   1.220  -0.000   1.930  -0.000   0.000  -0.804   0.000  -0.936   0.000   0.000
 -0.000  -0.000  -0.000  -0.000  -0.000  -0.000  -0.000   1.073  -0.000   2.279  -0.000   0.000  -0.714   0.000  -1.157  -0.000
 -0.000  -0.000  -0.000  -0.000   0.000  -0.000  -0.000   0.000  -0.000   0.000   1.249   0.000  -0.000   0.000  -0.000  -0.488
 -0.000   0.000   0.000  -0.000  -0.000   0.000   0.006  -0.000  -0.007  -0.000   0.000  -0.029   0.000   0.022   0.000  -0.000
  0.000  -0.000  -0.000   0.000   0.000  -0.000  -0.063   0.000   0.011   0.000  -0.000   0.038  -0.000  -0.004  -0.000   0.000


------------------------ aborting loop because EDIFF is reached ----------------------------------------


 


 total charge     
 
# of ion       s       p       d       tot
------------------------------------------
    1        0.184   6.176   5.009  11.369
    2        0.184   6.176   5.009  11.369
    3        1.723   4.350   0.000   6.074
    4        1.723   4.350   0.000   6.074
    5        1.723   4.350   0.000   6.074
    6        1.723   4.350   0.000   6.074
--------------------------------------------------
tot          7.262  29.753  10.018  47.032
 


 magnetization (x)
 
# of ion       s       p       d       tot
------------------------------------------
    1       -0.013  -0.012  -4.412  -4.436
    2        0.013   0.012   4.412   4.436
    3        0.003   0.029   0.000   0.032
    4        0.003   0.029   0.000   0.032
    5       -0.003  -0.029   0.000  -0.032
    6       -0.003  -0.029   0.000  -0.032
--------------------------------------------------
tot         -0.000   0.000  -0.000  -0.000
 
    CHARGE:  cpu time    0.0972: real time    0.0972
    FORLOC:  cpu time    0.0008: real time    0.0008
    FORNL :  cpu time    0.5175: real time    0.5175
    STRESS:  cpu time    1.4445: real time    1.4445
    FORCOR:  cpu time    0.0041: real time    0.0041
    FORHAR:  cpu time    0.0021: real time    0.0021
    MIXING:  cpu time    0.0005: real time    0.0005
    OFIELD:  cpu time    0.0000: real time    0.0000

  FORCE on cell =-STRESS in cart. coord.  units (eV):
  Direction    XX          YY          ZZ          XY          YZ          ZX
  --------------------------------------------------------------------------------------
  Alpha Z   208.96474   208.96474   208.96474
  Ewald   -1606.87243 -1606.87243 -1075.36291     0.00000    -0.00000    -0.00000
  Hartree   574.31412   574.31412   933.17714    -0.00004    -0.00001    -0.00001
  E(xc)    -309.18762  -309.18762  -309.22873     0.00000     0.00000     0.00000
  Local     182.07460   182.07460  -702.04966     0.00007     0.00003     0.00002
  n-local  -237.94006  -237.94007  -237.27467    -0.00001    -0.00000    -0.00000
  augment   266.72634   266.72634   266.37030     0.00005     0.00002     0.00002
  Kinetic   921.92246   921.92246   915.39894     0.00002     0.00000     0.00000
  Fock        0.00000     0.00000     0.00000     0.00000     0.00000     0.00000
  -------------------------------------------------------------------------------------
  Total       0.00213     0.00213    -0.00485     0.00008     0.00003     0.00003
  in kB       0.04690     0.04689    -0.10659     0.00181     0.00074     0.00071
  external pressure =       -0.00 kB  Pullay stress =        0.00 kB


 VOLUME and BASIS-vectors are now :
 -----------------------------------------------------------------------------
  energy-cutoff  :      600.00
  volume of cell :       72.91
      direct lattice vectors                 reciprocal lattice vectors
     4.762889507  0.000000000  0.000000000     0.209956582  0.000000000  0.000000000
     0.000000000  4.762889507  0.000000000     0.000000000  0.209956582  0.000000000
     0.000000000  0.000000000  3.214046596     0.000000000  0.000000000  0.311134257

  length of vectors
     4.762889507  4.762889507  3.214046596     0.209956582  0.209956582  0.311134257


 FORCES acting on ions
    electron-ion (+dipol)            ewald-force                    non-local-force                 convergence-correction
 -----------------------------------------------------------------------------------------------
   0.154E-05 -.587E-06 0.835E-06   -.284E-13 -.114E-12 0.122E-13   0.106E-05 -.183E-05 0.125E-07   -.262E-05 0.265E-05 -.920E-06
   -.217E-05 -.388E-05 -.465E-06   0.000E+00 0.568E-13 0.116E-13   -.774E-06 0.726E-06 0.383E-06   0.297E-05 0.342E-05 0.196E-06
   -.301E+02 0.301E+02 -.362E-05   0.311E+02 -.311E+02 -.959E-14   -.955E+00 0.955E+00 -.230E-05   0.531E-04 -.464E-04 0.567E-05
   0.301E+02 -.301E+02 0.284E-05   -.311E+02 0.311E+02 -.956E-14   0.955E+00 -.955E+00 0.175E-05   -.514E-04 0.472E-04 -.441E-05
   0.301E+02 0.301E+02 -.195E-04   -.311E+02 -.311E+02 -.714E-14   0.955E+00 0.955E+00 -.141E-04   -.730E-05 -.161E-04 0.319E-04
   -.301E+02 -.301E+02 0.185E-04   0.311E+02 0.311E+02 -.663E-14   -.955E+00 -.955E+00 0.136E-04   0.498E-05 0.151E-04 -.305E-04
 -----------------------------------------------------------------------------------------------
   -.181E-06 -.434E-05 -.138E-05   -.355E-14 -.355E-14 -.910E-14   0.447E-06 -.100E-05 -.716E-06   -.270E-06 0.591E-05 0.194E-05
 
 
 POSITION                                       TOTAL-FORCE (eV/Angst)
 -----------------------------------------------------------------------------------
      2.38144      2.38144      1.60702        -0.000000      0.000000     -0.000000
      0.00000      0.00000      0.00000         0.000000      0.000000      0.000000
      0.94362      3.81927      1.60702         0.000113     -0.000114     -0.000000
      3.81927      0.94362      1.60702        -0.000113      0.000114      0.000000
      1.43783      1.43783      0.00000        -0.000117     -0.000117     -0.000002
      3.32506      3.32506      0.00000         0.000117      0.000117      0.000002
 -----------------------------------------------------------------------------------
    total drift:                               -0.000000      0.000001     -0.000000


--------------------------------------------------------------------------------------------------------



  FREE ENERGIE OF THE ION-ELECTRON SYSTEM (eV)
  ---------------------------------------------------
  free  energy   TOTEN  =       -41.93394935 eV

  energy  without entropy=      -41.93394935  energy(sigma->0) =      -41.93394935
 


--------------------------------------------------------------------------------------------------------


    POTLOK:  cpu time    1.9462: real time    1.9462

 Total magnetic moment S=     1.0000000

 Fermi contact (isotropic) hyperfine coupling parameter (MHz) 
 -------------------------------------------------------------
  ion      A_pw      A_1PS     A_1AE     A_1c      A_tot
 -------------------------------------------------------------
   1   -1236.859 -1236.817  -282.269  1013.292  -282.311
   2    1236.859  1236.817   282.269 -1013.292   282.312
   3      58.354    58.200   333.133   -47.296   333.287
   4      58.354    58.200   333.133   -47.296   333.287
   5     -58.354   -58.200  -333.133    47.296  -333.288
   6     -58.354   -58.200  -333.133    47.296  -333.288
 -------------------------------------------------------------


 Dipolar hyperfine coupling parameters (MHz)
 ---------------------------------------------------------------------
  ion      A_xx      A_yy      A_zz      A_xy      A_xz      A_yz
 ---------------------------------------------------------------------
   1       4.295     4.295    -8.591    -1.949     0.001     0.001
   2      -4.296    -4.295     8.591    -1.949    -0.001    -0.001
   3     -67.932   -67.932   135.863     4.204     0.000     0.000
   4     -67.932   -67.932   135.863     4.204     0.000     0.000
   5      67.932    67.932  -135.863     4.204     0.000    -0.000
   6      67.932    67.932  -135.863     4.204     0.000    -0.000
 ---------------------------------------------------------------------


 Total hyperfine coupling parameters after diagonalization (MHz)
 (convention: |A_zz| > |A_xx| > |A_yy|)
 ----------------------------------------------------------------------
  ion      A_xx      A_yy      A_zz     asymmetry (A_yy - A_xx)/ A_zz 
 ----------------------------------------------------------------------
   1    -279.965  -276.067  -290.902      -0.013
   2     279.965   276.067   290.902      -0.013
   3     269.560   261.151   469.151      -0.018
   4     269.560   261.152   469.151      -0.018
   5    -269.560  -261.152  -469.151      -0.018
   6    -269.560  -261.152  -469.151      -0.018
 ---------------------------------------------------------------------



--------------------------------------------------------------------------------------------------------


 writing wavefunctions
     LOOP+:  cpu time   26.7889: real time   26.8085
    4ORBIT:  cpu time    0.0000: real time    0.0000
 


 total charge     
 
# of ion       s       p       d       tot
------------------------------------------
    1        0.184   6.176   5.009  11.369
    2        0.184   6.176   5.009  11.369
    3        1.723   4.350   0.000   6.074
    4        1.723   4.350   0.000   6.074
    5        1.723   4.350   0.000   6.074
    6        1.723   4.350   0.000   6.074
--------------------------------------------------
tot          7.262  29.753  10.018  47.032
 


 magnetization (x)
 
# of ion       s       p       d       tot
------------------------------------------
    1       -0.013  -0.012  -4.412  -4.436
    2        0.013   0.012   4.412   4.436
    3        0.003   0.029   0.000   0.032
    4        0.003   0.029   0.000   0.032
    5       -0.003  -0.029   0.000  -0.032
    6       -0.003  -0.029   0.000  -0.032
--------------------------------------------------
tot         -0.000   0.000  -0.000  -0.000
 
 BZINTS: Fermi energy:  3.508886; 54.000000 electrons
         Band energy:-727.011930;  BLOECHL correction:  0.000000

 total amount of memory used by VASP MPI-rank0    80216. kBytes
=======================================================================

   base      :      30000. kBytes
   nonl-proj :      34076. kBytes
   fftplans  :       1875. kBytes
   grid      :       2467. kBytes
   one-center:        186. kBytes
   wavefun   :      11612. kBytes
 
  
  
 General timing and accounting informations for this job:
 ========================================================
  
                  Total CPU time used (sec):       28.902
                            User time (sec):       21.646
                          System time (sec):        7.257
                         Elapsed time (sec):       28.966
  
                   Maximum memory used (kb):       91268.
                   Average memory used (kb):           0.
  
                          Minor page faults:        17303
                          Major page faults:            6
                 Voluntary context switches:          301
