 vasp.5.4.4.18Apr17-6-g9f103f2a35 (build Apr 27 2017 11:13:10) complex          
  
 executed on           IFC91_ompi date 2021.06.08  16:30:56
 running on   12 total cores
 distrk:  each k-point on   12 cores,    1 groups
 distr:  one band on NCORES_PER_BAND=   1 cores,   12 groups


--------------------------------------------------------------------------------------------------------


 INCAR:
 POTCAR:    PAW_PBE Mn_pv 02Aug2007               
 POTCAR:    PAW_PBE F 08Apr2002                   

 ----------------------------------------------------------------------------- 
|                                                                             |
|           W    W    AA    RRRRR   N    N  II  N    N   GGGG   !!!           |
|           W    W   A  A   R    R  NN   N  II  NN   N  G    G  !!!           |
|           W    W  A    A  R    R  N N  N  II  N N  N  G       !!!           |
|           W WW W  AAAAAA  RRRRR   N  N N  II  N  N N  G  GGG   !            |
|           WW  WW  A    A  R   R   N   NN  II  N   NN  G    G                |
|           W    W  A    A  R    R  N    N  II  N    N   GGGG   !!!           |
|                                                                             |
|      For optimal performance we recommend to set                            |
|        NCORE= 4 - approx SQRT( number of cores)                             |
|      NCORE specifies how many cores store one orbital (NPAR=cpu/NCORE).     |
|      This setting can  greatly improve the performance of VASP for DFT.     |
|      The default,   NCORE=1            might be grossly inefficient         |
|      on modern multi-core architectures or massively parallel machines.     |
|      Do your own testing !!!!                                               |
|      Unfortunately you need to use the default for GW and RPA calculations. |
|      (for HF NCORE is supported but not extensively tested yet)             |
|                                                                             |
 ----------------------------------------------------------------------------- 

 POTCAR:    PAW_PBE Mn_pv 02Aug2007               
   VRHFIN =Mn: 3p4s3d                                                           
   LEXCH  = PE                                                                  
   EATOM  =  2025.2664 eV,  148.8529 Ry                                         
                                                                                
   TITEL  = PAW_PBE Mn_pv 02Aug2007                                             
   LULTRA =        F    use ultrasoft PP ?                                      
   IUNSCR =        1    unscreen: 0-lin 1-nonlin 2-no                           
   RPACOR =    2.080    partial core radius                                     
   POMASS =   54.938; ZVAL   =   13.000    mass and valenz                      
   RCORE  =    2.300    outmost cutoff radius                                   
   RWIGS  =    2.500; RWIGS  =    1.323    wigner-seitz radius (au A)           
   ENMAX  =  269.864; ENMIN  =  202.398 eV                                      
   ICORE  =        3    local potential                                         
   LCOR   =        T    correct aug charges                                     
   LPAW   =        T    paw PP                                                  
   EAUG   =  569.085                                                            
   DEXC   =    0.000                                                            
   RMAX   =    2.343    core radius for proj-oper                               
   RAUG   =    1.300    factor for augmentation sphere                          
   RDEP   =    2.338    radius for radial grids                                 
   RDEPT  =    1.798    core radius for aug-charge                              
                                                                                
   Atomic configuration                                                         
    8 entries                                                                   
     n  l   j            E        occ.                                          
     1  0  0.50     -6424.8287   2.0000                                         
     2  0  0.50      -739.1154   2.0000                                         
     2  1  1.50      -625.3949   6.0000                                         
     3  0  0.50       -81.6100   2.0000                                         
     3  1  1.50       -50.4667   6.0000                                         
     3  2  2.50        -3.3745   6.0000                                         
     4  0  0.50        -4.1331   1.0000                                         
     4  3  2.50        -1.3606   0.0000                                         
   Description                                                                  
     l       E           TYP  RCUT    TYP  RCUT                                 
     1    -50.4666628     23  2.000                                             
     1     -1.3605826     23  2.000                                             
     2     -3.3744729     23  2.300                                             
     2     -4.7350555     23  2.300                                             
     0     -4.1331431     23  2.300                                             
     0      7.6656591     23  2.300                                             
     3      9.5240782     23  2.300                                             
  local pseudopotential read in
  partial core-charges read in
  partial kinetic energy density read in
  atomic valenz-charges read in
  non local Contribution for L=           1  read in
    real space projection operators read in
  non local Contribution for L=           1  read in
    real space projection operators read in
  non local Contribution for L=           2  read in
    real space projection operators read in
  non local Contribution for L=           2  read in
    real space projection operators read in
  non local Contribution for L=           0  read in
    real space projection operators read in
  non local Contribution for L=           0  read in
    real space projection operators read in
    PAW grid and wavefunctions read in
 
   number of l-projection  operators is LMAX  =           6
   number of lm-projection operators is LMMAX =          18
 
 POTCAR:    PAW_PBE F 08Apr2002                   
   VRHFIN =F: s2p5                                                              
   LEXCH  = PE                                                                  
   EATOM  =   659.6475 eV,   48.4827 Ry                                         
                                                                                
   TITEL  = PAW_PBE F 08Apr2002                                                 
   LULTRA =        F    use ultrasoft PP ?                                      
   IUNSCR =        1    unscreen: 0-lin 1-nonlin 2-no                           
   RPACOR =    1.200    partial core radius                                     
   POMASS =   18.998; ZVAL   =    7.000    mass and valenz                      
   RCORE  =    1.520    outmost cutoff radius                                   
   RWIGS  =    1.500; RWIGS  =    0.794    wigner-seitz radius (au A)           
   ENMAX  =  400.000; ENMIN  =  300.000 eV                                      
   ICORE  =        2    local potential                                         
   LCOR   =        T    correct aug charges                                     
   LPAW   =        T    paw PP                                                  
   EAUG   =  613.614                                                            
   RMAX   =    1.555    core radius for proj-oper                               
   RAUG   =    1.300    factor for augmentation sphere                          
   RDEP   =    1.539    radius for radial grids                                 
   RDEPT  =    1.299    core radius for aug-charge                              
                                                                                
   Atomic configuration                                                         
    4 entries                                                                   
     n  l   j            E        occ.                                          
     1  0  0.50      -663.3661   2.0000                                         
     2  0  0.50       -29.8995   2.0000                                         
     2  1  0.50       -11.1114   5.0000                                         
     3  2  1.50       -10.8847   0.0000                                         
   Description                                                                  
     l       E           TYP  RCUT    TYP  RCUT                                 
     0    -29.8995018     23  1.200                                             
     0     -9.5240782     23  1.200                                             
     1    -11.1113914     23  1.520                                             
     1      1.3605826     23  1.520                                             
     2    -10.8846608      7  1.500                                             
  local pseudopotential read in
  partial core-charges read in
  partial kinetic energy density read in
  atomic valenz-charges read in
  non local Contribution for L=           0  read in
    real space projection operators read in
  non local Contribution for L=           0  read in
    real space projection operators read in
  non local Contribution for L=           1  read in
    real space projection operators read in
  non local Contribution for L=           1  read in
    real space projection operators read in
    PAW grid and wavefunctions read in
 
   number of l-projection  operators is LMAX  =           4
   number of lm-projection operators is LMMAX =           8
 

 ----------------------------------------------------------------------------- 
|                                                                             |
|  ADVICE TO THIS USER RUNNING 'VASP/VAMP'   (HEAR YOUR MASTER'S VOICE ...):  |
|                                                                             |
|      You enforced a specific xc-type in the INCAR file,                     |
|      a different type was found on the POTCAR file                          |
|          I HOPE YOU KNOW, WHAT YOU ARE  DOING                               |
|                                                                             |
 ----------------------------------------------------------------------------- 

  PAW_PBE Mn_pv 02Aug2007               :
 energy of atom  1       EATOM=-2025.2664
 kinetic energy error for atom=    0.0047 (will be added to EATOM!!)
  PAW_PBE F 08Apr2002                   :
 energy of atom  2       EATOM= -659.6475
 kinetic energy error for atom=    0.0256 (will be added to EATOM!!)
 
 
 POSCAR: Mn  F                                   
  positions in cartesian coordinates
  No initial velocities read in
 exchange correlation table for  LEXCH =       14
   RHO(1)=    0.500       N(1)  =     2000
   RHO(2)=  100.500       N(2)  =     4000
 


--------------------------------------------------------------------------------------------------------


 ion  position               nearest neighbor table
   1  0.500  0.500  0.500-   3 2.08   4 2.08   5 2.12   6 2.12   5 2.12   6 2.12
   2  0.000  0.000  0.000-   5 2.08   6 2.08   3 2.12   4 2.12   3 2.12   4 2.12
   3  0.197  0.803  0.500-   1 2.08   2 2.12   2 2.12
   4  0.803  0.197  0.500-   1 2.08   2 2.12   2 2.12
   5  0.303  0.303  0.000-   2 2.08   1 2.12   1 2.12
   6  0.697  0.697  0.000-   2 2.08   1 2.12   1 2.12
 

IMPORTANT INFORMATION: All symmetrisations will be switched off!
NOSYMM: (Re-)initialisation of all symmetry stuff for point group C_1.

 
 
 KPOINTS: KPOINTS created by Atomic Simulation Env

Automatic generation of k-mesh.
Space group operators:
 irot       det(A)        alpha          n_x          n_y          n_z        tau_x        tau_y        tau_z
    1     1.000000     0.000000     1.000000     0.000000     0.000000     0.000000     0.000000     0.000000
 
 Subroutine IBZKPT returns following result:
 ===========================================
 
 Found     48 irreducible k-points:
 
 Following reciprocal coordinates:
            Coordinates               Weight
  0.125000  0.125000  0.083333      2.000000
  0.375000  0.125000  0.083333      2.000000
 -0.375000  0.125000  0.083333      2.000000
 -0.125000  0.125000  0.083333      2.000000
  0.125000  0.375000  0.083333      2.000000
  0.375000  0.375000  0.083333      2.000000
 -0.375000  0.375000  0.083333      2.000000
 -0.125000  0.375000  0.083333      2.000000
  0.125000 -0.375000  0.083333      2.000000
  0.375000 -0.375000  0.083333      2.000000
 -0.375000 -0.375000  0.083333      2.000000
 -0.125000 -0.375000  0.083333      2.000000
  0.125000 -0.125000  0.083333      2.000000
  0.375000 -0.125000  0.083333      2.000000
 -0.375000 -0.125000  0.083333      2.000000
 -0.125000 -0.125000  0.083333      2.000000
  0.125000  0.125000  0.250000      2.000000
  0.375000  0.125000  0.250000      2.000000
 -0.375000  0.125000  0.250000      2.000000
 -0.125000  0.125000  0.250000      2.000000
  0.125000  0.375000  0.250000      2.000000
  0.375000  0.375000  0.250000      2.000000
 -0.375000  0.375000  0.250000      2.000000
 -0.125000  0.375000  0.250000      2.000000
  0.125000 -0.375000  0.250000      2.000000
  0.375000 -0.375000  0.250000      2.000000
 -0.375000 -0.375000  0.250000      2.000000
 -0.125000 -0.375000  0.250000      2.000000
  0.125000 -0.125000  0.250000      2.000000
  0.375000 -0.125000  0.250000      2.000000
 -0.375000 -0.125000  0.250000      2.000000
 -0.125000 -0.125000  0.250000      2.000000
  0.125000  0.125000  0.416667      2.000000
  0.375000  0.125000  0.416667      2.000000
 -0.375000  0.125000  0.416667      2.000000
 -0.125000  0.125000  0.416667      2.000000
  0.125000  0.375000  0.416667      2.000000
  0.375000  0.375000  0.416667      2.000000
 -0.375000  0.375000  0.416667      2.000000
 -0.125000  0.375000  0.416667      2.000000
  0.125000 -0.375000  0.416667      2.000000
  0.375000 -0.375000  0.416667      2.000000
 -0.375000 -0.375000  0.416667      2.000000
 -0.125000 -0.375000  0.416667      2.000000
  0.125000 -0.125000  0.416667      2.000000
  0.375000 -0.125000  0.416667      2.000000
 -0.375000 -0.125000  0.416667      2.000000
 -0.125000 -0.125000  0.416667      2.000000
 
 Following cartesian coordinates:
            Coordinates               Weight
  0.025770  0.025770  0.025444      2.000000
  0.077310  0.025770  0.025444      2.000000
 -0.077310  0.025770  0.025444      2.000000
 -0.025770  0.025770  0.025444      2.000000
  0.025770  0.077310  0.025444      2.000000
  0.077310  0.077310  0.025444      2.000000
 -0.077310  0.077310  0.025444      2.000000
 -0.025770  0.077310  0.025444      2.000000
  0.025770 -0.077310  0.025444      2.000000
  0.077310 -0.077310  0.025444      2.000000
 -0.077310 -0.077310  0.025444      2.000000
 -0.025770 -0.077310  0.025444      2.000000
  0.025770 -0.025770  0.025444      2.000000
  0.077310 -0.025770  0.025444      2.000000
 -0.077310 -0.025770  0.025444      2.000000
 -0.025770 -0.025770  0.025444      2.000000
  0.025770  0.025770  0.076331      2.000000
  0.077310  0.025770  0.076331      2.000000
 -0.077310  0.025770  0.076331      2.000000
 -0.025770  0.025770  0.076331      2.000000
  0.025770  0.077310  0.076331      2.000000
  0.077310  0.077310  0.076331      2.000000
 -0.077310  0.077310  0.076331      2.000000
 -0.025770  0.077310  0.076331      2.000000
  0.025770 -0.077310  0.076331      2.000000
  0.077310 -0.077310  0.076331      2.000000
 -0.077310 -0.077310  0.076331      2.000000
 -0.025770 -0.077310  0.076331      2.000000
  0.025770 -0.025770  0.076331      2.000000
  0.077310 -0.025770  0.076331      2.000000
 -0.077310 -0.025770  0.076331      2.000000
 -0.025770 -0.025770  0.076331      2.000000
  0.025770  0.025770  0.127219      2.000000
  0.077310  0.025770  0.127219      2.000000
 -0.077310  0.025770  0.127219      2.000000
 -0.025770  0.025770  0.127219      2.000000
  0.025770  0.077310  0.127219      2.000000
  0.077310  0.077310  0.127219      2.000000
 -0.077310  0.077310  0.127219      2.000000
 -0.025770  0.077310  0.127219      2.000000
  0.025770 -0.077310  0.127219      2.000000
  0.077310 -0.077310  0.127219      2.000000
 -0.077310 -0.077310  0.127219      2.000000
 -0.025770 -0.077310  0.127219      2.000000
  0.025770 -0.025770  0.127219      2.000000
  0.077310 -0.025770  0.127219      2.000000
 -0.077310 -0.025770  0.127219      2.000000
 -0.025770 -0.025770  0.127219      2.000000
 
 TETIRR: Found    288 inequivalent tetrahedra from      576


--------------------------------------------------------------------------------------------------------




 Dimension of arrays:
   k-points           NKPTS =     48   k-points in BZ     NKDIM =     48   number of bands    NBANDS=     36
   number of dos      NEDOS =    301   number of ions     NIONS =      6
   non local maximal  LDIM  =      6   non local SUM 2l+1 LMDIM =     18
   total plane-waves  NPLWV =  18000
   max r-space proj   IRMAX =      1   max aug-charges    IRDMAX=  56894
   dimension x,y,z NGX =    30 NGY =   30 NGZ =   20
   dimension x,y,z NGXF=    60 NGYF=   60 NGZF=   40
   support grid    NGXF=   120 NGYF=  120 NGZF=   80
   ions per type =               2   4
   NGX,Y,Z   is equivalent  to a cutoff of  10.28, 10.28, 10.15 a.u.
   NGXF,Y,Z  is equivalent  to a cutoff of  20.56, 20.56, 20.30 a.u.

 SYSTEM =  unknown system                          
 POSCAR =  Mn  F                                   

 Startparameter for this run:
   NWRITE =      2    write-flag & timer
   PREC   = normal    normal or accurate (medium, high low for compatibility)
   ISTART =      1    job   : 0-new  1-cont  2-samecut
   ICHARG =      0    charge: 1-file 2-atom 10-const
   ISPIN  =      2    spin polarized calculation?
   LNONCOLLINEAR =      F non collinear calculations
   LSORBIT =      F    spin-orbit coupling
   INIWAV =      1    electr: 0-lowe 1-rand  2-diag
   LASPH  =      T    aspherical Exc in radial PAW
   METAGGA=      F    non-selfconsistent MetaGGA calc.

 Electronic Relaxation 1
   ENCUT  =  600.0 eV  44.10 Ry    6.64 a.u.   9.69  9.69  6.54*2*pi/ulx,y,z
   ENINI  =  600.0     initial cutoff
   ENAUG  =  613.6 eV  augmentation charge cutoff
   NELM   =     60;   NELMIN=  2; NELMDL=  0     # of ELM steps 
   EDIFF  = 0.1E-07   stopping-criterion for ELM
   LREAL  =      F    real-space projection
   NLSPLINE    = F    spline interpolate recip. space projectors
   LCOMPAT=      F    compatible to vasp.4.4
   GGA_COMPAT  = T    GGA compatible to vasp.4.4-vasp.4.6
   LMAXPAW     = -100 max onsite density
   LMAXMIX     =    4 max onsite mixed and CHGCAR
   VOSKOWN=      0    Vosko Wilk Nusair interpolation
   ROPT   =    0.00000   0.00000
 Ionic relaxation
   EDIFFG = 0.1E-06   stopping-criterion for IOM
   NSW    =      0    number of steps for IOM
   NBLOCK =      1;   KBLOCK =      1    inner block; outer block 
   IBRION =     -1    ionic relax: 0-MD 1-quasi-New 2-CG
   NFREE  =      0    steps in history (QN), initial steepest desc. (CG)
   ISIF   =      2    stress and relaxation
   IWAVPR =     10    prediction:  0-non 1-charg 2-wave 3-comb
   ISYM   =      0    0-nonsym 1-usesym 2-fastsym
   LCORR  =      T    Harris-Foulkes like correction to forces

   POTIM  = 0.5000    time-step for ionic-motion
   TEIN   =    0.0    initial temperature
   TEBEG  =    0.0;   TEEND  =   0.0 temperature during run
   SMASS  =  -3.00    Nose mass-parameter (am)
   estimated Nose-frequenzy (Omega)   =  0.10E-29 period in steps =****** mass=  -0.538E-27a.u.
   SCALEE = 1.0000    scale energy and forces
   NPACO  =    256;   APACO  = 16.0  distance and # of slots for P.C.
   PSTRESS=    0.0 pullay stress

  Mass of Ions in am
   POMASS =  54.94 19.00
  Ionic Valenz
   ZVAL   =  13.00  7.00
  Atomic Wigner-Seitz radii
   RWIGS  =  -1.00 -1.00
  virtual crystal weights 
   VCA    =   1.00  1.00
   NELECT =      54.0000    total number of electrons
   NUPDOWN=      -1.0000    fix difference up-down

 DOS related values:
   EMIN   =  10.00;   EMAX   =-10.00  energy-range for DOS
   EFERMI =   0.00
   ISMEAR =    -5;   SIGMA  =   0.20  broadening in eV -4-tet -1-fermi 0-gaus

 Electronic relaxation 2 (details)
   IALGO  =     38    algorithm
   LDIAG  =      T    sub-space diagonalisation (order eigenvalues)
   LSUBROT=      F    optimize rotation matrix (better conditioning)
   TURBO    =      0    0=normal 1=particle mesh
   IRESTART =      0    0=no restart 2=restart with 2 vectors
   NREBOOT  =      0    no. of reboots
   NMIN     =      0    reboot dimension
   EREF     =   0.00    reference energy to select bands
   IMIX   =      4    mixing-type and parameters
     AMIX     =   0.40;   BMIX     =  1.00
     AMIX_MAG =   1.60;   BMIX_MAG =  1.00
     AMIN     =   0.10
     WC   =   100.;   INIMIX=   1;  MIXPRE=   1;  MAXMIX= -45

 Intra band minimization:
   WEIMIN = 0.0000     energy-eigenvalue tresh-hold
   EBREAK =  0.69E-10  absolut break condition
   DEPER  =   0.30     relativ break condition  

   TIME   =   0.40     timestep for ELM

  volume/ion in A,a.u.               =      12.84        86.67
  Fermi-wavevector in a.u.,A,eV,Ry     =   1.454113  2.747875 28.768764  2.114445
  Thomas-Fermi vector in A             =   2.571301
 
 Write flags
   LWAVE        =      T    write WAVECAR
   LDOWNSAMPLE  =      F    k-point downsampling of WAVECAR
   LCHARG       =      T    write CHGCAR
   LVTOT        =      F    write LOCPOT, total local potential
   LVHAR        =      F    write LOCPOT, Hartree potential only
   LELF         =      F    write electronic localiz. function (ELF)
   LORBIT       =     11    0 simple, 1 ext, 2 COOP (PROOUT), +10 PAW based schemes


 Dipole corrections
   LMONO  =      F    monopole corrections only (constant potential shift)
   LDIPOL =      F    correct potential (dipole corrections)
   IDIPOL =      0    1-x, 2-y, 3-z, 4-all directions 
   EPSILON=  1.0000000 bulk dielectric constant

 LDA+U is selected, type is set to LDAUTYPE =  2
   angular momentum for each species LDAUL =     2   -1
   U (eV)           for each species LDAUU =   0.0  0.0
   J (eV)           for each species LDAUJ =   0.0  0.0
 Exchange correlation treatment:
   GGA     =    PS    GGA type
   LEXCH   =    14    internal setting for exchange type
   VOSKOWN=      0    Vosko Wilk Nusair interpolation
   LHFCALC =     F    Hartree Fock is set to
   LHFONE  =     F    Hartree Fock one center treatment
   AEXX    =    0.0000 exact exchange contribution

 Linear response parameters
   LEPSILON=     F    determine dielectric tensor
   LRPA    =     F    only Hartree local field effects (RPA)
   LNABLA  =     F    use nabla operator in PAW spheres
   LVEL    =     F    velocity operator in full k-point grid
   LINTERFAST=   F  fast interpolation
   KINTER  =     0    interpolate to denser k-point grid
   CSHIFT  =0.1000    complex shift for real part using Kramers Kronig
   OMEGAMAX=  -1.0    maximum frequency
   DEG_THRESHOLD= 0.2000000E-02 threshold for treating states as degnerate
   RTIME   =   -0.100 relaxation time in fs
  (WPLASMAI=    0.000 imaginary part of plasma frequency in eV, 0.658/RTIME)
   DFIELD  = 0.0000000 0.0000000 0.0000000 field for delta impulse in time
 
 Orbital magnetization related:
   ORBITALMAG=     F  switch on orbital magnetization
   LCHIMAG   =     F  perturbation theory with respect to B field
   DQ        =  0.001000  dq finite difference perturbation B field
   LLRAUG    =     F  two centre corrections for induced B field



--------------------------------------------------------------------------------------------------------


 Static calculation
 charge density and potential will be updated during run
 spin polarized calculation
 Variant of blocked Davidson
 Davidson routine will perform the subspace rotation
 perform sub-space diagonalisation
    after iterative eigenvector-optimisation
 modified Broyden-mixing scheme, WC =      100.0
 initial mixing is a Kerker type mixing with AMIX =  0.4000 and BMIX =      1.0000
 Hartree-type preconditioning will be used
 using additional bands            9
 reciprocal scheme for non local part
 use partial core corrections
 calculate Harris-corrections to forces 
   (improved forces if not selfconsistent)
 use gradient corrections 
 use of overlap-Matrix (Vanderbilt PP)
 Fermi weights with tetrahedron method with Bloechl corrections


--------------------------------------------------------------------------------------------------------


  energy-cutoff  :      600.00
  volume of cell :       77.06
      direct lattice vectors                 reciprocal lattice vectors
     4.850570562  0.000000000  0.000000000     0.206161314  0.000000000  0.000000000
     0.000000000  4.850570562  0.000000000     0.000000000  0.206161314  0.000000000
     0.000000000  0.000000000  3.275202538     0.000000000  0.000000000  0.305324629

  length of vectors
     4.850570562  4.850570562  3.275202538     0.206161314  0.206161314  0.305324629


 
 old parameters found on file WAVECAR:
  energy-cutoff  :      600.00
  volume of cell :       77.06
      direct lattice vectors                 reciprocal lattice vectors
     4.850570562  0.000000000  0.000000000     0.206161314  0.000000000  0.000000000
     0.000000000  4.850570562  0.000000000     0.000000000  0.206161314  0.000000000
     0.000000000  0.000000000  3.275202538     0.000000000  0.000000000  0.305324629

  length of vectors

 
 k-points in units of 2pi/SCALE and weight: KPOINTS created by Atomic Simulation Env
   0.02577016  0.02577016  0.02544372       0.021
   0.07731049  0.02577016  0.02544372       0.021
  -0.07731049  0.02577016  0.02544372       0.021
  -0.02577016  0.02577016  0.02544372       0.021
   0.02577016  0.07731049  0.02544372       0.021
   0.07731049  0.07731049  0.02544372       0.021
  -0.07731049  0.07731049  0.02544372       0.021
  -0.02577016  0.07731049  0.02544372       0.021
   0.02577016 -0.07731049  0.02544372       0.021
   0.07731049 -0.07731049  0.02544372       0.021
  -0.07731049 -0.07731049  0.02544372       0.021
  -0.02577016 -0.07731049  0.02544372       0.021
   0.02577016 -0.02577016  0.02544372       0.021
   0.07731049 -0.02577016  0.02544372       0.021
  -0.07731049 -0.02577016  0.02544372       0.021
  -0.02577016 -0.02577016  0.02544372       0.021
   0.02577016  0.02577016  0.07633116       0.021
   0.07731049  0.02577016  0.07633116       0.021
  -0.07731049  0.02577016  0.07633116       0.021
  -0.02577016  0.02577016  0.07633116       0.021
   0.02577016  0.07731049  0.07633116       0.021
   0.07731049  0.07731049  0.07633116       0.021
  -0.07731049  0.07731049  0.07633116       0.021
  -0.02577016  0.07731049  0.07633116       0.021
   0.02577016 -0.07731049  0.07633116       0.021
   0.07731049 -0.07731049  0.07633116       0.021
  -0.07731049 -0.07731049  0.07633116       0.021
  -0.02577016 -0.07731049  0.07633116       0.021
   0.02577016 -0.02577016  0.07633116       0.021
   0.07731049 -0.02577016  0.07633116       0.021
  -0.07731049 -0.02577016  0.07633116       0.021
  -0.02577016 -0.02577016  0.07633116       0.021
   0.02577016  0.02577016  0.12721860       0.021
   0.07731049  0.02577016  0.12721860       0.021
  -0.07731049  0.02577016  0.12721860       0.021
  -0.02577016  0.02577016  0.12721860       0.021
   0.02577016  0.07731049  0.12721860       0.021
   0.07731049  0.07731049  0.12721860       0.021
  -0.07731049  0.07731049  0.12721860       0.021
  -0.02577016  0.07731049  0.12721860       0.021
   0.02577016 -0.07731049  0.12721860       0.021
   0.07731049 -0.07731049  0.12721860       0.021
  -0.07731049 -0.07731049  0.12721860       0.021
  -0.02577016 -0.07731049  0.12721860       0.021
   0.02577016 -0.02577016  0.12721860       0.021
   0.07731049 -0.02577016  0.12721860       0.021
  -0.07731049 -0.02577016  0.12721860       0.021
  -0.02577016 -0.02577016  0.12721860       0.021
 
 k-points in reciprocal lattice and weights: KPOINTS created by Atomic Simulation Env
   0.12500000  0.12500000  0.08333333       0.021
   0.37500000  0.12500000  0.08333333       0.021
  -0.37500000  0.12500000  0.08333333       0.021
  -0.12500000  0.12500000  0.08333333       0.021
   0.12500000  0.37500000  0.08333333       0.021
   0.37500000  0.37500000  0.08333333       0.021
  -0.37500000  0.37500000  0.08333333       0.021
  -0.12500000  0.37500000  0.08333333       0.021
   0.12500000 -0.37500000  0.08333333       0.021
   0.37500000 -0.37500000  0.08333333       0.021
  -0.37500000 -0.37500000  0.08333333       0.021
  -0.12500000 -0.37500000  0.08333333       0.021
   0.12500000 -0.12500000  0.08333333       0.021
   0.37500000 -0.12500000  0.08333333       0.021
  -0.37500000 -0.12500000  0.08333333       0.021
  -0.12500000 -0.12500000  0.08333333       0.021
   0.12500000  0.12500000  0.25000000       0.021
   0.37500000  0.12500000  0.25000000       0.021
  -0.37500000  0.12500000  0.25000000       0.021
  -0.12500000  0.12500000  0.25000000       0.021
   0.12500000  0.37500000  0.25000000       0.021
   0.37500000  0.37500000  0.25000000       0.021
  -0.37500000  0.37500000  0.25000000       0.021
  -0.12500000  0.37500000  0.25000000       0.021
   0.12500000 -0.37500000  0.25000000       0.021
   0.37500000 -0.37500000  0.25000000       0.021
  -0.37500000 -0.37500000  0.25000000       0.021
  -0.12500000 -0.37500000  0.25000000       0.021
   0.12500000 -0.12500000  0.25000000       0.021
   0.37500000 -0.12500000  0.25000000       0.021
  -0.37500000 -0.12500000  0.25000000       0.021
  -0.12500000 -0.12500000  0.25000000       0.021
   0.12500000  0.12500000  0.41666667       0.021
   0.37500000  0.12500000  0.41666667       0.021
  -0.37500000  0.12500000  0.41666667       0.021
  -0.12500000  0.12500000  0.41666667       0.021
   0.12500000  0.37500000  0.41666667       0.021
   0.37500000  0.37500000  0.41666667       0.021
  -0.37500000  0.37500000  0.41666667       0.021
  -0.12500000  0.37500000  0.41666667       0.021
   0.12500000 -0.37500000  0.41666667       0.021
   0.37500000 -0.37500000  0.41666667       0.021
  -0.37500000 -0.37500000  0.41666667       0.021
  -0.12500000 -0.37500000  0.41666667       0.021
   0.12500000 -0.12500000  0.41666667       0.021
   0.37500000 -0.12500000  0.41666667       0.021
  -0.37500000 -0.12500000  0.41666667       0.021
  -0.12500000 -0.12500000  0.41666667       0.021
 
 position of ions in fractional coordinates (direct lattice) 
   0.50000000  0.50000000  0.50000000
   0.00000000  0.00000000  0.00000000
   0.19687502  0.80312498  0.50000000
   0.80312498  0.19687502  0.50000000
   0.30312498  0.30312498  0.00000000
   0.69687502  0.69687502  0.00000000
 
 position of ions in cartesian coordinates  (Angst):
   2.42528528  2.42528528  1.63760127
   0.00000000  0.00000000  0.00000000
   0.95495615  3.89561441  1.63760127
   3.89561441  0.95495615  1.63760127
   1.47032913  1.47032913  0.00000000
   3.38024143  3.38024143  0.00000000
 


--------------------------------------------------------------------------------------------------------


 k-point  1 :   0.1250 0.1250 0.0833  plane waves:    2579
 k-point  2 :   0.3750 0.1250 0.0833  plane waves:    2584
 k-point  3 :  -0.3750 0.1250 0.0833  plane waves:    2584
 k-point  4 :  -0.1250 0.1250 0.0833  plane waves:    2579
 k-point  5 :   0.1250 0.3750 0.0833  plane waves:    2584
 k-point  6 :   0.3750 0.3750 0.0833  plane waves:    2573
 k-point  7 :  -0.3750 0.3750 0.0833  plane waves:    2573
 k-point  8 :  -0.1250 0.3750 0.0833  plane waves:    2584
 k-point  9 :   0.1250-0.3750 0.0833  plane waves:    2584
 k-point 10 :   0.3750-0.3750 0.0833  plane waves:    2573
 k-point 11 :  -0.3750-0.3750 0.0833  plane waves:    2573
 k-point 12 :  -0.1250-0.3750 0.0833  plane waves:    2584
 k-point 13 :   0.1250-0.1250 0.0833  plane waves:    2579
 k-point 14 :   0.3750-0.1250 0.0833  plane waves:    2584
 k-point 15 :  -0.3750-0.1250 0.0833  plane waves:    2584
 k-point 16 :  -0.1250-0.1250 0.0833  plane waves:    2579
 k-point 17 :   0.1250 0.1250 0.2500  plane waves:    2574
 k-point 18 :   0.3750 0.1250 0.2500  plane waves:    2568
 k-point 19 :  -0.3750 0.1250 0.2500  plane waves:    2568
 k-point 20 :  -0.1250 0.1250 0.2500  plane waves:    2574
 k-point 21 :   0.1250 0.3750 0.2500  plane waves:    2568
 k-point 22 :   0.3750 0.3750 0.2500  plane waves:    2573
 k-point 23 :  -0.3750 0.3750 0.2500  plane waves:    2573
 k-point 24 :  -0.1250 0.3750 0.2500  plane waves:    2568
 k-point 25 :   0.1250-0.3750 0.2500  plane waves:    2568
 k-point 26 :   0.3750-0.3750 0.2500  plane waves:    2573
 k-point 27 :  -0.3750-0.3750 0.2500  plane waves:    2573
 k-point 28 :  -0.1250-0.3750 0.2500  plane waves:    2568
 k-point 29 :   0.1250-0.1250 0.2500  plane waves:    2574
 k-point 30 :   0.3750-0.1250 0.2500  plane waves:    2568
 k-point 31 :  -0.3750-0.1250 0.2500  plane waves:    2568
 k-point 32 :  -0.1250-0.1250 0.2500  plane waves:    2574
 k-point 33 :   0.1250 0.1250 0.4167  plane waves:    2569
 k-point 34 :   0.3750 0.1250 0.4167  plane waves:    2565
 k-point 35 :  -0.3750 0.1250 0.4167  plane waves:    2565
 k-point 36 :  -0.1250 0.1250 0.4167  plane waves:    2569
 k-point 37 :   0.1250 0.3750 0.4167  plane waves:    2565
 k-point 38 :   0.3750 0.3750 0.4167  plane waves:    2565
 k-point 39 :  -0.3750 0.3750 0.4167  plane waves:    2565
 k-point 40 :  -0.1250 0.3750 0.4167  plane waves:    2565
 k-point 41 :   0.1250-0.3750 0.4167  plane waves:    2565
 k-point 42 :   0.3750-0.3750 0.4167  plane waves:    2565
 k-point 43 :  -0.3750-0.3750 0.4167  plane waves:    2565
 k-point 44 :  -0.1250-0.3750 0.4167  plane waves:    2565
 k-point 45 :   0.1250-0.1250 0.4167  plane waves:    2569
 k-point 46 :   0.3750-0.1250 0.4167  plane waves:    2565
 k-point 47 :  -0.3750-0.1250 0.4167  plane waves:    2565
 k-point 48 :  -0.1250-0.1250 0.4167  plane waves:    2569

 maximum and minimum number of plane-waves per node :      2584     2565

 maximum number of plane-waves:      2584
 maximum index in each direction: 
   IXMAX=   10   IYMAX=   10   IZMAX=    6
   IXMIN=  -10   IYMIN=  -10   IZMIN=   -6


 serial   3D FFT for wavefunctions
 parallel 3D FFT for charge:
    minimum data exchange during FFTs selected (reduces bandwidth)


 total amount of memory used by VASP MPI-rank0    82883. kBytes
=======================================================================

   base      :      30000. kBytes
   nonl-proj :      36080. kBytes
   fftplans  :       1875. kBytes
   grid      :       2467. kBytes
   one-center:        186. kBytes
   wavefun   :      12275. kBytes
 
     INWAV:  cpu time    0.4577: real time    0.4577
 Broyden mixing: mesh for mixing (old mesh)
   NGX = 19   NGY = 19   NGZ = 13
  (NGX  = 60   NGY  = 60   NGZ  = 40)
  gives a total of   4693 points

 charge density for first step will be calculated from the start-wavefunctions


--------------------------------------------------------------------------------------------------------


 Maximum index for augmentation-charges         4339 (set IRDMAX)


--------------------------------------------------------------------------------------------------------


 initial charge from wavefunction
 First call to EWALD:  gamma=   0.417
 Maximum number of real-space cells 2x 2x 3
 Maximum number of reciprocal cells 3x 3x 2

    FEWALD:  cpu time    0.0013: real time    0.0013


--------------------------------------- Iteration      1(   1)  ---------------------------------------


    POTLOK:  cpu time    0.0178: real time    0.0178
    SETDIJ:  cpu time    4.2613: real time    4.2613
atom =   1  type =  1  l = 2
 
 onsite density matrix
 
spin component  1
 
  0.1417  0.0101  0.0008  0.0101  0.0000
  0.0101  0.1017  0.0094  0.0418 -0.0139
  0.0008  0.0094  0.0751  0.0093  0.0013
  0.0101  0.0418  0.0093  0.1005  0.0142
  0.0000 -0.0139  0.0013  0.0142  0.0975
 
spin component  2
 
  0.9119 -0.0047  0.0261 -0.0047 -0.0001
 -0.0047  0.9019 -0.0038  0.0130  0.0050
  0.0261 -0.0038  0.9140 -0.0036 -0.0004
 -0.0047  0.0130 -0.0036  0.9023 -0.0053
 -0.0001  0.0050 -0.0004 -0.0053  0.8766
 
 occupancies and eigenvectors
 
  o =  0.0508  v =  0.0013  0.6472 -0.0215 -0.6533  0.3924  0.0000  0.0000  0.0000  0.0000  0.0000      0.0000  0.0000  0.0000  0.0000  0.0000  0.0000  0.0000  0.0000  0.0000  0.0000
  o =  0.0725  v = -0.0274  0.1116 -0.9806  0.1572  0.0241  0.0000  0.0000  0.0000  0.0000  0.0000      0.0000  0.0000  0.0000  0.0000  0.0000  0.0000  0.0000  0.0000  0.0000  0.0000
  o =  0.1060  v =  0.0035 -0.2860  0.0329  0.2679  0.9194  0.0000  0.0000  0.0000  0.0000  0.0000      0.0000  0.0000  0.0000  0.0000  0.0000  0.0000  0.0000  0.0000  0.0000  0.0000
  o =  0.1293  v = -0.7511  0.4581  0.1459  0.4525  0.0083  0.0000  0.0000  0.0000  0.0000  0.0000      0.0000  0.0000  0.0000  0.0000  0.0000  0.0000  0.0000  0.0000  0.0000  0.0000
  o =  0.1579  v = -0.6597 -0.5264 -0.1252 -0.5216 -0.0048  0.0000  0.0000  0.0000  0.0000  0.0000      0.0000  0.0000  0.0000  0.0000  0.0000  0.0000  0.0000  0.0000  0.0000  0.0000
  o =  0.8732  v =  0.0000  0.0000  0.0000  0.0000  0.0000 -0.0050 -0.2944  0.0116  0.2964  0.9084      0.0000  0.0000  0.0000  0.0000  0.0000  0.0000  0.0000  0.0000  0.0000  0.0000
  o =  0.8867  v =  0.0000  0.0000  0.0000  0.0000  0.0000  0.7249  0.0094 -0.6870  0.0503 -0.0006      0.0000  0.0000  0.0000  0.0000  0.0000  0.0000  0.0000  0.0000  0.0000  0.0000
  o =  0.8924  v =  0.0000  0.0000  0.0000  0.0000  0.0000 -0.0243 -0.6537  0.0119  0.6303 -0.4179      0.0000  0.0000  0.0000  0.0000  0.0000  0.0000  0.0000  0.0000  0.0000  0.0000
  o =  0.9126  v =  0.0000  0.0000  0.0000  0.0000  0.0000  0.1766  0.6638  0.2455  0.6839 -0.0102      0.0000  0.0000  0.0000  0.0000  0.0000  0.0000  0.0000  0.0000  0.0000  0.0000
  o =  0.9417  v =  0.0000  0.0000  0.0000  0.0000  0.0000 -0.6654  0.2125 -0.6837  0.2110  0.0051      0.0000  0.0000  0.0000  0.0000  0.0000  0.0000  0.0000  0.0000  0.0000  0.0000
atom =   2  type =  1  l = 2
 
 onsite density matrix
 
spin component  1
 
  0.9135 -0.0035 -0.0096 -0.0038  0.0001
 -0.0035  0.9024 -0.0026 -0.0298  0.0055
 -0.0096 -0.0026  0.9155 -0.0023 -0.0004
 -0.0038 -0.0298 -0.0023  0.9029 -0.0056
  0.0001  0.0055 -0.0004 -0.0056  0.8757
 
spin component  2
 
  0.1471  0.0124 -0.0564  0.0127  0.0001
  0.0124  0.0989  0.0087  0.0067 -0.0140
 -0.0564  0.0087  0.0768  0.0082  0.0013
  0.0127  0.0067  0.0082  0.0976  0.0143
  0.0001 -0.0140  0.0013  0.0143  0.0987
 
 occupancies and eigenvectors
 
  o =  0.0398  v =  0.0000  0.0000  0.0000  0.0000  0.0000 -0.4824  0.2057 -0.8286  0.1946  0.0208      0.0000  0.0000  0.0000  0.0000  0.0000  0.0000  0.0000  0.0000  0.0000  0.0000
  o =  0.0748  v =  0.0000  0.0000  0.0000  0.0000  0.0000  0.0129  0.5220  0.0059 -0.5629  0.6406      0.0000  0.0000  0.0000  0.0000  0.0000  0.0000  0.0000  0.0000  0.0000  0.0000
  o =  0.1093  v =  0.0000  0.0000  0.0000  0.0000  0.0000  0.0210  0.6836  0.3127  0.6589  0.0187      0.0000  0.0000  0.0000  0.0000  0.0000  0.0000  0.0000  0.0000  0.0000  0.0000
  o =  0.1155  v =  0.0000  0.0000  0.0000  0.0000  0.0000  0.0086 -0.4573  0.0063  0.4494  0.7673      0.0000  0.0000  0.0000  0.0000  0.0000  0.0000  0.0000  0.0000  0.0000  0.0000
  o =  0.1798  v =  0.0000  0.0000  0.0000  0.0000  0.0000 -0.8755 -0.0937  0.4642 -0.0954  0.0060      0.0000  0.0000  0.0000  0.0000  0.0000  0.0000  0.0000  0.0000  0.0000  0.0000
  o =  0.8717  v = -0.1469 -0.6936 -0.1099 -0.6955 -0.0406  0.0000  0.0000  0.0000  0.0000  0.0000      0.0000  0.0000  0.0000  0.0000  0.0000  0.0000  0.0000  0.0000  0.0000  0.0000
  o =  0.8747  v = -0.0052 -0.1239  0.0055  0.0659  0.9901  0.0000  0.0000  0.0000  0.0000  0.0000      0.0000  0.0000  0.0000  0.0000  0.0000  0.0000  0.0000  0.0000  0.0000  0.0000
  o =  0.9060  v = -0.7236  0.1289 -0.6656  0.1290  0.0074  0.0000  0.0000  0.0000  0.0000  0.0000      0.0000  0.0000  0.0000  0.0000  0.0000  0.0000  0.0000  0.0000  0.0000  0.0000
  o =  0.9241  v =  0.6740 -0.0357 -0.7378  0.0097  0.0025  0.0000  0.0000  0.0000  0.0000  0.0000      0.0000  0.0000  0.0000  0.0000  0.0000  0.0000  0.0000  0.0000  0.0000  0.0000
  o =  0.9336  v =  0.0213  0.6969 -0.0231 -0.7037  0.1343  0.0000  0.0000  0.0000  0.0000  0.0000      0.0000  0.0000  0.0000  0.0000  0.0000  0.0000  0.0000  0.0000  0.0000  0.0000
     EDDAV:  cpu time    2.2683: real time    2.2891
 BZINTS: Fermi energy:  4.643565; 54.000000 electrons
         Band energy:-745.492547;  BLOECHL correction:  0.000000
       DOS:  cpu time    0.0072: real time    0.0072
    CHARGE:  cpu time    0.0966: real time    0.0966
    MIXING:  cpu time    0.0005: real time    0.0005
    --------------------------------------------
      LOOP:  cpu time    6.6518: real time    6.6727

 eigenvalue-minimisations  :  8844
 total energy-change (2. order) :-0.2234350E+02  (-0.1054964E+03)
 number of electron      54.0000003 magnetization       0.0000000
 augmentation part       20.5590527 magnetization      -0.0055434

 Broyden mixing:
  rms(total) = 0.20640E+01    rms(broyden)= 0.20640E+01
  rms(prec ) = 0.22369E+01
  weight for this iteration     100.00

 Free energy of the ion-electron system (eV)
  ---------------------------------------------------
  alpha Z        PSCENC =       200.33313265
  Ewald energy   TEWEN  =     -4209.41809619
  -Hartree energ DENC   =     -2104.22727036
  -exchange      EXHF   =         0.00000000
  -V(xc)+E(xc)   XCENC  =       292.04144785
  PAW double counting   =      7344.63394823    -7477.86266671
  entropy T*S    EENTRO =         0.00000000
  eigenvalues    EBANDS =      -745.49254662
  atomic energy  EATOM  =      6677.64854832
  Solvation  Ediel_sol  =         0.00000000
  ---------------------------------------------------
  free energy    TOTEN  =       -22.34350283 eV

  energy without entropy =      -22.34350283  energy(sigma->0) =      -22.34350283


--------------------------------------------------------------------------------------------------------




--------------------------------------- Iteration      1(   2)  ---------------------------------------


    POTLOK:  cpu time    0.0164: real time    0.0164
    SETDIJ:  cpu time    2.1411: real time    2.1412
atom =   1  type =  1  l = 2
 
 onsite density matrix
 
spin component  1
 
  0.0506  0.0003  0.0423  0.0002 -0.0000
  0.0003  0.0383 -0.0002  0.0301  0.0015
  0.0423 -0.0002  0.0398 -0.0004 -0.0003
  0.0002  0.0301 -0.0004  0.0382 -0.0023
 -0.0000  0.0015 -0.0003 -0.0023 -0.0151
 
spin component  2
 
  0.9894  0.0012 -0.0052  0.0016  0.0000
  0.0012  0.9693  0.0043  0.0200 -0.0059
 -0.0052  0.0043  0.9560  0.0045  0.0007
  0.0016  0.0200  0.0045  0.9693  0.0070
  0.0000 -0.0059  0.0007  0.0070  0.9863
 
 occupancies and eigenvectors
 
  o = -0.0154  v =  0.0067  0.0751 -0.0108 -0.0851 -0.9935  0.0000  0.0000  0.0000  0.0000  0.0000      0.0000  0.0000  0.0000  0.0000  0.0000  0.0000  0.0000  0.0000  0.0000  0.0000
  o =  0.0026  v = -0.6609  0.0041  0.7503  0.0065 -0.0128  0.0000  0.0000  0.0000  0.0000  0.0000      0.0000  0.0000  0.0000  0.0000  0.0000  0.0000  0.0000  0.0000  0.0000  0.0000
  o =  0.0085  v =  0.0030 -0.7024 -0.0015  0.7027 -0.1133  0.0000  0.0000  0.0000  0.0000  0.0000      0.0000  0.0000  0.0000  0.0000  0.0000  0.0000  0.0000  0.0000  0.0000  0.0000
  o =  0.0683  v =  0.0064  0.7078 -0.0044  0.7063 -0.0069  0.0000  0.0000  0.0000  0.0000  0.0000      0.0000  0.0000  0.0000  0.0000  0.0000  0.0000  0.0000  0.0000  0.0000  0.0000
  o =  0.0878  v = -0.7504  0.0003 -0.6610  0.0024  0.0019  0.0000  0.0000  0.0000  0.0000  0.0000      0.0000  0.0000  0.0000  0.0000  0.0000  0.0000  0.0000  0.0000  0.0000  0.0000
  o =  0.9472  v =  0.0000  0.0000  0.0000  0.0000  0.0000 -0.0055 -0.6860 -0.0027  0.6915 -0.2260      0.0000  0.0000  0.0000  0.0000  0.0000  0.0000  0.0000  0.0000  0.0000  0.0000
  o =  0.9540  v =  0.0000  0.0000  0.0000  0.0000  0.0000  0.1518 -0.1276  0.9717 -0.1270 -0.0165      0.0000  0.0000  0.0000  0.0000  0.0000  0.0000  0.0000  0.0000  0.0000  0.0000
  o =  0.9880  v =  0.0000  0.0000  0.0000  0.0000  0.0000  0.1933 -0.4286 -0.0901 -0.1409  0.8666      0.0000  0.0000  0.0000  0.0000  0.0000  0.0000  0.0000  0.0000  0.0000  0.0000
  o =  0.9895  v =  0.0000  0.0000  0.0000  0.0000  0.0000  0.7580 -0.2726 -0.2121 -0.3927 -0.3898      0.0000  0.0000  0.0000  0.0000  0.0000  0.0000  0.0000  0.0000  0.0000  0.0000
  o =  0.9915  v =  0.0000  0.0000  0.0000  0.0000  0.0000  0.6042  0.5050  0.0508  0.5758  0.2139      0.0000  0.0000  0.0000  0.0000  0.0000  0.0000  0.0000  0.0000  0.0000  0.0000
atom =   2  type =  1  l = 2
 
 onsite density matrix
 
spin component  1
 
  0.9898  0.0073 -0.0237  0.0076 -0.0001
  0.0073  0.9729  0.0073  0.0029 -0.0089
 -0.0237  0.0073  0.9528  0.0071  0.0009
  0.0076  0.0029  0.0071  0.9718  0.0094
 -0.0001 -0.0089  0.0009  0.0094  0.9814
 
spin component  2
 
  0.0546 -0.0040 -0.0332 -0.0041  0.0003
 -0.0040  0.0334 -0.0020 -0.0338  0.0039
 -0.0332 -0.0020  0.0466 -0.0020 -0.0005
 -0.0041 -0.0338 -0.0020  0.0343 -0.0045
  0.0003  0.0039 -0.0005 -0.0045 -0.0122
 
 occupancies and eigenvectors
 
  o = -0.0127  v =  0.0000  0.0000  0.0000  0.0000  0.0000 -0.0054  0.0249 -0.0125 -0.0789 -0.9965      0.0000  0.0000  0.0000  0.0000  0.0000  0.0000  0.0000  0.0000  0.0000  0.0000
  o = -0.0018  v =  0.0000  0.0000  0.0000  0.0000  0.0000  0.2174  0.6806  0.2047  0.6678 -0.0396      0.0000  0.0000  0.0000  0.0000  0.0000  0.0000  0.0000  0.0000  0.0000  0.0000
  o =  0.0190  v =  0.0000  0.0000  0.0000  0.0000  0.0000 -0.6254  0.2126 -0.7214  0.2081  0.0013      0.0000  0.0000  0.0000  0.0000  0.0000  0.0000  0.0000  0.0000  0.0000  0.0000
  o =  0.0681  v =  0.0000  0.0000  0.0000  0.0000  0.0000 -0.0023  0.7004  0.0037 -0.7099  0.0737      0.0000  0.0000  0.0000  0.0000  0.0000  0.0000  0.0000  0.0000  0.0000  0.0000
  o =  0.0841  v =  0.0000  0.0000  0.0000  0.0000  0.0000  0.7494 -0.0177 -0.6615 -0.0228  0.0056      0.0000  0.0000  0.0000  0.0000  0.0000  0.0000  0.0000  0.0000  0.0000  0.0000
  o =  0.9363  v =  0.4362 -0.2376  0.8348 -0.2374 -0.0121  0.0000  0.0000  0.0000  0.0000  0.0000      0.0000  0.0000  0.0000  0.0000  0.0000  0.0000  0.0000  0.0000  0.0000  0.0000
  o =  0.9612  v =  0.0120  0.5639 -0.0160 -0.6260  0.5383  0.0000  0.0000  0.0000  0.0000  0.0000      0.0000  0.0000  0.0000  0.0000  0.0000  0.0000  0.0000  0.0000  0.0000  0.0000
  o =  0.9791  v = -0.0376  0.6872  0.3894  0.6122  0.0045  0.0000  0.0000  0.0000  0.0000  0.0000      0.0000  0.0000  0.0000  0.0000  0.0000  0.0000  0.0000  0.0000  0.0000  0.0000
  o =  0.9897  v =  0.0173 -0.3644  0.0121  0.3962  0.8425  0.0000  0.0000  0.0000  0.0000  0.0000      0.0000  0.0000  0.0000  0.0000  0.0000  0.0000  0.0000  0.0000  0.0000  0.0000
  o =  1.0024  v =  0.8988  0.1435 -0.3888  0.1416 -0.0173  0.0000  0.0000  0.0000  0.0000  0.0000      0.0000  0.0000  0.0000  0.0000  0.0000  0.0000  0.0000  0.0000  0.0000  0.0000
     EDDAV:  cpu time    1.9417: real time    1.9417
 BZINTS: Fermi energy:  3.613444; 54.000000 electrons
         Band energy:-731.105649;  BLOECHL correction:  0.000000
       DOS:  cpu time    0.0055: real time    0.0055
    CHARGE:  cpu time    0.0960: real time    0.0960
    MIXING:  cpu time    0.0005: real time    0.0005
    --------------------------------------------
      LOOP:  cpu time    4.2013: real time    4.2013

 eigenvalue-minimisations  :  7476
 total energy-change (2. order) :-0.1833180E+02  (-0.1940230E+02)
 number of electron      54.0000004 magnetization       0.0000000
 augmentation part       19.8270618 magnetization      -0.0023414

 Broyden mixing:
  rms(total) = 0.20432E+01    rms(broyden)= 0.20432E+01
  rms(prec ) = 0.20811E+01
  weight for this iteration     100.00

 eigenvalues of (default mixing * dielectric matrix)
  average eigenvalue GAMMA=   0.3014
  0.3014

 Free energy of the ion-electron system (eV)
  ---------------------------------------------------
  alpha Z        PSCENC =       200.33313265
  Ewald energy   TEWEN  =     -4209.41809619
  -Hartree energ DENC   =     -2135.38227065
  -exchange      EXHF   =         0.00000000
  -V(xc)+E(xc)   XCENC  =       293.75916239
  PAW double counting   =      7207.73192101    -7344.24204983
  entropy T*S    EENTRO =         0.00000000
  eigenvalues    EBANDS =      -731.10564877
  atomic energy  EATOM  =      6677.64854832
  Solvation  Ediel_sol  =         0.00000000
  ---------------------------------------------------
  free energy    TOTEN  =       -40.67530109 eV

  energy without entropy =      -40.67530109  energy(sigma->0) =      -40.67530109


--------------------------------------------------------------------------------------------------------




--------------------------------------- Iteration      1(   3)  ---------------------------------------


    POTLOK:  cpu time    0.0160: real time    0.0160
    SETDIJ:  cpu time    2.1250: real time    2.1251
atom =   1  type =  1  l = 2
 
 onsite density matrix
 
spin component  1
 
  0.0697  0.0006  0.0264  0.0007  0.0000
  0.0006  0.0525  0.0015  0.0274 -0.0018
  0.0264  0.0015  0.0492  0.0015  0.0002
  0.0007  0.0274  0.0015  0.0525  0.0018
  0.0000 -0.0018  0.0002  0.0018  0.0255
 
spin component  2
 
  0.9635  0.0005  0.0145  0.0007  0.0000
  0.0005  0.9529  0.0015  0.0211 -0.0014
  0.0145  0.0015  0.9440  0.0015  0.0001
  0.0007  0.0211  0.0015  0.9529  0.0015
  0.0000 -0.0014  0.0001  0.0015  0.9407
 
 occupancies and eigenvectors
 
  o =  0.0228  v =  0.0060  0.5161 -0.0097 -0.5170  0.6828  0.0000  0.0000  0.0000  0.0000  0.0000      0.0000  0.0000  0.0000  0.0000  0.0000  0.0000  0.0000  0.0000  0.0000  0.0000
  o =  0.0278  v =  0.0121 -0.4828 -0.0205  0.4828  0.7302  0.0000  0.0000  0.0000  0.0000  0.0000      0.0000  0.0000  0.0000  0.0000  0.0000  0.0000  0.0000  0.0000  0.0000  0.0000
  o =  0.0311  v =  0.5634  0.0242 -0.8253  0.0131 -0.0252  0.0000  0.0000  0.0000  0.0000  0.0000      0.0000  0.0000  0.0000  0.0000  0.0000  0.0000  0.0000  0.0000  0.0000  0.0000
  o =  0.0795  v = -0.2055  0.6880 -0.1092  0.6874  0.0007  0.0000  0.0000  0.0000  0.0000  0.0000      0.0000  0.0000  0.0000  0.0000  0.0000  0.0000  0.0000  0.0000  0.0000  0.0000
  o =  0.0883  v = -0.8001 -0.1630 -0.5535 -0.1640 -0.0017  0.0000  0.0000  0.0000  0.0000  0.0000      0.0000  0.0000  0.0000  0.0000  0.0000  0.0000  0.0000  0.0000  0.0000  0.0000
  o =  0.9314  v =  0.0000  0.0000  0.0000  0.0000  0.0000  0.0068  0.6902 -0.0095 -0.6906  0.2158      0.0000  0.0000  0.0000  0.0000  0.0000  0.0000  0.0000  0.0000  0.0000  0.0000
  o =  0.9362  v =  0.0000  0.0000  0.0000  0.0000  0.0000 -0.4679 -0.0179  0.8826 -0.0391 -0.0146      0.0000  0.0000  0.0000  0.0000  0.0000  0.0000  0.0000  0.0000  0.0000  0.0000
  o =  0.9412  v =  0.0000  0.0000  0.0000  0.0000  0.0000 -0.0105 -0.1546  0.0141  0.1503  0.9763      0.0000  0.0000  0.0000  0.0000  0.0000  0.0000  0.0000  0.0000  0.0000  0.0000
  o =  0.9704  v =  0.0000  0.0000  0.0000  0.0000  0.0000  0.8027 -0.3105  0.4057 -0.3077  0.0010      0.0000  0.0000  0.0000  0.0000  0.0000  0.0000  0.0000  0.0000  0.0000  0.0000
  o =  0.9749  v =  0.0000  0.0000  0.0000  0.0000  0.0000 -0.3695 -0.6348 -0.2370 -0.6359 -0.0032      0.0000  0.0000  0.0000  0.0000  0.0000  0.0000  0.0000  0.0000  0.0000  0.0000
atom =   2  type =  1  l = 2
 
 onsite density matrix
 
spin component  1
 
  0.9648  0.0011 -0.0217  0.0013  0.0001
  0.0011  0.9524  0.0022 -0.0141 -0.0022
 -0.0217  0.0022  0.9456  0.0021  0.0002
  0.0013 -0.0141  0.0021  0.9523  0.0021
  0.0001 -0.0022  0.0002  0.0021  0.9396
 
spin component  2
 
  0.0715  0.0012 -0.0339  0.0013  0.0001
  0.0012  0.0516  0.0019 -0.0199 -0.0017
 -0.0339  0.0019  0.0501  0.0017  0.0001
  0.0013 -0.0199  0.0017  0.0515  0.0016
  0.0001 -0.0017  0.0001  0.0016  0.0249
 
 occupancies and eigenvectors
 
  o =  0.0240  v =  0.0000  0.0000  0.0000  0.0000  0.0000 -0.5365  0.2657 -0.7329  0.2514  0.2030      0.0000  0.0000  0.0000  0.0000  0.0000  0.0000  0.0000  0.0000  0.0000  0.0000
  o =  0.0248  v =  0.0000  0.0000  0.0000  0.0000  0.0000  0.1113 -0.0208  0.1515 -0.0884  0.9780      0.0000  0.0000  0.0000  0.0000  0.0000  0.0000  0.0000  0.0000  0.0000  0.0000
  o =  0.0329  v =  0.0000  0.0000  0.0000  0.0000  0.0000  0.2219  0.6551  0.3007  0.6566  0.0014      0.0000  0.0000  0.0000  0.0000  0.0000  0.0000  0.0000  0.0000  0.0000  0.0000
  o =  0.0716  v =  0.0000  0.0000  0.0000  0.0000  0.0000  0.0039  0.7069 -0.0021 -0.7056 -0.0489      0.0000  0.0000  0.0000  0.0000  0.0000  0.0000  0.0000  0.0000  0.0000  0.0000
  o =  0.0963  v =  0.0000  0.0000  0.0000  0.0000  0.0000 -0.8066  0.0040  0.5911 -0.0022  0.0001      0.0000  0.0000  0.0000  0.0000  0.0000  0.0000  0.0000  0.0000  0.0000  0.0000
  o =  0.9300  v = -0.5006  0.2744 -0.7738  0.2737  0.0165  0.0000  0.0000  0.0000  0.0000  0.0000      0.0000  0.0000  0.0000  0.0000  0.0000  0.0000  0.0000  0.0000  0.0000  0.0000
  o =  0.9392  v = -0.0122  0.0080 -0.0205 -0.1479  0.9887  0.0000  0.0000  0.0000  0.0000  0.0000      0.0000  0.0000  0.0000  0.0000  0.0000  0.0000  0.0000  0.0000  0.0000  0.0000
  o =  0.9398  v = -0.2153 -0.6552 -0.3219 -0.6409 -0.0999  0.0000  0.0000  0.0000  0.0000  0.0000      0.0000  0.0000  0.0000  0.0000  0.0000  0.0000  0.0000  0.0000  0.0000  0.0000
  o =  0.9668  v = -0.0068 -0.7037  0.0053  0.7017  0.1107  0.0000  0.0000  0.0000  0.0000  0.0000      0.0000  0.0000  0.0000  0.0000  0.0000  0.0000  0.0000  0.0000  0.0000  0.0000
  o =  0.9789  v = -0.8383  0.0100  0.5451 -0.0023  0.0005  0.0000  0.0000  0.0000  0.0000  0.0000      0.0000  0.0000  0.0000  0.0000  0.0000  0.0000  0.0000  0.0000  0.0000  0.0000
     EDDAV:  cpu time    2.0212: real time    2.0212
 BZINTS: Fermi energy:  3.309676; 54.000000 electrons
         Band energy:-735.822799;  BLOECHL correction:  0.000000
       DOS:  cpu time    0.0037: real time    0.0037
    CHARGE:  cpu time    0.0751: real time    0.0751
    MIXING:  cpu time    0.0008: real time    0.0008
    --------------------------------------------
      LOOP:  cpu time    4.2418: real time    4.2418

 eigenvalue-minimisations  :  8328
 total energy-change (2. order) :-0.1500852E+00  (-0.2902197E+00)
 number of electron      54.0000004 magnetization      -0.0000000
 augmentation part       19.8627845 magnetization       0.0001785

 Broyden mixing:
  rms(total) = 0.14728E+01    rms(broyden)= 0.14728E+01
  rms(prec ) = 0.14896E+01
  weight for this iteration     100.00

 eigenvalues of (default mixing * dielectric matrix)
  average eigenvalue GAMMA=   1.1648
  1.7960  0.5336

 Free energy of the ion-electron system (eV)
  ---------------------------------------------------
  alpha Z        PSCENC =       200.33313265
  Ewald energy   TEWEN  =     -4209.41809619
  -Hartree energ DENC   =     -2133.70557914
  -exchange      EXHF   =         0.00000000
  -V(xc)+E(xc)   XCENC  =       293.61707530
  PAW double counting   =      6967.88156975    -7101.35923829
  entropy T*S    EENTRO =         0.00000000
  eigenvalues    EBANDS =      -735.82279865
  atomic energy  EATOM  =      6677.64854832
  Solvation  Ediel_sol  =         0.00000000
  ---------------------------------------------------
  free energy    TOTEN  =       -40.82538625 eV

  energy without entropy =      -40.82538625  energy(sigma->0) =      -40.82538625


--------------------------------------------------------------------------------------------------------




--------------------------------------- Iteration      1(   4)  ---------------------------------------


    POTLOK:  cpu time    0.0156: real time    0.0156
    SETDIJ:  cpu time    2.1300: real time    2.1300
atom =   1  type =  1  l = 2
 
 onsite density matrix
 
spin component  1
 
  0.0637 -0.0001  0.0387 -0.0000  0.0000
 -0.0001  0.0524 -0.0001  0.0290  0.0008
  0.0387 -0.0001  0.0467 -0.0001 -0.0001
 -0.0000  0.0290 -0.0001  0.0524 -0.0010
  0.0000  0.0008 -0.0001 -0.0010  0.0147
 
spin component  2
 
  0.9583  0.0003  0.0101  0.0003 -0.0000
  0.0003  0.9508  0.0010  0.0160 -0.0018
  0.0101  0.0010  0.9433  0.0011  0.0002
  0.0003  0.0160  0.0011  0.9508  0.0020
 -0.0000 -0.0018  0.0002  0.0020  0.9432
 
 occupancies and eigenvectors
 
  o =  0.0145  v =  0.0546  0.0962 -0.0690 -0.0989 -0.9865  0.0000  0.0000  0.0000  0.0000  0.0000      0.0000  0.0000  0.0000  0.0000  0.0000  0.0000  0.0000  0.0000  0.0000  0.0000
  o =  0.0156  v =  0.6244 -0.0059 -0.7761  0.0043  0.0878  0.0000  0.0000  0.0000  0.0000  0.0000      0.0000  0.0000  0.0000  0.0000  0.0000  0.0000  0.0000  0.0000  0.0000  0.0000
  o =  0.0236  v = -0.0030  0.7005  0.0039 -0.7001  0.1381  0.0000  0.0000  0.0000  0.0000  0.0000      0.0000  0.0000  0.0000  0.0000  0.0000  0.0000  0.0000  0.0000  0.0000  0.0000
  o =  0.0814  v =  0.0086  0.7071  0.0053  0.7071 -0.0018  0.0000  0.0000  0.0000  0.0000  0.0000      0.0000  0.0000  0.0000  0.0000  0.0000  0.0000  0.0000  0.0000  0.0000  0.0000
  o =  0.0948  v = -0.7792  0.0071 -0.6267  0.0071  0.0007  0.0000  0.0000  0.0000  0.0000  0.0000      0.0000  0.0000  0.0000  0.0000  0.0000  0.0000  0.0000  0.0000  0.0000  0.0000
  o =  0.9341  v =  0.0000  0.0000  0.0000  0.0000  0.0000  0.0007  0.6769 -0.0008 -0.6789  0.2843      0.0000  0.0000  0.0000  0.0000  0.0000  0.0000  0.0000  0.0000  0.0000  0.0000
  o =  0.9381  v =  0.0000  0.0000  0.0000  0.0000  0.0000 -0.4483 -0.0208  0.8925 -0.0341 -0.0282      0.0000  0.0000  0.0000  0.0000  0.0000  0.0000  0.0000  0.0000  0.0000  0.0000
  o =  0.9440  v =  0.0000  0.0000  0.0000  0.0000  0.0000  0.0165  0.2069 -0.0247 -0.1950 -0.9583      0.0000  0.0000  0.0000  0.0000  0.0000  0.0000  0.0000  0.0000  0.0000  0.0000
  o =  0.9631  v =  0.0000  0.0000  0.0000  0.0000  0.0000 -0.8633  0.1970 -0.4216  0.1955 -0.0012      0.0000  0.0000  0.0000  0.0000  0.0000  0.0000  0.0000  0.0000  0.0000  0.0000
  o =  0.9672  v =  0.0000  0.0000  0.0000  0.0000  0.0000  0.2313  0.6780  0.1583  0.6794  0.0080      0.0000  0.0000  0.0000  0.0000  0.0000  0.0000  0.0000  0.0000  0.0000  0.0000
atom =   2  type =  1  l = 2
 
 onsite density matrix
 
spin component  1
 
  0.9586  0.0018 -0.0172  0.0018  0.0000
  0.0018  0.9514  0.0014 -0.0102 -0.0015
 -0.0172  0.0014  0.9418  0.0012  0.0002
  0.0018 -0.0102  0.0012  0.9511  0.0016
  0.0000 -0.0015  0.0002  0.0016  0.9425
 
spin component  2
 
  0.0641 -0.0011 -0.0359 -0.0011  0.0000
 -0.0011  0.0512 -0.0001 -0.0303  0.0004
 -0.0359 -0.0001  0.0483 -0.0000 -0.0001
 -0.0011 -0.0303 -0.0000  0.0514 -0.0005
  0.0000  0.0004 -0.0001 -0.0005  0.0147
 
 occupancies and eigenvectors
 
  o =  0.0147  v =  0.0000  0.0000  0.0000  0.0000  0.0000  0.0056  0.0019  0.0083  0.0157  0.9998      0.0000  0.0000  0.0000  0.0000  0.0000  0.0000  0.0000  0.0000  0.0000  0.0000
  o =  0.0189  v =  0.0000  0.0000  0.0000  0.0000  0.0000 -0.5661 -0.3167 -0.6929 -0.3145  0.0145      0.0000  0.0000  0.0000  0.0000  0.0000  0.0000  0.0000  0.0000  0.0000  0.0000
  o =  0.0215  v =  0.0000  0.0000  0.0000  0.0000  0.0000  0.2686 -0.6335  0.3569 -0.6317  0.0066      0.0000  0.0000  0.0000  0.0000  0.0000  0.0000  0.0000  0.0000  0.0000  0.0000
  o =  0.0816  v =  0.0000  0.0000  0.0000  0.0000  0.0000  0.0007 -0.7059  0.0003  0.7083 -0.0098      0.0000  0.0000  0.0000  0.0000  0.0000  0.0000  0.0000  0.0000  0.0000  0.0000
  o =  0.0930  v =  0.0000  0.0000  0.0000  0.0000  0.0000 -0.7793  0.0110  0.6264  0.0115 -0.0010      0.0000  0.0000  0.0000  0.0000  0.0000  0.0000  0.0000  0.0000  0.0000  0.0000
  o =  0.9302  v = -0.5183  0.1853 -0.8145  0.1832  0.0103  0.0000  0.0000  0.0000  0.0000  0.0000      0.0000  0.0000  0.0000  0.0000  0.0000  0.0000  0.0000  0.0000  0.0000  0.0000
  o =  0.9418  v = -0.0965 -0.6359 -0.2343 -0.6855  0.2480  0.0000  0.0000  0.0000  0.0000  0.0000      0.0000  0.0000  0.0000  0.0000  0.0000  0.0000  0.0000  0.0000  0.0000  0.0000
  o =  0.9422  v =  0.0335  0.2471  0.0675  0.0909  0.9618  0.0000  0.0000  0.0000  0.0000  0.0000      0.0000  0.0000  0.0000  0.0000  0.0000  0.0000  0.0000  0.0000  0.0000  0.0000
  o =  0.9617  v = -0.0058 -0.7068  0.0013  0.6979  0.1158  0.0000  0.0000  0.0000  0.0000  0.0000      0.0000  0.0000  0.0000  0.0000  0.0000  0.0000  0.0000  0.0000  0.0000  0.0000
  o =  0.9694  v = -0.8491 -0.0263  0.5265 -0.0351  0.0027  0.0000  0.0000  0.0000  0.0000  0.0000      0.0000  0.0000  0.0000  0.0000  0.0000  0.0000  0.0000  0.0000  0.0000  0.0000
     EDDAV:  cpu time    1.8222: real time    1.8222
 BZINTS: Fermi energy:  2.733417; 54.000000 electrons
         Band energy:-742.608159;  BLOECHL correction:  0.000000
       DOS:  cpu time    0.0037: real time    0.0037
    CHARGE:  cpu time    0.0751: real time    0.0751
    MIXING:  cpu time    0.0009: real time    0.0009
    --------------------------------------------
      LOOP:  cpu time    4.0475: real time    4.0475

 eigenvalue-minimisations  :  7968
 total energy-change (2. order) : 0.2277193E-01  (-0.8836707E-01)
 number of electron      54.0000003 magnetization      -0.0000000
 augmentation part       19.9359276 magnetization       0.0011599

 Broyden mixing:
  rms(total) = 0.33179E+00    rms(broyden)= 0.33177E+00
  rms(prec ) = 0.39651E+00
  weight for this iteration     100.00

 eigenvalues of (default mixing * dielectric matrix)
  average eigenvalue GAMMA=   1.2546
  2.2072  0.7783  0.7783

 Free energy of the ion-electron system (eV)
  ---------------------------------------------------
  alpha Z        PSCENC =       200.33313265
  Ewald energy   TEWEN  =     -4209.41809619
  -Hartree energ DENC   =     -2132.87281415
  -exchange      EXHF   =         0.00000000
  -V(xc)+E(xc)   XCENC  =       293.70392129
  PAW double counting   =      6434.60341174    -6562.19255896
  entropy T*S    EENTRO =         0.00000000
  eigenvalues    EBANDS =      -742.60815902
  atomic energy  EATOM  =      6677.64854832
  Solvation  Ediel_sol  =         0.00000000
  ---------------------------------------------------
  free energy    TOTEN  =       -40.80261431 eV

  energy without entropy =      -40.80261431  energy(sigma->0) =      -40.80261431


--------------------------------------------------------------------------------------------------------




--------------------------------------- Iteration      1(   5)  ---------------------------------------


    POTLOK:  cpu time    0.0162: real time    0.0162
    SETDIJ:  cpu time    2.1069: real time    2.1070
atom =   1  type =  1  l = 2
 
 onsite density matrix
 
spin component  1
 
  0.0771  0.0003  0.0304  0.0003 -0.0000
  0.0003  0.0624  0.0009  0.0283 -0.0017
  0.0304  0.0009  0.0544  0.0010  0.0002
  0.0003  0.0283  0.0010  0.0625  0.0021
 -0.0000 -0.0017  0.0002  0.0021  0.0372
 
spin component  2
 
  0.9448 -0.0003  0.0228 -0.0003  0.0000
 -0.0003  0.9444 -0.0009  0.0162  0.0017
  0.0228 -0.0009  0.9381 -0.0009 -0.0002
 -0.0003  0.0162 -0.0009  0.9444 -0.0021
  0.0000  0.0017 -0.0002 -0.0021  0.9204
 
 occupancies and eigenvectors
 
  o =  0.0326  v =  0.0446  0.6080 -0.0647 -0.6090  0.5032  0.0000  0.0000  0.0000  0.0000  0.0000      0.0000  0.0000  0.0000  0.0000  0.0000  0.0000  0.0000  0.0000  0.0000  0.0000
  o =  0.0333  v =  0.5674 -0.0483 -0.8190  0.0697 -0.0129  0.0000  0.0000  0.0000  0.0000  0.0000      0.0000  0.0000  0.0000  0.0000  0.0000  0.0000  0.0000  0.0000  0.0000  0.0000
  o =  0.0388  v =  0.0192  0.3587 -0.0242 -0.3519 -0.8641  0.0000  0.0000  0.0000  0.0000  0.0000      0.0000  0.0000  0.0000  0.0000  0.0000  0.0000  0.0000  0.0000  0.0000  0.0000
  o =  0.0906  v =  0.1233 -0.6998  0.0671 -0.7004 -0.0044  0.0000  0.0000  0.0000  0.0000  0.0000      0.0000  0.0000  0.0000  0.0000  0.0000  0.0000  0.0000  0.0000  0.0000  0.0000
  o =  0.0984  v = -0.8127 -0.0980 -0.5657 -0.0993 -0.0025  0.0000  0.0000  0.0000  0.0000  0.0000      0.0000  0.0000  0.0000  0.0000  0.0000  0.0000  0.0000  0.0000  0.0000  0.0000
  o =  0.9183  v =  0.0000  0.0000  0.0000  0.0000  0.0000  0.6462  0.0166 -0.7497 -0.0400 -0.1364      0.0000  0.0000  0.0000  0.0000  0.0000  0.0000  0.0000  0.0000  0.0000  0.0000
  o =  0.9196  v =  0.0000  0.0000  0.0000  0.0000  0.0000 -0.0954  0.2037  0.1055 -0.2087 -0.9459      0.0000  0.0000  0.0000  0.0000  0.0000  0.0000  0.0000  0.0000  0.0000  0.0000
  o =  0.9290  v =  0.0000  0.0000  0.0000  0.0000  0.0000  0.0012  0.6771 -0.0016 -0.6745  0.2944      0.0000  0.0000  0.0000  0.0000  0.0000  0.0000  0.0000  0.0000  0.0000  0.0000
  o =  0.9603  v =  0.0000  0.0000  0.0000  0.0000  0.0000  0.2116  0.6816  0.1623  0.6813 -0.0068      0.0000  0.0000  0.0000  0.0000  0.0000  0.0000  0.0000  0.0000  0.0000  0.0000
  o =  0.9648  v =  0.0000  0.0000  0.0000  0.0000  0.0000 -0.7271  0.1874 -0.6329  0.1890  0.0014      0.0000  0.0000  0.0000  0.0000  0.0000  0.0000  0.0000  0.0000  0.0000  0.0000
atom =   2  type =  1  l = 2
 
 onsite density matrix
 
spin component  1
 
  0.9455 -0.0023 -0.0152 -0.0023  0.0001
 -0.0023  0.9425 -0.0015 -0.0212  0.0021
 -0.0152 -0.0015  0.9401 -0.0014 -0.0002
 -0.0023 -0.0212 -0.0014  0.9429 -0.0022
  0.0001  0.0021 -0.0002 -0.0022  0.9214
 
spin component  2
 
  0.0763  0.0022 -0.0379  0.0023 -0.0000
  0.0022  0.0641  0.0016 -0.0231 -0.0021
 -0.0379  0.0016  0.0519  0.0015  0.0002
  0.0023 -0.0231  0.0015  0.0637  0.0023
 -0.0000 -0.0021  0.0002  0.0023  0.0360
 
 occupancies and eigenvectors
 
  o =  0.0235  v =  0.0000  0.0000  0.0000  0.0000  0.0000 -0.5789  0.1457 -0.7890  0.1450  0.0105      0.0000  0.0000  0.0000  0.0000  0.0000  0.0000  0.0000  0.0000  0.0000  0.0000
  o =  0.0358  v =  0.0000  0.0000  0.0000  0.0000  0.0000  0.0050  0.0200  0.0012 -0.0657  0.9976      0.0000  0.0000  0.0000  0.0000  0.0000  0.0000  0.0000  0.0000  0.0000  0.0000
  o =  0.0416  v =  0.0000  0.0000  0.0000  0.0000  0.0000  0.1048  0.6901  0.1783  0.6929  0.0310      0.0000  0.0000  0.0000  0.0000  0.0000  0.0000  0.0000  0.0000  0.0000  0.0000
  o =  0.0872  v =  0.0000  0.0000  0.0000  0.0000  0.0000  0.0024  0.7085 -0.0010 -0.7031 -0.0605      0.0000  0.0000  0.0000  0.0000  0.0000  0.0000  0.0000  0.0000  0.0000  0.0000
  o =  0.1039  v =  0.0000  0.0000  0.0000  0.0000  0.0000 -0.8086 -0.0126  0.5879 -0.0166  0.0025      0.0000  0.0000  0.0000  0.0000  0.0000  0.0000  0.0000  0.0000  0.0000  0.0000
  o =  0.9197  v = -0.2953 -0.6321 -0.3113 -0.6366 -0.1051  0.0000  0.0000  0.0000  0.0000  0.0000      0.0000  0.0000  0.0000  0.0000  0.0000  0.0000  0.0000  0.0000  0.0000  0.0000
  o =  0.9212  v = -0.0291 -0.1205 -0.0221 -0.0199  0.9918  0.0000  0.0000  0.0000  0.0000  0.0000      0.0000  0.0000  0.0000  0.0000  0.0000  0.0000  0.0000  0.0000  0.0000  0.0000
  o =  0.9291  v =  0.5668 -0.3040  0.7031 -0.3032 -0.0107  0.0000  0.0000  0.0000  0.0000  0.0000      0.0000  0.0000  0.0000  0.0000  0.0000  0.0000  0.0000  0.0000  0.0000  0.0000
  o =  0.9583  v = -0.7685  0.0321  0.6389  0.0129 -0.0041  0.0000  0.0000  0.0000  0.0000  0.0000      0.0000  0.0000  0.0000  0.0000  0.0000  0.0000  0.0000  0.0000  0.0000  0.0000
  o =  0.9642  v =  0.0097  0.7018 -0.0089 -0.7087  0.0711  0.0000  0.0000  0.0000  0.0000  0.0000      0.0000  0.0000  0.0000  0.0000  0.0000  0.0000  0.0000  0.0000  0.0000  0.0000
     EDDAV:  cpu time    2.0836: real time    2.0836
 BZINTS: Fermi energy:  2.784133; 54.000000 electrons
         Band energy:-743.411252;  BLOECHL correction:  0.000000
       DOS:  cpu time    0.0031: real time    0.0031
    CHARGE:  cpu time    0.0699: real time    0.0699
    MIXING:  cpu time    0.0009: real time    0.0009
    --------------------------------------------
      LOOP:  cpu time    4.2807: real time    4.2808

 eigenvalue-minimisations  :  9276
 total energy-change (2. order) : 0.3167355E-01  (-0.1051903E-01)
 number of electron      54.0000003 magnetization      -0.0000000
 augmentation part       19.9342418 magnetization       0.0000658

 Broyden mixing:
  rms(total) = 0.12502E+00    rms(broyden)= 0.12502E+00
  rms(prec ) = 0.14413E+00
  weight for this iteration     100.00

 eigenvalues of (default mixing * dielectric matrix)
  average eigenvalue GAMMA=   1.1464
  2.3879  0.7894  0.7894  0.6191

 Free energy of the ion-electron system (eV)
  ---------------------------------------------------
  alpha Z        PSCENC =       200.33313265
  Ewald energy   TEWEN  =     -4209.41809619
  -Hartree energ DENC   =     -2133.64216918
  -exchange      EXHF   =         0.00000000
  -V(xc)+E(xc)   XCENC  =       293.65813217
  PAW double counting   =      6263.44125867    -6389.38049485
  entropy T*S    EENTRO =         0.00000000
  eigenvalues    EBANDS =      -743.41125235
  atomic energy  EATOM  =      6677.64854832
  Solvation  Ediel_sol  =         0.00000000
  ---------------------------------------------------
  free energy    TOTEN  =       -40.77094076 eV

  energy without entropy =      -40.77094076  energy(sigma->0) =      -40.77094076


--------------------------------------------------------------------------------------------------------




--------------------------------------- Iteration      1(   6)  ---------------------------------------


    POTLOK:  cpu time    0.0162: real time    0.0162
    SETDIJ:  cpu time    2.1266: real time    2.1266
atom =   1  type =  1  l = 2
 
 onsite density matrix
 
spin component  1
 
  0.0641 -0.0001  0.0361 -0.0001  0.0000
 -0.0001  0.0538 -0.0002  0.0273  0.0004
  0.0361 -0.0002  0.0478 -0.0002 -0.0000
 -0.0001  0.0273 -0.0002  0.0538 -0.0004
  0.0000  0.0004 -0.0000 -0.0004  0.0191
 
spin component  2
 
  0.9586  0.0001  0.0172  0.0001 -0.0000
  0.0001  0.9538  0.0002  0.0174 -0.0004
  0.0172  0.0002  0.9453  0.0002  0.0000
  0.0001  0.0174  0.0002  0.9538  0.0004
 -0.0000 -0.0004  0.0000  0.0004  0.9391
 
 occupancies and eigenvectors
 
  o =  0.0189  v =  0.6066  0.0120 -0.7593 -0.0142 -0.2348  0.0000  0.0000  0.0000  0.0000  0.0000      0.0000  0.0000  0.0000  0.0000  0.0000  0.0000  0.0000  0.0000  0.0000  0.0000
  o =  0.0191  v = -0.1473  0.0509  0.1838 -0.0513 -0.9692  0.0000  0.0000  0.0000  0.0000  0.0000      0.0000  0.0000  0.0000  0.0000  0.0000  0.0000  0.0000  0.0000  0.0000  0.0000
  o =  0.0266  v = -0.0006  0.7052  0.0008 -0.7050  0.0746  0.0000  0.0000  0.0000  0.0000  0.0000      0.0000  0.0000  0.0000  0.0000  0.0000  0.0000  0.0000  0.0000  0.0000  0.0000
  o =  0.0811  v =  0.0189  0.7069  0.0133  0.7070 -0.0006  0.0000  0.0000  0.0000  0.0000  0.0000      0.0000  0.0000  0.0000  0.0000  0.0000  0.0000  0.0000  0.0000  0.0000  0.0000
  o =  0.0930  v = -0.7810  0.0163 -0.6241  0.0163  0.0003  0.0000  0.0000  0.0000  0.0000  0.0000      0.0000  0.0000  0.0000  0.0000  0.0000  0.0000  0.0000  0.0000  0.0000  0.0000
  o =  0.9335  v =  0.0000  0.0000  0.0000  0.0000  0.0000 -0.5648 -0.0002  0.8252 -0.0052 -0.0058      0.0000  0.0000  0.0000  0.0000  0.0000  0.0000  0.0000  0.0000  0.0000  0.0000
  o =  0.9363  v =  0.0000  0.0000  0.0000  0.0000  0.0000  0.0013  0.6936 -0.0020 -0.6938  0.1938      0.0000  0.0000  0.0000  0.0000  0.0000  0.0000  0.0000  0.0000  0.0000  0.0000
  o =  0.9392  v =  0.0000  0.0000  0.0000  0.0000  0.0000  0.0040  0.1379 -0.0049 -0.1361 -0.9810      0.0000  0.0000  0.0000  0.0000  0.0000  0.0000  0.0000  0.0000  0.0000  0.0000
  o =  0.9703  v =  0.0000  0.0000  0.0000  0.0000  0.0000 -0.7904  0.2051 -0.5396  0.2050 -0.0001      0.0000  0.0000  0.0000  0.0000  0.0000  0.0000  0.0000  0.0000  0.0000  0.0000
  o =  0.9712  v =  0.0000  0.0000  0.0000  0.0000  0.0000  0.2373  0.6767  0.1669  0.6767  0.0014      0.0000  0.0000  0.0000  0.0000  0.0000  0.0000  0.0000  0.0000  0.0000  0.0000
atom =   2  type =  1  l = 2
 
 onsite density matrix
 
spin component  1
 
  0.9584  0.0004 -0.0186  0.0004 -0.0000
  0.0004  0.9540  0.0003 -0.0164 -0.0003
 -0.0186  0.0003  0.9447  0.0002  0.0000
  0.0004 -0.0164  0.0002  0.9540  0.0004
 -0.0000 -0.0003  0.0000  0.0004  0.9389
 
spin component  2
 
  0.0642 -0.0004 -0.0346 -0.0004  0.0000
 -0.0004  0.0534 -0.0002 -0.0282  0.0003
 -0.0346 -0.0002  0.0480 -0.0002 -0.0000
 -0.0004 -0.0282 -0.0002  0.0535 -0.0003
  0.0000  0.0003 -0.0000 -0.0003  0.0192
 
 occupancies and eigenvectors
 
  o =  0.0192  v =  0.0000  0.0000  0.0000  0.0000  0.0000  0.0131 -0.0017  0.0171  0.0087  0.9997      0.0000  0.0000  0.0000  0.0000  0.0000  0.0000  0.0000  0.0000  0.0000  0.0000
  o =  0.0205  v =  0.0000  0.0000  0.0000  0.0000  0.0000 -0.6171 -0.0882 -0.7767 -0.0876  0.0220      0.0000  0.0000  0.0000  0.0000  0.0000  0.0000  0.0000  0.0000  0.0000  0.0000
  o =  0.0253  v =  0.0000  0.0000  0.0000  0.0000  0.0000  0.0736 -0.7020  0.1004 -0.7012  0.0022      0.0000  0.0000  0.0000  0.0000  0.0000  0.0000  0.0000  0.0000  0.0000  0.0000
  o =  0.0817  v =  0.0000  0.0000  0.0000  0.0000  0.0000  0.0009 -0.7066 -0.0005  0.7075 -0.0074      0.0000  0.0000  0.0000  0.0000  0.0000  0.0000  0.0000  0.0000  0.0000  0.0000
  o =  0.0916  v =  0.0000  0.0000  0.0000  0.0000  0.0000 -0.7834  0.0027  0.6216  0.0041 -0.0004      0.0000  0.0000  0.0000  0.0000  0.0000  0.0000  0.0000  0.0000  0.0000  0.0000
  o =  0.9317  v = -0.5689  0.0742 -0.8157  0.0737  0.0035  0.0000  0.0000  0.0000  0.0000  0.0000      0.0000  0.0000  0.0000  0.0000  0.0000  0.0000  0.0000  0.0000  0.0000  0.0000
  o =  0.9377  v =  0.0530  0.7022  0.0904  0.7040 -0.0197  0.0000  0.0000  0.0000  0.0000  0.0000      0.0000  0.0000  0.0000  0.0000  0.0000  0.0000  0.0000  0.0000  0.0000  0.0000
  o =  0.9389  v =  0.0037  0.0249  0.0042  0.0024  0.9997  0.0000  0.0000  0.0000  0.0000  0.0000      0.0000  0.0000  0.0000  0.0000  0.0000  0.0000  0.0000  0.0000  0.0000  0.0000
  o =  0.9703  v =  0.0075  0.7077 -0.0048 -0.7063 -0.0159  0.0000  0.0000  0.0000  0.0000  0.0000      0.0000  0.0000  0.0000  0.0000  0.0000  0.0000  0.0000  0.0000  0.0000  0.0000
  o =  0.9714  v = -0.8206  0.0005  0.5713 -0.0121  0.0007  0.0000  0.0000  0.0000  0.0000  0.0000      0.0000  0.0000  0.0000  0.0000  0.0000  0.0000  0.0000  0.0000  0.0000  0.0000
     EDDAV:  cpu time    1.7917: real time    1.7917
 BZINTS: Fermi energy:  2.966600; 54.000000 electrons
         Band energy:-742.121263;  BLOECHL correction:  0.000000
       DOS:  cpu time    0.0037: real time    0.0037
    CHARGE:  cpu time    0.0698: real time    0.0698
    MIXING:  cpu time    0.0010: real time    0.0010
    --------------------------------------------
      LOOP:  cpu time    4.0088: real time    4.0089

 eigenvalue-minimisations  :  7692
 total energy-change (2. order) : 0.2219932E-02  (-0.2306484E-02)
 number of electron      54.0000003 magnetization      -0.0000000
 augmentation part       19.9245235 magnetization      -0.0000405

 Broyden mixing:
  rms(total) = 0.35104E-01    rms(broyden)= 0.35100E-01
  rms(prec ) = 0.40351E-01
  weight for this iteration     100.00

 eigenvalues of (default mixing * dielectric matrix)
  average eigenvalue GAMMA=   1.1194
  2.3985  0.8519  0.8519  0.8639  0.6307

 Free energy of the ion-electron system (eV)
  ---------------------------------------------------
  alpha Z        PSCENC =       200.33313265
  Ewald energy   TEWEN  =     -4209.41809619
  -Hartree energ DENC   =     -2134.86296677
  -exchange      EXHF   =         0.00000000
  -V(xc)+E(xc)   XCENC  =       293.71971015
  PAW double counting   =      6261.77244671    -6387.84023270
  entropy T*S    EENTRO =         0.00000000
  eigenvalues    EBANDS =      -742.12126300
  atomic energy  EATOM  =      6677.64854832
  Solvation  Ediel_sol  =         0.00000000
  ---------------------------------------------------
  free energy    TOTEN  =       -40.76872083 eV

  energy without entropy =      -40.76872083  energy(sigma->0) =      -40.76872083


--------------------------------------------------------------------------------------------------------




--------------------------------------- Iteration      1(   7)  ---------------------------------------


    POTLOK:  cpu time    0.0156: real time    0.0156
    SETDIJ:  cpu time    2.1293: real time    2.1293
atom =   1  type =  1  l = 2
 
 onsite density matrix
 
spin component  1
 
  0.0669  0.0000  0.0350  0.0000 -0.0000
  0.0000  0.0557  0.0000  0.0275 -0.0000
  0.0350  0.0000  0.0494  0.0000  0.0000
  0.0000  0.0275  0.0000  0.0557  0.0001
 -0.0000 -0.0000  0.0000  0.0001  0.0225
 
spin component  2
 
  0.9560 -0.0000  0.0182 -0.0000  0.0000
 -0.0000  0.9520 -0.0000  0.0172  0.0001
  0.0182 -0.0000  0.9436 -0.0000 -0.0000
 -0.0000  0.0172 -0.0000  0.9520 -0.0001
  0.0000  0.0001 -0.0000 -0.0001  0.9358
 
 occupancies and eigenvectors
 
  o =  0.0221  v = -0.6158 -0.0001  0.7879 -0.0005 -0.0075  0.0000  0.0000  0.0000  0.0000  0.0000      0.0000  0.0000  0.0000  0.0000  0.0000  0.0000  0.0000  0.0000  0.0000  0.0000
  o =  0.0225  v =  0.0046 -0.0092 -0.0059  0.0094 -0.9999  0.0000  0.0000  0.0000  0.0000  0.0000      0.0000  0.0000  0.0000  0.0000  0.0000  0.0000  0.0000  0.0000  0.0000  0.0000
  o =  0.0282  v =  0.0002  0.7071 -0.0003 -0.7070 -0.0131  0.0000  0.0000  0.0000  0.0000  0.0000      0.0000  0.0000  0.0000  0.0000  0.0000  0.0000  0.0000  0.0000  0.0000  0.0000
  o =  0.0832  v =  0.0031 -0.7071  0.0019 -0.7071 -0.0001  0.0000  0.0000  0.0000  0.0000  0.0000      0.0000  0.0000  0.0000  0.0000  0.0000  0.0000  0.0000  0.0000  0.0000  0.0000
  o =  0.0943  v = -0.7879 -0.0026 -0.6158 -0.0026 -0.0000  0.0000  0.0000  0.0000  0.0000  0.0000      0.0000  0.0000  0.0000  0.0000  0.0000  0.0000  0.0000  0.0000  0.0000  0.0000
  o =  0.9306  v =  0.0000  0.0000  0.0000  0.0000  0.0000  0.5825 -0.0000 -0.8128 -0.0001 -0.0012      0.0000  0.0000  0.0000  0.0000  0.0000  0.0000  0.0000  0.0000  0.0000  0.0000
  o =  0.9348  v =  0.0000  0.0000  0.0000  0.0000  0.0000  0.0001 -0.7045 -0.0002  0.7045  0.0857      0.0000  0.0000  0.0000  0.0000  0.0000  0.0000  0.0000  0.0000  0.0000  0.0000
  o =  0.9358  v =  0.0000  0.0000  0.0000  0.0000  0.0000  0.0008  0.0607 -0.0009 -0.0605  0.9963      0.0000  0.0000  0.0000  0.0000  0.0000  0.0000  0.0000  0.0000  0.0000  0.0000
  o =  0.9691  v =  0.0000  0.0000  0.0000  0.0000  0.0000 -0.7611 -0.2481 -0.5454 -0.2482  0.0002      0.0000  0.0000  0.0000  0.0000  0.0000  0.0000  0.0000  0.0000  0.0000  0.0000
  o =  0.9692  v =  0.0000  0.0000  0.0000  0.0000  0.0000  0.2852 -0.6621  0.2045 -0.6622  0.0001      0.0000  0.0000  0.0000  0.0000  0.0000  0.0000  0.0000  0.0000  0.0000  0.0000
atom =   2  type =  1  l = 2
 
 onsite density matrix
 
spin component  1
 
  0.9560 -0.0001 -0.0179 -0.0001  0.0000
 -0.0001  0.9519 -0.0000 -0.0174  0.0001
 -0.0179 -0.0000  0.9436 -0.0000 -0.0000
 -0.0001 -0.0174 -0.0000  0.9519 -0.0001
  0.0000  0.0001 -0.0000 -0.0001  0.9358
 
spin component  2
 
  0.0668  0.0001 -0.0352  0.0001 -0.0000
  0.0001  0.0557  0.0001 -0.0273 -0.0001
 -0.0352  0.0001  0.0493  0.0001  0.0000
  0.0001 -0.0273  0.0001  0.0557  0.0001
 -0.0000 -0.0001  0.0000  0.0001  0.0225
 
 occupancies and eigenvectors
 
  o =  0.0218  v =  0.0000  0.0000  0.0000  0.0000  0.0000 -0.6157  0.0124 -0.7878  0.0124  0.0054      0.0000  0.0000  0.0000  0.0000  0.0000  0.0000  0.0000  0.0000  0.0000  0.0000
  o =  0.0225  v =  0.0000  0.0000  0.0000  0.0000  0.0000  0.0034  0.0007  0.0042 -0.0019  1.0000      0.0000  0.0000  0.0000  0.0000  0.0000  0.0000  0.0000  0.0000  0.0000  0.0000
  o =  0.0284  v =  0.0000  0.0000  0.0000  0.0000  0.0000  0.0107  0.7069  0.0139  0.7070  0.0008      0.0000  0.0000  0.0000  0.0000  0.0000  0.0000  0.0000  0.0000  0.0000  0.0000
[...]
     18      -2.6515      1.00000
     19      -2.0212      1.00000
     20      -1.8582      1.00000
     21      -1.6713      1.00000
     22      -1.5596      1.00000
     23       1.3710      1.00000
     24       1.4194      1.00000
     25       1.5861      1.00000
     26       2.2802      1.00000
     27       2.7868      1.00000
     28       5.6200      0.00000
     29       5.6486      0.00000
     30       5.8124      0.00000
     31       6.4873      0.00000
     32       6.9806      0.00000
     33       9.2819      0.00000
     34      10.7538      0.00000
     35      11.2856      0.00000
     36      12.4933      0.00000

 k-point    48 :      -0.1250   -0.1250    0.4167
  band No.  band energies     occupation 
      1     -46.4605      1.00000
      2     -46.4158      1.00000
      3     -46.3975      1.00000
      4     -41.6075      1.00000
      5     -41.5823      1.00000
      6     -41.5536      1.00000
      7     -20.8417      1.00000
      8     -20.6999      1.00000
      9     -20.6531      1.00000
     10     -20.5779      1.00000
     11      -4.0417      1.00000
     12      -3.7504      1.00000
     13      -3.5929      1.00000
     14      -3.3927      1.00000
     15      -3.2098      1.00000
     16      -3.0263      1.00000
     17      -2.6526      1.00000
     18      -2.5149      1.00000
     19      -2.2897      1.00000
     20      -1.8657      1.00000
     21      -1.7941      1.00000
     22      -1.7150      1.00000
     23       1.4047      1.00000
     24       1.4304      1.00000
     25       1.6538      1.00000
     26       2.3325      1.00000
     27       2.6663      1.00000
     28       5.6366      0.00000
     29       5.6596      0.00000
     30       5.7763      0.00000
     31       6.5081      0.00000
     32       6.8052      0.00000
     33       8.6668      0.00000
     34      10.8835      0.00000
     35      12.2756      0.00000
     36      12.7803      0.00000


--------------------------------------------------------------------------------------------------------


 soft charge-density along one line, spin component           1
         0         1         2         3         4         5         6         7         8         9
 total charge-density along one line
 
 soft charge-density along one line, spin component           2
         0         1         2         3         4         5         6         7         8         9
 total charge-density along one line
 
 pseudopotential strength for first ion, spin component:           1
-42.395   0.000  -0.031   7.820  -0.000   0.014   0.000   0.000
  0.000 -42.370   0.000  -0.000   7.809  -0.000   0.000   0.000
 -0.031   0.000 -42.395   0.014  -0.000   7.820  -0.000   0.000
  7.820  -0.000   0.014   5.262   0.000  -0.002  -0.000  -0.000
 -0.000   7.809  -0.000   0.000   5.265   0.000  -0.000  -0.000
  0.014  -0.000   7.820  -0.002   0.000   5.262   0.000  -0.000
  0.000   0.000  -0.000  -0.000  -0.000   0.000  -2.977   0.000
  0.000   0.000   0.000  -0.000  -0.000  -0.000   0.000  -2.962
  0.000   0.000  -0.000  -0.000  -0.000   0.000   0.021   0.000
  0.000  -0.000  -0.000  -0.000   0.000   0.000   0.000  -0.011
 -0.000  -0.000  -0.000   0.000   0.000   0.000   0.000  -0.000
  0.000   0.000  -0.000  -0.000  -0.000   0.000  -3.467   0.000
  0.000   0.000   0.000  -0.000  -0.000  -0.000   0.000  -3.453
  0.000   0.000  -0.000  -0.000  -0.000   0.000   0.020   0.000
  0.000  -0.000  -0.000  -0.000   0.000   0.000   0.000  -0.011
 -0.000  -0.000  -0.000   0.000   0.000   0.000   0.000  -0.000
 -0.000  -0.000  -0.000   0.000   0.000  -0.000   0.008  -0.000
 -0.000  -0.000  -0.000   0.000   0.000  -0.000   0.015  -0.000
 pseudopotential strength for first ion, spin component:           2
-45.652   0.000  -0.024   9.315  -0.000   0.008  -0.000   0.000
  0.000 -45.631   0.000  -0.000   9.308  -0.000  -0.000  -0.000
 -0.024   0.000 -45.652   0.008  -0.000   9.315   0.000  -0.000
  9.315  -0.000   0.008   4.762  -0.000  -0.001   0.000  -0.000
 -0.000   9.308  -0.000  -0.000   4.763  -0.000   0.000   0.000
  0.008  -0.000   9.315  -0.001  -0.000   4.762  -0.000   0.000
 -0.000  -0.000   0.000   0.000   0.000  -0.000  -5.939   0.000
  0.000  -0.000  -0.000  -0.000   0.000   0.000   0.000  -5.933
 -0.000   0.000   0.000   0.000  -0.000  -0.000   0.028   0.000
 -0.000   0.000   0.000   0.000  -0.000  -0.000   0.000  -0.004
  0.000   0.000   0.000  -0.000  -0.000  -0.000  -0.000  -0.000
 -0.000  -0.000   0.000   0.000   0.000  -0.000  -6.389   0.000
  0.000  -0.000  -0.000  -0.000   0.000   0.000   0.000  -6.382
 -0.000   0.000   0.000   0.000  -0.000  -0.000   0.028   0.000
 -0.000   0.000   0.000   0.000  -0.000  -0.000   0.000  -0.004
  0.000   0.000   0.000  -0.000  -0.000  -0.000  -0.000  -0.000
  0.000  -0.000  -0.000  -0.000   0.000  -0.000   0.004  -0.000
  0.000  -0.000  -0.000  -0.000   0.000  -0.000   0.006  -0.000
 total augmentation occupancy for first ion, spin component:           1
  1.998  -0.000   0.000  -0.014  -0.000   0.000  -0.000   0.000  -0.000  -0.000   0.000   0.000  -0.000   0.000   0.000  -0.000
 -0.000   1.998  -0.000  -0.000  -0.014  -0.000   0.000  -0.000   0.000   0.000   0.000  -0.000   0.000  -0.000  -0.000  -0.000
  0.000  -0.000   1.998   0.000  -0.000  -0.014   0.000  -0.000   0.000   0.000   0.000  -0.000   0.000  -0.000  -0.000  -0.000
 -0.014  -0.000   0.000   0.089  -0.000  -0.010  -0.000   0.000  -0.000  -0.000  -0.000   0.000  -0.000   0.000   0.000   0.000
 -0.000  -0.014  -0.000  -0.000   0.099  -0.000  -0.000  -0.000   0.000   0.000   0.000   0.000   0.000  -0.000  -0.000  -0.000
  0.000  -0.000  -0.014  -0.010  -0.000   0.089  -0.000   0.000   0.000  -0.000  -0.000  -0.000  -0.000  -0.000   0.000   0.000
 -0.000   0.000   0.000  -0.000  -0.000  -0.000   7.535   0.000   2.888   0.000  -0.000  -5.666  -0.000  -2.744  -0.000   0.000
  0.000  -0.000  -0.000   0.000  -0.000   0.000   0.000   6.311  -0.000   2.477   0.000  -0.000  -4.486   0.000  -2.336  -0.000
 -0.000   0.000   0.000  -0.000   0.000   0.000   2.888  -0.000   5.685  -0.000   0.000  -2.745   0.000  -3.929   0.000  -0.000
 -0.000   0.000   0.000  -0.000   0.000  -0.000   0.000   2.477  -0.000   6.311  -0.000  -0.000  -2.336   0.000  -4.486   0.000
  0.000   0.000   0.000  -0.000   0.000  -0.000  -0.000   0.000   0.000  -0.000   3.750   0.000  -0.000  -0.000   0.000  -2.042
  0.000  -0.000  -0.000   0.000   0.000  -0.000  -5.666  -0.000  -2.745  -0.000   0.000   4.967   0.000   2.648  -0.000  -0.000
 -0.000   0.000   0.000  -0.000   0.000  -0.000  -0.000  -4.486   0.000  -2.336  -0.000   0.000   3.820  -0.000   2.235   0.000
  0.000  -0.000  -0.000   0.000  -0.000  -0.000  -2.744   0.000  -3.929   0.000  -0.000   2.648  -0.000   3.317  -0.000   0.000
  0.000  -0.000  -0.000   0.000  -0.000   0.000  -0.000  -2.336   0.000  -4.486   0.000  -0.000   2.235  -0.000   3.820  -0.000
 -0.000  -0.000  -0.000   0.000  -0.000   0.000   0.000  -0.000  -0.000   0.000  -2.042  -0.000   0.000   0.000  -0.000   1.451
  0.000  -0.000  -0.000  -0.000   0.000   0.000   0.241   0.000  -0.173   0.000  -0.000  -0.285  -0.000   0.192  -0.000   0.000
 -0.000   0.000   0.000   0.000  -0.000   0.000   0.008  -0.000   0.012  -0.000   0.000   0.026   0.000  -0.028   0.000  -0.000
 total augmentation occupancy for first ion, spin component:           2
  0.003   0.000  -0.000   0.011   0.000  -0.001  -0.000   0.000  -0.000  -0.000   0.000   0.000  -0.000   0.000   0.000  -0.000
  0.000   0.003   0.000   0.000   0.012   0.000  -0.000  -0.000   0.000   0.000   0.000  -0.000   0.000  -0.000  -0.000  -0.000
 -0.000   0.000   0.003  -0.001   0.000   0.011   0.000  -0.000   0.000   0.000   0.000  -0.000   0.000  -0.000  -0.000  -0.000
  0.011   0.000  -0.001  -0.010   0.000  -0.001  -0.000   0.000  -0.000  -0.000  -0.000   0.000  -0.000   0.000   0.000   0.000
  0.000   0.012   0.000   0.000  -0.009   0.000   0.000  -0.000   0.000   0.000   0.000  -0.000   0.000  -0.000  -0.000  -0.000
 -0.001   0.000   0.011  -0.001   0.000  -0.010   0.000   0.000   0.000  -0.000  -0.000  -0.000  -0.000  -0.000   0.000   0.000
 -0.000  -0.000   0.000  -0.000   0.000   0.000  -5.008   0.000  -1.468   0.000   0.000   2.703  -0.000   1.092  -0.000  -0.000
  0.000  -0.000  -0.000   0.000  -0.000   0.000   0.000  -4.418   0.000  -1.302  -0.000  -0.000   2.243  -0.000   0.969   0.000
 -0.000   0.000   0.000  -0.000   0.000   0.000  -1.468   0.000  -3.979   0.000  -0.000   1.092  -0.000   1.924  -0.000   0.000
 -0.000   0.000   0.000  -0.000   0.000  -0.000   0.000  -1.302   0.000  -4.418   0.000  -0.000   0.969  -0.000   2.243  -0.000
  0.000   0.000   0.000  -0.000   0.000  -0.000   0.000  -0.000  -0.000   0.000  -3.142  -0.000   0.000   0.000  -0.000   1.297
  0.000  -0.000  -0.000   0.000  -0.000  -0.000   2.703  -0.000   1.092  -0.000  -0.000  -1.475   0.000  -0.713   0.000   0.000
 -0.000   0.000   0.000  -0.000   0.000  -0.000  -0.000   2.243  -0.000   0.969   0.000   0.000  -1.148   0.000  -0.639  -0.000
  0.000  -0.000  -0.000   0.000  -0.000  -0.000   1.092  -0.000   1.924  -0.000   0.000  -0.713   0.000  -0.941   0.000  -0.000
  0.000  -0.000  -0.000   0.000  -0.000   0.000  -0.000   0.969  -0.000   2.243  -0.000   0.000  -0.639   0.000  -1.148   0.000
 -0.000  -0.000  -0.000   0.000  -0.000   0.000  -0.000   0.000   0.000  -0.000   1.297   0.000  -0.000  -0.000   0.000  -0.534
 -0.000  -0.000   0.000  -0.000   0.000   0.000   0.038  -0.000  -0.008  -0.000   0.000  -0.046   0.000   0.022   0.000  -0.000
  0.000   0.000  -0.000  -0.000   0.000  -0.000  -0.066   0.000   0.022   0.000  -0.000   0.040  -0.000  -0.011  -0.000   0.000


------------------------ aborting loop because EDIFF is reached ----------------------------------------


 


 total charge     
 
# of ion       s       p       d       tot
------------------------------------------
    1        0.169   6.155   4.969  11.293
    2        0.169   6.155   4.969  11.293
    3        1.728   4.354   0.000   6.082
    4        1.728   4.354   0.000   6.082
    5        1.728   4.354   0.000   6.082
    6        1.728   4.354   0.000   6.082
--------------------------------------------------
tot          7.251  29.726   9.937  46.914
 


 magnetization (x)
 
# of ion       s       p       d       tot
------------------------------------------
    1       -0.017  -0.017  -4.483  -4.516
    2        0.017   0.017   4.483   4.516
    3        0.003   0.024   0.000   0.027
    4        0.003   0.024   0.000   0.027
    5       -0.003  -0.024   0.000  -0.027
    6       -0.003  -0.024   0.000  -0.027
--------------------------------------------------
tot         -0.000  -0.000  -0.000  -0.000
 
    CHARGE:  cpu time    0.0684: real time    0.0684
    FORLOC:  cpu time    0.0011: real time    0.0011
    FORNL :  cpu time    0.5396: real time    0.5396
    STRESS:  cpu time    1.5009: real time    1.5009
    FORCOR:  cpu time    0.0152: real time    0.0152
    FORHAR:  cpu time    0.0021: real time    0.0021
    MIXING:  cpu time    0.0009: real time    0.0009
    OFIELD:  cpu time    0.0000: real time    0.0000

  FORCE on cell =-STRESS in cart. coord.  units (eV):
  Direction    XX          YY          ZZ          XY          YZ          ZX
  --------------------------------------------------------------------------------------
  Alpha Z   200.33313   200.33313   200.33313
  Ewald   -1585.00690 -1585.00690 -1039.40772     0.00000    -0.00000    -0.00000
  Hartree   588.76227   588.76227   958.77119     0.00009    -0.00002    -0.00002
  E(xc)    -313.75449  -313.75449  -313.55250    -0.00000    -0.00000    -0.00000
  Local     161.70729   161.70730  -747.41475    -0.00010     0.00004     0.00004
  n-local  -242.03500  -242.03500  -241.32715    -0.00003    -0.00001    -0.00001
  augment   265.35508   265.35509   264.95447     0.00007     0.00005     0.00006
  Kinetic   924.65649   924.65649   917.64796     0.00004     0.00002     0.00002
  Fock        0.00000     0.00000     0.00000     0.00000     0.00000     0.00000
  -------------------------------------------------------------------------------------
  Total       0.01787     0.01788     0.00464     0.00008     0.00008     0.00008
  in kB       0.37145     0.37168     0.09641     0.00171     0.00163     0.00167
  external pressure =        0.28 kB  Pullay stress =        0.00 kB


 VOLUME and BASIS-vectors are now :
 -----------------------------------------------------------------------------
  energy-cutoff  :      600.00
  volume of cell :       77.06
      direct lattice vectors                 reciprocal lattice vectors
     4.850570562  0.000000000  0.000000000     0.206161314  0.000000000  0.000000000
     0.000000000  4.850570562  0.000000000     0.000000000  0.206161314  0.000000000
     0.000000000  0.000000000  3.275202538     0.000000000  0.000000000  0.305324629

  length of vectors
     4.850570562  4.850570562  3.275202538     0.206161314  0.206161314  0.305324629


 FORCES acting on ions
    electron-ion (+dipol)            ewald-force                    non-local-force                 convergence-correction
 -----------------------------------------------------------------------------------------------
   0.121E-09 -.433E-09 -.946E-10   0.000E+00 0.568E-13 0.103E-14   0.224E-08 0.233E-08 -.332E-10   -.665E-11 0.446E-09 0.228E-09
   0.157E-10 0.368E-10 -.107E-10   -.568E-13 -.568E-13 0.191E-14   -.240E-08 0.163E-09 -.108E-08   -.130E-10 -.614E-10 0.122E-10
   -.318E+02 0.318E+02 -.110E-05   0.330E+02 -.330E+02 -.191E-15   -.117E+01 0.117E+01 -.302E-07   -.436E-04 0.527E-04 0.138E-05
   0.318E+02 -.318E+02 0.110E-05   -.330E+02 0.330E+02 -.476E-15   0.117E+01 -.117E+01 0.305E-07   0.436E-04 -.527E-04 -.138E-05
   0.318E+02 0.318E+02 -.189E-04   -.330E+02 -.330E+02 -.578E-14   0.117E+01 0.117E+01 -.111E-04   -.684E-04 -.824E-04 0.273E-04
   -.318E+02 -.318E+02 0.189E-04   0.330E+02 0.330E+02 -.639E-14   -.117E+01 -.117E+01 0.111E-04   0.684E-04 0.824E-04 -.273E-04
 -----------------------------------------------------------------------------------------------
   0.479E-09 -.577E-09 -.101E-09   0.000E+00 -.711E-14 -.990E-14   -.533E-09 0.316E-08 -.808E-09   -.506E-09 0.703E-09 0.260E-09
 
 
 POSITION                                       TOTAL-FORCE (eV/Angst)
 -----------------------------------------------------------------------------------
      2.42529      2.42529      1.63760         0.000000      0.000000      0.000000
      0.00000      0.00000      0.00000        -0.000000     -0.000000     -0.000000
      0.95496      3.89561      1.63760         0.000533     -0.000534      0.000000
      3.89561      0.95496      1.63760        -0.000533      0.000534     -0.000000
      1.47033      1.47033      0.00000        -0.000526     -0.000526     -0.000003
      3.38024      3.38024      0.00000         0.000526      0.000526      0.000003
 -----------------------------------------------------------------------------------
    total drift:                               -0.000000      0.000000     -0.000000


--------------------------------------------------------------------------------------------------------



  FREE ENERGIE OF THE ION-ELECTRON SYSTEM (eV)
  ---------------------------------------------------
  free  energy   TOTEN  =       -40.76844487 eV

  energy  without entropy=      -40.76844487  energy(sigma->0) =      -40.76844487
 


--------------------------------------------------------------------------------------------------------


    POTLOK:  cpu time    4.2787: real time    4.2788

 Total magnetic moment S=     1.0000000

 Fermi contact (isotropic) hyperfine coupling parameter (MHz) 
 -------------------------------------------------------------
  ion      A_pw      A_1PS     A_1AE     A_1c      A_tot
 -------------------------------------------------------------
   1   -1254.356 -1254.282  -366.279  1179.224  -366.352
   2    1254.356  1254.282   366.280 -1179.225   366.353
   3      50.903    50.738   293.923   -37.150   294.088
   4      50.903    50.738   293.923   -37.150   294.088
   5     -50.902   -50.737  -293.904    37.150  -294.069
   6     -50.902   -50.737  -293.904    37.150  -294.069
 -------------------------------------------------------------


 Dipolar hyperfine coupling parameters (MHz)
 ---------------------------------------------------------------------
  ion      A_xx      A_yy      A_zz      A_xy      A_xz      A_yz
 ---------------------------------------------------------------------
   1       5.687     5.688   -11.375     1.078     0.002     0.002
   2      -5.688    -5.688    11.376     1.077    -0.001    -0.001
   3     -61.392   -61.392   122.784     7.946    -0.000    -0.000
   4     -61.392   -61.392   122.784     7.946    -0.000    -0.000
   5      61.392    61.392  -122.784     7.946     0.000     0.000
   6      61.392    61.392  -122.784     7.946     0.000     0.000
 ---------------------------------------------------------------------


 Total hyperfine coupling parameters after diagonalization (MHz)
 (convention: |A_zz| > |A_xx| > |A_yy|)
 ----------------------------------------------------------------------
  ion      A_xx      A_yy      A_zz     asymmetry (A_yy - A_xx)/ A_zz 
 ----------------------------------------------------------------------
   1    -361.743  -359.586  -377.727      -0.006
   2     361.742   359.589   377.729      -0.006
   3     240.642   224.750   416.872      -0.038
   4     240.642   224.750   416.872      -0.038
   5    -240.622  -224.731  -416.853      -0.038
   6    -240.622  -224.731  -416.853      -0.038
 ---------------------------------------------------------------------



--------------------------------------------------------------------------------------------------------


 writing wavefunctions
     LOOP+:  cpu time   65.2277: real time   65.2496
    4ORBIT:  cpu time    0.0000: real time    0.0000
 


 total charge     
 
# of ion       s       p       d       tot
------------------------------------------
    1        0.169   6.155   4.969  11.293
    2        0.169   6.155   4.969  11.293
    3        1.728   4.354   0.000   6.082
    4        1.728   4.354   0.000   6.082
    5        1.728   4.354   0.000   6.082
    6        1.728   4.354   0.000   6.082
--------------------------------------------------
tot          7.251  29.726   9.937  46.914
 


 magnetization (x)
 
# of ion       s       p       d       tot
------------------------------------------
    1       -0.017  -0.017  -4.483  -4.516
    2        0.017   0.017   4.483   4.516
    3        0.003   0.024   0.000   0.027
    4        0.003   0.024   0.000   0.027
    5       -0.003  -0.024   0.000  -0.027
    6       -0.003  -0.024   0.000  -0.027
--------------------------------------------------
tot         -0.000  -0.000  -0.000  -0.000
 
 BZINTS: Fermi energy:  2.984222; 54.000000 electrons
         Band energy:-740.735456;  BLOECHL correction:  0.000000

 total amount of memory used by VASP MPI-rank0    82883. kBytes
=======================================================================

   base      :      30000. kBytes
   nonl-proj :      36080. kBytes
   fftplans  :       1875. kBytes
   grid      :       2467. kBytes
   one-center:        186. kBytes
   wavefun   :      12275. kBytes
 
  
  
 General timing and accounting informations for this job:
 ========================================================
  
                  Total CPU time used (sec):       67.285
                            User time (sec):       46.301
                          System time (sec):       20.984
                         Elapsed time (sec):       67.359
  
                   Maximum memory used (kb):       94392.
                   Average memory used (kb):           0.
  
                          Minor page faults:        19499
                          Major page faults:            9
                 Voluntary context switches:          301
