       N       E                     dE             d eps       ncg     rms          rms(c)
DAV:   1     0.627415688692E+03    0.62742E+03   -0.31216E+04  1296   0.166E+03
DAV:   2     0.417706920422E+01   -0.62324E+03   -0.60573E+03  1512   0.478E+02
DAV:   3    -0.395327986116E+02   -0.43710E+02   -0.43565E+02  1536   0.142E+02
DAV:   4    -0.400937173567E+02   -0.56092E+00   -0.56084E+00  1464   0.176E+01
DAV:   5    -0.401028738161E+02   -0.91565E-02   -0.91564E-02  1524   0.216E+00    0.225E+01
DAV:   6    -0.381988210960E+02    0.19041E+01   -0.15598E+01  1596   0.315E+01    0.143E+01
DAV:   7    -0.389277175890E+02   -0.72890E+00   -0.18219E+00  1536   0.106E+01    0.113E+01
DAV:   8    -0.389906152047E+02   -0.62898E-01   -0.41523E-01  1476   0.543E+00    0.522E+00
DAV:   9    -0.391519043505E+02   -0.16129E+00   -0.47724E-02  1332   0.215E+00    0.129E+00
DAV:  10    -0.391529551656E+02   -0.10508E-02   -0.19689E-02  1584   0.124E+00    0.282E-01
DAV:  11    -0.391531957009E+02   -0.24054E-03   -0.28019E-03  1368   0.347E-01    0.131E-01
DAV:  12    -0.391533491700E+02   -0.15347E-03   -0.10260E-04  1560   0.121E-01    0.534E-02
DAV:  13    -0.391534034588E+02   -0.54289E-04   -0.85789E-05  1368   0.535E-02    0.210E-02
DAV:  14    -0.391534133898E+02   -0.99309E-05   -0.84273E-06  1524   0.208E-02    0.883E-03
DAV:  15    -0.391534132005E+02    0.18923E-06   -0.13320E-06  1416   0.706E-03    0.260E-03
DAV:  16    -0.391534134506E+02   -0.25004E-06   -0.20891E-07  1440   0.266E-03    0.170E-03
DAV:  17    -0.391534134125E+02    0.38030E-07   -0.17216E-08   912   0.105E-03
   1 F= -.39153413E+02 E0= -.39153413E+02  d E =-.391534E+02  mag=    -0.0000
       N       E                     dE             d eps       ncg     rms          rms(c)
DAV:   1    -0.391550915085E+02   -0.16781E-02   -0.34366E-02  1296   0.167E+00    0.353E-01
DAV:   2    -0.391535108992E+02    0.15806E-02   -0.48515E-03  1296   0.491E-01    0.199E-01
DAV:   3    -0.391534796344E+02    0.31265E-04   -0.41031E-04  1332   0.219E-01    0.784E-02
DAV:   4    -0.391534594121E+02    0.20222E-04   -0.36031E-05  1572   0.489E-02    0.525E-02
DAV:   5    -0.391534527545E+02    0.66576E-05   -0.80268E-06  1536   0.229E-02    0.183E-02
DAV:   6    -0.391534530182E+02   -0.26361E-06   -0.70287E-07  1572   0.928E-03    0.194E-03
DAV:   7    -0.391534531130E+02   -0.94864E-07   -0.11553E-07   948   0.257E-03
   2 F= -.39153453E+02 E0= -.39153453E+02  d E =-.397005E-04  mag=    -0.0000
       N       E                     dE             d eps       ncg     rms          rms(c)
DAV:   1    -0.391535077371E+02   -0.54719E-04   -0.10991E-03  1296   0.299E-01    0.631E-02
DAV:   2    -0.391534574788E+02    0.50258E-04   -0.15363E-04  1296   0.879E-02    0.358E-02
DAV:   3    -0.391534564305E+02    0.10483E-05   -0.13111E-05  1332   0.392E-02    0.140E-02
DAV:   4    -0.391534557761E+02    0.65447E-06   -0.11609E-06  1584   0.880E-03    0.938E-03
DAV:   5    -0.391534553388E+02    0.43722E-06   -0.24953E-07  1392   0.408E-03    0.326E-03
DAV:   6    -0.391534554100E+02   -0.71195E-07   -0.20089E-08   648   0.172E-03
   3 F= -.39153455E+02 E0= -.39153455E+02  d E =-.419975E-04  mag=    -0.0000
