 vasp.5.4.4.18Apr17-6-g9f103f2a35 (build Apr 27 2017 11:13:10) complex          
  
 executed on           IFC91_ompi date 2020.05.13  11:20:16
 running on   12 total cores
 distrk:  each k-point on   12 cores,    1 groups
 distr:  one band on NCORES_PER_BAND=   1 cores,   12 groups


--------------------------------------------------------------------------------------------------------


 INCAR:
 POTCAR:    PAW_PBE Mn_pv 02Aug2007               
 POTCAR:    PAW_PBE F 08Apr2002                   

 ----------------------------------------------------------------------------- 
|                                                                             |
|           W    W    AA    RRRRR   N    N  II  N    N   GGGG   !!!           |
|           W    W   A  A   R    R  NN   N  II  NN   N  G    G  !!!           |
|           W    W  A    A  R    R  N N  N  II  N N  N  G       !!!           |
|           W WW W  AAAAAA  RRRRR   N  N N  II  N  N N  G  GGG   !            |
|           WW  WW  A    A  R   R   N   NN  II  N   NN  G    G                |
|           W    W  A    A  R    R  N    N  II  N    N   GGGG   !!!           |
|                                                                             |
|      For optimal performance we recommend to set                            |
|        NCORE= 4 - approx SQRT( number of cores)                             |
|      NCORE specifies how many cores store one orbital (NPAR=cpu/NCORE).     |
|      This setting can  greatly improve the performance of VASP for DFT.     |
|      The default,   NCORE=1            might be grossly inefficient         |
|      on modern multi-core architectures or massively parallel machines.     |
|      Do your own testing !!!!                                               |
|      Unfortunately you need to use the default for GW and RPA calculations. |
|      (for HF NCORE is supported but not extensively tested yet)             |
|                                                                             |
 ----------------------------------------------------------------------------- 

 POTCAR:    PAW_PBE Mn_pv 02Aug2007               
   VRHFIN =Mn: 3p4s3d                                                           
   LEXCH  = PE                                                                  
   EATOM  =  2025.2664 eV,  148.8529 Ry                                         
                                                                                
   TITEL  = PAW_PBE Mn_pv 02Aug2007                                             
   LULTRA =        F    use ultrasoft PP ?                                      
   IUNSCR =        1    unscreen: 0-lin 1-nonlin 2-no                           
   RPACOR =    2.080    partial core radius                                     
   POMASS =   54.938; ZVAL   =   13.000    mass and valenz                      
   RCORE  =    2.300    outmost cutoff radius                                   
   RWIGS  =    2.500; RWIGS  =    1.323    wigner-seitz radius (au A)           
   ENMAX  =  269.864; ENMIN  =  202.398 eV                                      
   ICORE  =        3    local potential                                         
   LCOR   =        T    correct aug charges                                     
   LPAW   =        T    paw PP                                                  
   EAUG   =  569.085                                                            
   DEXC   =    0.000                                                            
   RMAX   =    2.343    core radius for proj-oper                               
   RAUG   =    1.300    factor for augmentation sphere                          
   RDEP   =    2.338    radius for radial grids                                 
   RDEPT  =    1.798    core radius for aug-charge                              
                                                                                
   Atomic configuration                                                         
    8 entries                                                                   
     n  l   j            E        occ.                                          
     1  0  0.50     -6424.8287   2.0000                                         
     2  0  0.50      -739.1154   2.0000                                         
     2  1  1.50      -625.3949   6.0000                                         
     3  0  0.50       -81.6100   2.0000                                         
     3  1  1.50       -50.4667   6.0000                                         
     3  2  2.50        -3.3745   6.0000                                         
     4  0  0.50        -4.1331   1.0000                                         
     4  3  2.50        -1.3606   0.0000                                         
   Description                                                                  
     l       E           TYP  RCUT    TYP  RCUT                                 
     1    -50.4666628     23  2.000                                             
     1     -1.3605826     23  2.000                                             
     2     -3.3744729     23  2.300                                             
     2     -4.7350555     23  2.300                                             
     0     -4.1331431     23  2.300                                             
     0      7.6656591     23  2.300                                             
     3      9.5240782     23  2.300                                             
  local pseudopotential read in
  partial core-charges read in
  partial kinetic energy density read in
  atomic valenz-charges read in
  non local Contribution for L=           1  read in
    real space projection operators read in
  non local Contribution for L=           1  read in
    real space projection operators read in
  non local Contribution for L=           2  read in
    real space projection operators read in
  non local Contribution for L=           2  read in
    real space projection operators read in
  non local Contribution for L=           0  read in
    real space projection operators read in
  non local Contribution for L=           0  read in
    real space projection operators read in
    PAW grid and wavefunctions read in
 
   number of l-projection  operators is LMAX  =           6
   number of lm-projection operators is LMMAX =          18
 
 POTCAR:    PAW_PBE F 08Apr2002                   
   VRHFIN =F: s2p5                                                              
   LEXCH  = PE                                                                  
   EATOM  =   659.6475 eV,   48.4827 Ry                                         
                                                                                
   TITEL  = PAW_PBE F 08Apr2002                                                 
   LULTRA =        F    use ultrasoft PP ?                                      
   IUNSCR =        1    unscreen: 0-lin 1-nonlin 2-no                           
   RPACOR =    1.200    partial core radius                                     
   POMASS =   18.998; ZVAL   =    7.000    mass and valenz                      
   RCORE  =    1.520    outmost cutoff radius                                   
   RWIGS  =    1.500; RWIGS  =    0.794    wigner-seitz radius (au A)           
   ENMAX  =  400.000; ENMIN  =  300.000 eV                                      
   ICORE  =        2    local potential                                         
   LCOR   =        T    correct aug charges                                     
   LPAW   =        T    paw PP                                                  
   EAUG   =  613.614                                                            
   RMAX   =    1.555    core radius for proj-oper                               
   RAUG   =    1.300    factor for augmentation sphere                          
   RDEP   =    1.539    radius for radial grids                                 
   RDEPT  =    1.299    core radius for aug-charge                              
                                                                                
   Atomic configuration                                                         
    4 entries                                                                   
     n  l   j            E        occ.                                          
     1  0  0.50      -663.3661   2.0000                                         
     2  0  0.50       -29.8995   2.0000                                         
     2  1  0.50       -11.1114   5.0000                                         
     3  2  1.50       -10.8847   0.0000                                         
   Description                                                                  
     l       E           TYP  RCUT    TYP  RCUT                                 
     0    -29.8995018     23  1.200                                             
     0     -9.5240782     23  1.200                                             
     1    -11.1113914     23  1.520                                             
     1      1.3605826     23  1.520                                             
     2    -10.8846608      7  1.500                                             
  local pseudopotential read in
  partial core-charges read in
  partial kinetic energy density read in
  atomic valenz-charges read in
  non local Contribution for L=           0  read in
    real space projection operators read in
  non local Contribution for L=           0  read in
    real space projection operators read in
  non local Contribution for L=           1  read in
    real space projection operators read in
  non local Contribution for L=           1  read in
    real space projection operators read in
    PAW grid and wavefunctions read in
 
   number of l-projection  operators is LMAX  =           4
   number of lm-projection operators is LMMAX =           8
 

 ----------------------------------------------------------------------------- 
|                                                                             |
|  ADVICE TO THIS USER RUNNING 'VASP/VAMP'   (HEAR YOUR MASTER'S VOICE ...):  |
|                                                                             |
|      You enforced a specific xc-type in the INCAR file,                     |
|      a different type was found on the POTCAR file                          |
|          I HOPE YOU KNOW, WHAT YOU ARE  DOING                               |
|                                                                             |
 ----------------------------------------------------------------------------- 

  PAW_PBE Mn_pv 02Aug2007               :
 energy of atom  1       EATOM=-2025.2664
 kinetic energy error for atom=    0.0062 (will be added to EATOM!!)
  PAW_PBE F 08Apr2002                   :
 energy of atom  2       EATOM= -659.6475
 kinetic energy error for atom=    0.0354 (will be added to EATOM!!)
 
 
 POSCAR: Mn  F                                   
  positions in cartesian coordinates
  No initial velocities read in
 exchange correlation table for  LEXCH =       14
   RHO(1)=    0.500       N(1)  =     2000
   RHO(2)=  100.500       N(2)  =     4000
 


--------------------------------------------------------------------------------------------------------


 ion  position               nearest neighbor table
   1  0.500  0.500  0.500-   3 2.10   4 2.10   5 2.13   6 2.13   5 2.13   6 2.13
   2  0.000  0.000  0.000-   5 2.10   6 2.10   3 2.13   4 2.13   3 2.13   4 2.13
   3  0.195  0.805  0.500-   1 2.10   2 2.13   2 2.13
   4  0.805  0.195  0.500-   1 2.10   2 2.13   2 2.13
   5  0.305  0.305  0.000-   2 2.10   1 2.13   1 2.13
   6  0.695  0.695  0.000-   2 2.10   1 2.13   1 2.13
 
  LATTYP: Found a simple tetragonal cell.
 ALAT       =     4.8831441434
 C/A-ratio  =     0.6759574529
  
  Lattice vectors:
  
 A1 = (   4.8831441434,   0.0000000000,   0.0000000000)
 A2 = (   0.0000000000,   4.8831441434,   0.0000000000)
 A3 = (   0.0000000000,   0.0000000000,   3.3007976771)


Analysis of symmetry for initial positions (statically):
=====================================================================
 Subroutine PRICEL returns:
 Original cell was already a primitive cell.
 

 Routine SETGRP: Setting up the symmetry group for a 
 simple tetragonal supercell.


 Subroutine GETGRP returns: Found 16 space group operations
 (whereof  8 operations were pure point group operations)
 out of a pool of 16 trial point group operations.


The static configuration has the point symmetry D_2h.
 The point group associated with its full space group is D_4h.


Analysis of symmetry for dynamics (positions and initial velocities):
=====================================================================
 Subroutine PRICEL returns:
 Original cell was already a primitive cell.
 

 Routine SETGRP: Setting up the symmetry group for a 
 simple tetragonal supercell.


 Subroutine GETGRP returns: Found 16 space group operations
 (whereof  8 operations were pure point group operations)
 out of a pool of 16 trial point group operations.


The dynamic configuration has the point symmetry D_2h.
 The point group associated with its full space group is D_4h.


Analysis of structural, dynamic, and magnetic symmetry:
=====================================================================
 Subroutine PRICEL returns:
 Original cell was already a primitive cell.
 

 Routine SETGRP: Setting up the symmetry group for a 
 simple tetragonal supercell.


 Subroutine GETGRP returns: Found 16 space group operations
 (whereof  8 operations were pure point group operations)
 out of a pool of 16 trial point group operations.


The magnetic configuration has the point symmetry D_2h.
 The point group associated with its full space group is D_4h.


 Subroutine INISYM returns: Found 16 space group operations
 (whereof  8 operations are pure point group operations),
 and found     1 'primitive' translations

 
 
 KPOINTS: KPOINTS created by Atomic Simulation Env

Automatic generation of k-mesh.
Space group operators:
 irot       det(A)        alpha          n_x          n_y          n_z        tau_x        tau_y        tau_z
    1     1.000000     0.000001     1.000000     0.000000     0.000000     0.000000     0.000000     0.000000
    2    -1.000000     0.000001     1.000000     0.000000     0.000000     0.000000     0.000000     0.000000
    3     1.000000   179.999999     0.000000     0.000000     1.000000     0.000000     0.000000     0.000000
    4    -1.000000   179.999999     0.000000     0.000000     1.000000     0.000000     0.000000     0.000000
    5     1.000000   180.000000     0.707107     0.707107     0.000000     0.000000     0.000000     0.000000
    6    -1.000000   180.000000     0.707107     0.707107     0.000000     0.000000     0.000000     0.000000
    7     1.000000   180.000000     0.707107    -0.707107     0.000000     0.000000     0.000000     0.000000
    8    -1.000000   180.000000     0.707107    -0.707107     0.000000     0.000000     0.000000     0.000000
    9     1.000000    90.000000     0.000000     0.000000    -1.000000     0.500000     0.500000     0.500000
   10    -1.000000    90.000000     0.000000     0.000000    -1.000000     0.500000     0.500000     0.500000
   11     1.000000    90.000000     0.000000     0.000000     1.000000     0.500000     0.500000     0.500000
   12    -1.000000    90.000000     0.000000     0.000000     1.000000     0.500000     0.500000     0.500000
   13     1.000000   180.000000     0.000000     1.000000     0.000000     0.500000     0.500000     0.500000
   14    -1.000000   180.000000     0.000000     1.000000     0.000000     0.500000     0.500000     0.500000
   15     1.000000   180.000000     1.000000     0.000000     0.000000     0.500000     0.500000     0.500000
   16    -1.000000   180.000000     1.000000     0.000000     0.000000     0.500000     0.500000     0.500000
 
 Subroutine IBZKPT returns following result:
 ===========================================
 
 Found      9 irreducible k-points:
 
 Following reciprocal coordinates:
            Coordinates               Weight
  0.125000  0.125000  0.083333      8.000000
  0.375000  0.125000  0.083333     16.000000
  0.375000  0.375000  0.083333      8.000000
  0.125000  0.125000  0.250000      8.000000
  0.375000  0.125000  0.250000     16.000000
  0.375000  0.375000  0.250000      8.000000
  0.125000  0.125000  0.416667      8.000000
  0.375000  0.125000  0.416667     16.000000
  0.375000  0.375000  0.416667      8.000000
 
 Following cartesian coordinates:
            Coordinates               Weight
  0.025598  0.025598  0.025246      8.000000
  0.076795  0.025598  0.025246     16.000000
  0.076795  0.076795  0.025246      8.000000
  0.025598  0.025598  0.075739      8.000000
  0.076795  0.025598  0.075739     16.000000
  0.076795  0.076795  0.075739      8.000000
  0.025598  0.025598  0.126232      8.000000
  0.076795  0.025598  0.126232     16.000000
  0.076795  0.076795  0.126232      8.000000
 


--------------------------------------------------------------------------------------------------------




 Dimension of arrays:
   k-points           NKPTS =      9   k-points in BZ     NKDIM =      9   number of bands    NBANDS=     36
   number of dos      NEDOS =    301   number of ions     NIONS =      6
   non local maximal  LDIM  =      6   non local SUM 2l+1 LMDIM =     18
   total plane-waves  NPLWV =  14112
   max r-space proj   IRMAX =      1   max aug-charges    IRDMAX=  43717
   dimension x,y,z NGX =    28 NGY =   28 NGZ =   18
   dimension x,y,z NGXF=    56 NGYF=   56 NGZF=   36
   support grid    NGXF=   112 NGYF=  112 NGZF=   72
   ions per type =               2   4
   NGX,Y,Z   is equivalent  to a cutoff of   9.53,  9.53,  9.07 a.u.
   NGXF,Y,Z  is equivalent  to a cutoff of  19.07, 19.07, 18.13 a.u.

 SYSTEM =  unknown system                          
 POSCAR =  Mn  F                                   

 Startparameter for this run:
   NWRITE =      2    write-flag & timer
   PREC   = normal    normal or accurate (medium, high low for compatibility)
   ISTART =      0    job   : 0-new  1-cont  2-samecut
   ICHARG =      2    charge: 1-file 2-atom 10-const
   ISPIN  =      2    spin polarized calculation?
   LNONCOLLINEAR =      F non collinear calculations
   LSORBIT =      F    spin-orbit coupling
   INIWAV =      1    electr: 0-lowe 1-rand  2-diag
   LASPH  =      T    aspherical Exc in radial PAW
   METAGGA=      F    non-selfconsistent MetaGGA calc.

 Electronic Relaxation 1
   ENCUT  =  500.0 eV  36.75 Ry    6.06 a.u.   8.90  8.90  6.02*2*pi/ulx,y,z
   ENINI  =  500.0     initial cutoff
   ENAUG  =  613.6 eV  augmentation charge cutoff
   NELM   =     60;   NELMIN=  2; NELMDL= -5     # of ELM steps 
   EDIFF  = 0.1E-06   stopping-criterion for ELM
   LREAL  =      F    real-space projection
   NLSPLINE    = F    spline interpolate recip. space projectors
   LCOMPAT=      F    compatible to vasp.4.4
   GGA_COMPAT  = T    GGA compatible to vasp.4.4-vasp.4.6
   LMAXPAW     = -100 max onsite density
   LMAXMIX     =    4 max onsite mixed and CHGCAR
   VOSKOWN=      0    Vosko Wilk Nusair interpolation
   ROPT   =    0.00000   0.00000
 Ionic relaxation
   EDIFFG = -.5E-02   stopping-criterion for IOM
   NSW    =     50    number of steps for IOM
   NBLOCK =      1;   KBLOCK =     50    inner block; outer block 
   IBRION =      2    ionic relax: 0-MD 1-quasi-New 2-CG
   NFREE  =      1    steps in history (QN), initial steepest desc. (CG)
   ISIF   =      3    stress and relaxation
   IWAVPR =     11    prediction:  0-non 1-charg 2-wave 3-comb
   ISYM   =      2    0-nonsym 1-usesym 2-fastsym
   LCORR  =      T    Harris-Foulkes like correction to forces

   POTIM  = 0.5000    time-step for ionic-motion
   TEIN   =    0.0    initial temperature
   TEBEG  =    0.0;   TEEND  =   0.0 temperature during run
   SMASS  =  -3.00    Nose mass-parameter (am)
   estimated Nose-frequenzy (Omega)   =  0.10E-29 period in steps =****** mass=  -0.545E-27a.u.
   SCALEE = 1.0000    scale energy and forces
   NPACO  =    256;   APACO  = 16.0  distance and # of slots for P.C.
   PSTRESS=    0.0 pullay stress

  Mass of Ions in am
   POMASS =  54.94 19.00
  Ionic Valenz
   ZVAL   =  13.00  7.00
  Atomic Wigner-Seitz radii
   RWIGS  =  -1.00 -1.00
  virtual crystal weights 
   VCA    =   1.00  1.00
   NELECT =      54.0000    total number of electrons
   NUPDOWN=      -1.0000    fix difference up-down

 DOS related values:
   EMIN   =  10.00;   EMAX   =-10.00  energy-range for DOS
   EFERMI =   0.00
   ISMEAR =     0;   SIGMA  =   0.02  broadening in eV -4-tet -1-fermi 0-gaus

 Electronic relaxation 2 (details)
   IALGO  =     38    algorithm
   LDIAG  =      T    sub-space diagonalisation (order eigenvalues)
   LSUBROT=      F    optimize rotation matrix (better conditioning)
   TURBO    =      0    0=normal 1=particle mesh
   IRESTART =      0    0=no restart 2=restart with 2 vectors
   NREBOOT  =      0    no. of reboots
   NMIN     =      0    reboot dimension
   EREF     =   0.00    reference energy to select bands
   IMIX   =      4    mixing-type and parameters
     AMIX     =   0.40;   BMIX     =  1.00
     AMIX_MAG =   1.60;   BMIX_MAG =  1.00
     AMIN     =   0.10
     WC   =   100.;   INIMIX=   1;  MIXPRE=   1;  MAXMIX= -45

 Intra band minimization:
   WEIMIN = 0.0010     energy-eigenvalue tresh-hold
   EBREAK =  0.69E-09  absolut break condition
   DEPER  =   0.30     relativ break condition  

   TIME   =   0.40     timestep for ELM

  volume/ion in A,a.u.               =      13.12        88.52
  Fermi-wavevector in a.u.,A,eV,Ry     =   1.443888  2.728552 28.365585  2.084812
  Thomas-Fermi vector in A             =   2.562245
 
 Write flags
   LWAVE        =      F    write WAVECAR
   LDOWNSAMPLE  =      F    k-point downsampling of WAVECAR
   LCHARG       =      F    write CHGCAR
   LVTOT        =      F    write LOCPOT, total local potential
   LVHAR        =      F    write LOCPOT, Hartree potential only
   LELF         =      F    write electronic localiz. function (ELF)
   LORBIT       =     11    0 simple, 1 ext, 2 COOP (PROOUT), +10 PAW based schemes


 Dipole corrections
   LMONO  =      F    monopole corrections only (constant potential shift)
   LDIPOL =      F    correct potential (dipole corrections)
   IDIPOL =      0    1-x, 2-y, 3-z, 4-all directions 
   EPSILON=  1.0000000 bulk dielectric constant

 LDA+U is selected, type is set to LDAUTYPE =  2
   angular momentum for each species LDAUL =     2   -1
   U (eV)           for each species LDAUU =   4.0  0.0
   J (eV)           for each species LDAUJ =   0.0  0.0
 Exchange correlation treatment:
   GGA     =    PS    GGA type
   LEXCH   =    14    internal setting for exchange type
   VOSKOWN=      0    Vosko Wilk Nusair interpolation
   LHFCALC =     F    Hartree Fock is set to
   LHFONE  =     F    Hartree Fock one center treatment
   AEXX    =    0.0000 exact exchange contribution

 Linear response parameters
   LEPSILON=     F    determine dielectric tensor
   LRPA    =     F    only Hartree local field effects (RPA)
   LNABLA  =     F    use nabla operator in PAW spheres
   LVEL    =     F    velocity operator in full k-point grid
   LINTERFAST=   F  fast interpolation
   KINTER  =     0    interpolate to denser k-point grid
   CSHIFT  =0.1000    complex shift for real part using Kramers Kronig
   OMEGAMAX=  -1.0    maximum frequency
   DEG_THRESHOLD= 0.2000000E-02 threshold for treating states as degnerate
   RTIME   =   -0.100 relaxation time in fs
  (WPLASMAI=    0.000 imaginary part of plasma frequency in eV, 0.658/RTIME)
   DFIELD  = 0.0000000 0.0000000 0.0000000 field for delta impulse in time
 
 Orbital magnetization related:
   ORBITALMAG=     F  switch on orbital magnetization
   LCHIMAG   =     F  perturbation theory with respect to B field
   DQ        =  0.001000  dq finite difference perturbation B field
   LLRAUG    =     F  two centre corrections for induced B field



--------------------------------------------------------------------------------------------------------


 conjugate gradient relaxation of ions
 charge density and potential will be updated during run
 spin polarized calculation
 Variant of blocked Davidson
 Davidson routine will perform the subspace rotation
 perform sub-space diagonalisation
    after iterative eigenvector-optimisation
 modified Broyden-mixing scheme, WC =      100.0
 initial mixing is a Kerker type mixing with AMIX =  0.4000 and BMIX =      1.0000
 Hartree-type preconditioning will be used
 using additional bands            9
 reciprocal scheme for non local part
 use partial core corrections
 calculate Harris-corrections to forces 
   (improved forces if not selfconsistent)
 use gradient corrections 
 use of overlap-Matrix (Vanderbilt PP)
 Gauss-broadening in eV      SIGMA  =   0.02


--------------------------------------------------------------------------------------------------------


  energy-cutoff  :      500.00
  volume of cell :       78.71
      direct lattice vectors                 reciprocal lattice vectors
     4.883144143  0.000000000  0.000000000     0.204786091  0.000000000  0.000000000
     0.000000000  4.883144143  0.000000000     0.000000000  0.204786091  0.000000000
     0.000000000  0.000000000  3.300797677     0.000000000  0.000000000  0.302957072

  length of vectors
     4.883144143  4.883144143  3.300797677     0.204786091  0.204786091  0.302957072


 
 k-points in units of 2pi/SCALE and weight: KPOINTS created by Atomic Simulation Env
   0.02559826  0.02559826  0.02524642       0.083
   0.07679478  0.02559826  0.02524642       0.167
   0.07679478  0.07679478  0.02524642       0.083
   0.02559826  0.02559826  0.07573927       0.083
   0.07679478  0.02559826  0.07573927       0.167
   0.07679478  0.07679478  0.07573927       0.083
   0.02559826  0.02559826  0.12623211       0.083
   0.07679478  0.02559826  0.12623211       0.167
   0.07679478  0.07679478  0.12623211       0.083
 
 k-points in reciprocal lattice and weights: KPOINTS created by Atomic Simulation Env
   0.12500000  0.12500000  0.08333333       0.083
   0.37500000  0.12500000  0.08333333       0.167
   0.37500000  0.37500000  0.08333333       0.083
   0.12500000  0.12500000  0.25000000       0.083
   0.37500000  0.12500000  0.25000000       0.167
   0.37500000  0.37500000  0.25000000       0.083
   0.12500000  0.12500000  0.41666667       0.083
   0.37500000  0.12500000  0.41666667       0.167
   0.37500000  0.37500000  0.41666667       0.083
 
 position of ions in fractional coordinates (direct lattice) 
   0.50000000  0.50000000  0.50000000
   0.00000000  0.00000000  0.00000000
   0.19544394  0.80455606  0.50000000
   0.80455606  0.19544394  0.50000000
   0.30455606  0.30455606  0.00000000
   0.69544394  0.69544394  0.00000000
 
 position of ions in cartesian coordinates  (Angst):
   2.44157207  2.44157207  1.65039884
   0.00000000  0.00000000  0.00000000
   0.95438093  3.92876321  1.65039884
   3.92876321  0.95438093  1.65039884
   1.48719114  1.48719114  0.00000000
   3.39595300  3.39595300  0.00000000
 


--------------------------------------------------------------------------------------------------------


 k-point  1 :   0.1250 0.1250 0.0833  plane waves:    1982
 k-point  2 :   0.3750 0.1250 0.0833  plane waves:    1989
 k-point  3 :   0.3750 0.3750 0.0833  plane waves:    1997
 k-point  4 :   0.1250 0.1250 0.2500  plane waves:    2005
 k-point  5 :   0.3750 0.1250 0.2500  plane waves:    2001
 k-point  6 :   0.3750 0.3750 0.2500  plane waves:    1998
 k-point  7 :   0.1250 0.1250 0.4167  plane waves:    2000
 k-point  8 :   0.3750 0.1250 0.4167  plane waves:    2004
 k-point  9 :   0.3750 0.3750 0.4167  plane waves:    2014

 maximum and minimum number of plane-waves per node :      2014     1982

 maximum number of plane-waves:      2014
 maximum index in each direction: 
   IXMAX=    8   IYMAX=    8   IZMAX=    5
   IXMIN=   -9   IYMIN=   -9   IZMIN=   -6


 serial   3D FFT for wavefunctions
 parallel 3D FFT for charge:
    minimum data exchange during FFTs selected (reduces bandwidth)


 total amount of memory used by VASP MPI-rank0    40956. kBytes
=======================================================================

   base      :      30000. kBytes
   nonl-proj :       5419. kBytes
   fftplans  :       1551. kBytes
   grid      :       1996. kBytes
   one-center:        186. kBytes
   wavefun   :       1804. kBytes
 
     INWAV:  cpu time    0.0000: real time    0.0000
 Broyden mixing: mesh for mixing (old mesh)
   NGX = 17   NGY = 17   NGZ = 13
  (NGX  = 56   NGY  = 56   NGZ  = 36)
  gives a total of   3757 points

 initial charge density was supplied:
 charge density of overlapping atoms calculated
 number of electron      54.0000000 magnetization       0.0000000
 keeping initial charge density in first step


--------------------------------------------------------------------------------------------------------


 Maximum index for augmentation-charges         4532 (set IRDMAX)


--------------------------------------------------------------------------------------------------------


 First call to EWALD:  gamma=   0.414
 Maximum number of real-space cells 2x 2x 3
 Maximum number of reciprocal cells 3x 3x 2

    FEWALD:  cpu time    0.0010: real time    0.0010


--------------------------------------- Iteration      1(   1)  ---------------------------------------


    POTLOK:  cpu time    0.0151: real time    0.0151
    SETDIJ:  cpu time    0.3640: real time    0.3640
atom =   1  type =  1  l = 2
 
 onsite density matrix
 
spin component  1
 
  0.2835  0.0000  0.0000  0.0000  0.0000
  0.0000  0.2835  0.0000  0.0000  0.0000
  0.0000  0.0000  0.2835  0.0000  0.0000
  0.0000  0.0000  0.0000  0.2835  0.0000
  0.0000  0.0000  0.0000  0.0000  0.2835
 
spin component  2
 
  0.7694  0.0000  0.0000  0.0000  0.0000
  0.0000  0.7694  0.0000  0.0000  0.0000
  0.0000  0.0000  0.7694  0.0000  0.0000
  0.0000  0.0000  0.0000  0.7694  0.0000
  0.0000  0.0000  0.0000  0.0000  0.7694
 
 occupancies and eigenvectors
 
  o =  0.2835  v =  1.0000  0.0000  0.0000  0.0000  0.0000  0.0000  0.0000  0.0000  0.0000  0.0000      0.0000  0.0000  0.0000  0.0000  0.0000  0.0000  0.0000  0.0000  0.0000  0.0000
  o =  0.2835  v =  0.0000  1.0000  0.0000  0.0000  0.0000  0.0000  0.0000  0.0000  0.0000  0.0000      0.0000  0.0000  0.0000  0.0000  0.0000  0.0000  0.0000  0.0000  0.0000  0.0000
  o =  0.2835  v =  0.0000  0.0000  1.0000  0.0000  0.0000  0.0000  0.0000  0.0000  0.0000  0.0000      0.0000  0.0000  0.0000  0.0000  0.0000  0.0000  0.0000  0.0000  0.0000  0.0000
  o =  0.2835  v =  0.0000  0.0000  0.0000  1.0000  0.0000  0.0000  0.0000  0.0000  0.0000  0.0000      0.0000  0.0000  0.0000  0.0000  0.0000  0.0000  0.0000  0.0000  0.0000  0.0000
  o =  0.2835  v =  0.0000  0.0000  0.0000  0.0000  1.0000  0.0000  0.0000  0.0000  0.0000  0.0000      0.0000  0.0000  0.0000  0.0000  0.0000  0.0000  0.0000  0.0000  0.0000  0.0000
  o =  0.7694  v =  0.0000  0.0000  0.0000  0.0000  0.0000  1.0000  0.0000  0.0000  0.0000  0.0000      0.0000  0.0000  0.0000  0.0000  0.0000  0.0000  0.0000  0.0000  0.0000  0.0000
  o =  0.7694  v =  0.0000  0.0000  0.0000  0.0000  0.0000  0.0000  1.0000  0.0000  0.0000  0.0000      0.0000  0.0000  0.0000  0.0000  0.0000  0.0000  0.0000  0.0000  0.0000  0.0000
  o =  0.7694  v =  0.0000  0.0000  0.0000  0.0000  0.0000  0.0000  0.0000  1.0000  0.0000  0.0000      0.0000  0.0000  0.0000  0.0000  0.0000  0.0000  0.0000  0.0000  0.0000  0.0000
  o =  0.7694  v =  0.0000  0.0000  0.0000  0.0000  0.0000  0.0000  0.0000  0.0000  1.0000  0.0000      0.0000  0.0000  0.0000  0.0000  0.0000  0.0000  0.0000  0.0000  0.0000  0.0000
  o =  0.7694  v =  0.0000  0.0000  0.0000  0.0000  0.0000  0.0000  0.0000  0.0000  0.0000  1.0000      0.0000  0.0000  0.0000  0.0000  0.0000  0.0000  0.0000  0.0000  0.0000  0.0000
atom =   2  type =  1  l = 2
 
 onsite density matrix
 
spin component  1
 
  0.7694  0.0000  0.0000  0.0000  0.0000
  0.0000  0.7694  0.0000  0.0000  0.0000
  0.0000  0.0000  0.7694  0.0000  0.0000
  0.0000  0.0000  0.0000  0.7694  0.0000
  0.0000  0.0000  0.0000  0.0000  0.7694
 
spin component  2
 
  0.2835  0.0000  0.0000  0.0000  0.0000
  0.0000  0.2835  0.0000  0.0000  0.0000
  0.0000  0.0000  0.2835  0.0000  0.0000
  0.0000  0.0000  0.0000  0.2835  0.0000
  0.0000  0.0000  0.0000  0.0000  0.2835
 
 occupancies and eigenvectors
 
  o =  0.2835  v =  0.0000  0.0000  0.0000  0.0000  0.0000  1.0000  0.0000  0.0000  0.0000  0.0000      0.0000  0.0000  0.0000  0.0000  0.0000  0.0000  0.0000  0.0000  0.0000  0.0000
  o =  0.2835  v =  0.0000  0.0000  0.0000  0.0000  0.0000  0.0000  1.0000  0.0000  0.0000  0.0000      0.0000  0.0000  0.0000  0.0000  0.0000  0.0000  0.0000  0.0000  0.0000  0.0000
  o =  0.2835  v =  0.0000  0.0000  0.0000  0.0000  0.0000  0.0000  0.0000  1.0000  0.0000  0.0000      0.0000  0.0000  0.0000  0.0000  0.0000  0.0000  0.0000  0.0000  0.0000  0.0000
  o =  0.2835  v =  0.0000  0.0000  0.0000  0.0000  0.0000  0.0000  0.0000  0.0000  1.0000  0.0000      0.0000  0.0000  0.0000  0.0000  0.0000  0.0000  0.0000  0.0000  0.0000  0.0000
  o =  0.2835  v =  0.0000  0.0000  0.0000  0.0000  0.0000  0.0000  0.0000  0.0000  0.0000  1.0000      0.0000  0.0000  0.0000  0.0000  0.0000  0.0000  0.0000  0.0000  0.0000  0.0000
  o =  0.7694  v =  1.0000  0.0000  0.0000  0.0000  0.0000  0.0000  0.0000  0.0000  0.0000  0.0000      0.0000  0.0000  0.0000  0.0000  0.0000  0.0000  0.0000  0.0000  0.0000  0.0000
  o =  0.7694  v =  0.0000  1.0000  0.0000  0.0000  0.0000  0.0000  0.0000  0.0000  0.0000  0.0000      0.0000  0.0000  0.0000  0.0000  0.0000  0.0000  0.0000  0.0000  0.0000  0.0000
  o =  0.7694  v =  0.0000  0.0000  1.0000  0.0000  0.0000  0.0000  0.0000  0.0000  0.0000  0.0000      0.0000  0.0000  0.0000  0.0000  0.0000  0.0000  0.0000  0.0000  0.0000  0.0000
  o =  0.7694  v =  0.0000  0.0000  0.0000  1.0000  0.0000  0.0000  0.0000  0.0000  0.0000  0.0000      0.0000  0.0000  0.0000  0.0000  0.0000  0.0000  0.0000  0.0000  0.0000  0.0000
  o =  0.7694  v =  0.0000  0.0000  0.0000  0.0000  1.0000  0.0000  0.0000  0.0000  0.0000  0.0000      0.0000  0.0000  0.0000  0.0000  0.0000  0.0000  0.0000  0.0000  0.0000  0.0000
     EDDAV:  cpu time    0.2741: real time    0.2935
       DOS:  cpu time    0.0004: real time    0.0004
    --------------------------------------------
      LOOP:  cpu time    0.6536: real time    0.6730

 eigenvalue-minimisations  :  1296
 total energy-change (2. order) : 0.6274157E+03  (-0.3121582E+04)
 number of electron      54.0000000 magnetization      -0.0000000
 augmentation part       54.0000000 magnetization      -0.0000000

 Free energy of the ion-electron system (eV)
  ---------------------------------------------------
  alpha Z        PSCENC =       196.13658257
  Ewald energy   TEWEN  =     -4178.31221721
  -Hartree energ DENC   =     -2146.41896638
  -exchange      EXHF   =         0.00000000
  -V(xc)+E(xc)   XCENC  =       293.25933356
  PAW double counting   =      5439.83165491    -5546.16339751
  entropy T*S    EENTRO =        -0.00098263
  eigenvalues    EBANDS =      -108.52286645
  atomic energy  EATOM  =      6677.60654784
  Solvation  Ediel_sol  =         0.00000000
  ---------------------------------------------------
  free energy    TOTEN  =       627.41568869 eV

  energy without entropy =      627.41667132  energy(sigma->0) =      627.41618001


--------------------------------------------------------------------------------------------------------




--------------------------------------- Iteration      1(   2)  ---------------------------------------


     EDDAV:  cpu time    0.3059: real time    0.3059
       DOS:  cpu time    0.0002: real time    0.0002
    --------------------------------------------
      LOOP:  cpu time    0.3061: real time    0.3061

 eigenvalue-minimisations  :  1512
 total energy-change (2. order) :-0.6232386E+03  (-0.6057285E+03)
 number of electron      54.0000000 magnetization      -0.0000000
 augmentation part       54.0000000 magnetization      -0.0000000

 Free energy of the ion-electron system (eV)
  ---------------------------------------------------
  alpha Z        PSCENC =       196.13658257
  Ewald energy   TEWEN  =     -4178.31221721
  -Hartree energ DENC   =     -2146.41896638
  -exchange      EXHF   =         0.00000000
  -V(xc)+E(xc)   XCENC  =       293.25933356
  PAW double counting   =      5439.83165491    -5546.16339751
  entropy T*S    EENTRO =        -0.00000000
  eigenvalues    EBANDS =      -731.76246857
  atomic energy  EATOM  =      6677.60654784
  Solvation  Ediel_sol  =         0.00000000
  ---------------------------------------------------
  free energy    TOTEN  =         4.17706920 eV

  energy without entropy =        4.17706920  energy(sigma->0) =        4.17706920


--------------------------------------------------------------------------------------------------------




--------------------------------------- Iteration      1(   3)  ---------------------------------------


     EDDAV:  cpu time    0.3123: real time    0.3123
       DOS:  cpu time    0.0002: real time    0.0002
    --------------------------------------------
      LOOP:  cpu time    0.3125: real time    0.3125

 eigenvalue-minimisations  :  1536
 total energy-change (2. order) :-0.4370987E+02  (-0.4356495E+02)
 number of electron      54.0000000 magnetization      -0.0000000
 augmentation part       54.0000000 magnetization      -0.0000000

 Free energy of the ion-electron system (eV)
  ---------------------------------------------------
  alpha Z        PSCENC =       196.13658257
  Ewald energy   TEWEN  =     -4178.31221721
  -Hartree energ DENC   =     -2146.41896638
  -exchange      EXHF   =         0.00000000
  -V(xc)+E(xc)   XCENC  =       293.25933356
  PAW double counting   =      5439.83165491    -5546.16339751
  entropy T*S    EENTRO =        -0.00000000
  eigenvalues    EBANDS =      -775.47233638
  atomic energy  EATOM  =      6677.60654784
  Solvation  Ediel_sol  =         0.00000000
  ---------------------------------------------------
  free energy    TOTEN  =       -39.53279861 eV

  energy without entropy =      -39.53279861  energy(sigma->0) =      -39.53279861


--------------------------------------------------------------------------------------------------------




--------------------------------------- Iteration      1(   4)  ---------------------------------------


     EDDAV:  cpu time    0.2986: real time    0.2986
       DOS:  cpu time    0.0002: real time    0.0002
    --------------------------------------------
      LOOP:  cpu time    0.2988: real time    0.2988

 eigenvalue-minimisations  :  1464
 total energy-change (2. order) :-0.5609187E+00  (-0.5608367E+00)
 number of electron      54.0000000 magnetization      -0.0000000
 augmentation part       54.0000000 magnetization      -0.0000000

 Free energy of the ion-electron system (eV)
  ---------------------------------------------------
  alpha Z        PSCENC =       196.13658257
  Ewald energy   TEWEN  =     -4178.31221721
  -Hartree energ DENC   =     -2146.41896638
  -exchange      EXHF   =         0.00000000
  -V(xc)+E(xc)   XCENC  =       293.25933356
  PAW double counting   =      5439.83165491    -5546.16339751
  entropy T*S    EENTRO =        -0.00000000
  eigenvalues    EBANDS =      -776.03325513
  atomic energy  EATOM  =      6677.60654784
  Solvation  Ediel_sol  =         0.00000000
  ---------------------------------------------------
  free energy    TOTEN  =       -40.09371736 eV

  energy without entropy =      -40.09371736  energy(sigma->0) =      -40.09371736


--------------------------------------------------------------------------------------------------------




--------------------------------------- Iteration      1(   5)  ---------------------------------------


     EDDAV:  cpu time    0.3110: real time    0.3110
       DOS:  cpu time    0.0002: real time    0.0002
    CHARGE:  cpu time    0.0274: real time    0.0274
    MIXING:  cpu time    0.0004: real time    0.0004
    --------------------------------------------
      LOOP:  cpu time    0.3391: real time    0.3391

 eigenvalue-minimisations  :  1524
 total energy-change (2. order) :-0.9156459E-02  (-0.9156396E-02)
 number of electron      53.9999998 magnetization       0.0000000
 augmentation part       20.0587486 magnetization       0.0000000

 Broyden mixing:
  rms(total) = 0.22536E+01    rms(broyden)= 0.22534E+01
  rms(prec ) = 0.30230E+01
  weight for this iteration     100.00

 Free energy of the ion-electron system (eV)
  ---------------------------------------------------
  alpha Z        PSCENC =       196.13658257
  Ewald energy   TEWEN  =     -4178.31221721
  -Hartree energ DENC   =     -2146.41896638
  -exchange      EXHF   =         0.00000000
  -V(xc)+E(xc)   XCENC  =       293.25933356
  PAW double counting   =      5439.83165491    -5546.16339751
  entropy T*S    EENTRO =        -0.00000000
  eigenvalues    EBANDS =      -776.04241159
  atomic energy  EATOM  =      6677.60654784
  Solvation  Ediel_sol  =         0.00000000
  ---------------------------------------------------
  free energy    TOTEN  =       -40.10287382 eV

  energy without entropy =      -40.10287382  energy(sigma->0) =      -40.10287382


--------------------------------------------------------------------------------------------------------




--------------------------------------- Iteration      1(   6)  ---------------------------------------


    POTLOK:  cpu time    0.0136: real time    0.0136
    SETDIJ:  cpu time    0.6883: real time    0.6883
atom =   1  type =  1  l = 2
 
 onsite density matrix
 
spin component  1
 
 -0.0782  0.0000  0.0027  0.0000 -0.0000
  0.0000 -0.0807  0.0000  0.0019  0.0000
  0.0027  0.0000 -0.0785  0.0000 -0.0000
  0.0000  0.0019  0.0000 -0.0807  0.0000
 -0.0000  0.0000 -0.0000  0.0000 -0.0851
 
spin component  2
 
  1.1020  0.0000  0.0138  0.0000 -0.0000
  0.0000  1.0996  0.0000  0.0122  0.0000
  0.0138  0.0000  1.0934  0.0000  0.0000
  0.0000  0.0122  0.0000  1.0996  0.0000
 -0.0000  0.0000  0.0000  0.0000  1.0894
 
 occupancies and eigenvectors
 
  o = -0.0851  v =  0.0000  0.0000 -0.0000 -0.0000 -1.0000  0.0000  0.0000  0.0000  0.0000  0.0000      0.0000  0.0000  0.0000  0.0000  0.0000  0.0000  0.0000  0.0000  0.0000  0.0000
  o = -0.0826  v =  0.0000 -0.7071 -0.0000  0.7071 -0.0000  0.0000  0.0000  0.0000  0.0000  0.0000      0.0000  0.0000  0.0000  0.0000  0.0000  0.0000  0.0000  0.0000  0.0000  0.0000
  o = -0.0810  v =  0.6863  0.0000 -0.7273  0.0000  0.0000  0.0000  0.0000  0.0000  0.0000  0.0000      0.0000  0.0000  0.0000  0.0000  0.0000  0.0000  0.0000  0.0000  0.0000  0.0000
  o = -0.0788  v =  0.0000 -0.7071 -0.0000 -0.7071 -0.0000  0.0000  0.0000  0.0000  0.0000  0.0000      0.0000  0.0000  0.0000  0.0000  0.0000  0.0000  0.0000  0.0000  0.0000  0.0000
  o = -0.0756  v =  0.7273 -0.0000  0.6863 -0.0000 -0.0000  0.0000  0.0000  0.0000  0.0000  0.0000      0.0000  0.0000  0.0000  0.0000  0.0000  0.0000  0.0000  0.0000  0.0000  0.0000
  o =  1.0832  v =  0.0000  0.0000  0.0000  0.0000  0.0000 -0.5926 -0.0000  0.8055  0.0000 -0.0000      0.0000  0.0000  0.0000  0.0000  0.0000  0.0000  0.0000  0.0000  0.0000  0.0000
  o =  1.0874  v =  0.0000  0.0000  0.0000  0.0000  0.0000  0.0000  0.7071  0.0000 -0.7071 -0.0000      0.0000  0.0000  0.0000  0.0000  0.0000  0.0000  0.0000  0.0000  0.0000  0.0000
  o =  1.0894  v =  0.0000  0.0000  0.0000  0.0000  0.0000 -0.0000  0.0000  0.0000  0.0000  1.0000      0.0000  0.0000  0.0000  0.0000  0.0000  0.0000  0.0000  0.0000  0.0000  0.0000
  o =  1.1119  v =  0.0000  0.0000  0.0000  0.0000  0.0000  0.0000 -0.7071  0.0000 -0.7071  0.0000      0.0000  0.0000  0.0000  0.0000  0.0000  0.0000  0.0000  0.0000  0.0000  0.0000
  o =  1.1121  v =  0.0000  0.0000  0.0000  0.0000  0.0000 -0.8055 -0.0000 -0.5926  0.0000 -0.0000      0.0000  0.0000  0.0000  0.0000  0.0000  0.0000  0.0000  0.0000  0.0000  0.0000
atom =   2  type =  1  l = 2
 
 onsite density matrix
 
spin component  1
 
  1.1020  0.0000 -0.0138  0.0000 -0.0000
  0.0000  1.0996  0.0000 -0.0122  0.0000
 -0.0138  0.0000  1.0934  0.0000  0.0000
  0.0000 -0.0122  0.0000  1.0996  0.0000
 -0.0000  0.0000  0.0000  0.0000  1.0894
 
spin component  2
 
 -0.0782  0.0000 -0.0027  0.0000 -0.0000
  0.0000 -0.0807  0.0000 -0.0019  0.0000
 -0.0027  0.0000 -0.0785  0.0000  0.0000
  0.0000 -0.0019  0.0000 -0.0807  0.0000
 -0.0000  0.0000  0.0000  0.0000 -0.0851
 
 occupancies and eigenvectors
 
  o = -0.0851  v =  0.0000  0.0000  0.0000  0.0000  0.0000  0.0000 -0.0000  0.0000 -0.0000 -1.0000      0.0000  0.0000  0.0000  0.0000  0.0000  0.0000  0.0000  0.0000  0.0000  0.0000
  o = -0.0826  v =  0.0000  0.0000  0.0000  0.0000  0.0000  0.0000  0.7071  0.0000  0.7071 -0.0000      0.0000  0.0000  0.0000  0.0000  0.0000  0.0000  0.0000  0.0000  0.0000  0.0000
  o = -0.0810  v =  0.0000  0.0000  0.0000  0.0000  0.0000  0.6863 -0.0000  0.7273  0.0000  0.0000      0.0000  0.0000  0.0000  0.0000  0.0000  0.0000  0.0000  0.0000  0.0000  0.0000
  o = -0.0788  v =  0.0000  0.0000  0.0000  0.0000  0.0000  0.0000  0.7071  0.0000 -0.7071 -0.0000      0.0000  0.0000  0.0000  0.0000  0.0000  0.0000  0.0000  0.0000  0.0000  0.0000
  o = -0.0756  v =  0.0000  0.0000  0.0000  0.0000  0.0000  0.7273  0.0000 -0.6863 -0.0000 -0.0000      0.0000  0.0000  0.0000  0.0000  0.0000  0.0000  0.0000  0.0000  0.0000  0.0000
  o =  1.0832  v = -0.5926 -0.0000 -0.8055 -0.0000  0.0000  0.0000  0.0000  0.0000  0.0000  0.0000      0.0000  0.0000  0.0000  0.0000  0.0000  0.0000  0.0000  0.0000  0.0000  0.0000
  o =  1.0874  v = -0.0000  0.7071 -0.0000  0.7071  0.0000  0.0000  0.0000  0.0000  0.0000  0.0000      0.0000  0.0000  0.0000  0.0000  0.0000  0.0000  0.0000  0.0000  0.0000  0.0000
  o =  1.0894  v =  0.0000 -0.0000  0.0000 -0.0000  1.0000  0.0000  0.0000  0.0000  0.0000  0.0000      0.0000  0.0000  0.0000  0.0000  0.0000  0.0000  0.0000  0.0000  0.0000  0.0000
  o =  1.1119  v = -0.0000  0.7071  0.0000 -0.7071 -0.0000  0.0000  0.0000  0.0000  0.0000  0.0000      0.0000  0.0000  0.0000  0.0000  0.0000  0.0000  0.0000  0.0000  0.0000  0.0000
  o =  1.1121  v = -0.8055 -0.0000  0.5926  0.0000  0.0000  0.0000  0.0000  0.0000  0.0000  0.0000      0.0000  0.0000  0.0000  0.0000  0.0000  0.0000  0.0000  0.0000  0.0000  0.0000
     EDDAV:  cpu time    0.3222: real time    0.3222
       DOS:  cpu time    0.0002: real time    0.0002
    CHARGE:  cpu time    0.0274: real time    0.0274
    MIXING:  cpu time    0.0004: real time    0.0004
    --------------------------------------------
      LOOP:  cpu time    1.0521: real time    1.0522

 eigenvalue-minimisations  :  1596
 total energy-change (2. order) : 0.1904053E+01  (-0.1559843E+01)
 number of electron      53.9999999 magnetization      -0.0000000
 augmentation part       19.9301799 magnetization      -0.0000000

 Broyden mixing:
  rms(total) = 0.14283E+01    rms(broyden)= 0.14282E+01
  rms(prec ) = 0.14919E+01
  weight for this iteration     100.00

 eigenvalues of (default mixing * dielectric matrix)
  average eigenvalue GAMMA=   0.7886
  0.7886

 Free energy of the ion-electron system (eV)
  ---------------------------------------------------
  alpha Z        PSCENC =       196.13658257
  Ewald energy   TEWEN  =     -4178.31221721
  -Hartree energ DENC   =     -2166.71788383
  -exchange      EXHF   =         0.00000000
  -V(xc)+E(xc)   XCENC  =       293.71112082
  PAW double counting   =      5693.47233510    -5790.67159829
  entropy T*S    EENTRO =        -0.00000000
  eigenvalues    EBANDS =      -763.42370809
  atomic energy  EATOM  =      6677.60654784
  Solvation  Ediel_sol  =         0.00000000
  ---------------------------------------------------
  free energy    TOTEN  =       -38.19882110 eV

  energy without entropy =      -38.19882110  energy(sigma->0) =      -38.19882110


--------------------------------------------------------------------------------------------------------




--------------------------------------- Iteration      1(   7)  ---------------------------------------


    POTLOK:  cpu time    0.0135: real time    0.0135
    SETDIJ:  cpu time    0.6881: real time    0.6881
atom =   1  type =  1  l = 2
 
 onsite density matrix
 
spin component  1
 
  0.1157  0.0000  0.0189  0.0000 -0.0000
  0.0000  0.1099  0.0000  0.0161  0.0000
  0.0189  0.0000  0.1052  0.0000  0.0000
  0.0000  0.0161  0.0000  0.1099  0.0000
 -0.0000  0.0000  0.0000  0.0000  0.0928
 
spin component  2
 
  0.9011  0.0000  0.0067  0.0000 -0.0000
  0.0000  0.8994  0.0000  0.0059  0.0000
  0.0067  0.0000  0.8976  0.0000  0.0000
  0.0000  0.0059  0.0000  0.8994  0.0000
 -0.0000  0.0000  0.0000  0.0000  0.8933
 
 occupancies and eigenvectors
 
  o =  0.0908  v = -0.6049 -0.0000  0.7963  0.0000 -0.0000  0.0000  0.0000  0.0000  0.0000  0.0000      0.0000  0.0000  0.0000  0.0000  0.0000  0.0000  0.0000  0.0000  0.0000  0.0000
  o =  0.0928  v = -0.0000  0.0000  0.0000  0.0000  1.0000  0.0000  0.0000  0.0000  0.0000  0.0000      0.0000  0.0000  0.0000  0.0000  0.0000  0.0000  0.0000  0.0000  0.0000  0.0000
  o =  0.0937  v =  0.0000  0.7071  0.0000 -0.7071 -0.0000  0.0000  0.0000  0.0000  0.0000  0.0000      0.0000  0.0000  0.0000  0.0000  0.0000  0.0000  0.0000  0.0000  0.0000  0.0000
  o =  0.1260  v =  0.0000 -0.7071  0.0000 -0.7071  0.0000  0.0000  0.0000  0.0000  0.0000  0.0000      0.0000  0.0000  0.0000  0.0000  0.0000  0.0000  0.0000  0.0000  0.0000  0.0000
  o =  0.1301  v = -0.7963 -0.0000 -0.6049  0.0000 -0.0000  0.0000  0.0000  0.0000  0.0000  0.0000      0.0000  0.0000  0.0000  0.0000  0.0000  0.0000  0.0000  0.0000  0.0000  0.0000
  o =  0.8924  v =  0.0000  0.0000  0.0000  0.0000  0.0000 -0.6109  0.0000  0.7917  0.0000 -0.0000      0.0000  0.0000  0.0000  0.0000  0.0000  0.0000  0.0000  0.0000  0.0000  0.0000
  o =  0.8933  v =  0.0000  0.0000  0.0000  0.0000  0.0000  0.0000 -0.0000  0.0000  0.0000  1.0000      0.0000  0.0000  0.0000  0.0000  0.0000  0.0000  0.0000  0.0000  0.0000  0.0000
  o =  0.8935  v =  0.0000  0.0000  0.0000  0.0000  0.0000  0.0000  0.7071  0.0000 -0.7071  0.0000      0.0000  0.0000  0.0000  0.0000  0.0000  0.0000  0.0000  0.0000  0.0000  0.0000
  o =  0.9053  v =  0.0000  0.0000  0.0000  0.0000  0.0000  0.0000  0.7071  0.0000  0.7071  0.0000      0.0000  0.0000  0.0000  0.0000  0.0000  0.0000  0.0000  0.0000  0.0000  0.0000
  o =  0.9063  v =  0.0000  0.0000  0.0000  0.0000  0.0000 -0.7917  0.0000 -0.6109  0.0000  0.0000      0.0000  0.0000  0.0000  0.0000  0.0000  0.0000  0.0000  0.0000  0.0000  0.0000
atom =   2  type =  1  l = 2
 
 onsite density matrix
 
spin component  1
 
  0.9011  0.0000 -0.0067  0.0000 -0.0000
  0.0000  0.8994  0.0000 -0.0059  0.0000
 -0.0067  0.0000  0.8976  0.0000 -0.0000
  0.0000 -0.0059  0.0000  0.8994  0.0000
 -0.0000  0.0000 -0.0000  0.0000  0.8933
 
spin component  2
 
  0.1157  0.0000 -0.0189  0.0000 -0.0000
  0.0000  0.1099  0.0000 -0.0161  0.0000
 -0.0189  0.0000  0.1052  0.0000  0.0000
  0.0000 -0.0161  0.0000  0.1099  0.0000
 -0.0000  0.0000  0.0000  0.0000  0.0928
 
 occupancies and eigenvectors
 
  o =  0.0908  v =  0.0000  0.0000  0.0000  0.0000  0.0000 -0.6049  0.0000 -0.7963  0.0000  0.0000      0.0000  0.0000  0.0000  0.0000  0.0000  0.0000  0.0000  0.0000  0.0000  0.0000
  o =  0.0928  v =  0.0000  0.0000  0.0000  0.0000  0.0000 -0.0000 -0.0000 -0.0000  0.0000 -1.0000      0.0000  0.0000  0.0000  0.0000  0.0000  0.0000  0.0000  0.0000  0.0000  0.0000
  o =  0.0937  v =  0.0000  0.0000  0.0000  0.0000  0.0000  0.0000  0.7071  0.0000  0.7071 -0.0000      0.0000  0.0000  0.0000  0.0000  0.0000  0.0000  0.0000  0.0000  0.0000  0.0000
  o =  0.1260  v =  0.0000  0.0000  0.0000  0.0000  0.0000  0.0000  0.7071  0.0000 -0.7071 -0.0000      0.0000  0.0000  0.0000  0.0000  0.0000  0.0000  0.0000  0.0000  0.0000  0.0000
  o =  0.1301  v =  0.0000  0.0000  0.0000  0.0000  0.0000 -0.7963  0.0000  0.6049  0.0000  0.0000      0.0000  0.0000  0.0000  0.0000  0.0000  0.0000  0.0000  0.0000  0.0000  0.0000
  o =  0.8924  v = -0.6109  0.0000 -0.7917  0.0000 -0.0000  0.0000  0.0000  0.0000  0.0000  0.0000      0.0000  0.0000  0.0000  0.0000  0.0000  0.0000  0.0000  0.0000  0.0000  0.0000
  o =  0.8933  v =  0.0000  0.0000 -0.0000  0.0000  1.0000  0.0000  0.0000  0.0000  0.0000  0.0000      0.0000  0.0000  0.0000  0.0000  0.0000  0.0000  0.0000  0.0000  0.0000  0.0000
  o =  0.8935  v =  0.0000 -0.7071  0.0000 -0.7071  0.0000  0.0000  0.0000  0.0000  0.0000  0.0000      0.0000  0.0000  0.0000  0.0000  0.0000  0.0000  0.0000  0.0000  0.0000  0.0000
  o =  0.9053  v =  0.0000  0.7071  0.0000 -0.7071 -0.0000  0.0000  0.0000  0.0000  0.0000  0.0000      0.0000  0.0000  0.0000  0.0000  0.0000  0.0000  0.0000  0.0000  0.0000  0.0000
  o =  0.9063  v = -0.7917  0.0000  0.6109  0.0000  0.0000  0.0000  0.0000  0.0000  0.0000  0.0000      0.0000  0.0000  0.0000  0.0000  0.0000  0.0000  0.0000  0.0000  0.0000  0.0000
     EDDAV:  cpu time    0.3119: real time    0.3119
       DOS:  cpu time    0.0002: real time    0.0002
    CHARGE:  cpu time    0.0276: real time    0.0276
    MIXING:  cpu time    0.0005: real time    0.0005
    --------------------------------------------
      LOOP:  cpu time    1.0419: real time    1.0419

 eigenvalue-minimisations  :  1536
 total energy-change (2. order) :-0.7288965E+00  (-0.1821900E+00)
 number of electron      53.9999999 magnetization      -0.0000000
 augmentation part       19.9238536 magnetization      -0.0000000

 Broyden mixing:
  rms(total) = 0.11261E+01    rms(broyden)= 0.11261E+01
  rms(prec ) = 0.11600E+01
  weight for this iteration     100.00

 eigenvalues of (default mixing * dielectric matrix)
  average eigenvalue GAMMA=   1.3988
  0.6948  2.1027

 Free energy of the ion-electron system (eV)
  ---------------------------------------------------
  alpha Z        PSCENC =       196.13658257
  Ewald energy   TEWEN  =     -4178.31221721
  -Hartree energ DENC   =     -2162.39337302
  -exchange      EXHF   =         0.00000000
  -V(xc)+E(xc)   XCENC  =       294.26996179
  PAW double counting   =      5915.90293733    -6022.92589007
  entropy T*S    EENTRO =        -0.00000000
  eigenvalues    EBANDS =      -759.21226681
  atomic energy  EATOM  =      6677.60654784
  Solvation  Ediel_sol  =         0.00000000
  ---------------------------------------------------
  free energy    TOTEN  =       -38.92771759 eV

  energy without entropy =      -38.92771759  energy(sigma->0) =      -38.92771759


--------------------------------------------------------------------------------------------------------




--------------------------------------- Iteration      1(   8)  ---------------------------------------


    POTLOK:  cpu time    0.0135: real time    0.0135
    SETDIJ:  cpu time    0.6883: real time    0.6883
atom =   1  type =  1  l = 2
 
 onsite density matrix
 
spin component  1
 
 -0.0143  0.0000  0.0196  0.0000 -0.0000
  0.0000 -0.0205  0.0000  0.0160  0.0000
  0.0196  0.0000 -0.0237  0.0000 -0.0000
  0.0000  0.0160  0.0000 -0.0205  0.0000
 -0.0000  0.0000 -0.0000  0.0000 -0.0396
 
spin component  2
 
  1.0302  0.0000  0.0172  0.0000  0.0000
  0.0000  1.0254  0.0000  0.0157  0.0000
  0.0172  0.0000  1.0191  0.0000  0.0000
  0.0000  0.0157  0.0000  1.0254  0.0000
  0.0000  0.0000  0.0000  0.0000  1.0110
 
 occupancies and eigenvectors
 
  o = -0.0396  v =  0.0000 -0.0000 -0.0000  0.0000 -1.0000  0.0000  0.0000  0.0000  0.0000  0.0000      0.0000  0.0000  0.0000  0.0000  0.0000  0.0000  0.0000  0.0000  0.0000  0.0000
  o = -0.0391  v = -0.6189 -0.0000  0.7854  0.0000 -0.0000  0.0000  0.0000  0.0000  0.0000  0.0000      0.0000  0.0000  0.0000  0.0000  0.0000  0.0000  0.0000  0.0000  0.0000  0.0000
  o = -0.0365  v =  0.0000  0.7071  0.0000 -0.7071 -0.0000  0.0000  0.0000  0.0000  0.0000  0.0000      0.0000  0.0000  0.0000  0.0000  0.0000  0.0000  0.0000  0.0000  0.0000  0.0000
  o = -0.0045  v =  0.0000 -0.7071  0.0000 -0.7071  0.0000  0.0000  0.0000  0.0000  0.0000  0.0000      0.0000  0.0000  0.0000  0.0000  0.0000  0.0000  0.0000  0.0000  0.0000  0.0000
  o =  0.0012  v =  0.7854 -0.0000  0.6189  0.0000 -0.0000  0.0000  0.0000  0.0000  0.0000  0.0000      0.0000  0.0000  0.0000  0.0000  0.0000  0.0000  0.0000  0.0000  0.0000  0.0000
  o =  1.0067  v =  0.0000  0.0000  0.0000  0.0000  0.0000 -0.5885 -0.0000  0.8085  0.0000 -0.0000      0.0000  0.0000  0.0000  0.0000  0.0000  0.0000  0.0000  0.0000  0.0000  0.0000
  o =  1.0097  v =  0.0000  0.0000  0.0000  0.0000  0.0000  0.0000 -0.7071 -0.0000  0.7071 -0.0000      0.0000  0.0000  0.0000  0.0000  0.0000  0.0000  0.0000  0.0000  0.0000  0.0000
  o =  1.0110  v =  0.0000  0.0000  0.0000  0.0000  0.0000 -0.0000 -0.0000  0.0000  0.0000  1.0000      0.0000  0.0000  0.0000  0.0000  0.0000  0.0000  0.0000  0.0000  0.0000  0.0000
  o =  1.0412  v =  0.0000  0.0000  0.0000  0.0000  0.0000 -0.0000  0.7071 -0.0000  0.7071 -0.0000      0.0000  0.0000  0.0000  0.0000  0.0000  0.0000  0.0000  0.0000  0.0000  0.0000
  o =  1.0427  v =  0.0000  0.0000  0.0000  0.0000  0.0000 -0.8085 -0.0000 -0.5885 -0.0000 -0.0000      0.0000  0.0000  0.0000  0.0000  0.0000  0.0000  0.0000  0.0000  0.0000  0.0000
atom =   2  type =  1  l = 2
 
 onsite density matrix
 
spin component  1
 
  1.0302  0.0000 -0.0172  0.0000 -0.0000
  0.0000  1.0254  0.0000 -0.0157  0.0000
 -0.0172  0.0000  1.0191  0.0000  0.0000
  0.0000 -0.0157  0.0000  1.0254  0.0000
 -0.0000  0.0000  0.0000  0.0000  1.0110
 
spin component  2
 
 -0.0143  0.0000 -0.0196  0.0000 -0.0000
  0.0000 -0.0205  0.0000 -0.0160  0.0000
 -0.0196  0.0000 -0.0237  0.0000 -0.0000
  0.0000 -0.0160  0.0000 -0.0205  0.0000
 -0.0000  0.0000 -0.0000  0.0000 -0.0396
 
 occupancies and eigenvectors
 
  o = -0.0396  v =  0.0000  0.0000  0.0000  0.0000  0.0000  0.0000  0.0000  0.0000  0.0000  1.0000      0.0000  0.0000  0.0000  0.0000  0.0000  0.0000  0.0000  0.0000  0.0000  0.0000
  o = -0.0391  v =  0.0000  0.0000  0.0000  0.0000  0.0000 -0.6189  0.0000 -0.7854  0.0000  0.0000      0.0000  0.0000  0.0000  0.0000  0.0000  0.0000  0.0000  0.0000  0.0000  0.0000
  o = -0.0365  v =  0.0000  0.0000  0.0000  0.0000  0.0000  0.0000  0.7071  0.0000  0.7071 -0.0000      0.0000  0.0000  0.0000  0.0000  0.0000  0.0000  0.0000  0.0000  0.0000  0.0000
  o = -0.0045  v =  0.0000  0.0000  0.0000  0.0000  0.0000  0.0000  0.7071  0.0000 -0.7071 -0.0000      0.0000  0.0000  0.0000  0.0000  0.0000  0.0000  0.0000  0.0000  0.0000  0.0000
  o =  0.0012  v =  0.0000  0.0000  0.0000  0.0000  0.0000  0.7854  0.0000 -0.6189  0.0000  0.0000      0.0000  0.0000  0.0000  0.0000  0.0000  0.0000  0.0000  0.0000  0.0000  0.0000
  o =  1.0067  v = -0.5885 -0.0000 -0.8085 -0.0000  0.0000  0.0000  0.0000  0.0000  0.0000  0.0000      0.0000  0.0000  0.0000  0.0000  0.0000  0.0000  0.0000  0.0000  0.0000  0.0000
  o =  1.0097  v =  0.0000 -0.7071  0.0000 -0.7071  0.0000  0.0000  0.0000  0.0000  0.0000  0.0000      0.0000  0.0000  0.0000  0.0000  0.0000  0.0000  0.0000  0.0000  0.0000  0.0000
  o =  1.0110  v =  0.0000  0.0000  0.0000  0.0000  1.0000  0.0000  0.0000  0.0000  0.0000  0.0000      0.0000  0.0000  0.0000  0.0000  0.0000  0.0000  0.0000  0.0000  0.0000  0.0000
  o =  1.0412  v = -0.0000  0.7071  0.0000 -0.7071 -0.0000  0.0000  0.0000  0.0000  0.0000  0.0000      0.0000  0.0000  0.0000  0.0000  0.0000  0.0000  0.0000  0.0000  0.0000  0.0000
  o =  1.0427  v = -0.8085 -0.0000  0.5885  0.0000  0.0000  0.0000  0.0000  0.0000  0.0000  0.0000      0.0000  0.0000  0.0000  0.0000  0.0000  0.0000  0.0000  0.0000  0.0000  0.0000
     EDDAV:  cpu time    0.3009: real time    0.3009
       DOS:  cpu time    0.0002: real time    0.0002
    CHARGE:  cpu time    0.0274: real time    0.0274
    MIXING:  cpu time    0.0005: real time    0.0005
    --------------------------------------------
      LOOP:  cpu time    1.0309: real time    1.0309

 eigenvalue-minimisations  :  1476
 total energy-change (2. order) :-0.6289762E-01  (-0.4152265E-01)
 number of electron      53.9999999 magnetization       0.0000000
 augmentation part       19.9552534 magnetization       0.0000000

 Broyden mixing:
  rms(total) = 0.52159E+00    rms(broyden)= 0.52159E+00
  rms(prec ) = 0.54589E+00
  weight for this iteration     100.00

 eigenvalues of (default mixing * dielectric matrix)
  average eigenvalue GAMMA=   1.1919
  2.0776  0.8950  0.6029

 Free energy of the ion-electron system (eV)
  ---------------------------------------------------
  alpha Z        PSCENC =       196.13658257
  Ewald energy   TEWEN  =     -4178.31221721
  -Hartree energ DENC   =     -2157.63184058
  -exchange      EXHF   =         0.00000000
  -V(xc)+E(xc)   XCENC  =       293.76741146
  PAW double counting   =      6127.09437121    -6231.37107653
  entropy T*S    EENTRO =        -0.00000000
  eigenvalues    EBANDS =      -766.28039397
  atomic energy  EATOM  =      6677.60654784
  Solvation  Ediel_sol  =         0.00000000
  ---------------------------------------------------
  free energy    TOTEN  =       -38.99061520 eV

  energy without entropy =      -38.99061520  energy(sigma->0) =      -38.99061520


--------------------------------------------------------------------------------------------------------




--------------------------------------- Iteration      1(   9)  ---------------------------------------


    POTLOK:  cpu time    0.0136: real time    0.0136
    SETDIJ:  cpu time    0.6877: real time    0.6877
atom =   1  type =  1  l = 2
 
 onsite density matrix
 
spin component  1
 
  0.0383  0.0000  0.0233  0.0000 -0.0000
  0.0000  0.0306  0.0000  0.0201  0.0000
  0.0233  0.0000  0.0254  0.0000 -0.0000
  0.0000  0.0201  0.0000  0.0306  0.0000
 -0.0000  0.0000 -0.0000  0.0000  0.0084
 
spin component  2
 
  0.9756  0.0000  0.0213  0.0000 -0.0000
  0.0000  0.9697  0.0000  0.0186  0.0000
  0.0213  0.0000  0.9633  0.0000  0.0000
  0.0000  0.0186  0.0000  0.9697  0.0000
 -0.0000  0.0000  0.0000  0.0000  0.9510
 
 occupancies and eigenvectors
 
  o =  0.0077  v = -0.6058  0.0000  0.7956  0.0000  0.0000  0.0000  0.0000  0.0000  0.0000  0.0000      0.0000  0.0000  0.0000  0.0000  0.0000  0.0000  0.0000  0.0000  0.0000  0.0000
  o =  0.0084  v = -0.0000 -0.0000  0.0000  0.0000 -1.0000  0.0000  0.0000  0.0000  0.0000  0.0000      0.0000  0.0000  0.0000  0.0000  0.0000  0.0000  0.0000  0.0000  0.0000  0.0000
  o =  0.0105  v =  0.0000  0.7071  0.0000 -0.7071 -0.0000  0.0000  0.0000  0.0000  0.0000  0.0000      0.0000  0.0000  0.0000  0.0000  0.0000  0.0000  0.0000  0.0000  0.0000  0.0000
  o =  0.0507  v =  0.0000  0.7071  0.0000  0.7071 -0.0000  0.0000  0.0000  0.0000  0.0000  0.0000      0.0000  0.0000  0.0000  0.0000  0.0000  0.0000  0.0000  0.0000  0.0000  0.0000
  o =  0.0560  v = -0.7956  0.0000 -0.6058  0.0000  0.0000  0.0000  0.0000  0.0000  0.0000  0.0000      0.0000  0.0000  0.0000  0.0000  0.0000  0.0000  0.0000  0.0000  0.0000  0.0000
  o =  0.9473  v =  0.0000  0.0000  0.0000  0.0000  0.0000 -0.6011  0.0000  0.7992 -0.0000 -0.0000      0.0000  0.0000  0.0000  0.0000  0.0000  0.0000  0.0000  0.0000  0.0000  0.0000
  o =  0.9510  v =  0.0000  0.0000  0.0000  0.0000  0.0000  0.0000  0.0000 -0.0000 -0.0000 -1.0000      0.0000  0.0000  0.0000  0.0000  0.0000  0.0000  0.0000  0.0000  0.0000  0.0000
  o =  0.9511  v =  0.0000  0.0000  0.0000  0.0000  0.0000  0.0000  0.7071 -0.0000 -0.7071  0.0000      0.0000  0.0000  0.0000  0.0000  0.0000  0.0000  0.0000  0.0000  0.0000  0.0000
  o =  0.9882  v =  0.0000  0.0000  0.0000  0.0000  0.0000 -0.0000 -0.7071 -0.0000 -0.7071  0.0000      0.0000  0.0000  0.0000  0.0000  0.0000  0.0000  0.0000  0.0000  0.0000  0.0000
  o =  0.9917  v =  0.0000  0.0000  0.0000  0.0000  0.0000 -0.7992  0.0000 -0.6011  0.0000 -0.0000      0.0000  0.0000  0.0000  0.0000  0.0000  0.0000  0.0000  0.0000  0.0000  0.0000
atom =   2  type =  1  l = 2
 
 onsite density matrix
 
spin component  1
 
  0.9756  0.0000 -0.0213  0.0000 -0.0000
  0.0000  0.9697  0.0000 -0.0186  0.0000
 -0.0213  0.0000  0.9633  0.0000  0.0000
  0.0000 -0.0186  0.0000  0.9697  0.0000
 -0.0000  0.0000  0.0000  0.0000  0.9510
 
spin component  2
 
  0.0383  0.0000 -0.0233  0.0000 -0.0000
  0.0000  0.0306  0.0000 -0.0201  0.0000
 -0.0233  0.0000  0.0254  0.0000 -0.0000
  0.0000 -0.0201  0.0000  0.0306  0.0000
 -0.0000  0.0000 -0.0000  0.0000  0.0084
 
 occupancies and eigenvectors
 
  o =  0.0077  v =  0.0000  0.0000  0.0000  0.0000  0.0000 -0.6058 -0.0000 -0.7956  0.0000 -0.0000      0.0000  0.0000  0.0000  0.0000  0.0000  0.0000  0.0000  0.0000  0.0000  0.0000
  o =  0.0084  v =  0.0000  0.0000  0.0000  0.0000  0.0000 -0.0000  0.0000 -0.0000  0.0000  1.0000      0.0000  0.0000  0.0000  0.0000  0.0000  0.0000  0.0000  0.0000  0.0000  0.0000
  o =  0.0105  v =  0.0000  0.0000  0.0000  0.0000  0.0000  0.0000 -0.7071  0.0000 -0.7071  0.0000      0.0000  0.0000  0.0000  0.0000  0.0000  0.0000  0.0000  0.0000  0.0000  0.0000
  o =  0.0507  v =  0.0000  0.0000  0.0000  0.0000  0.0000  0.0000  0.7071  0.0000 -0.7071 -0.0000      0.0000  0.0000  0.0000  0.0000  0.0000  0.0000  0.0000  0.0000  0.0000  0.0000
  o =  0.0560  v =  0.0000  0.0000  0.0000  0.0000  0.0000 -0.7956 -0.0000  0.6058  0.0000 -0.0000      0.0000  0.0000  0.0000  0.0000  0.0000  0.0000  0.0000  0.0000  0.0000  0.0000
  o =  0.9473  v = -0.6011  0.0000 -0.7992  0.0000 -0.0000  0.0000  0.0000  0.0000  0.0000  0.0000      0.0000  0.0000  0.0000  0.0000  0.0000  0.0000  0.0000  0.0000  0.0000  0.0000
  o =  0.9510  v =  0.0000  0.0000  0.0000  0.0000 -1.0000  0.0000  0.0000  0.0000  0.0000  0.0000      0.0000  0.0000  0.0000  0.0000  0.0000  0.0000  0.0000  0.0000  0.0000  0.0000
  o =  0.9511  v =  0.0000 -0.7071  0.0000 -0.7071 -0.0000  0.0000  0.0000  0.0000  0.0000  0.0000      0.0000  0.0000  0.0000  0.0000  0.0000  0.0000  0.0000  0.0000  0.0000  0.0000
  o =  0.9882  v =  0.0000  0.7071 -0.0000 -0.7071  0.0000  0.0000  0.0000  0.0000  0.0000  0.0000      0.0000  0.0000  0.0000  0.0000  0.0000  0.0000  0.0000  0.0000  0.0000  0.0000
  o =  0.9917  v = -0.7992  0.0000  0.6011  0.0000  0.0000  0.0000  0.0000  0.0000  0.0000  0.0000      0.0000  0.0000  0.0000  0.0000  0.0000  0.0000  0.0000  0.0000  0.0000  0.0000
     EDDAV:  cpu time    0.2727: real time    0.2727
       DOS:  cpu time    0.0002: real time    0.0002
    CHARGE:  cpu time    0.0275: real time    0.0275
    MIXING:  cpu time    0.0005: real time    0.0005
    --------------------------------------------
      LOOP:  cpu time    1.0022: real time    1.0022

 eigenvalue-minimisations  :  1332
 total energy-change (2. order) :-0.1612891E+00  (-0.4772408E-02)
 number of electron      53.9999999 magnetization       0.0000000
 augmentation part       19.9483472 magnetization       0.0000000

 Broyden mixing:
  rms(total) = 0.12862E+00    rms(broyden)= 0.12862E+00
  rms(prec ) = 0.14378E+00
  weight for this iteration     100.00

 eigenvalues of (default mixing * dielectric matrix)
  average eigenvalue GAMMA=   1.2248
  2.6198  0.8276  0.8276  0.6243

 Free energy of the ion-electron system (eV)
  ---------------------------------------------------
  alpha Z        PSCENC =       196.13658257
  Ewald energy   TEWEN  =     -4178.31221721
  -Hartree energ DENC   =     -2157.20775824
  -exchange      EXHF   =         0.00000000
  -V(xc)+E(xc)   XCENC  =       293.94538883
  PAW double counting   =      6282.81118875    -6390.83552856
  entropy T*S    EENTRO =        -0.00000000
  eigenvalues    EBANDS =      -763.29610832
  atomic energy  EATOM  =      6677.60654784
  Solvation  Ediel_sol  =         0.00000000
  ---------------------------------------------------
  free energy    TOTEN  =       -39.15190435 eV

  energy without entropy =      -39.15190435  energy(sigma->0) =      -39.15190435


--------------------------------------------------------------------------------------------------------




--------------------------------------- Iteration      1(  10)  ---------------------------------------


    POTLOK:  cpu time    0.0136: real time    0.0136
    SETDIJ:  cpu time    0.6896: real time    0.6896
atom =   1  type =  1  l = 2
 
 onsite density matrix
 
spin component  1
 
  0.0461  0.0000  0.0255  0.0000 -0.0000
  0.0000  0.0379  0.0000  0.0217  0.0000
  0.0255  0.0000  0.0323  0.0000  0.0000
  0.0000  0.0217  0.0000  0.0379  0.0000
 -0.0000  0.0000  0.0000  0.0000  0.0139
 
spin component  2
 
  0.9680  0.0000  0.0191  0.0000 -0.0000
  0.0000  0.9625  0.0000  0.0170  0.0000
  0.0191  0.0000  0.9566  0.0000 -0.0000
  0.0000  0.0170  0.0000  0.9625  0.0000
 -0.0000  0.0000 -0.0000  0.0000  0.9457
 
 occupancies and eigenvectors
 
  o =  0.0128  v = -0.6078 -0.0000  0.7941  0.0000 -0.0000  0.0000  0.0000  0.0000  0.0000  0.0000      0.0000  0.0000  0.0000  0.0000  0.0000  0.0000  0.0000  0.0000  0.0000  0.0000
  o =  0.0139  v = -0.0000  0.0000  0.0000  0.0000  1.0000  0.0000  0.0000  0.0000  0.0000  0.0000      0.0000  0.0000  0.0000  0.0000  0.0000  0.0000  0.0000  0.0000  0.0000  0.0000
  o =  0.0162  v =  0.0000  0.7071  0.0000 -0.7071 -0.0000  0.0000  0.0000  0.0000  0.0000  0.0000      0.0000  0.0000  0.0000  0.0000  0.0000  0.0000  0.0000  0.0000  0.0000  0.0000
  o =  0.0596  v =  0.0000 -0.7071  0.0000 -0.7071  0.0000  0.0000  0.0000  0.0000  0.0000  0.0000      0.0000  0.0000  0.0000  0.0000  0.0000  0.0000  0.0000  0.0000  0.0000  0.0000
  o =  0.0657  v = -0.7941 -0.0000 -0.6078  0.0000 -0.0000  0.0000  0.0000  0.0000  0.0000  0.0000      0.0000  0.0000  0.0000  0.0000  0.0000  0.0000  0.0000  0.0000  0.0000  0.0000
  o =  0.9424  v =  0.0000  0.0000  0.0000  0.0000  0.0000 -0.5972  0.0000  0.8021  0.0000  0.0000      0.0000  0.0000  0.0000  0.0000  0.0000  0.0000  0.0000  0.0000  0.0000  0.0000
  o =  0.9455  v =  0.0000  0.0000  0.0000  0.0000  0.0000  0.0000 -0.7071  0.0000  0.7071  0.0000      0.0000  0.0000  0.0000  0.0000  0.0000  0.0000  0.0000  0.0000  0.0000  0.0000
  o =  0.9457  v =  0.0000  0.0000  0.0000  0.0000  0.0000 -0.0000 -0.0000  0.0000  0.0000 -1.0000      0.0000  0.0000  0.0000  0.0000  0.0000  0.0000  0.0000  0.0000  0.0000  0.0000
  o =  0.9794  v =  0.0000  0.0000  0.0000  0.0000  0.0000  0.0000 -0.7071  0.0000 -0.7071  0.0000      0.0000  0.0000  0.0000  0.0000  0.0000  0.0000  0.0000  0.0000  0.0000  0.0000
  o =  0.9822  v =  0.0000  0.0000  0.0000  0.0000  0.0000 -0.8021  0.0000 -0.5972  0.0000  0.0000      0.0000  0.0000  0.0000  0.0000  0.0000  0.0000  0.0000  0.0000  0.0000  0.0000
atom =   2  type =  1  l = 2
 
 onsite density matrix
 
spin component  1
 
  0.9680  0.0000 -0.0191  0.0000 -0.0000
  0.0000  0.9625  0.0000 -0.0170  0.0000
 -0.0191  0.0000  0.9566  0.0000 -0.0000
  0.0000 -0.0170  0.0000  0.9625  0.0000
 -0.0000  0.0000 -0.0000  0.0000  0.9457
 
spin component  2
 
  0.0461  0.0000 -0.0255  0.0000 -0.0000
  0.0000  0.0379  0.0000 -0.0217  0.0000
 -0.0255  0.0000  0.0323  0.0000  0.0000
  0.0000 -0.0217  0.0000  0.0379  0.0000
 -0.0000  0.0000  0.0000  0.0000  0.0139
 
 occupancies and eigenvectors
 
  o =  0.0128  v =  0.0000  0.0000  0.0000  0.0000  0.0000 -0.6078  0.0000 -0.7941  0.0000  0.0000      0.0000  0.0000  0.0000  0.0000  0.0000  0.0000  0.0000  0.0000  0.0000  0.0000
  o =  0.0139  v =  0.0000  0.0000  0.0000  0.0000  0.0000 -0.0000 -0.0000 -0.0000  0.0000 -1.0000      0.0000  0.0000  0.0000  0.0000  0.0000  0.0000  0.0000  0.0000  0.0000  0.0000
  o =  0.0162  v =  0.0000  0.0000  0.0000  0.0000  0.0000  0.0000 -0.7071  0.0000 -0.7071  0.0000      0.0000  0.0000  0.0000  0.0000  0.0000  0.0000  0.0000  0.0000  0.0000  0.0000
  o =  0.0596  v =  0.0000  0.0000  0.0000  0.0000  0.0000  0.0000 -0.7071  0.0000  0.7071  0.0000      0.0000  0.0000  0.0000  0.0000  0.0000  0.0000  0.0000  0.0000  0.0000  0.0000
  o =  0.0657  v =  0.0000  0.0000  0.0000  0.0000  0.0000 -0.7941  0.0000  0.6078  0.0000  0.0000      0.0000  0.0000  0.0000  0.0000  0.0000  0.0000  0.0000  0.0000  0.0000  0.0000
  o =  0.9424  v = -0.5972 -0.0000 -0.8021  0.0000 -0.0000  0.0000  0.0000  0.0000  0.0000  0.0000      0.0000  0.0000  0.0000  0.0000  0.0000  0.0000  0.0000  0.0000  0.0000  0.0000
  o =  0.9455  v =  0.0000 -0.7071  0.0000 -0.7071  0.0000  0.0000  0.0000  0.0000  0.0000  0.0000      0.0000  0.0000  0.0000  0.0000  0.0000  0.0000  0.0000  0.0000  0.0000  0.0000
  o =  0.9457  v = -0.0000  0.0000 -0.0000  0.0000  1.0000  0.0000  0.0000  0.0000  0.0000  0.0000      0.0000  0.0000  0.0000  0.0000  0.0000  0.0000  0.0000  0.0000  0.0000  0.0000
  o =  0.9794  v =  0.0000  0.7071  0.0000 -0.7071 -0.0000  0.0000  0.0000  0.0000  0.0000  0.0000      0.0000  0.0000  0.0000  0.0000  0.0000  0.0000  0.0000  0.0000  0.0000  0.0000
  o =  0.9822  v = -0.8021 -0.0000  0.5972  0.0000 -0.0000  0.0000  0.0000  0.0000  0.0000  0.0000      0.0000  0.0000  0.0000  0.0000  0.0000  0.0000  0.0000  0.0000  0.0000  0.0000
     EDDAV:  cpu time    0.3228: real time    0.3228
       DOS:  cpu time    0.0002: real time    0.0002
    CHARGE:  cpu time    0.0277: real time    0.0277
    MIXING:  cpu time    0.0006: real time    0.0006
    --------------------------------------------
      LOOP:  cpu time    1.0544: real time    1.0545

 eigenvalue-minimisations  :  1584
 total energy-change (2. order) :-0.1050815E-02  (-0.1968943E-02)
 number of electron      53.9999999 magnetization      -0.0000000
 augmentation part       19.9467903 magnetization      -0.0000000

 Broyden mixing:
  rms(total) = 0.28236E-01    rms(broyden)= 0.28229E-01
  rms(prec ) = 0.31201E-01
  weight for this iteration     100.00

 eigenvalues of (default mixing * dielectric matrix)
  average eigenvalue GAMMA=   1.1571
  2.5234  0.9539  0.9539  0.7428  0.6114

 Free energy of the ion-electron system (eV)
  ---------------------------------------------------
  alpha Z        PSCENC =       196.13658257
  Ewald energy   TEWEN  =     -4178.31221721
  -Hartree energ DENC   =     -2157.99643254
  -exchange      EXHF   =         0.00000000
  -V(xc)+E(xc)   XCENC  =       294.05933007
  PAW double counting   =      6275.31772392    -6383.54368203
  entropy T*S    EENTRO =        -0.00000000
  eigenvalues    EBANDS =      -762.42080780
  atomic energy  EATOM  =      6677.60654784
  Solvation  Ediel_sol  =         0.00000000
  ---------------------------------------------------
  free energy    TOTEN  =       -39.15295517 eV

  energy without entropy =      -39.15295517  energy(sigma->0) =      -39.15295517


--------------------------------------------------------------------------------------------------------




--------------------------------------- Iteration      1(  11)  ---------------------------------------


    POTLOK:  cpu time    0.0137: real time    0.0137
    SETDIJ:  cpu time    0.6848: real time    0.6848
atom =   1  type =  1  l = 2
 
 onsite density matrix
 
spin component  1
 
  0.0445  0.0000  0.0252  0.0000 -0.0000
  0.0000  0.0363  0.0000  0.0215  0.0000
  0.0252  0.0000  0.0308  0.0000  0.0000
  0.0000  0.0215  0.0000  0.0363  0.0000
 -0.0000  0.0000  0.0000  0.0000  0.0127
 
spin component  2
 
  0.9704  0.0000  0.0191  0.0000  0.0000
  0.0000  0.9649  0.0000  0.0170  0.0000
  0.0191  0.0000  0.9590  0.0000 -0.0000
  0.0000  0.0170  0.0000  0.9649  0.0000
  0.0000  0.0000 -0.0000  0.0000  0.9482
 
 occupancies and eigenvectors
 
  o =  0.0115  v = -0.6069 -0.0000  0.7948  0.0000 -0.0000  0.0000  0.0000  0.0000  0.0000  0.0000      0.0000  0.0000  0.0000  0.0000  0.0000  0.0000  0.0000  0.0000  0.0000  0.0000
  o =  0.0127  v = -0.0000  0.0000  0.0000  0.0000  1.0000  0.0000  0.0000  0.0000  0.0000  0.0000      0.0000  0.0000  0.0000  0.0000  0.0000  0.0000  0.0000  0.0000  0.0000  0.0000
  o =  0.0149  v =  0.0000  0.7071  0.0000 -0.7071 -0.0000  0.0000  0.0000  0.0000  0.0000  0.0000      0.0000  0.0000  0.0000  0.0000  0.0000  0.0000  0.0000  0.0000  0.0000  0.0000
  o =  0.0578  v =  0.0000 -0.7071  0.0000 -0.7071  0.0000  0.0000  0.0000  0.0000  0.0000  0.0000      0.0000  0.0000  0.0000  0.0000  0.0000  0.0000  0.0000  0.0000  0.0000  0.0000
  o =  0.0638  v = -0.7948 -0.0000 -0.6069  0.0000 -0.0000  0.0000  0.0000  0.0000  0.0000  0.0000      0.0000  0.0000  0.0000  0.0000  0.0000  0.0000  0.0000  0.0000  0.0000  0.0000
  o =  0.9448  v =  0.0000  0.0000  0.0000  0.0000  0.0000 -0.5976  0.0000  0.8018  0.0000  0.0000      0.0000  0.0000  0.0000  0.0000  0.0000  0.0000  0.0000  0.0000  0.0000  0.0000
  o =  0.9480  v =  0.0000  0.0000  0.0000  0.0000  0.0000  0.0000 -0.7071  0.0000  0.7071 -0.0000      0.0000  0.0000  0.0000  0.0000  0.0000  0.0000  0.0000  0.0000  0.0000  0.0000
  o =  0.9482  v =  0.0000  0.0000  0.0000  0.0000  0.0000  0.0000  0.0000  0.0000  0.0000 -1.0000      0.0000  0.0000  0.0000  0.0000  0.0000  0.0000  0.0000  0.0000  0.0000  0.0000
  o =  0.9819  v =  0.0000  0.0000  0.0000  0.0000  0.0000  0.0000 -0.7071  0.0000 -0.7071 -0.0000      0.0000  0.0000  0.0000  0.0000  0.0000  0.0000  0.0000  0.0000  0.0000  0.0000
  o =  0.9846  v =  0.0000  0.0000  0.0000  0.0000  0.0000 -0.8018  0.0000 -0.5976  0.0000 -0.0000      0.0000  0.0000  0.0000  0.0000  0.0000  0.0000  0.0000  0.0000  0.0000  0.0000
atom =   2  type =  1  l = 2
 
 onsite density matrix
 
spin component  1
 
  0.9704  0.0000 -0.0191  0.0000  0.0000
  0.0000  0.9649  0.0000 -0.0170  0.0000
 -0.0191  0.0000  0.9590  0.0000  0.0000
  0.0000 -0.0170  0.0000  0.9649  0.0000
  0.0000  0.0000  0.0000  0.0000  0.9482
 
spin component  2
 
  0.0445  0.0000 -0.0252  0.0000 -0.0000
  0.0000  0.0363  0.0000 -0.0215  0.0000
 -0.0252  0.0000  0.0308  0.0000 -0.0000
  0.0000 -0.0215  0.0000  0.0363  0.0000
 -0.0000  0.0000 -0.0000  0.0000  0.0127
 
 occupancies and eigenvectors
 
  o =  0.0115  v =  0.0000  0.0000  0.0000  0.0000  0.0000 -0.6069  0.0000 -0.7948  0.0000 -0.0000      0.0000  0.0000  0.0000  0.0000  0.0000  0.0000  0.0000  0.0000  0.0000  0.0000
  o =  0.0127  v =  0.0000  0.0000  0.0000  0.0000  0.0000 -0.0000 -0.0000 -0.0000 -0.0000  1.0000      0.0000  0.0000  0.0000  0.0000  0.0000  0.0000  0.0000  0.0000  0.0000  0.0000
  o =  0.0149  v =  0.0000  0.0000  0.0000  0.0000  0.0000  0.0000 -0.7071  0.0000 -0.7071 -0.0000      0.0000  0.0000  0.0000  0.0000  0.0000  0.0000  0.0000  0.0000  0.0000  0.0000
  o =  0.0578  v =  0.0000  0.0000  0.0000  0.0000  0.0000 -0.0000  0.7071  0.0000 -0.7071  0.0000      0.0000  0.0000  0.0000  0.0000  0.0000  0.0000  0.0000  0.0000  0.0000  0.0000
  o =  0.0638  v =  0.0000  0.0000  0.0000  0.0000  0.0000 -0.7948 -0.0000  0.6069  0.0000 -0.0000      0.0000  0.0000  0.0000  0.0000  0.0000  0.0000  0.0000  0.0000  0.0000  0.0000
  o =  0.9448  v = -0.5976  0.0000 -0.8018  0.0000  0.0000  0.0000  0.0000  0.0000  0.0000  0.0000      0.0000  0.0000  0.0000  0.0000  0.0000  0.0000  0.0000  0.0000  0.0000  0.0000
  o =  0.9480  v =  0.0000  0.7071  0.0000  0.7071  0.0000  0.0000  0.0000  0.0000  0.0000  0.0000      0.0000  0.0000  0.0000  0.0000  0.0000  0.0000  0.0000  0.0000  0.0000  0.0000
  o =  0.9482  v =  0.0000  0.0000 -0.0000  0.0000 -1.0000  0.0000  0.0000  0.0000  0.0000  0.0000      0.0000  0.0000  0.0000  0.0000  0.0000  0.0000  0.0000  0.0000  0.0000  0.0000
  o =  0.9819  v =  0.0000  0.7071  0.0000 -0.7071  0.0000  0.0000  0.0000  0.0000  0.0000  0.0000      0.0000  0.0000  0.0000  0.0000  0.0000  0.0000  0.0000  0.0000  0.0000  0.0000
  o =  0.9846  v = -0.8018  0.0000  0.5976  0.0000 -0.0000  0.0000  0.0000  0.0000  0.0000  0.0000      0.0000  0.0000  0.0000  0.0000  0.0000  0.0000  0.0000  0.0000  0.0000  0.0000
     EDDAV:  cpu time    0.2784: real time    0.2784
       DOS:  cpu time    0.0002: real time    0.0002
    CHARGE:  cpu time    0.0276: real time    0.0276
    MIXING:  cpu time    0.0006: real time    0.0006
    --------------------------------------------
[...]
      1     -46.6908      1.00000
      2     -46.6521      1.00000
      3     -46.6356      1.00000
      4     -41.7102      1.00000
      5     -41.6772      1.00000
      6     -41.6542      1.00000
      7     -20.8091      1.00000
      8     -20.6816      1.00000
      9     -20.6323      1.00000
     10     -20.5441      1.00000
     11      -4.2196      1.00000
     12      -3.9179      1.00000
     13      -3.5602      1.00000
     14      -3.4975      1.00000
     15      -3.3829      1.00000
     16      -3.1333      1.00000
     17      -2.6662      1.00000
     18      -2.4616      1.00000
     19      -2.4335      1.00000
     20      -1.9667      1.00000
     21      -1.7937      1.00000
     22      -1.7313      1.00000
     23      -0.4888      1.00000
     24      -0.2531      1.00000
     25       0.0856      1.00000
     26       0.6080      1.00000
     27       0.9238      1.00000
     28       7.1443      0.00000
     29       7.1741      0.00000
     30       7.2690      0.00000
     31       7.9522      0.00000
     32       8.0960      0.00000
     33       8.6011      0.00000
     34      10.7646      0.00000
     35      12.0528      0.00000
     36      12.5150      0.00000

 k-point     8 :       0.3750    0.1250    0.4167
  band No.  band energies     occupation 
      1     -46.6908      1.00000
      2     -46.6521      1.00000
      3     -46.6356      1.00000
      4     -41.7102      1.00000
      5     -41.6772      1.00000
      6     -41.6543      1.00000
      7     -20.7522      1.00000
      8     -20.6953      1.00000
      9     -20.6469      1.00000
     10     -20.5723      1.00000
     11      -4.0898      1.00000
     12      -3.9751      1.00000
     13      -3.8715      1.00000
     14      -3.5803      1.00000
     15      -3.3907      1.00000
     16      -2.9484      1.00000
     17      -2.7946      1.00000
     18      -2.6227      1.00000
     19      -2.2221      1.00000
     20      -1.9211      1.00000
     21      -1.6822      1.00000
     22      -1.5638      1.00000
     23      -0.4800      1.00000
     24      -0.3154      1.00000
     25      -0.0188      1.00000
     26       0.5599      1.00000
     27       1.1336      1.00000
     28       7.1417      0.00000
     29       7.1687      0.00000
     30       7.3973      0.00000
     31       7.8600      0.00000
     32       8.3583      0.00000
     33       9.1004      0.00000
     34      10.5635      0.00000
     35      11.0633      0.00000
     36      12.2547      0.00000

 k-point     9 :       0.3750    0.3750    0.4167
  band No.  band energies     occupation 
      1     -46.6909      1.00000
      2     -46.6521      1.00000
      3     -46.6357      1.00000
      4     -41.7102      1.00000
      5     -41.6772      1.00000
      6     -41.6543      1.00000
      7     -20.7309      1.00000
      8     -20.7211      1.00000
      9     -20.6484      1.00000
     10     -20.5635      1.00000
     11      -4.3522      1.00000
     12      -4.1001      1.00000
     13      -3.8466      1.00000
     14      -3.7690      1.00000
     15      -3.4448      1.00000
     16      -2.9599      1.00000
     17      -2.6485      1.00000
     18      -2.4117      1.00000
     19      -2.0282      1.00000
     20      -1.7390      1.00000
     21      -1.6192      1.00000
     22      -1.5164      1.00000
     23      -0.4811      1.00000
     24      -0.3069      1.00000
     25      -0.0643      1.00000
     26       0.6092      1.00000
     27       1.0817      1.00000
     28       7.1479      0.00000
     29       7.1931      0.00000
     30       7.4267      0.00000
     31       7.8514      0.00000
     32       8.2315      0.00000
     33       9.5255      0.00000
     34      11.0469      0.00000
     35      11.2440      0.00000
     36      11.2882      0.00000


--------------------------------------------------------------------------------------------------------


 soft charge-density along one line, spin component           1
         0         1         2         3         4         5         6         7         8         9
 total charge-density along one line
 
 soft charge-density along one line, spin component           2
         0         1         2         3         4         5         6         7         8         9
 total charge-density along one line
 
 pseudopotential strength for first ion, spin component:           1
-42.460  -0.000  -0.028   7.852   0.000   0.012   0.000   0.000
 -0.000 -42.431  -0.000   0.000   7.840   0.000  -0.000   0.000
 -0.028  -0.000 -42.460   0.012   0.000   7.852   0.000  -0.000
  7.852   0.000   0.012   5.261  -0.000  -0.002  -0.000  -0.000
  0.000   7.840   0.000  -0.000   5.263  -0.000   0.000  -0.000
  0.012   0.000   7.852  -0.002  -0.000   5.261  -0.000   0.000
  0.000  -0.000   0.000  -0.000   0.000  -0.000  -1.436  -0.000
  0.000   0.000  -0.000  -0.000  -0.000   0.000  -0.000  -1.394
 -0.000   0.000  -0.000   0.000  -0.000   0.000  -0.065   0.000
 -0.000   0.000   0.000   0.000  -0.000  -0.000  -0.000  -0.083
 -0.000  -0.000   0.000   0.000   0.000  -0.000  -0.000   0.000
  0.000  -0.000   0.000  -0.000   0.000  -0.000  -1.878  -0.000
  0.000   0.000  -0.000  -0.000  -0.000   0.000  -0.000  -1.835
 -0.000   0.000  -0.000   0.000  -0.000   0.000  -0.069   0.000
 -0.000   0.000   0.000   0.000  -0.000  -0.000  -0.000  -0.085
 -0.000  -0.000   0.000   0.000   0.000  -0.000  -0.000   0.000
 -0.000  -0.000  -0.000  -0.000  -0.000  -0.000   0.007   0.000
 -0.000  -0.000  -0.000  -0.000  -0.000  -0.000   0.013   0.000
 pseudopotential strength for first ion, spin component:           2
-45.800  -0.000  -0.020   9.383   0.000   0.007   0.000   0.000
 -0.000 -45.781  -0.000   0.000   9.376   0.000  -0.000   0.000
 -0.020  -0.000 -45.800   0.007   0.000   9.383   0.000  -0.000
  9.383   0.000   0.007   4.746  -0.000  -0.001  -0.000  -0.000
  0.000   9.376   0.000  -0.000   4.748  -0.000   0.000  -0.000
  0.007   0.000   9.383  -0.001  -0.000   4.746  -0.000   0.000
  0.000  -0.000   0.000  -0.000   0.000  -0.000  -7.727  -0.000
  0.000   0.000  -0.000  -0.000  -0.000   0.000  -0.000  -7.698
 -0.000   0.000  -0.000   0.000  -0.000   0.000  -0.046   0.000
 -0.000   0.000   0.000   0.000  -0.000  -0.000  -0.000  -0.065
 -0.000  -0.000   0.000   0.000   0.000  -0.000   0.000   0.000
  0.000  -0.000   0.000  -0.000   0.000  -0.000  -8.223  -0.000
  0.000   0.000  -0.000  -0.000  -0.000   0.000  -0.000  -8.194
 -0.000   0.000  -0.000   0.000  -0.000   0.000  -0.048   0.000
 -0.000   0.000   0.000   0.000  -0.000  -0.000  -0.000  -0.067
 -0.000  -0.000   0.000   0.000   0.000  -0.000   0.000   0.000
 -0.000  -0.000  -0.000  -0.000  -0.000  -0.000   0.003   0.000
 -0.000  -0.000  -0.000  -0.000  -0.000  -0.000   0.005   0.000
 total augmentation occupancy for first ion, spin component:           1
  1.998   0.000   0.000  -0.013   0.000   0.000   0.000   0.000   0.000   0.000   0.000   0.000   0.000   0.000   0.000   0.000
  0.000   1.998   0.000   0.000  -0.013   0.000   0.000   0.000   0.000   0.000   0.000   0.000   0.000   0.000   0.000   0.000
  0.000   0.000   1.998   0.000   0.000  -0.013   0.000   0.000   0.000   0.000   0.000   0.000   0.000   0.000   0.000   0.000
 -0.013   0.000   0.000   0.086   0.000  -0.008   0.000   0.000   0.000   0.000   0.000   0.000   0.000   0.000   0.000   0.000
  0.000  -0.013   0.000   0.000   0.098   0.000   0.000   0.000   0.000   0.000   0.000   0.000   0.000   0.000   0.000   0.000
  0.000   0.000  -0.013  -0.008   0.000   0.086   0.000   0.000   0.000   0.000   0.000   0.000   0.000   0.000   0.000   0.000
  0.000   0.000   0.000   0.000   0.000   0.000   7.633   0.000   2.916   0.000  -0.000  -5.686   0.000  -2.755   0.000   0.000
  0.000   0.000   0.000   0.000   0.000   0.000   0.000   6.532   0.000   2.567   0.000   0.000  -4.638   0.000  -2.419   0.000
  0.000   0.000   0.000   0.000   0.000   0.000   2.916   0.000   5.907   0.000  -0.000  -2.756   0.000  -4.071   0.000  -0.000
  0.000   0.000   0.000   0.000   0.000   0.000   0.000   2.567   0.000   6.532   0.000   0.000  -2.419   0.000  -4.638   0.000
  0.000   0.000   0.000   0.000   0.000   0.000  -0.000   0.000   0.000   0.000   3.848   0.000   0.000   0.000   0.000  -2.085
  0.000   0.000   0.000   0.000   0.000   0.000  -5.686   0.000  -2.756   0.000   0.000   4.906   0.000   2.633   0.000  -0.000
  0.000   0.000   0.000   0.000   0.000   0.000   0.000  -4.638   0.000  -2.419   0.000   0.000   3.901   0.000   2.306   0.000
  0.000   0.000   0.000   0.000   0.000   0.000  -2.755   0.000  -4.071   0.000  -0.000   2.633   0.000   3.381   0.000   0.000
  0.000   0.000   0.000   0.000   0.000   0.000   0.000  -2.419   0.000  -4.638   0.000   0.000   2.306   0.000   3.901   0.000
  0.000   0.000   0.000   0.000   0.000   0.000   0.000   0.000   0.000   0.000  -2.085  -0.000   0.000   0.000   0.000   1.446
  0.000   0.000   0.000   0.000   0.000   0.000   0.200   0.000  -0.215   0.000   0.000  -0.232   0.000   0.231   0.000   0.000
  0.000   0.000   0.000   0.000   0.000   0.000   0.003   0.000   0.015   0.000  -0.000   0.023   0.000  -0.031   0.000   0.000
 total augmentation occupancy for first ion, spin component:           2
  0.003   0.000  -0.000   0.011   0.000  -0.000   0.000   0.000   0.000   0.000   0.000   0.000   0.000   0.000   0.000   0.000
  0.000   0.003   0.000   0.000   0.012   0.000   0.000   0.000   0.000   0.000   0.000   0.000   0.000   0.000   0.000   0.000
 -0.000   0.000   0.003  -0.000   0.000   0.011   0.000   0.000   0.000   0.000   0.000   0.000   0.000   0.000   0.000   0.000
  0.011   0.000  -0.000  -0.011   0.000  -0.000   0.000   0.000   0.000   0.000   0.000   0.000   0.000   0.000   0.000   0.000
  0.000   0.012   0.000   0.000  -0.011   0.000   0.000   0.000   0.000   0.000   0.000   0.000   0.000   0.000   0.000   0.000
 -0.000   0.000   0.011  -0.000   0.000  -0.011   0.000   0.000   0.000   0.000   0.000   0.000   0.000   0.000   0.000   0.000
  0.000   0.000   0.000   0.000   0.000   0.000  -5.383   0.000  -1.640   0.000   0.000   3.093   0.000   1.291   0.000   0.000
  0.000   0.000   0.000   0.000   0.000   0.000   0.000  -4.771   0.000  -1.459   0.000   0.000   2.598   0.000   1.149   0.000
  0.000   0.000   0.000   0.000   0.000   0.000  -1.640   0.000  -4.337   0.000   0.000   1.291   0.000   2.263   0.000   0.000
  0.000   0.000   0.000   0.000   0.000   0.000   0.000  -1.459   0.000  -4.771   0.000   0.000   1.149   0.000   2.598   0.000
  0.000   0.000   0.000   0.000   0.000   0.000   0.000   0.000  -0.000   0.000  -3.302  -0.000   0.000  -0.000   0.000   1.439
  0.000   0.000   0.000   0.000   0.000   0.000   3.093   0.000   1.291   0.000   0.000  -1.912   0.000  -0.947   0.000  -0.000
  0.000   0.000   0.000   0.000   0.000   0.000   0.000   2.598   0.000   1.149   0.000   0.000  -1.534   0.000  -0.845   0.000
  0.000   0.000   0.000   0.000   0.000   0.000   1.291   0.000   2.263   0.000   0.000  -0.947   0.000  -1.293   0.000  -0.000
  0.000   0.000   0.000   0.000   0.000   0.000   0.000   1.149   0.000   2.598   0.000   0.000  -0.845   0.000  -1.534   0.000
  0.000   0.000   0.000   0.000   0.000   0.000   0.000   0.000  -0.000   0.000   1.439  -0.000   0.000  -0.000   0.000  -0.681
  0.000   0.000   0.000   0.000   0.000   0.000   0.024   0.000   0.008   0.000   0.000  -0.025   0.000   0.004   0.000   0.000
  0.000   0.000   0.000   0.000   0.000   0.000  -0.048   0.000   0.025   0.000   0.000   0.029   0.000  -0.014   0.000   0.000


------------------------ aborting loop because EDIFF is reached ----------------------------------------


 


 total charge     
 
# of ion       s       p       d       tot
------------------------------------------
    1        0.164   6.154   4.951  11.269
    2        0.169   6.149   4.957  11.275
    3        1.734   4.365   0.000   6.098
    4        1.734   4.365   0.000   6.098
    5        1.733   4.360   0.000   6.094
    6        1.733   4.360   0.000   6.094
--------------------------------------------------
tot          7.268  29.753   9.908  46.928
 


 magnetization (x)
 
# of ion       s       p       d       tot
------------------------------------------
    1       -0.018  -0.019  -4.629  -4.666
    2        0.019   0.018   4.626   4.663
    3        0.002   0.017   0.000   0.019
    4        0.002   0.017   0.000   0.019
    5       -0.002  -0.013   0.000  -0.015
    6       -0.002  -0.013   0.000  -0.015
--------------------------------------------------
tot         -0.001   0.006  -0.002   0.003
 
    CHARGE:  cpu time    0.0238: real time    0.0238
    FORLOC:  cpu time    0.0009: real time    0.0009
    FORNL :  cpu time    0.1304: real time    0.1304
    STRESS:  cpu time    0.3774: real time    0.3774
    FORCOR:  cpu time    0.0127: real time    0.0127
    FORHAR:  cpu time    0.0018: real time    0.0018
    MIXING:  cpu time    0.0004: real time    0.0004
    OFIELD:  cpu time    0.0000: real time    0.0000

  FORCE on cell =-STRESS in cart. coord.  units (eV):
  Direction    XX          YY          ZZ          XY          YZ          ZX
  --------------------------------------------------------------------------------------
  Alpha Z   196.39203   196.39203   196.39203
  Ewald   -1583.05472 -1583.05472 -1014.03134    -0.00000    -0.00000    -0.00000
  Hartree   590.98533   590.98533   975.57392    -0.00000    -0.00000    -0.00000
  E(xc)    -314.11454  -314.11454  -313.89533    -0.00000    -0.00000    -0.00000
  Local     162.10268   162.10268  -784.53332     0.00000     0.00000    -0.00000
  n-local  -242.43288  -242.77759  -241.55486     0.02019     0.11653     0.11967
  augment   265.59426   265.59426   265.08080     0.00000     0.00000     0.00000
  Kinetic   924.27555   925.11001   916.98645    -0.47079    -0.87930    -0.93713
  Fock        0.00000     0.00000     0.00000     0.00000     0.00000     0.00000
  -------------------------------------------------------------------------------------
  Total      -0.00742    -0.00742     0.01836     0.00000     0.00000     0.00000
  in kB      -0.15120    -0.15120     0.37416     0.00000     0.00000     0.00000
  external pressure =        0.02 kB  Pullay stress =        0.00 kB


 VOLUME and BASIS-vectors are now :
 -----------------------------------------------------------------------------
  energy-cutoff  :      500.00
  volume of cell :       78.61
      direct lattice vectors                 reciprocal lattice vectors
     4.880875401 -0.000000000  0.000000000     0.204881280  0.000000000  0.000000000
    -0.000000000  4.880875401  0.000000000     0.000000000  0.204881280  0.000000000
     0.000000000  0.000000000  3.299569628     0.000000000  0.000000000  0.303069828

  length of vectors
     4.880875401  4.880875401  3.299569628     0.204881280  0.204881280  0.303069828


 FORCES acting on ions
    electron-ion (+dipol)            ewald-force                    non-local-force                 convergence-correction
 -----------------------------------------------------------------------------------------------
   0.219E-11 0.521E-11 0.446E-11   -.568E-13 0.114E-12 0.874E-14   -.315E-28 0.000E+00 0.000E+00   -.655E-13 -.170E-13 0.261E-12
   -.115E-13 -.194E-13 0.570E-13   -.284E-13 -.568E-13 0.857E-14   0.808E-29 0.000E+00 0.000E+00   0.124E-12 0.561E-13 -.294E-12
   -.344E+02 0.344E+02 0.393E-11   0.358E+02 -.358E+02 -.519E-14   -.140E+01 0.140E+01 0.217E-18   -.446E-05 0.446E-05 0.448E-13
   0.344E+02 -.344E+02 -.123E-10   -.358E+02 0.358E+02 -.477E-14   0.140E+01 -.140E+01 -.217E-18   0.446E-05 -.446E-05 0.404E-12
   0.344E+02 0.344E+02 -.358E-07   -.358E+02 -.358E+02 -.386E-14   0.140E+01 0.140E+01 0.325E-18   0.446E-05 0.446E-05 0.118E-11
   -.344E+02 -.344E+02 0.358E-07   0.358E+02 0.358E+02 -.351E-14   -.140E+01 -.140E+01 -.325E-18   -.446E-05 -.446E-05 -.153E-11
 -----------------------------------------------------------------------------------------------
   0.105E-11 0.112E-10 0.700E-11   0.711E-14 -.711E-14 -.148E-16   0.000E+00 0.000E+00 0.000E+00   0.501E-13 -.329E-13 0.596E-13
 
 
 POSITION                                       TOTAL-FORCE (eV/Angst)
 -----------------------------------------------------------------------------------
      2.44044      2.44044      1.64978        -0.000000      0.000000     -0.000000
      0.00000      0.00000      0.00000        -0.000000      0.000000     -0.000000
      0.95386      3.92702      1.64978        -0.000379      0.000379     -0.000000
      3.92702      0.95386      1.64978         0.000379     -0.000379     -0.000000
      1.48658      1.48658     -0.00000         0.000379      0.000379     -0.000000
      3.39430      3.39430      0.00000        -0.000379     -0.000379      0.000000
 -----------------------------------------------------------------------------------
    total drift:                                0.000000      0.000000      0.000000


--------------------------------------------------------------------------------------------------------



  FREE ENERGIE OF THE ION-ELECTRON SYSTEM (eV)
  ---------------------------------------------------
  free  energy   TOTEN  =       -39.15345541 eV

  energy  without entropy=      -39.15345541  energy(sigma->0) =      -39.15345541
 
 d Force =-0.2738953E-07[-0.526E-07,-0.216E-08]  d Energy = 0.2297011E-05-0.232E-05
 d Force = 0.4974271E-02[ 0.497E-02, 0.497E-02]  d Ewald  =-0.3974808E+00 0.402E+00


--------------------------------------------------------------------------------------------------------


    POTLOK:  cpu time    0.3785: real time    0.3785


--------------------------------------------------------------------------------------------------------




--------------------------------------------------------------------------------------------------------


  
 reached required accuracy - stopping structural energy minimisation
     LOOP+:  cpu time    5.1491: real time    5.1492
    4ORBIT:  cpu time    0.0000: real time    0.0000
 


 total charge     
 
# of ion       s       p       d       tot
------------------------------------------
    1        0.164   6.154   4.951  11.269
    2        0.169   6.149   4.957  11.275
    3        1.734   4.365   0.000   6.098
    4        1.734   4.365   0.000   6.098
    5        1.733   4.360   0.000   6.094
    6        1.733   4.360   0.000   6.094
--------------------------------------------------
tot          7.268  29.753   9.908  46.928
 


 magnetization (x)
 
# of ion       s       p       d       tot
------------------------------------------
    1       -0.018  -0.019  -4.629  -4.666
    2        0.019   0.018   4.626   4.663
    3        0.002   0.017   0.000   0.019
    4        0.002   0.017   0.000   0.019
    5       -0.002  -0.013   0.000  -0.015
    6       -0.002  -0.013   0.000  -0.015
--------------------------------------------------
tot         -0.001   0.006  -0.002   0.003
 

 total amount of memory used by VASP MPI-rank0    40956. kBytes
=======================================================================

   base      :      30000. kBytes
   nonl-proj :       5419. kBytes
   fftplans  :       1551. kBytes
   grid      :       1996. kBytes
   one-center:        186. kBytes
   wavefun   :       1804. kBytes
 
  
  
 General timing and accounting informations for this job:
 ========================================================
  
                  Total CPU time used (sec):       26.417
                            User time (sec):       18.017
                          System time (sec):        8.400
                         Elapsed time (sec):       26.493
  
                   Maximum memory used (kb):       56892.
                   Average memory used (kb):           0.
  
                          Minor page faults:         8348
                          Major page faults:            7
                 Voluntary context switches:          153
