       N       E                     dE             d eps       ncg     rms          rms(c)
DAV:   1     0.652514012769E+03    0.65251E+03   -0.32630E+04  1296   0.176E+03
DAV:   2     0.520413900174E+01   -0.64731E+03   -0.62900E+03  1512   0.494E+02
DAV:   3    -0.395170697609E+02   -0.44721E+02   -0.44556E+02  1464   0.145E+02
DAV:   4    -0.400969452541E+02   -0.57988E+00   -0.57970E+00  1536   0.181E+01
DAV:   5    -0.401066238296E+02   -0.96786E-02   -0.96785E-02  1464   0.224E+00    0.225E+01
DAV:   6    -0.382096247017E+02    0.18970E+01   -0.15658E+01  1596   0.316E+01    0.143E+01
DAV:   7    -0.389319925930E+02   -0.72237E+00   -0.18224E+00  1548   0.107E+01    0.113E+01
DAV:   8    -0.389929800505E+02   -0.60987E-01   -0.41708E-01  1488   0.546E+00    0.522E+00
DAV:   9    -0.391544071802E+02   -0.16143E+00   -0.48057E-02  1332   0.216E+00    0.128E+00
DAV:  10    -0.391554934066E+02   -0.10862E-02   -0.19864E-02  1608   0.124E+00    0.283E-01
DAV:  11    -0.391557360425E+02   -0.24264E-03   -0.27812E-03  1368   0.349E-01    0.133E-01
DAV:  12    -0.391558883944E+02   -0.15235E-03   -0.10106E-04  1560   0.121E-01    0.537E-02
DAV:  13    -0.391559433285E+02   -0.54934E-04   -0.87145E-05  1368   0.539E-02    0.210E-02
DAV:  14    -0.391559526157E+02   -0.92872E-05   -0.83679E-06  1536   0.210E-02    0.891E-03
DAV:  15    -0.391559524245E+02    0.19126E-06   -0.13882E-06  1416   0.719E-03    0.261E-03
DAV:  16    -0.391559526814E+02   -0.25697E-06   -0.21428E-07  1416   0.270E-03    0.175E-03
DAV:  17    -0.391559526433E+02    0.38159E-07   -0.16993E-08   900   0.105E-03
   1 F= -.39155953E+02 E0= -.39155953E+02  d E =-.391560E+02  mag=    -0.0000
       N       E                     dE             d eps       ncg     rms          rms(c)
DAV:   1    -0.391590707422E+02   -0.31181E-02   -0.63093E-02  1296   0.227E+00    0.481E-01
DAV:   2    -0.391561564660E+02    0.29143E-02   -0.90077E-03  1296   0.669E-01    0.272E-01
DAV:   3    -0.391560978412E+02    0.58625E-04   -0.74908E-04  1320   0.301E-01    0.107E-01
DAV:   4    -0.391560594412E+02    0.38400E-04   -0.68461E-05  1572   0.680E-02    0.718E-02
DAV:   5    -0.391560432589E+02    0.16182E-04   -0.14880E-05  1524   0.313E-02    0.254E-02
DAV:   6    -0.391560445736E+02   -0.13148E-05   -0.13164E-06  1740   0.130E-02    0.260E-03
DAV:   7    -0.391560445434E+02    0.30233E-07   -0.22826E-07  1404   0.343E-03
   2 F= -.39156045E+02 E0= -.39156045E+02  d E =-.919001E-04  mag=     0.0000
