       N       E                     dE             d eps       ncg     rms          rms(c)
DAV:   1     0.979012697089E+03    0.97901E+03   -0.37485E+04   288   0.201E+03
DAV:   2     0.404972609840E+03   -0.57404E+03   -0.54980E+03   336   0.518E+02
DAV:   3     0.369596416407E+03   -0.35376E+02   -0.35133E+02   300   0.139E+02
DAV:   4     0.369131451824E+03   -0.46496E+00   -0.46460E+00   384   0.174E+01
DAV:   5     0.369123292191E+03   -0.81596E-02   -0.81596E-02   288   0.210E+00    0.588E+01
DAV:   6    -0.685416785765E+02   -0.43766E+03   -0.28318E+02   360   0.211E+02    0.630E+01
DAV:   7    -0.712614944530E+02   -0.27198E+01   -0.52834E+01   288   0.457E+01    0.172E+01
DAV:   8    -0.685985148819E+02    0.26630E+01   -0.73256E+00   348   0.218E+01    0.627E+00
DAV:   9    -0.681733422794E+02    0.42517E+00   -0.45473E+00   336   0.183E+01    0.808E+00
DAV:  10    -0.680878485624E+02    0.85494E-01   -0.43979E-01   312   0.598E+00    0.585E+00
DAV:  11    -0.680642809790E+02    0.23568E-01   -0.94466E-01   348   0.676E+00    0.185E+00
DAV:  12    -0.680364153289E+02    0.27866E-01   -0.89739E-02   384   0.300E+00    0.139E+00
DAV:  13    -0.680287057777E+02    0.77096E-02   -0.77561E-02   348   0.168E+00    0.120E+00
DAV:  14    -0.680231886499E+02    0.55171E-02   -0.52676E-02   288   0.271E+00    0.444E-01
DAV:  15    -0.680237234320E+02   -0.53478E-03   -0.62248E-03   300   0.483E-01    0.396E-01
DAV:  16    -0.680233962941E+02    0.32714E-03   -0.27610E-03   288   0.458E-01    0.123E-01
DAV:  17    -0.680232118359E+02    0.18446E-03   -0.93807E-04   336   0.250E-01    0.597E-02
DAV:  18    -0.680230588065E+02    0.15303E-03   -0.38915E-05   336   0.481E-02    0.309E-02
DAV:  19    -0.680230715713E+02   -0.12765E-04   -0.34912E-05   324   0.371E-02    0.618E-03
DAV:  20    -0.680230754961E+02   -0.39248E-05   -0.27648E-06   324   0.107E-02    0.372E-03
DAV:  21    -0.680230776904E+02   -0.21943E-05   -0.93176E-07   288   0.980E-03    0.203E-03
DAV:  22    -0.680230830102E+02   -0.53198E-05   -0.93963E-08   180   0.239E-03    0.943E-04
DAV:  23    -0.680230826009E+02    0.40933E-06   -0.63701E-08   144   0.163E-03    0.730E-04
DAV:  24    -0.680230824885E+02    0.11231E-06   -0.18400E-08   144   0.112E-03    0.294E-04
DAV:  25    -0.680230830218E+02   -0.53323E-06   -0.74628E-09   144   0.763E-04    0.244E-04
DAV:  26    -0.680230827491E+02    0.27270E-06   -0.17067E-09   144   0.291E-04    0.256E-04
DAV:  27    -0.680230828340E+02   -0.84940E-07   -0.22031E-10   144   0.150E-04
   1 F= -.68023083E+02 E0= -.68023083E+02  d E =-.680231E+02  mag=     0.0000
       N       E                     dE             d eps       ncg     rms          rms(c)
DAV:   1    -0.680230667670E+02    0.15982E-04   -0.71386E-03   288   0.606E-01    0.666E-02
DAV:   2    -0.680231153108E+02   -0.48544E-04   -0.29877E-04   312   0.135E-01    0.407E-02
DAV:   3    -0.680231296457E+02   -0.14335E-04   -0.49690E-05   324   0.481E-02    0.199E-02
DAV:   4    -0.680231379989E+02   -0.83531E-05   -0.74248E-06   312   0.207E-02    0.120E-02
DAV:   5    -0.680231384894E+02   -0.49058E-06   -0.49824E-06   336   0.156E-02    0.520E-03
DAV:   6    -0.680231360520E+02    0.24374E-05   -0.78086E-07   324   0.654E-03    0.221E-03
DAV:   7    -0.680231357266E+02    0.32539E-06   -0.45711E-07   300   0.422E-03    0.165E-03
DAV:   8    -0.680231346392E+02    0.10874E-05   -0.26456E-08   144   0.151E-03    0.107E-03
DAV:   9    -0.680231344148E+02    0.22446E-06   -0.19861E-07   240   0.268E-03    0.803E-04
DAV:  10    -0.680231345475E+02   -0.13271E-06   -0.10614E-08   144   0.900E-04    0.549E-04
DAV:  11    -0.680231345979E+02   -0.50429E-07   -0.74577E-09   144   0.549E-04
   2 F= -.68023135E+02 E0= -.68023135E+02  d E =-.517639E-04  mag=     0.0000
