 vasp.5.4.4.18Apr17-6-g9f103f2a35 (build Apr 27 2017 11:13:10) complex          
  
 executed on           IFC91_ompi date 2020.05.13  12:32:52
 running on   12 total cores
 distrk:  each k-point on   12 cores,    1 groups
 distr:  one band on NCORES_PER_BAND=   1 cores,   12 groups


--------------------------------------------------------------------------------------------------------


 INCAR:
 POTCAR:    PAW_PBE Mn_pv 02Aug2007               
 POTCAR:    PAW_PBE F 08Apr2002                   

 ----------------------------------------------------------------------------- 
|                                                                             |
|           W    W    AA    RRRRR   N    N  II  N    N   GGGG   !!!           |
|           W    W   A  A   R    R  NN   N  II  NN   N  G    G  !!!           |
|           W    W  A    A  R    R  N N  N  II  N N  N  G       !!!           |
|           W WW W  AAAAAA  RRRRR   N  N N  II  N  N N  G  GGG   !            |
|           WW  WW  A    A  R   R   N   NN  II  N   NN  G    G                |
|           W    W  A    A  R    R  N    N  II  N    N   GGGG   !!!           |
|                                                                             |
|      For optimal performance we recommend to set                            |
|        NCORE= 4 - approx SQRT( number of cores)                             |
|      NCORE specifies how many cores store one orbital (NPAR=cpu/NCORE).     |
|      This setting can  greatly improve the performance of VASP for DFT.     |
|      The default,   NCORE=1            might be grossly inefficient         |
|      on modern multi-core architectures or massively parallel machines.     |
|      Do your own testing !!!!                                               |
|      Unfortunately you need to use the default for GW and RPA calculations. |
|      (for HF NCORE is supported but not extensively tested yet)             |
|                                                                             |
 ----------------------------------------------------------------------------- 

 POTCAR:    PAW_PBE Mn_pv 02Aug2007               
   VRHFIN =Mn: 3p4s3d                                                           
   LEXCH  = PE                                                                  
   EATOM  =  2025.2664 eV,  148.8529 Ry                                         
                                                                                
   TITEL  = PAW_PBE Mn_pv 02Aug2007                                             
   LULTRA =        F    use ultrasoft PP ?                                      
   IUNSCR =        1    unscreen: 0-lin 1-nonlin 2-no                           
   RPACOR =    2.080    partial core radius                                     
   POMASS =   54.938; ZVAL   =   13.000    mass and valenz                      
   RCORE  =    2.300    outmost cutoff radius                                   
   RWIGS  =    2.500; RWIGS  =    1.323    wigner-seitz radius (au A)           
   ENMAX  =  269.864; ENMIN  =  202.398 eV                                      
   ICORE  =        3    local potential                                         
   LCOR   =        T    correct aug charges                                     
   LPAW   =        T    paw PP                                                  
   EAUG   =  569.085                                                            
   DEXC   =    0.000                                                            
   RMAX   =    2.343    core radius for proj-oper                               
   RAUG   =    1.300    factor for augmentation sphere                          
   RDEP   =    2.338    radius for radial grids                                 
   RDEPT  =    1.798    core radius for aug-charge                              
                                                                                
   Atomic configuration                                                         
    8 entries                                                                   
     n  l   j            E        occ.                                          
     1  0  0.50     -6424.8287   2.0000                                         
     2  0  0.50      -739.1154   2.0000                                         
     2  1  1.50      -625.3949   6.0000                                         
     3  0  0.50       -81.6100   2.0000                                         
     3  1  1.50       -50.4667   6.0000                                         
     3  2  2.50        -3.3745   6.0000                                         
     4  0  0.50        -4.1331   1.0000                                         
     4  3  2.50        -1.3606   0.0000                                         
   Description                                                                  
     l       E           TYP  RCUT    TYP  RCUT                                 
     1    -50.4666628     23  2.000                                             
     1     -1.3605826     23  2.000                                             
     2     -3.3744729     23  2.300                                             
     2     -4.7350555     23  2.300                                             
     0     -4.1331431     23  2.300                                             
     0      7.6656591     23  2.300                                             
     3      9.5240782     23  2.300                                             
  local pseudopotential read in
  partial core-charges read in
  partial kinetic energy density read in
  atomic valenz-charges read in
  non local Contribution for L=           1  read in
    real space projection operators read in
  non local Contribution for L=           1  read in
    real space projection operators read in
  non local Contribution for L=           2  read in
    real space projection operators read in
  non local Contribution for L=           2  read in
    real space projection operators read in
  non local Contribution for L=           0  read in
    real space projection operators read in
  non local Contribution for L=           0  read in
    real space projection operators read in
    PAW grid and wavefunctions read in
 
   number of l-projection  operators is LMAX  =           6
   number of lm-projection operators is LMMAX =          18
 
 POTCAR:    PAW_PBE F 08Apr2002                   
   VRHFIN =F: s2p5                                                              
   LEXCH  = PE                                                                  
   EATOM  =   659.6475 eV,   48.4827 Ry                                         
                                                                                
   TITEL  = PAW_PBE F 08Apr2002                                                 
   LULTRA =        F    use ultrasoft PP ?                                      
   IUNSCR =        1    unscreen: 0-lin 1-nonlin 2-no                           
   RPACOR =    1.200    partial core radius                                     
   POMASS =   18.998; ZVAL   =    7.000    mass and valenz                      
   RCORE  =    1.520    outmost cutoff radius                                   
   RWIGS  =    1.500; RWIGS  =    0.794    wigner-seitz radius (au A)           
   ENMAX  =  400.000; ENMIN  =  300.000 eV                                      
   ICORE  =        2    local potential                                         
   LCOR   =        T    correct aug charges                                     
   LPAW   =        T    paw PP                                                  
   EAUG   =  613.614                                                            
   RMAX   =    1.555    core radius for proj-oper                               
   RAUG   =    1.300    factor for augmentation sphere                          
   RDEP   =    1.539    radius for radial grids                                 
   RDEPT  =    1.299    core radius for aug-charge                              
                                                                                
   Atomic configuration                                                         
    4 entries                                                                   
     n  l   j            E        occ.                                          
     1  0  0.50      -663.3661   2.0000                                         
     2  0  0.50       -29.8995   2.0000                                         
     2  1  0.50       -11.1114   5.0000                                         
     3  2  1.50       -10.8847   0.0000                                         
   Description                                                                  
     l       E           TYP  RCUT    TYP  RCUT                                 
     0    -29.8995018     23  1.200                                             
     0     -9.5240782     23  1.200                                             
     1    -11.1113914     23  1.520                                             
     1      1.3605826     23  1.520                                             
     2    -10.8846608      7  1.500                                             
  local pseudopotential read in
  partial core-charges read in
  partial kinetic energy density read in
  atomic valenz-charges read in
  non local Contribution for L=           0  read in
    real space projection operators read in
  non local Contribution for L=           0  read in
    real space projection operators read in
  non local Contribution for L=           1  read in
    real space projection operators read in
  non local Contribution for L=           1  read in
    real space projection operators read in
    PAW grid and wavefunctions read in
 
   number of l-projection  operators is LMAX  =           4
   number of lm-projection operators is LMMAX =           8
 
  PAW_PBE Mn_pv 02Aug2007               :
 energy of atom  1       EATOM=-2025.2664
 kinetic energy error for atom=    0.0047 (will be added to EATOM!!)
  PAW_PBE F 08Apr2002                   :
 energy of atom  2       EATOM= -659.6475
 kinetic energy error for atom=    0.0256 (will be added to EATOM!!)
 
 
 POSCAR: Mn  F                                   
  positions in cartesian coordinates
  No initial velocities read in

 METAGGA = SCAN     LMAXTAU =  6    LMIXTAU =  F

 exchange correlation table for  LEXCH =        8
   RHO(1)=    0.500       N(1)  =     2000
   RHO(2)=  100.500       N(2)  =     4000
 


--------------------------------------------------------------------------------------------------------


 ion  position               nearest neighbor table
   1  0.500  0.500  0.500-   3 2.09   4 2.09   5 2.12   6 2.12   5 2.12   6 2.12
   2  0.000  0.000  0.000-   5 2.09   6 2.09   3 2.12   4 2.12   3 2.12   4 2.12
   3  0.196  0.804  0.500-   1 2.09   2 2.12   2 2.12
   4  0.804  0.196  0.500-   1 2.09   2 2.12   2 2.12
   5  0.304  0.304  0.000-   2 2.09   1 2.12   1 2.12
   6  0.696  0.696  0.000-   2 2.09   1 2.12   1 2.12
 
  LATTYP: Found a simple tetragonal cell.
 ALAT       =     4.8525685001
 C/A-ratio  =     0.6775817662
  
  Lattice vectors:
  
 A1 = (   4.8525685001,   0.0000000000,   0.0000000000)
 A2 = (   0.0000000000,   4.8525685001,   0.0000000000)
 A3 = (   0.0000000000,   0.0000000000,   3.2880119349)


Analysis of symmetry for initial positions (statically):
=====================================================================
 Subroutine PRICEL returns:
 Original cell was already a primitive cell.
 

 Routine SETGRP: Setting up the symmetry group for a 
 simple tetragonal supercell.


 Subroutine GETGRP returns: Found 16 space group operations
 (whereof  8 operations were pure point group operations)
 out of a pool of 16 trial point group operations.


The static configuration has the point symmetry D_2h.
 The point group associated with its full space group is D_4h.


Analysis of symmetry for dynamics (positions and initial velocities):
=====================================================================
 Subroutine PRICEL returns:
 Original cell was already a primitive cell.
 

 Routine SETGRP: Setting up the symmetry group for a 
 simple tetragonal supercell.


 Subroutine GETGRP returns: Found 16 space group operations
 (whereof  8 operations were pure point group operations)
 out of a pool of 16 trial point group operations.


The dynamic configuration has the point symmetry D_2h.
 The point group associated with its full space group is D_4h.


Analysis of structural, dynamic, and magnetic symmetry:
=====================================================================
 Subroutine PRICEL returns:
 Original cell was already a primitive cell.
 

 Routine SETGRP: Setting up the symmetry group for a 
 simple tetragonal supercell.


 Subroutine GETGRP returns: Found 16 space group operations
 (whereof  8 operations were pure point group operations)
 out of a pool of 16 trial point group operations.


The magnetic configuration has the point symmetry D_2h.
 The point group associated with its full space group is D_4h.


 Subroutine INISYM returns: Found 16 space group operations
 (whereof  8 operations are pure point group operations),
 and found     1 'primitive' translations

 
 
 KPOINTS: KPOINTS created by Atomic Simulation Env

Automatic generation of k-mesh.
Space group operators:
 irot       det(A)        alpha          n_x          n_y          n_z        tau_x        tau_y        tau_z
    1     1.000000     0.000000     1.000000     0.000000     0.000000     0.000000     0.000000     0.000000
    2    -1.000000     0.000000     1.000000     0.000000     0.000000     0.000000     0.000000     0.000000
    3     1.000000   180.000000     0.000000     0.000000     1.000000     0.000000     0.000000     0.000000
    4    -1.000000   180.000000     0.000000     0.000000     1.000000     0.000000     0.000000     0.000000
    5     1.000000   180.000000     0.707107     0.707107     0.000000     0.000000     0.000000     0.000000
    6    -1.000000   180.000000     0.707107     0.707107     0.000000     0.000000     0.000000     0.000000
    7     1.000000   180.000000     0.707107    -0.707107     0.000000     0.000000     0.000000     0.000000
    8    -1.000000   180.000000     0.707107    -0.707107     0.000000     0.000000     0.000000     0.000000
    9     1.000000    90.000000     0.000000     0.000000    -1.000000     0.500000     0.500000     0.500000
   10    -1.000000    90.000000     0.000000     0.000000    -1.000000     0.500000     0.500000     0.500000
   11     1.000000    90.000000     0.000000     0.000000     1.000000     0.500000     0.500000     0.500000
   12    -1.000000    90.000000     0.000000     0.000000     1.000000     0.500000     0.500000     0.500000
   13     1.000000   180.000000     0.000000     1.000000     0.000000     0.500000     0.500000     0.500000
   14    -1.000000   180.000000     0.000000     1.000000     0.000000     0.500000     0.500000     0.500000
   15     1.000000   180.000000     1.000000     0.000000     0.000000     0.500000     0.500000     0.500000
   16    -1.000000   180.000000     1.000000     0.000000     0.000000     0.500000     0.500000     0.500000
 
 Subroutine IBZKPT returns following result:
 ===========================================
 
 Found      2 irreducible k-points:
 
 Following reciprocal coordinates:
            Coordinates               Weight
  0.250000  0.250000  0.000000      4.000000
  0.250000  0.250000  0.333333      8.000000
 
 Following cartesian coordinates:
            Coordinates               Weight
  0.051519  0.051519  0.000000      4.000000
  0.051519  0.051519  0.101378      8.000000
 


--------------------------------------------------------------------------------------------------------




 Dimension of arrays:
   k-points           NKPTS =      2   k-points in BZ     NKDIM =      2   number of bands    NBANDS=     36
   number of dos      NEDOS =    301   number of ions     NIONS =      6
   non local maximal  LDIM  =      6   non local SUM 2l+1 LMDIM =     18
   total plane-waves  NPLWV =  18000
   max r-space proj   IRMAX =      1   max aug-charges    IRDMAX=  56627
   dimension x,y,z NGX =    30 NGY =   30 NGZ =   20
   dimension x,y,z NGXF=    60 NGYF=   60 NGZF=   40
   support grid    NGXF=   120 NGYF=  120 NGZF=   80
   ions per type =               2   4
   NGX,Y,Z   is equivalent  to a cutoff of  10.28, 10.28, 10.11 a.u.
   NGXF,Y,Z  is equivalent  to a cutoff of  20.56, 20.56, 20.22 a.u.

 SYSTEM =  unknown system                          
 POSCAR =  Mn  F                                   

 Startparameter for this run:
   NWRITE =      2    write-flag & timer
   PREC   = normal    normal or accurate (medium, high low for compatibility)
   ISTART =      0    job   : 0-new  1-cont  2-samecut
   ICHARG =      2    charge: 1-file 2-atom 10-const
   ISPIN  =      2    spin polarized calculation?
   LNONCOLLINEAR =      F non collinear calculations
   LSORBIT =      F    spin-orbit coupling
   INIWAV =      1    electr: 0-lowe 1-rand  2-diag
   LASPH  =      T    aspherical Exc in radial PAW
   METAGGA=      F    non-selfconsistent MetaGGA calc.

 Electronic Relaxation 1
   ENCUT  =  600.0 eV  44.10 Ry    6.64 a.u.   9.69  9.69  6.57*2*pi/ulx,y,z
   ENINI  =  600.0     initial cutoff
   ENAUG  =  613.6 eV  augmentation charge cutoff
   NELM   =     60;   NELMIN=  2; NELMDL= -5     # of ELM steps 
   EDIFF  = 0.1E-06   stopping-criterion for ELM
   LREAL  =      F    real-space projection
   NLSPLINE    = F    spline interpolate recip. space projectors
   LCOMPAT=      F    compatible to vasp.4.4
   GGA_COMPAT  = T    GGA compatible to vasp.4.4-vasp.4.6
   LMAXPAW     = -100 max onsite density
   LMAXMIX     =    4 max onsite mixed and CHGCAR
   VOSKOWN=      0    Vosko Wilk Nusair interpolation
   ROPT   =    0.00000   0.00000
 Ionic relaxation
   EDIFFG = -.5E-02   stopping-criterion for IOM
   NSW    =     50    number of steps for IOM
   NBLOCK =      1;   KBLOCK =     50    inner block; outer block 
   IBRION =      2    ionic relax: 0-MD 1-quasi-New 2-CG
   NFREE  =      1    steps in history (QN), initial steepest desc. (CG)
   ISIF   =      3    stress and relaxation
   IWAVPR =     11    prediction:  0-non 1-charg 2-wave 3-comb
   ISYM   =      2    0-nonsym 1-usesym 2-fastsym
   LCORR  =      T    Harris-Foulkes like correction to forces

   POTIM  = 0.5000    time-step for ionic-motion
   TEIN   =    0.0    initial temperature
   TEBEG  =    0.0;   TEEND  =   0.0 temperature during run
   SMASS  =  -3.00    Nose mass-parameter (am)
   estimated Nose-frequenzy (Omega)   =  0.10E-29 period in steps =****** mass=  -0.538E-27a.u.
   SCALEE = 1.0000    scale energy and forces
   NPACO  =    256;   APACO  = 16.0  distance and # of slots for P.C.
   PSTRESS=    0.0 pullay stress

  Mass of Ions in am
   POMASS =  54.94 19.00
  Ionic Valenz
   ZVAL   =  13.00  7.00
  Atomic Wigner-Seitz radii
   RWIGS  =  -1.00 -1.00
  virtual crystal weights 
   VCA    =   1.00  1.00
   NELECT =      54.0000    total number of electrons
   NUPDOWN=      -1.0000    fix difference up-down

 DOS related values:
   EMIN   =  10.00;   EMAX   =-10.00  energy-range for DOS
   EFERMI =   0.00
   ISMEAR =     0;   SIGMA  =   0.02  broadening in eV -4-tet -1-fermi 0-gaus

 Electronic relaxation 2 (details)
   IALGO  =     38    algorithm
   LDIAG  =      T    sub-space diagonalisation (order eigenvalues)
   LSUBROT=      F    optimize rotation matrix (better conditioning)
   TURBO    =      0    0=normal 1=particle mesh
   IRESTART =      0    0=no restart 2=restart with 2 vectors
   NREBOOT  =      0    no. of reboots
   NMIN     =      0    reboot dimension
   EREF     =   0.00    reference energy to select bands
   IMIX   =      4    mixing-type and parameters
     AMIX     =   0.40;   BMIX     =  1.00
     AMIX_MAG =   1.60;   BMIX_MAG =  1.00
     AMIN     =   0.10
     WC   =   100.;   INIMIX=   1;  MIXPRE=   1;  MAXMIX= -45

 Intra band minimization:
   WEIMIN = 0.0010     energy-eigenvalue tresh-hold
   EBREAK =  0.69E-09  absolut break condition
   DEPER  =   0.30     relativ break condition  

   TIME   =   0.40     timestep for ELM

  volume/ion in A,a.u.               =      12.90        87.08
  Fermi-wavevector in a.u.,A,eV,Ry     =   1.451824  2.743549 28.678246  2.107792
  Thomas-Fermi vector in A             =   2.569276
 
 Write flags
   LWAVE        =      F    write WAVECAR
   LDOWNSAMPLE  =      F    k-point downsampling of WAVECAR
   LCHARG       =      F    write CHGCAR
   LVTOT        =      F    write LOCPOT, total local potential
   LVHAR        =      F    write LOCPOT, Hartree potential only
   LELF         =      F    write electronic localiz. function (ELF)
   LORBIT       =     11    0 simple, 1 ext, 2 COOP (PROOUT), +10 PAW based schemes


 Dipole corrections
   LMONO  =      F    monopole corrections only (constant potential shift)
   LDIPOL =      F    correct potential (dipole corrections)
   IDIPOL =      0    1-x, 2-y, 3-z, 4-all directions 
   EPSILON=  1.0000000 bulk dielectric constant

 LDA+U is selected, type is set to LDAUTYPE =  2
   angular momentum for each species LDAUL =     2   -1
   U (eV)           for each species LDAUU =   0.0  0.0
   J (eV)           for each species LDAUJ =   0.0  0.0
 Exchange correlation treatment:
   GGA     =    --    GGA type
   LEXCH   =     8    internal setting for exchange type
   VOSKOWN=      0    Vosko Wilk Nusair interpolation
   LHFCALC =     F    Hartree Fock is set to
   LHFONE  =     F    Hartree Fock one center treatment
   AEXX    =    0.0000 exact exchange contribution

 Linear response parameters
   LEPSILON=     F    determine dielectric tensor
   LRPA    =     F    only Hartree local field effects (RPA)
   LNABLA  =     F    use nabla operator in PAW spheres
   LVEL    =     F    velocity operator in full k-point grid
   LINTERFAST=   F  fast interpolation
   KINTER  =     0    interpolate to denser k-point grid
   CSHIFT  =0.1000    complex shift for real part using Kramers Kronig
   OMEGAMAX=  -1.0    maximum frequency
   DEG_THRESHOLD= 0.2000000E-02 threshold for treating states as degnerate
   RTIME   =   -0.100 relaxation time in fs
  (WPLASMAI=    0.000 imaginary part of plasma frequency in eV, 0.658/RTIME)
   DFIELD  = 0.0000000 0.0000000 0.0000000 field for delta impulse in time
 
 Orbital magnetization related:
   ORBITALMAG=     F  switch on orbital magnetization
   LCHIMAG   =     F  perturbation theory with respect to B field
   DQ        =  0.001000  dq finite difference perturbation B field
   LLRAUG    =     F  two centre corrections for induced B field



--------------------------------------------------------------------------------------------------------


 conjugate gradient relaxation of ions
 charge density and potential will be updated during run
 spin polarized calculation
 Variant of blocked Davidson
 Davidson routine will perform the subspace rotation
 perform sub-space diagonalisation
    after iterative eigenvector-optimisation
 modified Broyden-mixing scheme, WC =      100.0
 initial mixing is a Kerker type mixing with AMIX =  0.4000 and BMIX =      1.0000
 Hartree-type preconditioning will be used
 using additional bands            9
 reciprocal scheme for non local part
 use partial core corrections
 calculate Harris-corrections to forces 
   (improved forces if not selfconsistent)
 use gradient corrections 
 use of overlap-Matrix (Vanderbilt PP)
 Gauss-broadening in eV      SIGMA  =   0.02


--------------------------------------------------------------------------------------------------------


  energy-cutoff  :      600.00
  volume of cell :       77.42
      direct lattice vectors                 reciprocal lattice vectors
     4.852568500  0.000000000  0.000000000     0.206076431  0.000000000  0.000000000
     0.000000000  4.852568500  0.000000000     0.000000000  0.206076431  0.000000000
     0.000000000  0.000000000  3.288011935     0.000000000  0.000000000  0.304135149

  length of vectors
     4.852568500  4.852568500  3.288011935     0.206076431  0.206076431  0.304135149


 
 k-points in units of 2pi/SCALE and weight: KPOINTS created by Atomic Simulation Env
   0.05151911  0.05151911  0.00000000       0.333
   0.05151911  0.05151911  0.10137838       0.667
 
 k-points in reciprocal lattice and weights: KPOINTS created by Atomic Simulation Env
   0.25000000  0.25000000  0.00000000       0.333
   0.25000000  0.25000000  0.33333333       0.667
 
 position of ions in fractional coordinates (direct lattice) 
   0.50000000  0.50000000  0.50000000
   0.00000000  0.00000000  0.00000000
   0.19609954  0.80390046  0.50000000
   0.80390046  0.19609954  0.50000000
   0.30390046  0.30390046  0.00000000
   0.69609954  0.69609954  0.00000000
 
 position of ions in cartesian coordinates  (Angst):
   2.42628425  2.42628425  1.64400597
   0.00000000  0.00000000  0.00000000
   0.95158645  3.90098205  1.64400597
   3.90098205  0.95158645  1.64400597
   1.47469780  1.47469780  0.00000000
   3.37787070  3.37787070  0.00000000
 


--------------------------------------------------------------------------------------------------------


 k-point  1 :   0.2500 0.2500 0.0000  plane waves:    2580
 k-point  2 :   0.2500 0.2500 0.3333  plane waves:    2574

 maximum and minimum number of plane-waves per node :      2580     2574

 maximum number of plane-waves:      2580
 maximum index in each direction: 
   IXMAX=    9   IYMAX=    9   IZMAX=    6
   IXMIN=   -9   IYMIN=   -9   IZMIN=   -6


 serial   3D FFT for wavefunctions
 parallel 3D FFT for charge:
    minimum data exchange during FFTs selected (reduces bandwidth)


 total amount of memory used by VASP MPI-rank0    38123. kBytes
=======================================================================

   base      :      30000. kBytes
   nonl-proj :       1733. kBytes
   fftplans  :       1875. kBytes
   grid      :       3820. kBytes
   one-center:        186. kBytes
   wavefun   :        509. kBytes
 
     INWAV:  cpu time    0.0000: real time    0.0000
 Broyden mixing: mesh for mixing (old mesh)
   NGX = 19   NGY = 19   NGZ = 13
  (NGX  = 60   NGY  = 60   NGZ  = 40)
  gives a total of   4693 points

 initial charge density was supplied:
 charge density of overlapping atoms calculated
 number of electron      54.0000000 magnetization       0.0000000
 keeping initial charge density in first step


--------------------------------------------------------------------------------------------------------


 Maximum index for augmentation-charges         4323 (set IRDMAX)


--------------------------------------------------------------------------------------------------------


 First call to EWALD:  gamma=   0.416
 Maximum number of real-space cells 2x 2x 3
 Maximum number of reciprocal cells 3x 3x 2

    FEWALD:  cpu time    0.0010: real time    0.0010


--------------------------------------- Iteration      1(   1)  ---------------------------------------


    POTLOK:  cpu time    0.0356: real time    0.0356
    SETDIJ:  cpu time    1.5764: real time    1.5764
atom =   1  type =  1  l = 2
 
 onsite density matrix
 
spin component  1
 
  0.2835  0.0000  0.0000  0.0000  0.0000
  0.0000  0.2835  0.0000  0.0000  0.0000
  0.0000  0.0000  0.2835  0.0000  0.0000
  0.0000  0.0000  0.0000  0.2835  0.0000
  0.0000  0.0000  0.0000  0.0000  0.2835
 
spin component  2
 
  0.7694  0.0000  0.0000  0.0000  0.0000
  0.0000  0.7694  0.0000  0.0000  0.0000
  0.0000  0.0000  0.7694  0.0000  0.0000
  0.0000  0.0000  0.0000  0.7694  0.0000
  0.0000  0.0000  0.0000  0.0000  0.7694
 
 occupancies and eigenvectors
 
  o =  0.2835  v =  1.0000  0.0000  0.0000  0.0000  0.0000  0.0000  0.0000  0.0000  0.0000  0.0000      0.0000  0.0000  0.0000  0.0000  0.0000  0.0000  0.0000  0.0000  0.0000  0.0000
  o =  0.2835  v =  0.0000  1.0000  0.0000  0.0000  0.0000  0.0000  0.0000  0.0000  0.0000  0.0000      0.0000  0.0000  0.0000  0.0000  0.0000  0.0000  0.0000  0.0000  0.0000  0.0000
  o =  0.2835  v =  0.0000  0.0000  1.0000  0.0000  0.0000  0.0000  0.0000  0.0000  0.0000  0.0000      0.0000  0.0000  0.0000  0.0000  0.0000  0.0000  0.0000  0.0000  0.0000  0.0000
  o =  0.2835  v =  0.0000  0.0000  0.0000  1.0000  0.0000  0.0000  0.0000  0.0000  0.0000  0.0000      0.0000  0.0000  0.0000  0.0000  0.0000  0.0000  0.0000  0.0000  0.0000  0.0000
  o =  0.2835  v =  0.0000  0.0000  0.0000  0.0000  1.0000  0.0000  0.0000  0.0000  0.0000  0.0000      0.0000  0.0000  0.0000  0.0000  0.0000  0.0000  0.0000  0.0000  0.0000  0.0000
  o =  0.7694  v =  0.0000  0.0000  0.0000  0.0000  0.0000  1.0000  0.0000  0.0000  0.0000  0.0000      0.0000  0.0000  0.0000  0.0000  0.0000  0.0000  0.0000  0.0000  0.0000  0.0000
  o =  0.7694  v =  0.0000  0.0000  0.0000  0.0000  0.0000  0.0000  1.0000  0.0000  0.0000  0.0000      0.0000  0.0000  0.0000  0.0000  0.0000  0.0000  0.0000  0.0000  0.0000  0.0000
  o =  0.7694  v =  0.0000  0.0000  0.0000  0.0000  0.0000  0.0000  0.0000  1.0000  0.0000  0.0000      0.0000  0.0000  0.0000  0.0000  0.0000  0.0000  0.0000  0.0000  0.0000  0.0000
  o =  0.7694  v =  0.0000  0.0000  0.0000  0.0000  0.0000  0.0000  0.0000  0.0000  1.0000  0.0000      0.0000  0.0000  0.0000  0.0000  0.0000  0.0000  0.0000  0.0000  0.0000  0.0000
  o =  0.7694  v =  0.0000  0.0000  0.0000  0.0000  0.0000  0.0000  0.0000  0.0000  0.0000  1.0000      0.0000  0.0000  0.0000  0.0000  0.0000  0.0000  0.0000  0.0000  0.0000  0.0000
atom =   2  type =  1  l = 2
 
 onsite density matrix
 
spin component  1
 
  0.7694  0.0000  0.0000  0.0000  0.0000
  0.0000  0.7694  0.0000  0.0000  0.0000
  0.0000  0.0000  0.7694  0.0000  0.0000
  0.0000  0.0000  0.0000  0.7694  0.0000
  0.0000  0.0000  0.0000  0.0000  0.7694
 
spin component  2
 
  0.2835  0.0000  0.0000  0.0000  0.0000
  0.0000  0.2835  0.0000  0.0000  0.0000
  0.0000  0.0000  0.2835  0.0000  0.0000
  0.0000  0.0000  0.0000  0.2835  0.0000
  0.0000  0.0000  0.0000  0.0000  0.2835
 
 occupancies and eigenvectors
 
  o =  0.2835  v =  0.0000  0.0000  0.0000  0.0000  0.0000  1.0000  0.0000  0.0000  0.0000  0.0000      0.0000  0.0000  0.0000  0.0000  0.0000  0.0000  0.0000  0.0000  0.0000  0.0000
  o =  0.2835  v =  0.0000  0.0000  0.0000  0.0000  0.0000  0.0000  1.0000  0.0000  0.0000  0.0000      0.0000  0.0000  0.0000  0.0000  0.0000  0.0000  0.0000  0.0000  0.0000  0.0000
  o =  0.2835  v =  0.0000  0.0000  0.0000  0.0000  0.0000  0.0000  0.0000  1.0000  0.0000  0.0000      0.0000  0.0000  0.0000  0.0000  0.0000  0.0000  0.0000  0.0000  0.0000  0.0000
  o =  0.2835  v =  0.0000  0.0000  0.0000  0.0000  0.0000  0.0000  0.0000  0.0000  1.0000  0.0000      0.0000  0.0000  0.0000  0.0000  0.0000  0.0000  0.0000  0.0000  0.0000  0.0000
  o =  0.2835  v =  0.0000  0.0000  0.0000  0.0000  0.0000  0.0000  0.0000  0.0000  0.0000  1.0000      0.0000  0.0000  0.0000  0.0000  0.0000  0.0000  0.0000  0.0000  0.0000  0.0000
  o =  0.7694  v =  1.0000  0.0000  0.0000  0.0000  0.0000  0.0000  0.0000  0.0000  0.0000  0.0000      0.0000  0.0000  0.0000  0.0000  0.0000  0.0000  0.0000  0.0000  0.0000  0.0000
  o =  0.7694  v =  0.0000  1.0000  0.0000  0.0000  0.0000  0.0000  0.0000  0.0000  0.0000  0.0000      0.0000  0.0000  0.0000  0.0000  0.0000  0.0000  0.0000  0.0000  0.0000  0.0000
  o =  0.7694  v =  0.0000  0.0000  1.0000  0.0000  0.0000  0.0000  0.0000  0.0000  0.0000  0.0000      0.0000  0.0000  0.0000  0.0000  0.0000  0.0000  0.0000  0.0000  0.0000  0.0000
  o =  0.7694  v =  0.0000  0.0000  0.0000  1.0000  0.0000  0.0000  0.0000  0.0000  0.0000  0.0000      0.0000  0.0000  0.0000  0.0000  0.0000  0.0000  0.0000  0.0000  0.0000  0.0000
  o =  0.7694  v =  0.0000  0.0000  0.0000  0.0000  1.0000  0.0000  0.0000  0.0000  0.0000  0.0000      0.0000  0.0000  0.0000  0.0000  0.0000  0.0000  0.0000  0.0000  0.0000  0.0000
     EDDAV:  cpu time    0.1549: real time    0.1740
       DOS:  cpu time    0.0003: real time    0.0003
    --------------------------------------------
      LOOP:  cpu time    1.7672: real time    1.7863

 eigenvalue-minimisations  :   288
 total energy-change (2. order) : 0.9790127E+03  (-0.3748462E+04)
 number of electron      54.0000000 magnetization       0.0000000
 augmentation part       54.0000000 magnetization       0.0000000

 Free energy of the ion-electron system (eV)
  ---------------------------------------------------
  alpha Z        PSCENC =       199.38838823
  Ewald energy   TEWEN  =     -4203.06823030
  -Hartree energ DENC   =     -2130.62061717
  -exchange      EXHF   =         0.00000000
  -V(xc)+E(xc)   XCENC  =        -3.96110837
  PAW double counting   =      5566.43601843    -5528.13058630
  entropy T*S    EENTRO =        -0.00425209
  eigenvalues    EBANDS =       389.96233107
  atomic energy  EATOM  =      6689.01075358
  Solvation  Ediel_sol  =         0.00000000
  ---------------------------------------------------
  free energy    TOTEN  =       979.01269709 eV

  energy without entropy =      979.01694918  energy(sigma->0) =      979.01482313


--------------------------------------------------------------------------------------------------------




--------------------------------------- Iteration      1(   2)  ---------------------------------------


     EDDAV:  cpu time    0.1669: real time    0.1669
       DOS:  cpu time    0.0001: real time    0.0001
    --------------------------------------------
      LOOP:  cpu time    0.1671: real time    0.1673

 eigenvalue-minimisations  :   336
 total energy-change (2. order) :-0.5740401E+03  (-0.5498030E+03)
 number of electron      54.0000000 magnetization       0.0000000
 augmentation part       54.0000000 magnetization       0.0000000

 Free energy of the ion-electron system (eV)
  ---------------------------------------------------
  alpha Z        PSCENC =       199.38838823
  Ewald energy   TEWEN  =     -4203.06823030
  -Hartree energ DENC   =     -2130.62061717
  -exchange      EXHF   =         0.00000000
  -V(xc)+E(xc)   XCENC  =        -3.96110837
  PAW double counting   =      5566.43601843    -5528.13058630
  entropy T*S    EENTRO =        -0.00000000
  eigenvalues    EBANDS =      -184.08200827
  atomic energy  EATOM  =      6689.01075358
  Solvation  Ediel_sol  =         0.00000000
  ---------------------------------------------------
  free energy    TOTEN  =       404.97260984 eV

  energy without entropy =      404.97260984  energy(sigma->0) =      404.97260984


--------------------------------------------------------------------------------------------------------




--------------------------------------- Iteration      1(   3)  ---------------------------------------


     EDDAV:  cpu time    0.1550: real time    0.1552
       DOS:  cpu time    0.0001: real time    0.0001
    --------------------------------------------
      LOOP:  cpu time    0.1551: real time    0.1551

 eigenvalue-minimisations  :   300
 total energy-change (2. order) :-0.3537619E+02  (-0.3513260E+02)
 number of electron      54.0000000 magnetization       0.0000000
 augmentation part       54.0000000 magnetization       0.0000000

 Free energy of the ion-electron system (eV)
  ---------------------------------------------------
  alpha Z        PSCENC =       199.38838823
  Ewald energy   TEWEN  =     -4203.06823030
  -Hartree energ DENC   =     -2130.62061717
  -exchange      EXHF   =         0.00000000
  -V(xc)+E(xc)   XCENC  =        -3.96110837
  PAW double counting   =      5566.43601843    -5528.13058630
  entropy T*S    EENTRO =        -0.00000000
  eigenvalues    EBANDS =      -219.45820170
  atomic energy  EATOM  =      6689.01075358
  Solvation  Ediel_sol  =         0.00000000
  ---------------------------------------------------
  free energy    TOTEN  =       369.59641641 eV

  energy without entropy =      369.59641641  energy(sigma->0) =      369.59641641


--------------------------------------------------------------------------------------------------------




--------------------------------------- Iteration      1(   4)  ---------------------------------------


     EDDAV:  cpu time    0.1830: real time    0.1830
       DOS:  cpu time    0.0001: real time    0.0001
    --------------------------------------------
      LOOP:  cpu time    0.1832: real time    0.1832

 eigenvalue-minimisations  :   384
 total energy-change (2. order) :-0.4649646E+00  (-0.4646019E+00)
 number of electron      54.0000000 magnetization       0.0000000
 augmentation part       54.0000000 magnetization       0.0000000

 Free energy of the ion-electron system (eV)
  ---------------------------------------------------
  alpha Z        PSCENC =       199.38838823
  Ewald energy   TEWEN  =     -4203.06823030
  -Hartree energ DENC   =     -2130.62061717
  -exchange      EXHF   =         0.00000000
  -V(xc)+E(xc)   XCENC  =        -3.96110837
  PAW double counting   =      5566.43601843    -5528.13058630
  entropy T*S    EENTRO =        -0.00000000
  eigenvalues    EBANDS =      -219.92316629
  atomic energy  EATOM  =      6689.01075358
  Solvation  Ediel_sol  =         0.00000000
  ---------------------------------------------------
  free energy    TOTEN  =       369.13145182 eV

  energy without entropy =      369.13145182  energy(sigma->0) =      369.13145182


--------------------------------------------------------------------------------------------------------




--------------------------------------- Iteration      1(   5)  ---------------------------------------


     EDDAV:  cpu time    0.1515: real time    0.1515
       DOS:  cpu time    0.0001: real time    0.0001
    CHARGE:  cpu time    0.0711: real time    0.0711
    MIXING:  cpu time    0.0005: real time    0.0005
    --------------------------------------------
      LOOP:  cpu time    0.2232: real time    0.2232

 eigenvalue-minimisations  :   288
 total energy-change (2. order) :-0.8159632E-02  (-0.8159627E-02)
 number of electron      54.0000009 magnetization       0.0000000
 augmentation part       22.6530565 magnetization       0.0000000

 Broyden mixing:
  rms(total) = 0.58800E+01    rms(broyden)= 0.58795E+01
  rms(prec ) = 0.61148E+01
  weight for this iteration     100.00

 Free energy of the ion-electron system (eV)
  ---------------------------------------------------
  alpha Z        PSCENC =       199.38838823
  Ewald energy   TEWEN  =     -4203.06823030
  -Hartree energ DENC   =     -2130.62061717
  -exchange      EXHF   =         0.00000000
  -V(xc)+E(xc)   XCENC  =        -3.96110837
  PAW double counting   =      5566.43601843    -5528.13058630
  entropy T*S    EENTRO =        -0.00000000
  eigenvalues    EBANDS =      -219.93132592
  atomic energy  EATOM  =      6689.01075358
  Solvation  Ediel_sol  =         0.00000000
  ---------------------------------------------------
  free energy    TOTEN  =       369.12329219 eV

  energy without entropy =      369.12329219  energy(sigma->0) =      369.12329219


--------------------------------------------------------------------------------------------------------




--------------------------------------- Iteration      1(   6)  ---------------------------------------


    POTLOK:  cpu time    0.0330: real time    0.0330
    SETDIJ:  cpu time    1.6101: real time    1.6101
atom =   1  type =  1  l = 2
 
 onsite density matrix
 
spin component  1
 
  0.0350  0.0000  0.0670  0.0000  0.0000
  0.0000  0.0073  0.0000  0.0615  0.0000
  0.0670  0.0000 -0.0032  0.0000  0.0000
  0.0000  0.0615  0.0000  0.0073  0.0000
  0.0000  0.0000  0.0000  0.0000 -0.0737
 
spin component  2
 
  1.0568  0.0000 -0.0323  0.0000 -0.0000
  0.0000  1.0712  0.0000 -0.0297  0.0000
 -0.0323  0.0000  1.0747  0.0000 -0.0000
  0.0000 -0.0297  0.0000  1.0712  0.0000
 -0.0000  0.0000 -0.0000  0.0000  1.1111
 
 occupancies and eigenvectors
 
  o = -0.0737  v =  0.0000 -0.0000 -0.0000  0.0000  1.0000  0.0000  0.0000  0.0000  0.0000  0.0000      0.0000  0.0000  0.0000  0.0000  0.0000  0.0000  0.0000  0.0000  0.0000  0.0000
  o = -0.0543  v = -0.0000 -0.7071  0.0000  0.7071 -0.0000  0.0000  0.0000  0.0000  0.0000  0.0000      0.0000  0.0000  0.0000  0.0000  0.0000  0.0000  0.0000  0.0000  0.0000  0.0000
  o = -0.0538  v =  0.6025 -0.0000 -0.7981  0.0000 -0.0000  0.0000  0.0000  0.0000  0.0000  0.0000      0.0000  0.0000  0.0000  0.0000  0.0000  0.0000  0.0000  0.0000  0.0000  0.0000
  o =  0.0688  v = -0.0000  0.7071 -0.0000  0.7071 -0.0000  0.0000  0.0000  0.0000  0.0000  0.0000      0.0000  0.0000  0.0000  0.0000  0.0000  0.0000  0.0000  0.0000  0.0000  0.0000
  o =  0.0856  v =  0.7981  0.0000  0.6025  0.0000  0.0000  0.0000  0.0000  0.0000  0.0000  0.0000      0.0000  0.0000  0.0000  0.0000  0.0000  0.0000  0.0000  0.0000  0.0000  0.0000
  o =  1.0322  v =  0.0000  0.0000  0.0000  0.0000  0.0000  0.7958 -0.0000  0.6055 -0.0000  0.0000      0.0000  0.0000  0.0000  0.0000  0.0000  0.0000  0.0000  0.0000  0.0000  0.0000
  o =  1.0414  v =  0.0000  0.0000  0.0000  0.0000  0.0000 -0.0000 -0.7071 -0.0000 -0.7071  0.0000      0.0000  0.0000  0.0000  0.0000  0.0000  0.0000  0.0000  0.0000  0.0000  0.0000
  o =  1.0994  v =  0.0000  0.0000  0.0000  0.0000  0.0000 -0.6055 -0.0000  0.7958  0.0000  0.0000      0.0000  0.0000  0.0000  0.0000  0.0000  0.0000  0.0000  0.0000  0.0000  0.0000
  o =  1.1009  v =  0.0000  0.0000  0.0000  0.0000  0.0000  0.0000 -0.7071 -0.0000  0.7071  0.0000      0.0000  0.0000  0.0000  0.0000  0.0000  0.0000  0.0000  0.0000  0.0000  0.0000
  o =  1.1111  v =  0.0000  0.0000  0.0000  0.0000  0.0000  0.0000  0.0000 -0.0000 -0.0000  1.0000      0.0000  0.0000  0.0000  0.0000  0.0000  0.0000  0.0000  0.0000  0.0000  0.0000
atom =   2  type =  1  l = 2
 
 onsite density matrix
 
spin component  1
 
  1.0568  0.0000  0.0323  0.0000 -0.0000
  0.0000  1.0712  0.0000  0.0297  0.0000
  0.0323  0.0000  1.0747  0.0000 -0.0000
  0.0000  0.0297  0.0000  1.0712  0.0000
 -0.0000  0.0000 -0.0000  0.0000  1.1111
 
spin component  2
 
  0.0350  0.0000 -0.0670  0.0000  0.0000
  0.0000  0.0073  0.0000 -0.0615  0.0000
 -0.0670  0.0000 -0.0032  0.0000  0.0000
  0.0000 -0.0615  0.0000  0.0073  0.0000
  0.0000  0.0000  0.0000  0.0000 -0.0737
 
 occupancies and eigenvectors
 
  o = -0.0737  v =  0.0000  0.0000  0.0000  0.0000  0.0000  0.0000  0.0000  0.0000  0.0000 -1.0000      0.0000  0.0000  0.0000  0.0000  0.0000  0.0000  0.0000  0.0000  0.0000  0.0000
  o = -0.0543  v =  0.0000  0.0000  0.0000  0.0000  0.0000  0.0000 -0.7071  0.0000 -0.7071 -0.0000      0.0000  0.0000  0.0000  0.0000  0.0000  0.0000  0.0000  0.0000  0.0000  0.0000
  o = -0.0538  v =  0.0000  0.0000  0.0000  0.0000  0.0000 -0.6025  0.0000 -0.7981  0.0000 -0.0000      0.0000  0.0000  0.0000  0.0000  0.0000  0.0000  0.0000  0.0000  0.0000  0.0000
  o =  0.0688  v =  0.0000  0.0000  0.0000  0.0000  0.0000  0.0000 -0.7071  0.0000  0.7071 -0.0000      0.0000  0.0000  0.0000  0.0000  0.0000  0.0000  0.0000  0.0000  0.0000  0.0000
  o =  0.0856  v =  0.0000  0.0000  0.0000  0.0000  0.0000  0.7981  0.0000 -0.6025  0.0000 -0.0000      0.0000  0.0000  0.0000  0.0000  0.0000  0.0000  0.0000  0.0000  0.0000  0.0000
  o =  1.0322  v =  0.7958 -0.0000 -0.6055  0.0000 -0.0000  0.0000  0.0000  0.0000  0.0000  0.0000      0.0000  0.0000  0.0000  0.0000  0.0000  0.0000  0.0000  0.0000  0.0000  0.0000
  o =  1.0414  v =  0.0000 -0.7071  0.0000  0.7071  0.0000  0.0000  0.0000  0.0000  0.0000  0.0000      0.0000  0.0000  0.0000  0.0000  0.0000  0.0000  0.0000  0.0000  0.0000  0.0000
  o =  1.0994  v =  0.6055  0.0000  0.7958  0.0000  0.0000  0.0000  0.0000  0.0000  0.0000  0.0000      0.0000  0.0000  0.0000  0.0000  0.0000  0.0000  0.0000  0.0000  0.0000  0.0000
  o =  1.1009  v =  0.0000 -0.7071  0.0000 -0.7071  0.0000  0.0000  0.0000  0.0000  0.0000  0.0000      0.0000  0.0000  0.0000  0.0000  0.0000  0.0000  0.0000  0.0000  0.0000  0.0000
  o =  1.1111  v =  0.0000 -0.0000  0.0000  0.0000 -1.0000  0.0000  0.0000  0.0000  0.0000  0.0000      0.0000  0.0000  0.0000  0.0000  0.0000  0.0000  0.0000  0.0000  0.0000  0.0000
     EDDAV:  cpu time    0.1785: real time    0.1785
       DOS:  cpu time    0.0002: real time    0.0002
    CHARGE:  cpu time    0.0715: real time    0.0715
    MIXING:  cpu time    0.0005: real time    0.0005
    --------------------------------------------
      LOOP:  cpu time    1.8938: real time    1.8938

 eigenvalue-minimisations  :   360
 total energy-change (2. order) :-0.4376650E+03  (-0.2831761E+02)
 number of electron      54.0000008 magnetization      -0.0000000
 augmentation part       19.5266094 magnetization      -0.0000000

 Broyden mixing:
  rms(total) = 0.63044E+01    rms(broyden)= 0.63043E+01
  rms(prec ) = 0.68551E+01
  weight for this iteration     100.00

 eigenvalues of (default mixing * dielectric matrix)
  average eigenvalue GAMMA=   0.4162
  0.4162

 Free energy of the ion-electron system (eV)
  ---------------------------------------------------
  alpha Z        PSCENC =       199.38838823
  Ewald energy   TEWEN  =     -4203.06823030
  -Hartree energ DENC   =     -2199.42131956
  -exchange      EXHF   =         0.00000000
  -V(xc)+E(xc)   XCENC  =       144.32183255
  PAW double counting   =      6428.37978520    -6394.87814114
  entropy T*S    EENTRO =        -0.00376126
  eigenvalues    EBANDS =      -732.27098587
  atomic energy  EATOM  =      6689.01075358
  Solvation  Ediel_sol  =         0.00000000
  ---------------------------------------------------
  free energy    TOTEN  =       -68.54167858 eV

  energy without entropy =      -68.53791731  energy(sigma->0) =      -68.53979794


--------------------------------------------------------------------------------------------------------




--------------------------------------- Iteration      1(   7)  ---------------------------------------


    POTLOK:  cpu time    0.0329: real time    0.0329
    SETDIJ:  cpu time    1.4507: real time    1.4507
atom =   1  type =  1  l = 2
 
 onsite density matrix
 
spin component  1
 
  0.1100  0.0000  0.0537  0.0000  0.0000
  0.0000  0.0520  0.0000  0.0244  0.0000
  0.0537  0.0000  0.0698  0.0000  0.0000
  0.0000  0.0244  0.0000  0.0520  0.0000
  0.0000  0.0000  0.0000  0.0000  0.0161
 
spin component  2
 
  0.9326  0.0000 -0.0345  0.0000 -0.0000
  0.0000  1.0068  0.0000  0.0089  0.0000
 -0.0345  0.0000  0.9692  0.0000 -0.0000
  0.0000  0.0089  0.0000  1.0068  0.0000
 -0.0000  0.0000 -0.0000  0.0000  1.0023
 
 occupancies and eigenvectors
 
  o =  0.0161  v =  0.0000 -0.0000 -0.0000  0.0000  1.0000  0.0000  0.0000  0.0000  0.0000  0.0000      0.0000  0.0000  0.0000  0.0000  0.0000  0.0000  0.0000  0.0000  0.0000  0.0000
  o =  0.0277  v =  0.0000  0.7071  0.0000 -0.7071  0.0000  0.0000  0.0000  0.0000  0.0000  0.0000      0.0000  0.0000  0.0000  0.0000  0.0000  0.0000  0.0000  0.0000  0.0000  0.0000
  o =  0.0325  v = -0.5698 -0.0000  0.8218  0.0000  0.0000  0.0000  0.0000  0.0000  0.0000  0.0000      0.0000  0.0000  0.0000  0.0000  0.0000  0.0000  0.0000  0.0000  0.0000  0.0000
  o =  0.0764  v =  0.0000 -0.7071  0.0000 -0.7071 -0.0000  0.0000  0.0000  0.0000  0.0000  0.0000      0.0000  0.0000  0.0000  0.0000  0.0000  0.0000  0.0000  0.0000  0.0000  0.0000
  o =  0.1473  v = -0.8218  0.0000 -0.5698  0.0000 -0.0000  0.0000  0.0000  0.0000  0.0000  0.0000      0.0000  0.0000  0.0000  0.0000  0.0000  0.0000  0.0000  0.0000  0.0000  0.0000
  o =  0.9118  v =  0.0000  0.0000  0.0000  0.0000  0.0000  0.8571  0.0000  0.5152 -0.0000  0.0000      0.0000  0.0000  0.0000  0.0000  0.0000  0.0000  0.0000  0.0000  0.0000  0.0000
  o =  0.9899  v =  0.0000  0.0000  0.0000  0.0000  0.0000 -0.5152  0.0000  0.8571 -0.0000  0.0000      0.0000  0.0000  0.0000  0.0000  0.0000  0.0000  0.0000  0.0000  0.0000  0.0000
  o =  0.9979  v =  0.0000  0.0000  0.0000  0.0000  0.0000  0.0000 -0.7071  0.0000  0.7071 -0.0000      0.0000  0.0000  0.0000  0.0000  0.0000  0.0000  0.0000  0.0000  0.0000  0.0000
  o =  1.0023  v =  0.0000  0.0000  0.0000  0.0000  0.0000  0.0000 -0.0000 -0.0000  0.0000  1.0000      0.0000  0.0000  0.0000  0.0000  0.0000  0.0000  0.0000  0.0000  0.0000  0.0000
  o =  1.0158  v =  0.0000  0.0000  0.0000  0.0000  0.0000  0.0000  0.7071  0.0000  0.7071 -0.0000      0.0000  0.0000  0.0000  0.0000  0.0000  0.0000  0.0000  0.0000  0.0000  0.0000
atom =   2  type =  1  l = 2
 
 onsite density matrix
 
spin component  1
 
  0.9326  0.0000  0.0345  0.0000 -0.0000
  0.0000  1.0068  0.0000 -0.0089  0.0000
  0.0345  0.0000  0.9692  0.0000 -0.0000
  0.0000 -0.0089  0.0000  1.0068  0.0000
 -0.0000  0.0000 -0.0000  0.0000  1.0023
 
spin component  2
 
  0.1100  0.0000 -0.0537  0.0000 -0.0000
  0.0000  0.0520  0.0000 -0.0244  0.0000
 -0.0537  0.0000  0.0698  0.0000  0.0000
  0.0000 -0.0244  0.0000  0.0520  0.0000
 -0.0000  0.0000  0.0000  0.0000  0.0161
 
 occupancies and eigenvectors
 
  o =  0.0161  v =  0.0000  0.0000  0.0000  0.0000  0.0000  0.0000 -0.0000  0.0000 -0.0000 -1.0000      0.0000  0.0000  0.0000  0.0000  0.0000  0.0000  0.0000  0.0000  0.0000  0.0000
  o =  0.0277  v =  0.0000  0.0000  0.0000  0.0000  0.0000  0.0000  0.7071  0.0000  0.7071 -0.0000      0.0000  0.0000  0.0000  0.0000  0.0000  0.0000  0.0000  0.0000  0.0000  0.0000
  o =  0.0325  v =  0.0000  0.0000  0.0000  0.0000  0.0000 -0.5698  0.0000 -0.8218  0.0000 -0.0000      0.0000  0.0000  0.0000  0.0000  0.0000  0.0000  0.0000  0.0000  0.0000  0.0000
  o =  0.0764  v =  0.0000  0.0000  0.0000  0.0000  0.0000  0.0000 -0.7071  0.0000  0.7071  0.0000      0.0000  0.0000  0.0000  0.0000  0.0000  0.0000  0.0000  0.0000  0.0000  0.0000
  o =  0.1473  v =  0.0000  0.0000  0.0000  0.0000  0.0000 -0.8218 -0.0000  0.5698  0.0000  0.0000      0.0000  0.0000  0.0000  0.0000  0.0000  0.0000  0.0000  0.0000  0.0000  0.0000
  o =  0.9118  v = -0.8571  0.0000  0.5152  0.0000 -0.0000  0.0000  0.0000  0.0000  0.0000  0.0000      0.0000  0.0000  0.0000  0.0000  0.0000  0.0000  0.0000  0.0000  0.0000  0.0000
  o =  0.9899  v = -0.5152  0.0000 -0.8571  0.0000  0.0000  0.0000  0.0000  0.0000  0.0000  0.0000      0.0000  0.0000  0.0000  0.0000  0.0000  0.0000  0.0000  0.0000  0.0000  0.0000
  o =  0.9979  v =  0.0000 -0.7071  0.0000 -0.7071  0.0000  0.0000  0.0000  0.0000  0.0000  0.0000      0.0000  0.0000  0.0000  0.0000  0.0000  0.0000  0.0000  0.0000  0.0000  0.0000
  o =  1.0023  v =  0.0000 -0.0000 -0.0000 -0.0000 -1.0000  0.0000  0.0000  0.0000  0.0000  0.0000      0.0000  0.0000  0.0000  0.0000  0.0000  0.0000  0.0000  0.0000  0.0000  0.0000
  o =  1.0158  v =  0.0000 -0.7071 -0.0000  0.7071 -0.0000  0.0000  0.0000  0.0000  0.0000  0.0000      0.0000  0.0000  0.0000  0.0000  0.0000  0.0000  0.0000  0.0000  0.0000  0.0000
     EDDAV:  cpu time    0.1515: real time    0.1515
       DOS:  cpu time    0.0001: real time    0.0001
    CHARGE:  cpu time    0.0708: real time    0.0708
    MIXING:  cpu time    0.0006: real time    0.0006
    --------------------------------------------
      LOOP:  cpu time    1.7065: real time    1.7065

 eigenvalue-minimisations  :   288
 total energy-change (2. order) :-0.2719816E+01  (-0.5283396E+01)
 number of electron      54.0000008 magnetization       0.0000000
 augmentation part       19.7012261 magnetization       0.0000000

 Broyden mixing:
  rms(total) = 0.17229E+01    rms(broyden)= 0.17227E+01
  rms(prec ) = 0.24904E+01
  weight for this iteration     100.00

 eigenvalues of (default mixing * dielectric matrix)
  average eigenvalue GAMMA=   0.6826
  0.6826  0.6826

 Free energy of the ion-electron system (eV)
  ---------------------------------------------------
  alpha Z        PSCENC =       199.38838823
  Ewald energy   TEWEN  =     -4203.06823030
  -Hartree energ DENC   =     -2175.85766400
  -exchange      EXHF   =         0.00000000
  -V(xc)+E(xc)   XCENC  =       167.94315190
  PAW double counting   =      6484.19918698    -6451.54460933
  entropy T*S    EENTRO =        -0.00000000
  eigenvalues    EBANDS =      -781.33247151
  atomic energy  EATOM  =      6689.01075358
  Solvation  Ediel_sol  =         0.00000000
  ---------------------------------------------------
  free energy    TOTEN  =       -71.26149445 eV

  energy without entropy =      -71.26149445  energy(sigma->0) =      -71.26149445


--------------------------------------------------------------------------------------------------------




--------------------------------------- Iteration      1(   8)  ---------------------------------------


    POTLOK:  cpu time    0.0324: real time    0.0324
    SETDIJ:  cpu time    1.4502: real time    1.4502
atom =   1  type =  1  l = 2
 
 onsite density matrix
 
spin component  1
 
  0.0190  0.0000 -0.0041  0.0000 -0.0000
  0.0000  0.0527  0.0000  0.0222  0.0000
 -0.0041  0.0000  0.0304  0.0000  0.0000
  0.0000  0.0222  0.0000  0.0527  0.0000
 -0.0000  0.0000  0.0000  0.0000  0.0262
 
spin component  2
 
  1.0120  0.0000  0.0373  0.0000 -0.0000
  0.0000  0.9793  0.0000  0.0119  0.0000
  0.0373  0.0000  0.9879  0.0000 -0.0000
  0.0000  0.0119  0.0000  0.9793  0.0000
 -0.0000  0.0000 -0.0000  0.0000  0.9656
 
 occupancies and eigenvectors
 
  o =  0.0177  v =  0.9515 -0.0000  0.3078  0.0000 -0.0000  0.0000  0.0000  0.0000  0.0000  0.0000      0.0000  0.0000  0.0000  0.0000  0.0000  0.0000  0.0000  0.0000  0.0000  0.0000
  o =  0.0262  v =  0.0000  0.0000 -0.0000  0.0000  1.0000  0.0000  0.0000  0.0000  0.0000  0.0000      0.0000  0.0000  0.0000  0.0000  0.0000  0.0000  0.0000  0.0000  0.0000  0.0000
  o =  0.0305  v =  0.0000  0.7071  0.0000 -0.7071 -0.0000  0.0000  0.0000  0.0000  0.0000  0.0000      0.0000  0.0000  0.0000  0.0000  0.0000  0.0000  0.0000  0.0000  0.0000  0.0000
  o =  0.0317  v =  0.3078 -0.0000 -0.9515  0.0000 -0.0000  0.0000  0.0000  0.0000  0.0000  0.0000      0.0000  0.0000  0.0000  0.0000  0.0000  0.0000  0.0000  0.0000  0.0000  0.0000
  o =  0.0749  v =  0.0000 -0.7071  0.0000 -0.7071  0.0000  0.0000  0.0000  0.0000  0.0000  0.0000      0.0000  0.0000  0.0000  0.0000  0.0000  0.0000  0.0000  0.0000  0.0000  0.0000
  o =  0.9608  v =  0.0000  0.0000  0.0000  0.0000  0.0000 -0.5884  0.0000  0.8086  0.0000 -0.0000      0.0000  0.0000  0.0000  0.0000  0.0000  0.0000  0.0000  0.0000  0.0000  0.0000
  o =  0.9656  v =  0.0000  0.0000  0.0000  0.0000  0.0000  0.0000 -0.0000 -0.0000  0.0000 -1.0000      0.0000  0.0000  0.0000  0.0000  0.0000  0.0000  0.0000  0.0000  0.0000  0.0000
  o =  0.9674  v =  0.0000  0.0000  0.0000  0.0000  0.0000  0.0000  0.7071  0.0000 -0.7071 -0.0000      0.0000  0.0000  0.0000  0.0000  0.0000  0.0000  0.0000  0.0000  0.0000  0.0000
  o =  0.9912  v =  0.0000  0.0000  0.0000  0.0000  0.0000  0.0000  0.7071  0.0000  0.7071 -0.0000      0.0000  0.0000  0.0000  0.0000  0.0000  0.0000  0.0000  0.0000  0.0000  0.0000
  o =  1.0392  v =  0.0000  0.0000  0.0000  0.0000  0.0000 -0.8086  0.0000 -0.5884  0.0000  0.0000      0.0000  0.0000  0.0000  0.0000  0.0000  0.0000  0.0000  0.0000  0.0000  0.0000
atom =   2  type =  1  l = 2
 
 onsite density matrix
 
spin component  1
 
  1.0120  0.0000 -0.0373  0.0000 -0.0000
  0.0000  0.9793  0.0000 -0.0119  0.0000
 -0.0373  0.0000  0.9879  0.0000  0.0000
  0.0000 -0.0119  0.0000  0.9793  0.0000
 -0.0000  0.0000  0.0000  0.0000  0.9656
 
spin component  2
 
  0.0190  0.0000  0.0041  0.0000 -0.0000
  0.0000  0.0527  0.0000 -0.0222  0.0000
  0.0041  0.0000  0.0304  0.0000  0.0000
  0.0000 -0.0222  0.0000  0.0527  0.0000
 -0.0000  0.0000  0.0000  0.0000  0.0262
 
 occupancies and eigenvectors
 
  o =  0.0177  v =  0.0000  0.0000  0.0000  0.0000  0.0000  0.9515  0.0000 -0.3078  0.0000  0.0000      0.0000  0.0000  0.0000  0.0000  0.0000  0.0000  0.0000  0.0000  0.0000  0.0000
  o =  0.0262  v =  0.0000  0.0000  0.0000  0.0000  0.0000  0.0000 -0.0000  0.0000  0.0000 -1.0000      0.0000  0.0000  0.0000  0.0000  0.0000  0.0000  0.0000  0.0000  0.0000  0.0000
  o =  0.0305  v =  0.0000  0.0000  0.0000  0.0000  0.0000  0.0000 -0.7071  0.0000 -0.7071  0.0000      0.0000  0.0000  0.0000  0.0000  0.0000  0.0000  0.0000  0.0000  0.0000  0.0000
  o =  0.0317  v =  0.0000  0.0000  0.0000  0.0000  0.0000  0.3078  0.0000  0.9515  0.0000  0.0000      0.0000  0.0000  0.0000  0.0000  0.0000  0.0000  0.0000  0.0000  0.0000  0.0000
  o =  0.0749  v =  0.0000  0.0000  0.0000  0.0000  0.0000  0.0000 -0.7071  0.0000  0.7071  0.0000      0.0000  0.0000  0.0000  0.0000  0.0000  0.0000  0.0000  0.0000  0.0000  0.0000
  o =  0.9608  v = -0.5884  0.0000 -0.8086  0.0000 -0.0000  0.0000  0.0000  0.0000  0.0000  0.0000      0.0000  0.0000  0.0000  0.0000  0.0000  0.0000  0.0000  0.0000  0.0000  0.0000
  o =  0.9656  v =  0.0000 -0.0000  0.0000  0.0000 -1.0000  0.0000  0.0000  0.0000  0.0000  0.0000      0.0000  0.0000  0.0000  0.0000  0.0000  0.0000  0.0000  0.0000  0.0000  0.0000
  o =  0.9674  v =  0.0000 -0.7071  0.0000 -0.7071  0.0000  0.0000  0.0000  0.0000  0.0000  0.0000      0.0000  0.0000  0.0000  0.0000  0.0000  0.0000  0.0000  0.0000  0.0000  0.0000
  o =  0.9912  v =  0.0000 -0.7071  0.0000  0.7071  0.0000  0.0000  0.0000  0.0000  0.0000  0.0000      0.0000  0.0000  0.0000  0.0000  0.0000  0.0000  0.0000  0.0000  0.0000  0.0000
  o =  1.0392  v = -0.8086  0.0000  0.5884  0.0000  0.0000  0.0000  0.0000  0.0000  0.0000  0.0000      0.0000  0.0000  0.0000  0.0000  0.0000  0.0000  0.0000  0.0000  0.0000  0.0000
     EDDAV:  cpu time    0.1698: real time    0.1698
       DOS:  cpu time    0.0001: real time    0.0001
    CHARGE:  cpu time    0.0713: real time    0.0713
    MIXING:  cpu time    0.0006: real time    0.0006
    --------------------------------------------
      LOOP:  cpu time    1.7244: real time    1.7245

 eigenvalue-minimisations  :   348
 total energy-change (2. order) : 0.2662980E+01  (-0.7325598E+00)
 number of electron      54.0000007 magnetization       0.0000000
 augmentation part       19.8743482 magnetization       0.0000000

 Broyden mixing:
  rms(total) = 0.62716E+00    rms(broyden)= 0.62697E+00
  rms(prec ) = 0.93945E+00
  weight for this iteration     100.00

 eigenvalues of (default mixing * dielectric matrix)
  average eigenvalue GAMMA=   0.8090
  1.1222  0.6523  0.6523

 Free energy of the ion-electron system (eV)
  ---------------------------------------------------
  alpha Z        PSCENC =       199.38838823
  Ewald energy   TEWEN  =     -4203.06823030
  -Hartree energ DENC   =     -2170.03541276
  -exchange      EXHF   =         0.00000000
  -V(xc)+E(xc)   XCENC  =       170.41192153
  PAW double counting   =      6413.75014358    -6378.67267454
  entropy T*S    EENTRO =        -0.00000000
  eigenvalues    EBANDS =      -789.38340420
  atomic energy  EATOM  =      6689.01075358
  Solvation  Ediel_sol  =         0.00000000
  ---------------------------------------------------
  free energy    TOTEN  =       -68.59851488 eV

  energy without entropy =      -68.59851488  energy(sigma->0) =      -68.59851488


--------------------------------------------------------------------------------------------------------




--------------------------------------- Iteration      1(   9)  ---------------------------------------


    POTLOK:  cpu time    0.0325: real time    0.0325
    SETDIJ:  cpu time    1.4514: real time    1.4514
atom =   1  type =  1  l = 2
 
 onsite density matrix
 
spin component  1
 
  0.0959  0.0000  0.0554  0.0000 -0.0000
  0.0000  0.0449  0.0000  0.0187  0.0000
  0.0554  0.0000  0.0601  0.0000 -0.0000
  0.0000  0.0187  0.0000  0.0449  0.0000
 -0.0000  0.0000 -0.0000  0.0000  0.0208
 
spin component  2
 
  0.9213  0.0000 -0.0110  0.0000  0.0000
  0.0000  0.9601  0.0000  0.0175  0.0000
 -0.0110  0.0000  0.9345  0.0000  0.0000
  0.0000  0.0175  0.0000  0.9601  0.0000
  0.0000  0.0000  0.0000  0.0000  0.9440
 
 occupancies and eigenvectors
 
  o =  0.0198  v = -0.5885  0.0000  0.8085 -0.0000  0.0000  0.0000  0.0000  0.0000  0.0000  0.0000      0.0000  0.0000  0.0000  0.0000  0.0000  0.0000  0.0000  0.0000  0.0000  0.0000
  o =  0.0208  v =  0.0000  0.0000 -0.0000 -0.0000  1.0000  0.0000  0.0000  0.0000  0.0000  0.0000      0.0000  0.0000  0.0000  0.0000  0.0000  0.0000  0.0000  0.0000  0.0000  0.0000
  o =  0.0263  v = -0.0000 -0.7071  0.0000  0.7071  0.0000  0.0000  0.0000  0.0000  0.0000  0.0000      0.0000  0.0000  0.0000  0.0000  0.0000  0.0000  0.0000  0.0000  0.0000  0.0000
  o =  0.0636  v =  0.0000  0.7071 -0.0000  0.7071  0.0000  0.0000  0.0000  0.0000  0.0000  0.0000      0.0000  0.0000  0.0000  0.0000  0.0000  0.0000  0.0000  0.0000  0.0000  0.0000
  o =  0.1362  v = -0.8085  0.0000 -0.5885  0.0000  0.0000  0.0000  0.0000  0.0000  0.0000  0.0000      0.0000  0.0000  0.0000  0.0000  0.0000  0.0000  0.0000  0.0000  0.0000  0.0000
  o =  0.9151  v =  0.0000  0.0000  0.0000  0.0000  0.0000  0.8697 -0.0000  0.4935  0.0000 -0.0000      0.0000  0.0000  0.0000  0.0000  0.0000  0.0000  0.0000  0.0000  0.0000  0.0000
  o =  0.9407  v =  0.0000  0.0000  0.0000  0.0000  0.0000  0.4935  0.0000 -0.8697 -0.0000  0.0000      0.0000  0.0000  0.0000  0.0000  0.0000  0.0000  0.0000  0.0000  0.0000  0.0000
  o =  0.9426  v =  0.0000  0.0000  0.0000  0.0000  0.0000  0.0000  0.7071 -0.0000 -0.7071 -0.0000      0.0000  0.0000  0.0000  0.0000  0.0000  0.0000  0.0000  0.0000  0.0000  0.0000
  o =  0.9440  v =  0.0000  0.0000  0.0000  0.0000  0.0000  0.0000 -0.0000 -0.0000  0.0000 -1.0000      0.0000  0.0000  0.0000  0.0000  0.0000  0.0000  0.0000  0.0000  0.0000  0.0000
  o =  0.9776  v =  0.0000  0.0000  0.0000  0.0000  0.0000  0.0000  0.7071 -0.0000  0.7071 -0.0000      0.0000  0.0000  0.0000  0.0000  0.0000  0.0000  0.0000  0.0000  0.0000  0.0000
atom =   2  type =  1  l = 2
 
 onsite density matrix
 
spin component  1
 
  0.9213  0.0000  0.0110  0.0000  0.0000
  0.0000  0.9601  0.0000 -0.0175  0.0000
  0.0110  0.0000  0.9345  0.0000  0.0000
  0.0000 -0.0175  0.0000  0.9601  0.0000
  0.0000  0.0000  0.0000  0.0000  0.9440
 
spin component  2
 
  0.0959  0.0000 -0.0554  0.0000 -0.0000
  0.0000  0.0449  0.0000 -0.0187  0.0000
 -0.0554  0.0000  0.0601  0.0000 -0.0000
  0.0000 -0.0187  0.0000  0.0449  0.0000
 -0.0000  0.0000 -0.0000  0.0000  0.0208
 
 occupancies and eigenvectors
 
  o =  0.0198  v =  0.0000  0.0000  0.0000  0.0000  0.0000 -0.5885 -0.0000 -0.8085  0.0000 -0.0000      0.0000  0.0000  0.0000  0.0000  0.0000  0.0000  0.0000  0.0000  0.0000  0.0000
  o =  0.0208  v =  0.0000  0.0000  0.0000  0.0000  0.0000 -0.0000  0.0000 -0.0000  0.0000  1.0000      0.0000  0.0000  0.0000  0.0000  0.0000  0.0000  0.0000  0.0000  0.0000  0.0000
  o =  0.0263  v =  0.0000  0.0000  0.0000  0.0000  0.0000  0.0000 -0.7071  0.0000 -0.7071  0.0000      0.0000  0.0000  0.0000  0.0000  0.0000  0.0000  0.0000  0.0000  0.0000  0.0000
  o =  0.0636  v =  0.0000  0.0000  0.0000  0.0000  0.0000  0.0000  0.7071  0.0000 -0.7071 -0.0000      0.0000  0.0000  0.0000  0.0000  0.0000  0.0000  0.0000  0.0000  0.0000  0.0000
  o =  0.1362  v =  0.0000  0.0000  0.0000  0.0000  0.0000 -0.8085 -0.0000  0.5885  0.0000 -0.0000      0.0000  0.0000  0.0000  0.0000  0.0000  0.0000  0.0000  0.0000  0.0000  0.0000
  o =  0.9151  v = -0.8697  0.0000  0.4935  0.0000  0.0000  0.0000  0.0000  0.0000  0.0000  0.0000      0.0000  0.0000  0.0000  0.0000  0.0000  0.0000  0.0000  0.0000  0.0000  0.0000
  o =  0.9407  v = -0.4935  0.0000 -0.8697  0.0000 -0.0000  0.0000  0.0000  0.0000  0.0000  0.0000      0.0000  0.0000  0.0000  0.0000  0.0000  0.0000  0.0000  0.0000  0.0000  0.0000
  o =  0.9426  v =  0.0000 -0.7071  0.0000 -0.7071  0.0000  0.0000  0.0000  0.0000  0.0000  0.0000      0.0000  0.0000  0.0000  0.0000  0.0000  0.0000  0.0000  0.0000  0.0000  0.0000
  o =  0.9440  v =  0.0000 -0.0000 -0.0000  0.0000  1.0000  0.0000  0.0000  0.0000  0.0000  0.0000      0.0000  0.0000  0.0000  0.0000  0.0000  0.0000  0.0000  0.0000  0.0000  0.0000
  o =  0.9776  v =  0.0000  0.7071  0.0000 -0.7071 -0.0000  0.0000  0.0000  0.0000  0.0000  0.0000      0.0000  0.0000  0.0000  0.0000  0.0000  0.0000  0.0000  0.0000  0.0000  0.0000
     EDDAV:  cpu time    0.1663: real time    0.1663
       DOS:  cpu time    0.0001: real time    0.0001
    CHARGE:  cpu time    0.0711: real time    0.0711
    MIXING:  cpu time    0.0007: real time    0.0006
    --------------------------------------------
      LOOP:  cpu time    1.7220: real time    1.7220

 eigenvalue-minimisations  :   336
 total energy-change (2. order) : 0.4251726E+00  (-0.4547332E+00)
 number of electron      54.0000007 magnetization      -0.0000000
 augmentation part       19.9917461 magnetization      -0.0000000

 Broyden mixing:
  rms(total) = 0.80804E+00    rms(broyden)= 0.80800E+00
  rms(prec ) = 0.89899E+00
  weight for this iteration     100.00

 eigenvalues of (default mixing * dielectric matrix)
  average eigenvalue GAMMA=   0.9287
  1.7006  0.7254  0.7254  0.5636

 Free energy of the ion-electron system (eV)
  ---------------------------------------------------
  alpha Z        PSCENC =       199.38838823
  Ewald energy   TEWEN  =     -4203.06823030
  -Hartree energ DENC   =     -2163.32318815
  -exchange      EXHF   =         0.00000000
  -V(xc)+E(xc)   XCENC  =       168.45876088
  PAW double counting   =      6445.85245978    -6409.72323941
  entropy T*S    EENTRO =        -0.00000000
  eigenvalues    EBANDS =      -794.76904689
  atomic energy  EATOM  =      6689.01075358
  Solvation  Ediel_sol  =         0.00000000
  ---------------------------------------------------
  free energy    TOTEN  =       -68.17334228 eV

  energy without entropy =      -68.17334228  energy(sigma->0) =      -68.17334228


--------------------------------------------------------------------------------------------------------




--------------------------------------- Iteration      1(  10)  ---------------------------------------


    POTLOK:  cpu time    0.0325: real time    0.0325
    SETDIJ:  cpu time    1.4506: real time    1.4506
atom =   1  type =  1  l = 2
 
 onsite density matrix
 
spin component  1
 
  0.0228  0.0000 -0.0002  0.0000  0.0000
  0.0000  0.0532  0.0000  0.0220  0.0000
 -0.0002  0.0000  0.0306  0.0000 -0.0000
  0.0000  0.0220  0.0000  0.0532  0.0000
  0.0000  0.0000 -0.0000  0.0000  0.0304
 
spin component  2
 
  0.9910  0.0000  0.0447  0.0000 -0.0000
  0.0000  0.9509  0.0000  0.0159  0.0000
  0.0447  0.0000  0.9611  0.0000 -0.0000
  0.0000  0.0159  0.0000  0.9509  0.0000
 -0.0000  0.0000 -0.0000  0.0000  0.9320
 
 occupancies and eigenvectors
 
  o =  0.0228  v =  0.9997 -0.0000  0.0238  0.0000  0.0000  0.0000  0.0000  0.0000  0.0000  0.0000      0.0000  0.0000  0.0000  0.0000  0.0000  0.0000  0.0000  0.0000  0.0000  0.0000
  o =  0.0304  v =  0.0000  0.0000 -0.0000 -0.0000 -1.0000  0.0000  0.0000  0.0000  0.0000  0.0000      0.0000  0.0000  0.0000  0.0000  0.0000  0.0000  0.0000  0.0000  0.0000  0.0000
  o =  0.0306  v =  0.0238 -0.0000 -0.9997  0.0000  0.0000  0.0000  0.0000  0.0000  0.0000  0.0000      0.0000  0.0000  0.0000  0.0000  0.0000  0.0000  0.0000  0.0000  0.0000  0.0000
  o =  0.0312  v =  0.0000 -0.7071  0.0000  0.7071 -0.0000  0.0000  0.0000  0.0000  0.0000  0.0000      0.0000  0.0000  0.0000  0.0000  0.0000  0.0000  0.0000  0.0000  0.0000  0.0000
  o =  0.0752  v =  0.0000  0.7071 -0.0000  0.7071  0.0000  0.0000  0.0000  0.0000  0.0000  0.0000      0.0000  0.0000  0.0000  0.0000  0.0000  0.0000  0.0000  0.0000  0.0000  0.0000
  o =  0.9289  v =  0.0000  0.0000  0.0000  0.0000  0.0000 -0.5846  0.0000  0.8113  0.0000 -0.0000      0.0000  0.0000  0.0000  0.0000  0.0000  0.0000  0.0000  0.0000  0.0000  0.0000
  o =  0.9320  v =  0.0000  0.0000  0.0000  0.0000  0.0000  0.0000 -0.0000 -0.0000  0.0000 -1.0000      0.0000  0.0000  0.0000  0.0000  0.0000  0.0000  0.0000  0.0000  0.0000  0.0000
  o =  0.9349  v =  0.0000  0.0000  0.0000  0.0000  0.0000  0.0000  0.7071 -0.0000 -0.7071 -0.0000      0.0000  0.0000  0.0000  0.0000  0.0000  0.0000  0.0000  0.0000  0.0000  0.0000
  o =  0.9668  v =  0.0000  0.0000  0.0000  0.0000  0.0000  0.0000 -0.7071  0.0000 -0.7071  0.0000      0.0000  0.0000  0.0000  0.0000  0.0000  0.0000  0.0000  0.0000  0.0000  0.0000
  o =  1.0232  v =  0.0000  0.0000  0.0000  0.0000  0.0000 -0.8113  0.0000 -0.5846  0.0000  0.0000      0.0000  0.0000  0.0000  0.0000  0.0000  0.0000  0.0000  0.0000  0.0000  0.0000
atom =   2  type =  1  l = 2
 
 onsite density matrix
 
spin component  1
 
  0.9910  0.0000 -0.0447  0.0000 -0.0000
  0.0000  0.9509  0.0000 -0.0159  0.0000
 -0.0447  0.0000  0.9611  0.0000 -0.0000
  0.0000 -0.0159  0.0000  0.9509  0.0000
 -0.0000  0.0000 -0.0000  0.0000  0.9320
 
spin component  2
 
  0.0228  0.0000  0.0002  0.0000  0.0000
  0.0000  0.0532  0.0000 -0.0220  0.0000
  0.0002  0.0000  0.0306  0.0000 -0.0000
  0.0000 -0.0220  0.0000  0.0532  0.0000
  0.0000  0.0000 -0.0000  0.0000  0.0304
 
 occupancies and eigenvectors
 
  o =  0.0228  v =  0.0000  0.0000  0.0000  0.0000  0.0000  0.9997  0.0000 -0.0238  0.0000 -0.0000      0.0000  0.0000  0.0000  0.0000  0.0000  0.0000  0.0000  0.0000  0.0000  0.0000
  o =  0.0304  v =  0.0000  0.0000  0.0000  0.0000  0.0000  0.0000 -0.0000  0.0000 -0.0000  1.0000      0.0000  0.0000  0.0000  0.0000  0.0000  0.0000  0.0000  0.0000  0.0000  0.0000
  o =  0.0306  v =  0.0000  0.0000  0.0000  0.0000  0.0000  0.0238  0.0000  0.9997  0.0000 -0.0000      0.0000  0.0000  0.0000  0.0000  0.0000  0.0000  0.0000  0.0000  0.0000  0.0000
  o =  0.0312  v =  0.0000  0.0000  0.0000  0.0000  0.0000  0.0000  0.7071 -0.0000  0.7071  0.0000      0.0000  0.0000  0.0000  0.0000  0.0000  0.0000  0.0000  0.0000  0.0000  0.0000
  o =  0.0752  v =  0.0000  0.0000  0.0000  0.0000  0.0000  0.0000  0.7071  0.0000 -0.7071  0.0000      0.0000  0.0000  0.0000  0.0000  0.0000  0.0000  0.0000  0.0000  0.0000  0.0000
  o =  0.9289  v = -0.5846  0.0000 -0.8113  0.0000 -0.0000  0.0000  0.0000  0.0000  0.0000  0.0000      0.0000  0.0000  0.0000  0.0000  0.0000  0.0000  0.0000  0.0000  0.0000  0.0000
  o =  0.9320  v = -0.0000  0.0000 -0.0000  0.0000  1.0000  0.0000  0.0000  0.0000  0.0000  0.0000      0.0000  0.0000  0.0000  0.0000  0.0000  0.0000  0.0000  0.0000  0.0000  0.0000
  o =  0.9349  v = -0.0000 -0.7071 -0.0000 -0.7071  0.0000  0.0000  0.0000  0.0000  0.0000  0.0000      0.0000  0.0000  0.0000  0.0000  0.0000  0.0000  0.0000  0.0000  0.0000  0.0000
  o =  0.9668  v = -0.0000 -0.7071 -0.0000  0.7071  0.0000  0.0000  0.0000  0.0000  0.0000  0.0000      0.0000  0.0000  0.0000  0.0000  0.0000  0.0000  0.0000  0.0000  0.0000  0.0000
  o =  1.0232  v = -0.8113  0.0000  0.5846 -0.0000 -0.0000  0.0000  0.0000  0.0000  0.0000  0.0000      0.0000  0.0000  0.0000  0.0000  0.0000  0.0000  0.0000  0.0000  0.0000  0.0000
     EDDAV:  cpu time    0.1587: real time    0.1587
       DOS:  cpu time    0.0001: real time    0.0001
    CHARGE:  cpu time    0.0709: real time    0.0709
    MIXING:  cpu time    0.0007: real time    0.0007
    --------------------------------------------
      LOOP:  cpu time    1.7136: real time    1.7136

 eigenvalue-minimisations  :   312
 total energy-change (2. order) : 0.8549372E-01  (-0.4397878E-01)
 number of electron      54.0000007 magnetization      -0.0000000
 augmentation part       19.9887388 magnetization      -0.0000000

 Broyden mixing:
  rms(total) = 0.58484E+00    rms(broyden)= 0.58484E+00
  rms(prec ) = 0.64275E+00
  weight for this iteration     100.00

 eigenvalues of (default mixing * dielectric matrix)
  average eigenvalue GAMMA=   1.0930
  2.4182  0.9454  0.9454  0.5780  0.5780

 Free energy of the ion-electron system (eV)
  ---------------------------------------------------
  alpha Z        PSCENC =       199.38838823
  Ewald energy   TEWEN  =     -4203.06823030
  -Hartree energ DENC   =     -2156.57920043
  -exchange      EXHF   =         0.00000000
  -V(xc)+E(xc)   XCENC  =       165.76124894
  PAW double counting   =      6504.22743493    -6469.11930184
  entropy T*S    EENTRO =        -0.00000000
  eigenvalues    EBANDS =      -797.70894168
  atomic energy  EATOM  =      6689.01075358
  Solvation  Ediel_sol  =         0.00000000
  ---------------------------------------------------
  free energy    TOTEN  =       -68.08784856 eV

  energy without entropy =      -68.08784856  energy(sigma->0) =      -68.08784856


--------------------------------------------------------------------------------------------------------




--------------------------------------- Iteration      1(  11)  ---------------------------------------


    POTLOK:  cpu time    0.0325: real time    0.0325
    SETDIJ:  cpu time    1.4518: real time    1.4518
atom =   1  type =  1  l = 2
 
 onsite density matrix
 
spin component  1
 
  0.0416  0.0000  0.0226  0.0000 -0.0000
  0.0000  0.0447  0.0000  0.0246  0.0000
  0.0226  0.0000  0.0332  0.0000  0.0000
  0.0000  0.0246  0.0000  0.0447  0.0000
 -0.0000  0.0000  0.0000  0.0000  0.0169
 
spin component  2
 
  0.9695  0.0000  0.0240  0.0000  0.0000
  0.0000  0.9589  0.0000  0.0175  0.0000
  0.0240  0.0000  0.9546  0.0000  0.0000
  0.0000  0.0175  0.0000  0.9589  0.0000
  0.0000  0.0000  0.0000  0.0000  0.9417
 
 occupancies and eigenvectors
 
  o =  0.0144  v = -0.6394 -0.0000  0.7688  0.0000 -0.0000  0.0000  0.0000  0.0000  0.0000  0.0000      0.0000  0.0000  0.0000  0.0000  0.0000  0.0000  0.0000  0.0000  0.0000  0.0000
  o =  0.0169  v = -0.0000  0.0000  0.0000  0.0000  1.0000  0.0000  0.0000  0.0000  0.0000  0.0000      0.0000  0.0000  0.0000  0.0000  0.0000  0.0000  0.0000  0.0000  0.0000  0.0000
  o =  0.0200  v =  0.0000  0.7071  0.0000 -0.7071 -0.0000  0.0000  0.0000  0.0000  0.0000  0.0000      0.0000  0.0000  0.0000  0.0000  0.0000  0.0000  0.0000  0.0000  0.0000  0.0000
  o =  0.0603  v = -0.7688 -0.0000 -0.6394  0.0000 -0.0000  0.0000  0.0000  0.0000  0.0000  0.0000      0.0000  0.0000  0.0000  0.0000  0.0000  0.0000  0.0000  0.0000  0.0000  0.0000
  o =  0.0693  v =  0.0000 -0.7071  0.0000 -0.7071  0.0000  0.0000  0.0000  0.0000  0.0000  0.0000      0.0000  0.0000  0.0000  0.0000  0.0000  0.0000  0.0000  0.0000  0.0000  0.0000
  o =  0.9369  v =  0.0000  0.0000  0.0000  0.0000  0.0000 -0.5935  0.0000  0.8048  0.0000  0.0000      0.0000  0.0000  0.0000  0.0000  0.0000  0.0000  0.0000  0.0000  0.0000  0.0000
  o =  0.9415  v =  0.0000  0.0000  0.0000  0.0000  0.0000  0.0000  0.7071  0.0000 -0.7071  0.0000      0.0000  0.0000  0.0000  0.0000  0.0000  0.0000  0.0000  0.0000  0.0000  0.0000
  o =  0.9417  v =  0.0000  0.0000  0.0000  0.0000  0.0000  0.0000 -0.0000 -0.0000  0.0000  1.0000      0.0000  0.0000  0.0000  0.0000  0.0000  0.0000  0.0000  0.0000  0.0000  0.0000
  o =  0.9764  v =  0.0000  0.0000  0.0000  0.0000  0.0000  0.0000 -0.7071  0.0000 -0.7071 -0.0000      0.0000  0.0000  0.0000  0.0000  0.0000  0.0000  0.0000  0.0000  0.0000  0.0000
  o =  0.9872  v =  0.0000  0.0000  0.0000  0.0000  0.0000 -0.8048  0.0000 -0.5935  0.0000 -0.0000      0.0000  0.0000  0.0000  0.0000  0.0000  0.0000  0.0000  0.0000  0.0000  0.0000
atom =   2  type =  1  l = 2
 
 onsite density matrix
 
spin component  1
 
  0.9695  0.0000 -0.0240  0.0000 -0.0000
  0.0000  0.9589  0.0000 -0.0175  0.0000
 -0.0240  0.0000  0.9546  0.0000 -0.0000
  0.0000 -0.0175  0.0000  0.9589  0.0000
 -0.0000  0.0000 -0.0000  0.0000  0.9417
 
spin component  2
 
  0.0416  0.0000 -0.0226  0.0000  0.0000
  0.0000  0.0447  0.0000 -0.0246  0.0000
 -0.0226  0.0000  0.0332  0.0000  0.0000
  0.0000 -0.0246  0.0000  0.0447  0.0000
  0.0000  0.0000  0.0000  0.0000  0.0169
 
 occupancies and eigenvectors
 
  o =  0.0144  v =  0.0000  0.0000  0.0000  0.0000  0.0000 -0.6394 -0.0000 -0.7688  0.0000  0.0000      0.0000  0.0000  0.0000  0.0000  0.0000  0.0000  0.0000  0.0000  0.0000  0.0000
  o =  0.0169  v =  0.0000  0.0000  0.0000  0.0000  0.0000 -0.0000  0.0000 -0.0000  0.0000 -1.0000      0.0000  0.0000  0.0000  0.0000  0.0000  0.0000  0.0000  0.0000  0.0000  0.0000
  o =  0.0200  v =  0.0000  0.0000  0.0000  0.0000  0.0000  0.0000 -0.7071  0.0000 -0.7071 -0.0000      0.0000  0.0000  0.0000  0.0000  0.0000  0.0000  0.0000  0.0000  0.0000  0.0000
  o =  0.0603  v =  0.0000  0.0000  0.0000  0.0000  0.0000 -0.7688 -0.0000  0.6394  0.0000  0.0000      0.0000  0.0000  0.0000  0.0000  0.0000  0.0000  0.0000  0.0000  0.0000  0.0000
  o =  0.0693  v =  0.0000  0.0000  0.0000  0.0000  0.0000  0.0000 -0.7071  0.0000  0.7071 -0.0000      0.0000  0.0000  0.0000  0.0000  0.0000  0.0000  0.0000  0.0000  0.0000  0.0000
  o =  0.9369  v = -0.5935  0.0000 -0.8048  0.0000 -0.0000  0.0000  0.0000  0.0000  0.0000  0.0000      0.0000  0.0000  0.0000  0.0000  0.0000  0.0000  0.0000  0.0000  0.0000  0.0000
  o =  0.9415  v =  0.0000  0.7071  0.0000  0.7071 -0.0000  0.0000  0.0000  0.0000  0.0000  0.0000      0.0000  0.0000  0.0000  0.0000  0.0000  0.0000  0.0000  0.0000  0.0000  0.0000
  o =  0.9417  v =  0.0000  0.0000 -0.0000  0.0000  1.0000  0.0000  0.0000  0.0000  0.0000  0.0000      0.0000  0.0000  0.0000  0.0000  0.0000  0.0000  0.0000  0.0000  0.0000  0.0000
  o =  0.9764  v =  0.0000  0.7071 -0.0000 -0.7071  0.0000  0.0000  0.0000  0.0000  0.0000  0.0000      0.0000  0.0000  0.0000  0.0000  0.0000  0.0000  0.0000  0.0000  0.0000  0.0000
  o =  0.9872  v = -0.8048  0.0000  0.5935  0.0000  0.0000  0.0000  0.0000  0.0000  0.0000  0.0000      0.0000  0.0000  0.0000  0.0000  0.0000  0.0000  0.0000  0.0000  0.0000  0.0000
     EDDAV:  cpu time    0.1702: real time    0.1703
       DOS:  cpu time    0.0001: real time    0.0001
    CHARGE:  cpu time    0.0710: real time    0.0710
    MIXING:  cpu time    0.0007: real time    0.0007
    --------------------------------------------
      LOOP:  cpu time    1.7263: real time    1.7264

 eigenvalue-minimisations  :   348
 total energy-change (2. order) : 0.2356758E-01  (-0.9446554E-01)
 number of electron      54.0000007 magnetization      -0.0000000
 augmentation part       20.0799338 magnetization      -0.0000000

 Broyden mixing:
  rms(total) = 0.18462E+00    rms(broyden)= 0.18454E+00
  rms(prec ) = 0.27654E+00
  weight for this iteration     100.00

 eigenvalues of (default mixing * dielectric matrix)
  average eigenvalue GAMMA=   1.1571
  3.1214  0.9808  0.9808  0.6377  0.6377  0.5845

 Free energy of the ion-electron system (eV)
  ---------------------------------------------------
  alpha Z        PSCENC =       199.38838823
  Ewald energy   TEWEN  =     -4203.06823030
  -Hartree energ DENC   =     -2145.52287523
  -exchange      EXHF   =         0.00000000
  -V(xc)+E(xc)   XCENC  =       165.77525489
  PAW double counting   =      6600.23274404    -6566.37262004
  entropy T*S    EENTRO =        -0.00000000
  eigenvalues    EBANDS =      -807.50769616
  atomic energy  EATOM  =      6689.01075358
  Solvation  Ediel_sol  =         0.00000000
  ---------------------------------------------------
  free energy    TOTEN  =       -68.06428098 eV

  energy without entropy =      -68.06428098  energy(sigma->0) =      -68.06428098


--------------------------------------------------------------------------------------------------------




--------------------------------------- Iteration      1(  12)  ---------------------------------------


    POTLOK:  cpu time    0.0325: real time    0.0325
    SETDIJ:  cpu time    1.4515: real time    1.4515
atom =   1  type =  1  l = 2
 
 onsite density matrix
 
spin component  1
 
  0.0450  0.0000  0.0230  0.0000  0.0000
  0.0000  0.0450  0.0000  0.0241  0.0000
  0.0230  0.0000  0.0348  0.0000  0.0000
  0.0000  0.0241  0.0000  0.0450  0.0000
  0.0000  0.0000  0.0000  0.0000  0.0186
 
spin component  2
 
  0.9672  0.0000  0.0242  0.0000 -0.0000
  0.0000  0.9573  0.0000  0.0173  0.0000
  0.0242  0.0000  0.9530  0.0000  0.0000
  0.0000  0.0173  0.0000  0.9573  0.0000
 -0.0000  0.0000  0.0000  0.0000  0.9395
 
 occupancies and eigenvectors
 
  o =  0.0164  v = -0.6260  0.0000  0.7799 -0.0000 -0.0000  0.0000  0.0000  0.0000  0.0000  0.0000      0.0000  0.0000  0.0000  0.0000  0.0000  0.0000  0.0000  0.0000  0.0000  0.0000
[...]
     13      -4.0001      1.00000
     14      -3.9082      1.00000
     15      -3.6352      1.00000
     16      -3.5230      1.00000
     17      -3.0526      1.00000
     18      -3.0284      1.00000
     19      -2.7836      1.00000
     20      -2.2675      1.00000
     21      -2.2570      1.00000
     22      -1.9934      1.00000
     23       0.7841      1.00000
     24       0.8041      1.00000
     25       0.9778      1.00000
     26       1.7995      1.00000
     27       2.2398      1.00000
     28       6.4258      0.00000
     29       6.4803      0.00000
     30       6.5050      0.00000
     31       7.1140      0.00000
     32       7.6423      0.00000
     33       8.8666      0.00000
     34      11.5069      0.00000
     35      11.5982      0.00000
     36      12.5009      0.00000

 spin component 2

 k-point     1 :       0.2500    0.2500    0.0000
  band No.  band energies     occupation 
      1     -49.2533      1.00000
      2     -49.1902      1.00000
      3     -49.1890      1.00000
      4     -42.7481      1.00000
      5     -42.6694      1.00000
      6     -42.6643      1.00000
      7     -22.8643      1.00000
      8     -22.6310      1.00000
      9     -22.4494      1.00000
     10     -22.4170      1.00000
     11      -4.8919      1.00000
     12      -4.4859      1.00000
     13      -3.7633      1.00000
     14      -3.5925      1.00000
     15      -3.1673      1.00000
     16      -3.1588      1.00000
     17      -3.0257      1.00000
     18      -3.0061      1.00000
     19      -2.5071      1.00000
     20      -2.4973      1.00000
     21      -2.0997      1.00000
     22      -1.8365      1.00000
     23       0.6220      1.00000
     24       0.8296      1.00000
     25       1.0323      1.00000
     26       1.9212      1.00000
     27       2.2620      1.00000
     28       6.0011      0.00000
     29       6.4541      0.00000
     30       6.6130      0.00000
     31       6.6165      0.00000
     32       7.7372      0.00000
     33       7.8190      0.00000
     34       9.6851      0.00000
     35      10.0706      0.00000
     36      12.6433      0.00000

 k-point     2 :       0.2500    0.2500    0.3333
  band No.  band energies     occupation 
      1     -49.2507      1.00000
      2     -49.2047      1.00000
      3     -49.1892      1.00000
      4     -42.7426      1.00000
      5     -42.6901      1.00000
      6     -42.6679      1.00000
      7     -22.6932      1.00000
      8     -22.5735      1.00000
      9     -22.4930      1.00000
     10     -22.4272      1.00000
     11      -4.6407      1.00000
     12      -4.2084      1.00000
     13      -4.0897      1.00000
     14      -3.8925      1.00000
     15      -3.7266      1.00000
     16      -3.4378      1.00000
     17      -3.0216      1.00000
     18      -2.8813      1.00000
     19      -2.7348      1.00000
     20      -2.3097      1.00000
     21      -2.2076      1.00000
     22      -1.9954      1.00000
     23       0.8035      1.00000
     24       0.8356      1.00000
     25       0.9981      1.00000
     26       1.7056      1.00000
     27       2.0613      1.00000
     28       6.4309      0.00000
     29       6.4346      0.00000
     30       6.4906      0.00000
     31       7.3624      0.00000
     32       7.7973      0.00000
     33       8.5293      0.00000
     34      11.4600      0.00000
     35      11.7095      0.00000
     36      12.5623      0.00000


--------------------------------------------------------------------------------------------------------


 soft charge-density along one line, spin component           1
         0         1         2         3         4         5         6         7         8         9
 total charge-density along one line
 
 soft charge-density along one line, spin component           2
         0         1         2         3         4         5         6         7         8         9
 total charge-density along one line
 
 pseudopotential strength for first ion, spin component:           1
-45.230   0.000  -0.038   7.800  -0.000   0.016  -0.000   0.000
  0.000 -45.196   0.000  -0.000   7.785  -0.000   0.000   0.000
 -0.038   0.000 -45.230   0.016  -0.000   7.800   0.000   0.000
  7.800  -0.000   0.016   5.590   0.000   0.005  -0.000  -0.000
 -0.000   7.785  -0.000   0.000   5.584   0.000  -0.000   0.000
  0.016  -0.000   7.800   0.005   0.000   5.590   0.000  -0.000
 -0.000   0.000   0.000  -0.000  -0.000   0.000  -2.987   0.000
  0.000   0.000   0.000  -0.000   0.000  -0.000   0.000  -2.968
 -0.000   0.000   0.000   0.000  -0.000   0.000   0.019   0.000
  0.000   0.000   0.000  -0.000   0.000  -0.000   0.000  -0.018
  0.000   0.000  -0.000  -0.000  -0.000  -0.000  -0.000  -0.000
 -0.000   0.000   0.000  -0.000  -0.000  -0.000  -3.502   0.000
  0.000   0.000   0.000  -0.000   0.000  -0.000   0.000  -3.484
 -0.000   0.000   0.000   0.000  -0.000   0.000   0.018   0.000
  0.000   0.000   0.000  -0.000   0.000  -0.000   0.000  -0.018
  0.000   0.000  -0.000  -0.000  -0.000  -0.000  -0.000  -0.000
  0.000  -0.000   0.000   0.000  -0.000  -0.000   0.011  -0.000
  0.000  -0.000   0.000   0.000  -0.000  -0.000   0.022  -0.000
 pseudopotential strength for first ion, spin component:           2
-50.983   0.000  -0.004   9.799  -0.000   0.016   0.000   0.000
  0.000 -50.983   0.000  -0.000   9.784  -0.000   0.000   0.000
 -0.004   0.000 -50.983   0.016  -0.000   9.799  -0.000   0.000
  9.799  -0.000   0.016   4.706   0.000   0.001  -0.000  -0.000
 -0.000   9.784  -0.000   0.000   4.706   0.000  -0.000  -0.000
  0.016  -0.000   9.799   0.001   0.000   4.706  -0.000  -0.000
  0.000   0.000  -0.000  -0.000  -0.000  -0.000  -7.339   0.000
  0.000   0.000   0.000  -0.000  -0.000  -0.000   0.000  -7.330
  0.000   0.000  -0.000  -0.000  -0.000   0.000  -0.009   0.000
  0.000  -0.000   0.000  -0.000   0.000  -0.000   0.000  -0.027
 -0.000   0.000   0.000  -0.000  -0.000  -0.000   0.000  -0.000
  0.000   0.000  -0.000  -0.000  -0.000  -0.000  -7.809   0.000
  0.000   0.000   0.000  -0.000  -0.000  -0.000   0.000  -7.801
  0.000   0.000  -0.000  -0.000  -0.000   0.000  -0.009   0.000
  0.000  -0.000   0.000  -0.000   0.000  -0.000   0.000  -0.027
 -0.000   0.000   0.000  -0.000  -0.000  -0.000   0.000  -0.000
  0.000  -0.000  -0.000  -0.000  -0.000   0.000   0.011  -0.000
  0.000  -0.000  -0.000  -0.000  -0.000   0.000   0.023  -0.000
 total augmentation occupancy for first ion, spin component:           1
  2.001   0.000   0.000  -0.013   0.000   0.001   0.000   0.000   0.000   0.000   0.000   0.000   0.000   0.000   0.000   0.000
  0.000   2.001   0.000   0.000  -0.013   0.000   0.000   0.000   0.000   0.000   0.000   0.000   0.000   0.000   0.000   0.000
  0.000   0.000   2.001   0.001   0.000  -0.013   0.000   0.000   0.000   0.000   0.000   0.000   0.000   0.000   0.000   0.000
 -0.013   0.000   0.001   0.080   0.000  -0.009   0.000   0.000   0.000   0.000   0.000   0.000   0.000   0.000   0.000   0.000
  0.000  -0.013   0.000   0.000   0.090   0.000   0.000   0.000   0.000   0.000   0.000   0.000   0.000   0.000   0.000   0.000
  0.001   0.000  -0.013  -0.009   0.000   0.080   0.000   0.000   0.000   0.000   0.000   0.000   0.000   0.000   0.000   0.000
  0.000   0.000   0.000   0.000   0.000   0.000   7.750   0.000   2.993   0.000  -0.000  -5.779   0.000  -2.815   0.000   0.000
  0.000   0.000   0.000   0.000   0.000   0.000   0.000   6.566   0.000   2.534   0.000   0.000  -4.636   0.000  -2.380   0.000
  0.000   0.000   0.000   0.000   0.000   0.000   2.993   0.000   5.947   0.000  -0.000  -2.816   0.000  -4.089   0.000   0.000
  0.000   0.000   0.000   0.000   0.000   0.000   0.000   2.534   0.000   6.566   0.000   0.000  -2.380   0.000  -4.636   0.000
  0.000   0.000   0.000   0.000   0.000   0.000  -0.000   0.000  -0.000   0.000   3.896   0.000   0.000   0.000   0.000  -2.114
  0.000   0.000   0.000   0.000   0.000   0.000  -5.779   0.000  -2.816   0.000   0.000   4.981   0.000   2.683   0.000  -0.000
  0.000   0.000   0.000   0.000   0.000   0.000   0.000  -4.636   0.000  -2.380   0.000   0.000   3.870   0.000   2.262   0.000
  0.000   0.000   0.000   0.000   0.000   0.000  -2.815   0.000  -4.089   0.000   0.000   2.683   0.000   3.380   0.000  -0.000
  0.000   0.000   0.000   0.000   0.000   0.000   0.000  -2.380   0.000  -4.636   0.000   0.000   2.262   0.000   3.870   0.000
  0.000   0.000   0.000   0.000   0.000   0.000   0.000   0.000   0.000   0.000  -2.114  -0.000   0.000  -0.000   0.000   1.457
  0.000   0.000   0.000   0.000   0.000   0.000   0.450   0.000  -0.290   0.000  -0.000  -0.427   0.000   0.270   0.000   0.000
  0.000   0.000   0.000   0.000   0.000   0.000  -0.094   0.000   0.067   0.000   0.000   0.099   0.000  -0.066   0.000  -0.000
 total augmentation occupancy for first ion, spin component:           2
  0.004   0.000  -0.000   0.017   0.000  -0.001   0.000   0.000   0.000   0.000   0.000   0.000   0.000   0.000   0.000   0.000
  0.000   0.004   0.000   0.000   0.018   0.000   0.000   0.000   0.000   0.000   0.000   0.000   0.000   0.000   0.000   0.000
 -0.000   0.000   0.004  -0.001   0.000   0.017   0.000   0.000   0.000   0.000   0.000   0.000   0.000   0.000   0.000   0.000
  0.017   0.000  -0.001  -0.011   0.000  -0.000   0.000   0.000   0.000   0.000   0.000   0.000   0.000   0.000   0.000   0.000
  0.000   0.018   0.000   0.000  -0.010   0.000   0.000   0.000   0.000   0.000   0.000   0.000   0.000   0.000   0.000   0.000
 -0.001   0.000   0.017  -0.000   0.000  -0.011   0.000   0.000   0.000   0.000   0.000   0.000   0.000   0.000   0.000   0.000
  0.000   0.000   0.000   0.000   0.000   0.000  -5.095   0.000  -1.489   0.000   0.000   2.723   0.000   1.093   0.000  -0.000
  0.000   0.000   0.000   0.000   0.000   0.000   0.000  -4.554   0.000  -1.278   0.000   0.000   2.304   0.000   0.940   0.000
  0.000   0.000   0.000   0.000   0.000   0.000  -1.489   0.000  -4.143   0.000   0.000   1.093   0.000   2.008   0.000  -0.000
  0.000   0.000   0.000   0.000   0.000   0.000   0.000  -1.278   0.000  -4.554   0.000   0.000   0.940   0.000   2.304   0.000
  0.000   0.000   0.000   0.000   0.000   0.000   0.000   0.000   0.000   0.000  -3.258  -0.000   0.000  -0.000   0.000   1.357
  0.000   0.000   0.000   0.000   0.000   0.000   2.723   0.000   1.093   0.000  -0.000  -1.453   0.000  -0.703   0.000   0.000
  0.000   0.000   0.000   0.000   0.000   0.000   0.000   2.304   0.000   0.940   0.000   0.000  -1.159   0.000  -0.609   0.000
  0.000   0.000   0.000   0.000   0.000   0.000   1.093   0.000   2.008   0.000  -0.000  -0.703   0.000  -0.971   0.000   0.000
  0.000   0.000   0.000   0.000   0.000   0.000   0.000   0.940   0.000   2.304   0.000   0.000  -0.609   0.000  -1.159   0.000
  0.000   0.000   0.000   0.000   0.000   0.000  -0.000   0.000  -0.000   0.000   1.357   0.000   0.000   0.000   0.000  -0.557
  0.000   0.000   0.000   0.000   0.000   0.000  -0.102   0.000   0.051   0.000   0.000   0.024   0.000   0.004   0.000  -0.000
  0.000   0.000   0.000   0.000   0.000   0.000   0.000   0.000  -0.005   0.000  -0.000   0.009   0.000  -0.004   0.000  -0.000


------------------------ aborting loop because EDIFF is reached ----------------------------------------


 


 total charge     
 
# of ion       s       p       d       tot
------------------------------------------
    1        0.166   6.151   4.961  11.278
    2        0.175   6.142   4.974  11.291
    3        1.731   4.403   0.000   6.134
    4        1.731   4.403   0.000   6.134
    5        1.730   4.396   0.000   6.126
    6        1.730   4.396   0.000   6.126
--------------------------------------------------
tot          7.263  29.890   9.935  47.088
 


 magnetization (x)
 
# of ion       s       p       d       tot
------------------------------------------
    1       -0.022  -0.018  -4.583  -4.623
    2        0.024   0.015   4.577   4.615
    3        0.002   0.027   0.000   0.029
    4        0.002   0.027   0.000   0.029
    5       -0.004  -0.019   0.000  -0.023
    6       -0.004  -0.019   0.000  -0.023
--------------------------------------------------
tot         -0.001   0.012  -0.006   0.005
 
    CHARGE:  cpu time    0.0250: real time    0.0251
    FORLOC:  cpu time    0.0008: real time    0.0008
    FORNL :  cpu time    0.1079: real time    0.1079
    STRESS:  cpu time    0.7789: real time    0.7789
    FORCOR:  cpu time    0.0297: real time    0.0297
    FORHAR:  cpu time    0.0022: real time    0.0022
    MIXING:  cpu time    0.0007: real time    0.0007
    OFIELD:  cpu time    0.0000: real time    0.0000

  FORCE on cell =-STRESS in cart. coord.  units (eV):
  Direction    XX          YY          ZZ          XY          YZ          ZX
  --------------------------------------------------------------------------------------
  Alpha Z   199.34330   199.34330   199.34330
  Ewald   -1585.47219 -1585.47219 -1032.01103    -0.00000     0.00000     0.00000
  Hartree   594.40947   594.40947   968.71020    -0.00000    -0.00000    -0.00000
  E(xc)    -150.53741  -150.53741  -150.65638    -0.03301    -0.02996    -0.02996
  Local     162.81597   162.81597  -758.22371     0.00000    -0.00000     0.00000
  n-local  -310.14442  -310.14442  -309.28248     0.03754     0.12867     0.12869
  augment   158.50978   158.50978   158.06525    -0.00000     0.00000     0.00000
  Kinetic   931.06477   931.06477   924.06179    -0.88395    -0.93470    -0.93470
  Fock        0.00000     0.00000     0.00000     0.00000     0.00000     0.00000
  -------------------------------------------------------------------------------------
  Total      -0.01073    -0.01073     0.00694    -0.00000     0.00000     0.00000
  in kB      -0.22202    -0.22202     0.14367    -0.00000     0.00000     0.00000
  external pressure =       -0.10 kB  Pullay stress =        0.00 kB


 VOLUME and BASIS-vectors are now :
 -----------------------------------------------------------------------------
  energy-cutoff  :      600.00
  volume of cell :       77.44
      direct lattice vectors                 reciprocal lattice vectors
     4.852420222  0.000000000  0.000000000     0.206082729  0.000000000  0.000000000
    -0.000000000  4.852420222  0.000000000    -0.000000000  0.206082729  0.000000000
     0.000000000  0.000000000  3.288956672     0.000000000  0.000000000  0.304047788

  length of vectors
     4.852420222  4.852420222  3.288956672     0.206082729  0.206082729  0.304047788


 FORCES acting on ions
    electron-ion (+dipol)            ewald-force                    non-local-force                 convergence-correction
 -----------------------------------------------------------------------------------------------
   -.178E-11 0.657E-11 -.675E-13   0.568E-13 0.284E-13 0.346E-14   0.299E-25 0.000E+00 0.000E+00   0.548E-13 -.252E-13 0.704E-13
   -.468E-13 -.687E-13 0.350E-13   0.114E-12 0.171E-12 0.817E-15   -.280E-25 0.000E+00 0.000E+00   -.557E-13 0.473E-13 -.101E-12
   -.323E+02 0.323E+02 0.501E-12   0.334E+02 -.334E+02 -.727E-14   -.118E+01 0.118E+01 0.000E+00   -.192E-03 0.192E-03 0.294E-13
   0.323E+02 -.323E+02 0.139E-10   -.334E+02 0.334E+02 -.752E-14   0.118E+01 -.118E+01 0.000E+00   0.192E-03 -.192E-03 0.127E-13
   0.323E+02 0.323E+02 0.467E-08   -.334E+02 -.334E+02 -.263E-14   0.118E+01 0.118E+01 0.000E+00   0.192E-03 0.192E-03 -.200E-11
   -.323E+02 -.323E+02 -.469E-08   0.334E+02 0.334E+02 -.298E-14   -.118E+01 -.118E+01 0.000E+00   -.192E-03 -.192E-03 0.194E-11
 -----------------------------------------------------------------------------------------------
   -.313E-11 0.594E-12 -.867E-11   0.000E+00 -.711E-14 -.161E-13   0.000E+00 -.222E-15 0.000E+00   0.672E-14 0.438E-13 -.486E-13
 
 
 POSITION                                       TOTAL-FORCE (eV/Angst)
 -----------------------------------------------------------------------------------
      2.42621      2.42621      1.64448        -0.000000     -0.000000     -0.000000
     -0.00000      0.00000     -0.00000        -0.000000     -0.000000     -0.000000
      0.95187      3.90055      1.64448         0.003202     -0.003202      0.000000
      3.90055      0.95187      1.64448        -0.003202      0.003202     -0.000000
      1.47434      1.47434     -0.00000        -0.003202     -0.003202      0.000000
      3.37808      3.37808      0.00000         0.003202      0.003202     -0.000000
 -----------------------------------------------------------------------------------
    total drift:                               -0.000000      0.000000     -0.000000


--------------------------------------------------------------------------------------------------------



  FREE ENERGIE OF THE ION-ELECTRON SYSTEM (eV)
  ---------------------------------------------------
  free  energy   TOTEN  =       -68.02313460 eV

  energy  without entropy=      -68.02313460  energy(sigma->0) =      -68.02313460
 
 d Force = 0.1190351E-04[ 0.793E-05, 0.159E-04]  d Energy = 0.5176390E-04-0.399E-04
 d Force = 0.8310265E-01[ 0.828E-01, 0.834E-01]  d Ewald  =-0.1162929E+00 0.199E+00


--------------------------------------------------------------------------------------------------------


    POTLOK:  cpu time    0.8162: real time    0.8162


--------------------------------------------------------------------------------------------------------


 Steepest descent step on ions:
 trial-energy change:   -0.000052  1 .order   -0.000018   -0.000026   -0.000011
  (g-gl).g = 0.264E-04      g.g   = 0.264E-04  gl.gl    = 0.000E+00
 g(Force)  = 0.159E-04   g(Stress)= 0.105E-04 ortho     = 0.000E+00
 gamma     =   0.00000
 trial     =   1.00000
 opt step  =   1.04704  (harmonic =   1.66947) maximal distance =0.00032401
 next E    =   -68.023135   (d E  =  -0.00005)


--------------------------------------------------------------------------------------------------------


  
 reached required accuracy - stopping structural energy minimisation
     LOOP+:  cpu time   21.8738: real time   21.8746
    4ORBIT:  cpu time    0.0000: real time    0.0000
 


 total charge     
 
# of ion       s       p       d       tot
------------------------------------------
    1        0.166   6.151   4.961  11.278
    2        0.175   6.142   4.974  11.291
    3        1.731   4.403   0.000   6.134
    4        1.731   4.403   0.000   6.134
    5        1.730   4.396   0.000   6.126
    6        1.730   4.396   0.000   6.126
--------------------------------------------------
tot          7.263  29.890   9.935  47.088
 


 magnetization (x)
 
# of ion       s       p       d       tot
------------------------------------------
    1       -0.022  -0.018  -4.583  -4.623
    2        0.024   0.015   4.577   4.615
    3        0.002   0.027   0.000   0.029
    4        0.002   0.027   0.000   0.029
    5       -0.004  -0.019   0.000  -0.023
    6       -0.004  -0.019   0.000  -0.023
--------------------------------------------------
tot         -0.001   0.012  -0.006   0.005
 

 total amount of memory used by VASP MPI-rank0    38123. kBytes
=======================================================================

   base      :      30000. kBytes
   nonl-proj :       1733. kBytes
   fftplans  :       1875. kBytes
   grid      :       3820. kBytes
   one-center:        186. kBytes
   wavefun   :        509. kBytes
 
  
  
 General timing and accounting informations for this job:
 ========================================================
  
                  Total CPU time used (sec):       66.840
                            User time (sec):       38.961
                          System time (sec):       27.879
                         Elapsed time (sec):       66.919
  
                   Maximum memory used (kb):       56900.
                   Average memory used (kb):           0.
  
                          Minor page faults:        10550
                          Major page faults:            7
                 Voluntary context switches:          336
