       N       E                     dE             d eps       ncg     rms          rms(c)
DAV:   1     0.715680912229E+03    0.71568E+03   -0.37046E+04  1296   0.208E+03
DAV:   2     0.121680465562E+02   -0.70351E+03   -0.68232E+03  1500   0.537E+02
DAV:   3    -0.393895482380E+02   -0.51558E+02   -0.51348E+02  1488   0.158E+02
DAV:   4    -0.401025753403E+02   -0.71303E+00   -0.71281E+00  1488   0.201E+01
DAV:   5    -0.401142682591E+02   -0.11693E-01   -0.11693E-01  1512   0.251E+00    0.225E+01
DAV:   6    -0.382288125863E+02    0.18855E+01   -0.15563E+01  1596   0.316E+01    0.143E+01
DAV:   7    -0.389465473790E+02   -0.71773E+00   -0.18326E+00  1548   0.108E+01    0.113E+01
DAV:   8    -0.390096282272E+02   -0.63081E-01   -0.41743E-01  1488   0.550E+00    0.522E+00
DAV:   9    -0.391686189073E+02   -0.15899E+00   -0.48483E-02  1332   0.218E+00    0.127E+00
DAV:  10    -0.391697941153E+02   -0.11752E-02   -0.20017E-02  1596   0.125E+00    0.282E-01
DAV:  11    -0.391700288682E+02   -0.23475E-03   -0.28270E-03  1380   0.355E-01    0.138E-01
DAV:  12    -0.391701800749E+02   -0.15121E-03   -0.10525E-04  1608   0.124E-01    0.551E-02
DAV:  13    -0.391702348997E+02   -0.54825E-04   -0.91451E-05  1368   0.553E-02    0.211E-02
DAV:  14    -0.391702436846E+02   -0.87849E-05   -0.82862E-06  1536   0.214E-02    0.902E-03
DAV:  15    -0.391702434870E+02    0.19755E-06   -0.13543E-06   912   0.731E-03
   1 F= -.39170243E+02 E0= -.39170243E+02  d E =0.000000E+00  mag=     0.0000
