 vasp.5.4.4.18Apr17-6-g9f103f2a35 (build Nov 21 2017 18:25:41) complex          
  
 executed on         CrayXC-Intel date 2022.04.10  23:48:45
 running on  144 total cores
 distrk:  each k-point on   36 cores,    4 groups
 distr:  one band on NCORES_PER_BAND=   6 cores,    6 groups


--------------------------------------------------------------------------------------------------------


 INCAR:
 POTCAR:    PAW_PBE Mn_pv 02Aug2007               
 POTCAR:    PAW_PBE F 08Apr2002                   
 POTCAR:    PAW_PBE H 15Jun2001                   

 ----------------------------------------------------------------------------- 
|                                                                             |
|           W    W    AA    RRRRR   N    N  II  N    N   GGGG   !!!           |
|           W    W   A  A   R    R  NN   N  II  NN   N  G    G  !!!           |
|           W    W  A    A  R    R  N N  N  II  N N  N  G       !!!           |
|           W WW W  AAAAAA  RRRRR   N  N N  II  N  N N  G  GGG   !            |
|           WW  WW  A    A  R   R   N   NN  II  N   NN  G    G                |
|           W    W  A    A  R    R  N    N  II  N    N   GGGG   !!!           |
|                                                                             |
|      You have enabled k-point parallelism (KPAR>1).                         |
|      This developmental code was originally  written by Paul Kent at ORNL,  |
|      and carefully double checked in Vienna.                                |
|      GW as well as linear response parallelism added by Martijn Marsman     |
|      and Georg Kresse.                                                      |
|      Carefully verify results versus KPAR=1.                                |
|      Report problems to Paul Kent and Vienna.                               |
|                                                                             |
 ----------------------------------------------------------------------------- 

 POTCAR:    PAW_PBE Mn_pv 02Aug2007               
   VRHFIN =Mn: 3p4s3d                                                           
   LEXCH  = PE                                                                  
   EATOM  =  2025.2664 eV,  148.8529 Ry                                         
                                                                                
   TITEL  = PAW_PBE Mn_pv 02Aug2007                                             
   LULTRA =        F    use ultrasoft PP ?                                      
   IUNSCR =        1    unscreen: 0-lin 1-nonlin 2-no                           
   RPACOR =    2.080    partial core radius                                     
   POMASS =   54.938; ZVAL   =   13.000    mass and valenz                      
   RCORE  =    2.300    outmost cutoff radius                                   
   RWIGS  =    2.500; RWIGS  =    1.323    wigner-seitz radius (au A)           
   ENMAX  =  269.864; ENMIN  =  202.398 eV                                      
   ICORE  =        3    local potential                                         
   LCOR   =        T    correct aug charges                                     
   LPAW   =        T    paw PP                                                  
   EAUG   =  569.085                                                            
   DEXC   =    0.000                                                            
   RMAX   =    2.343    core radius for proj-oper                               
   RAUG   =    1.300    factor for augmentation sphere                          
   RDEP   =    2.338    radius for radial grids                                 
   RDEPT  =    1.798    core radius for aug-charge                              
                                                                                
   Atomic configuration                                                         
    8 entries                                                                   
     n  l   j            E        occ.                                          
     1  0  0.50     -6424.8287   2.0000                                         
     2  0  0.50      -739.1154   2.0000                                         
     2  1  1.50      -625.3949   6.0000                                         
     3  0  0.50       -81.6100   2.0000                                         
     3  1  1.50       -50.4667   6.0000                                         
     3  2  2.50        -3.3745   6.0000                                         
     4  0  0.50        -4.1331   1.0000                                         
     4  3  2.50        -1.3606   0.0000                                         
   Description                                                                  
     l       E           TYP  RCUT    TYP  RCUT                                 
     1    -50.4666628     23  2.000                                             
     1     -1.3605826     23  2.000                                             
     2     -3.3744729     23  2.300                                             
     2     -4.7350555     23  2.300                                             
     0     -4.1331431     23  2.300                                             
     0      7.6656591     23  2.300                                             
     3      9.5240782     23  2.300                                             
  local pseudopotential read in
  partial core-charges read in
  partial kinetic energy density read in
  atomic valenz-charges read in
  non local Contribution for L=           1  read in
    real space projection operators read in
  non local Contribution for L=           1  read in
    real space projection operators read in
  non local Contribution for L=           2  read in
    real space projection operators read in
  non local Contribution for L=           2  read in
    real space projection operators read in
  non local Contribution for L=           0  read in
    real space projection operators read in
  non local Contribution for L=           0  read in
    real space projection operators read in
    PAW grid and wavefunctions read in
 
   number of l-projection  operators is LMAX  =           6
   number of lm-projection operators is LMMAX =          18
 
 POTCAR:    PAW_PBE F 08Apr2002                   
   VRHFIN =F: s2p5                                                              
   LEXCH  = PE                                                                  
   EATOM  =   659.6475 eV,   48.4827 Ry                                         
                                                                                
   TITEL  = PAW_PBE F 08Apr2002                                                 
   LULTRA =        F    use ultrasoft PP ?                                      
   IUNSCR =        1    unscreen: 0-lin 1-nonlin 2-no                           
   RPACOR =    1.200    partial core radius                                     
   POMASS =   18.998; ZVAL   =    7.000    mass and valenz                      
   RCORE  =    1.520    outmost cutoff radius                                   
   RWIGS  =    1.500; RWIGS  =    0.794    wigner-seitz radius (au A)           
   ENMAX  =  400.000; ENMIN  =  300.000 eV                                      
   ICORE  =        2    local potential                                         
   LCOR   =        T    correct aug charges                                     
   LPAW   =        T    paw PP                                                  
   EAUG   =  613.614                                                            
   RMAX   =    1.555    core radius for proj-oper                               
   RAUG   =    1.300    factor for augmentation sphere                          
   RDEP   =    1.539    radius for radial grids                                 
   RDEPT  =    1.299    core radius for aug-charge                              
                                                                                
   Atomic configuration                                                         
    4 entries                                                                   
     n  l   j            E        occ.                                          
     1  0  0.50      -663.3661   2.0000                                         
     2  0  0.50       -29.8995   2.0000                                         
     2  1  0.50       -11.1114   5.0000                                         
     3  2  1.50       -10.8847   0.0000                                         
   Description                                                                  
     l       E           TYP  RCUT    TYP  RCUT                                 
     0    -29.8995018     23  1.200                                             
     0     -9.5240782     23  1.200                                             
     1    -11.1113914     23  1.520                                             
     1      1.3605826     23  1.520                                             
     2    -10.8846608      7  1.500                                             
  local pseudopotential read in
  partial core-charges read in
  partial kinetic energy density read in
  atomic valenz-charges read in
  non local Contribution for L=           0  read in
    real space projection operators read in
  non local Contribution for L=           0  read in
    real space projection operators read in
  non local Contribution for L=           1  read in
    real space projection operators read in
  non local Contribution for L=           1  read in
    real space projection operators read in
    PAW grid and wavefunctions read in
 
   number of l-projection  operators is LMAX  =           4
   number of lm-projection operators is LMMAX =           8
 
 POTCAR:    PAW_PBE H 15Jun2001                   
   VRHFIN =H: ultrasoft test                                                    
   LEXCH  = PE                                                                  
   EATOM  =    12.4884 eV,    0.9179 Ry                                         
                                                                                
   TITEL  = PAW_PBE H 15Jun2001                                                 
   LULTRA =        F    use ultrasoft PP ?                                      
   IUNSCR =        0    unscreen: 0-lin 1-nonlin 2-no                           
   RPACOR =    0.000    partial core radius                                     
   POMASS =    1.000; ZVAL   =    1.000    mass and valenz                      
   RCORE  =    1.100    outmost cutoff radius                                   
   RWIGS  =    0.700; RWIGS  =    0.370    wigner-seitz radius (au A)           
   ENMAX  =  250.000; ENMIN  =  200.000 eV                                      
   RCLOC  =    0.701    cutoff for local pot                                    
   LCOR   =        T    correct aug charges                                     
   LPAW   =        T    paw PP                                                  
   EAUG   =  400.000                                                            
   RMAX   =    1.123    core radius for proj-oper                               
   RAUG   =    1.200    factor for augmentation sphere                          
   RDEP   =    1.112    radius for radial grids                                 
   RDEPT  =    0.926    core radius for aug-charge                              
                                                                                
   Atomic configuration                                                         
    2 entries                                                                   
     n  l   j            E        occ.                                          
     1  0  0.50        -6.4927   1.0000                                         
     2  1  0.50        -3.4015   0.0000                                         
   Description                                                                  
     l       E           TYP  RCUT    TYP  RCUT                                 
     0     -6.4927494     23  1.100                                             
     0      6.8029130     23  1.100                                             
     1     -4.0817478     23  1.100                                             
  local pseudopotential read in
  atomic valenz-charges read in
  non local Contribution for L=           0  read in
    real space projection operators read in
  non local Contribution for L=           0  read in
    real space projection operators read in
  non local Contribution for L=           1  read in
    real space projection operators read in
    PAW grid and wavefunctions read in
 
   number of l-projection  operators is LMAX  =           3
   number of lm-projection operators is LMMAX =           5
 

 ----------------------------------------------------------------------------- 
|                                                                             |
|  ADVICE TO THIS USER RUNNING 'VASP/VAMP'   (HEAR YOUR MASTER'S VOICE ...):  |
|                                                                             |
|      You have a (more or less) 'large supercell' and for larger cells       |
|      it might be more efficient to use real space projection opertators     |
|      So try LREAL= Auto  in the INCAR   file.                               |
|      Mind:          For very  accurate calculation you might also keep the  |
|      reciprocal projection scheme          (i.e. LREAL=.FALSE.)             |
|                                                                             |
 ----------------------------------------------------------------------------- 


 ----------------------------------------------------------------------------- 
|                                                                             |
|  ADVICE TO THIS USER RUNNING 'VASP/VAMP'   (HEAR YOUR MASTER'S VOICE ...):  |
|                                                                             |
|      You enforced a specific xc-type in the INCAR file,                     |
|      a different type was found on the POTCAR file                          |
|          I HOPE YOU KNOW, WHAT YOU ARE  DOING                               |
|                                                                             |
 ----------------------------------------------------------------------------- 

  PAW_PBE Mn_pv 02Aug2007               :
 energy of atom  1       EATOM=-2025.2664
 kinetic energy error for atom=    0.0020 (will be added to EATOM!!)
  PAW_PBE F 08Apr2002                   :
 energy of atom  2       EATOM= -659.6475
 kinetic energy error for atom=    0.0140 (will be added to EATOM!!)
  PAW_PBE H 15Jun2001                   :
 energy of atom  3       EATOM=  -12.4884
 kinetic energy error for atom=    0.0002 (will be added to EATOM!!)
 
 
 POSCAR: Mn  F  H                                
  positions in direct lattice
  velocities in cartesian coordinates
 exchange correlation table for  LEXCH =       14
   RHO(1)=    0.500       N(1)  =     2000
   RHO(2)=  100.500       N(2)  =     4000
 


--------------------------------------------------------------------------------------------------------


 ion  position               nearest neighbor table
   1  0.161  0.162  0.130- 217 1.99  74 2.09  73 2.09  75 2.12  79 2.13  76 2.17   3 3.16
   2  0.999  0.999  1.000- 203 2.08  75 2.09 116 2.11 181 2.13 169 2.14 104 2.14
   3  0.161  0.162  0.370- 217 2.00  78 2.09  77 2.09  82 2.12  79 2.13  83 2.17   1 3.16
   4  0.008  0.007  0.250- 217 1.96 108 2.12 104 2.12 169 2.12 173 2.12 207 2.15
   5  0.169  0.163  0.625-  81 2.09  80 2.12  87 2.13  86 2.13  82 2.14  83 2.14
   6  0.999  0.999  0.500- 211 2.08  82 2.09 112 2.11 177 2.13 173 2.14 108 2.14
   7  0.169  0.163  0.875-  85 2.09  84 2.12  87 2.13  86 2.13  75 2.14  76 2.14
   8  0.000  0.997  0.750-  86 2.10 215 2.10 112 2.13 116 2.13 177 2.14 181 2.14
   9  0.166  0.499  0.125-  89 2.09  88 2.09  91 2.12  90 2.13  94 2.13  95 2.14
  10  0.001  0.333  0.998-  90 2.09 171 2.11  84 2.12 197 2.13 185 2.13  73 2.14
  11  0.166  0.499  0.376-  93 2.09  92 2.09  99 2.12  98 2.13  94 2.13  95 2.14
  12  0.999  0.333  0.250- 175 2.09  94 2.09 189 2.13 185 2.13  73 2.13  77 2.13
  13  0.171  0.503  0.627-  96 2.10  97 2.10  99 2.12 103 2.12 102 2.13  98 2.17
  14  0.001  0.333  0.502-  98 2.09 179 2.11  80 2.12 193 2.13 189 2.13  77 2.14
  15  0.171  0.503  0.873- 100 2.10 101 2.10  91 2.12 103 2.12 102 2.13  90 2.17
  16  0.001  0.334  0.750- 183 2.11 102 2.11 193 2.13 197 2.13  84 2.13  80 2.14
  17  0.168  0.833  0.125- 105 2.09 104 2.10 111 2.12 107 2.12 106 2.12 110 2.13
  18  0.999  0.666  1.000- 106 2.10 187 2.10 213 2.12 100 2.13 201 2.13  88 2.13
  19  0.168  0.833  0.375- 109 2.09 108 2.10 111 2.12 115 2.12 114 2.12 110 2.13
  20  0.001  0.666  0.250- 110 2.10 191 2.10 205 2.12 201 2.12  88 2.13  92 2.13
  21  0.167  0.832  0.625- 113 2.09 112 2.10 119 2.11 118 2.13 115 2.13 114 2.13
  22  0.999  0.666  0.500- 114 2.10 195 2.10 209 2.12  96 2.13 205 2.13  92 2.13
  23  0.167  0.832  0.875- 117 2.09 116 2.10 119 2.11 118 2.13 107 2.13 106 2.13
  24  1.000  0.665  0.750- 118 2.09 199 2.09 209 2.13 213 2.13  96 2.13 100 2.13
  25  0.501  0.167  0.125- 121 2.10 120 2.10 122 2.10 127 2.12 123 2.12 126 2.13
  26  0.331  0.003  0.001- 164 2.07 122 2.10 107 2.11  85 2.12  74 2.13 152 2.15
  27  0.501  0.167  0.375- 125 2.10 124 2.10 130 2.10 127 2.12 131 2.12 126 2.13
  28  0.335  0.999  0.250- 126 2.10 111 2.10 156 2.11 152 2.11  78 2.13  74 2.13
  29  0.497  0.163  0.625- 129 2.09 128 2.10 134 2.12 130 2.12 135 2.14 131 2.15
  30  0.331  0.003  0.499- 160 2.07 130 2.10 115 2.11  81 2.12  78 2.13 156 2.15
  31  0.497  0.163  0.875- 133 2.09 132 2.10 134 2.12 122 2.12 135 2.14 123 2.15
  32  0.341  0.983  0.750- 119 2.11 160 2.15 164 2.15 134 2.15  85 2.24  81 2.24 166 2.32
  33  0.500  0.499  0.125- 136 2.09 137 2.10 139 2.13 143 2.13 142 2.13 138 2.13
  34  0.332  0.330  0.000-  76 2.11 138 2.11 132 2.12 120 2.13 101 2.13  89 2.13
  35  0.500  0.499  0.375- 140 2.09 141 2.10 147 2.13 143 2.13 142 2.13 146 2.13
  36  0.332  0.333  0.250-  79 2.10 142 2.10 120 2.12 124 2.12  93 2.12  89 2.12
  37  0.499  0.498  0.625- 144 2.09 145 2.10 151 2.11 150 2.13 146 2.13 147 2.14
  38  0.332  0.330  0.500-  83 2.11 146 2.11 128 2.12 124 2.13  97 2.13  93 2.13
  39  0.499  0.498  0.875- 148 2.09 149 2.10 151 2.11 150 2.13 138 2.13 139 2.14
  40  0.332  0.332  0.750- 150 2.08  87 2.09 132 2.13 128 2.13 101 2.13  97 2.13
  41  0.500  0.833  0.123- 155 2.10 153 2.10 152 2.10 154 2.14 159 2.14 158 2.14
  42  0.333  0.665  1.000-  91 2.09 154 2.09 148 2.12 117 2.12 136 2.13 105 2.13
  43  0.500  0.833  0.377- 163 2.10 157 2.10 156 2.10 162 2.14 159 2.14 158 2.14
  44  0.334  0.666  0.250- 158 2.10  95 2.11 140 2.12 136 2.12 105 2.13 109 2.13
  45  0.496  0.829  0.631- 162 2.12 167 2.13 160 2.13 161 2.13 163 2.24 216 2.27 166 2.28  47 3.14

  46  0.333  0.665  0.500-  99 2.09 162 2.09 144 2.12 113 2.12 140 2.13 109 2.13
  47  0.496  0.829  0.869- 154 2.12 167 2.13 164 2.13 165 2.13 155 2.24 166 2.27 216 2.28  45 3.14

  48  0.348  0.680  0.750- 148 2.16 113 2.16 144 2.16 117 2.16 216 2.24 166 2.24 103 2.28
  49  0.833  0.166  0.125- 168 2.09 169 2.10 170 2.12 174 2.13 171 2.13 175 2.13
  50  0.666  0.998  1.000- 155 2.08 170 2.12 212 2.12 133 2.13 121 2.13 200 2.14
  51  0.833  0.166  0.376- 172 2.09 173 2.10 178 2.12 174 2.13 179 2.13 175 2.13
  52  0.666  0.999  0.250- 159 2.09 174 2.10 200 2.13 204 2.13 125 2.13 121 2.13
  53  0.834  0.166  0.625- 177 2.09 176 2.09 182 2.12 183 2.13 179 2.13 178 2.14
  54  0.666  0.998  0.500- 163 2.08 178 2.12 208 2.12 129 2.13 125 2.13 204 2.14
  55  0.834  0.166  0.875- 181 2.09 180 2.09 182 2.12 183 2.13 171 2.13 170 2.14
  56  0.666  0.999  0.750- 167 2.08 182 2.10 212 2.13 208 2.13 129 2.13 133 2.13
  57  0.834  0.499  0.125- 184 2.09 185 2.09 187 2.12 190 2.13 186 2.13 191 2.13
  58  0.667  0.332  1.000- 123 2.09 186 2.10 149 2.11 180 2.13 168 2.13 137 2.13
  59  0.834  0.499  0.375- 188 2.09 189 2.09 195 2.12 190 2.13 194 2.13 191 2.13
  60  0.668  0.333  0.250- 190 2.09 127 2.09 137 2.12 141 2.12 172 2.13 168 2.13
  61  0.830  0.501  0.626- 192 2.09 198 2.12 199 2.12 193 2.13 194 2.13 195 2.14
  62  0.667  0.332  0.500- 131 2.09 194 2.10 145 2.11 176 2.13 172 2.13 141 2.13
  63  0.830  0.501  0.874- 196 2.09 198 2.12 199 2.12 197 2.13 186 2.13 187 2.14
  64  0.664  0.332  0.750- 135 2.10 198 2.10 149 2.12 145 2.13 180 2.14 176 2.14
  65  0.837  0.835  0.127- 200 2.10 201 2.10 202 2.12 203 2.12 206 2.13 207 2.13
  66  0.670  0.665  0.001- 165 2.06 202 2.11 139 2.12 196 2.12 184 2.12 153 2.15
  67  0.837  0.835  0.373- 204 2.10 205 2.10 210 2.12 211 2.12 206 2.13 207 2.13
  68  0.667  0.668  0.250- 153 2.11 157 2.11 143 2.11 206 2.11 184 2.13 188 2.13
  69  0.830  0.830  0.625- 208 2.09 209 2.10 214 2.12 210 2.12 215 2.14 211 2.16
  70  0.670  0.665  0.499- 161 2.06 210 2.11 147 2.12 192 2.12 188 2.12 157 2.15
  71  0.830  0.830  0.875- 212 2.09 213 2.10 214 2.12 202 2.12 215 2.14 203 2.16
  72  0.650  0.674  0.750- 151 2.11 165 2.15 161 2.15 214 2.15 192 2.23 196 2.23 216 2.31
  73  0.064  0.267  0.125-   1 2.09  12 2.13  10 2.14
  74  0.265  0.064  0.128-   1 2.09  26 2.13  28 2.13
  75  0.101  0.099  0.000-   2 2.09   1 2.12   7 2.14
  76  0.231  0.228  0.004-  34 2.11   7 2.14   1 2.17
  77  0.064  0.267  0.375-   3 2.09  12 2.13  14 2.14
  78  0.265  0.064  0.372-   3 2.09  30 2.13  28 2.13
  79  0.230  0.231  0.250-  36 2.10   3 2.13   1 2.13
  80  0.067  0.267  0.626-  14 2.12   5 2.12  16 2.14
  81  0.269  0.061  0.629-   5 2.09  30 2.12  32 2.24
  82  0.101  0.099  0.500-   6 2.09   3 2.12   5 2.14
  83  0.231  0.228  0.496-  38 2.11   5 2.14   3 2.17
  84  0.067  0.267  0.874-  10 2.12   7 2.12  16 2.13
  85  0.269  0.061  0.871-   7 2.09  26 2.12  32 2.24
  86  0.100  0.100  0.750-   8 2.10   5 2.13   7 2.13
  87  0.231  0.232  0.750-  40 2.09   7 2.13   5 2.13
  88  0.064  0.600  0.124-   9 2.09  20 2.13  18 2.13
  89  0.267  0.397  0.125-   9 2.09  36 2.12  34 2.13
  90  0.103  0.435  0.997-  10 2.09   9 2.13  15 2.17
  91  0.232  0.565  0.002-  42 2.09  15 2.12   9 2.12
  92  0.064  0.600  0.376-  11 2.09  20 2.13  22 2.13
  93  0.267  0.397  0.375-  11 2.09  36 2.12  38 2.13
  94  0.101  0.434  0.250-  12 2.09  11 2.13   9 2.13
  95  0.231  0.564  0.250-  44 2.11   9 2.14  11 2.14
  96  0.066  0.601  0.625-  13 2.10  22 2.13  24 2.13
  97  0.268  0.398  0.624-  13 2.10  38 2.13  40 2.13
  98  0.103  0.435  0.503-  14 2.09  11 2.13  13 2.17
  99  0.232  0.565  0.498-  46 2.09  13 2.12  11 2.12
 100  0.066  0.601  0.876-  15 2.10  18 2.13  24 2.13
 101  0.268  0.398  0.876-  15 2.10  34 2.13  40 2.13
 102  0.103  0.436  0.750-  16 2.11  15 2.13  13 2.13
 103  0.238  0.570  0.750-  13 2.12  15 2.12  48 2.28
 104  0.067  0.936  0.126-  17 2.10   4 2.12   2 2.14
 105  0.269  0.731  0.125-  17 2.09  44 2.13  42 2.13
 106  0.101  0.767  0.001-  18 2.10  17 2.12  23 2.13
 107  0.232  0.898  0.999-  26 2.11  17 2.12  23 2.13
 108  0.067  0.936  0.374-  19 2.10   4 2.12   6 2.14
 109  0.269  0.731  0.375-  19 2.09  44 2.13  46 2.13
 110  0.103  0.767  0.250-  20 2.10  19 2.13  17 2.13
 111  0.232  0.898  0.250-  28 2.10  17 2.12  19 2.12
 112  0.063  0.932  0.624-  21 2.10   6 2.11   8 2.13
 113  0.268  0.730  0.624-  21 2.09  46 2.12  48 2.16
 114  0.101  0.767  0.499-  22 2.10  19 2.12  21 2.13
 115  0.232  0.898  0.501-  30 2.11  19 2.12  21 2.13
 116  0.063  0.932  0.876-  23 2.10   2 2.11   8 2.13
 117  0.268  0.730  0.876-  23 2.09  42 2.12  48 2.16
 118  0.101  0.766  0.750-  24 2.09  21 2.13  23 2.13
 119  0.219  0.906  0.750-  32 2.11  21 2.11  23 2.11
 120  0.399  0.269  0.126-  25 2.10  36 2.12  34 2.13
 121  0.602  0.065  0.125-  25 2.10  52 2.13  50 2.13
 122  0.431  0.106  0.004-  25 2.10  26 2.10  31 2.12
 123  0.566  0.230  0.999-  58 2.09  25 2.12  31 2.15
 124  0.399  0.269  0.374-  27 2.10  36 2.12  38 2.13
 125  0.602  0.065  0.375-  27 2.10  52 2.13  54 2.13
 126  0.435  0.102  0.250-  28 2.10  27 2.13  25 2.13
 127  0.567  0.232  0.250-  60 2.09  25 2.12  27 2.12
 128  0.397  0.266  0.625-  29 2.10  38 2.12  40 2.13
 129  0.602  0.066  0.625-  29 2.09  54 2.13  56 2.13
 130  0.431  0.106  0.496-  30 2.10  27 2.10  29 2.12
 131  0.566  0.230  0.501-  62 2.09  27 2.12  29 2.15
 132  0.397  0.266  0.875-  31 2.10  34 2.12  40 2.13
 133  0.602  0.066  0.875-  31 2.09  50 2.13  56 2.13
 134  0.434  0.097  0.750-  29 2.12  31 2.12  32 2.15
 135  0.563  0.230  0.750-  64 2.10  29 2.14  31 2.14
 136  0.399  0.600  0.125-  33 2.09  44 2.12  42 2.13
 137  0.602  0.398  0.125-  33 2.10  60 2.12  58 2.13
 138  0.434  0.433  0.001-  34 2.11  33 2.13  39 2.13
 139  0.566  0.565  1.000-  66 2.12  33 2.13  39 2.14
 140  0.399  0.600  0.375-  35 2.09  44 2.12  46 2.13
 141  0.602  0.398  0.375-  35 2.10  60 2.12  62 2.13
 142  0.434  0.435  0.250-  36 2.10  33 2.13  35 2.13
 143  0.566  0.564  0.250-  68 2.11  35 2.13  33 2.13
 144  0.398  0.600  0.624-  37 2.09  46 2.12  48 2.16
 145  0.600  0.395  0.624-  37 2.10  62 2.11  64 2.13
 146  0.434  0.433  0.499-  38 2.11  35 2.13  37 2.13
 147  0.565  0.565  0.500-  70 2.12  35 2.13  37 2.14
 148  0.398  0.600  0.876-  39 2.09  42 2.12  48 2.16
 149  0.600  0.395  0.876-  39 2.10  58 2.11  64 2.12
 150  0.434  0.433  0.750-  40 2.08  39 2.13  37 2.13
 151  0.573  0.552  0.750-  72 2.11  39 2.11  37 2.11
 152  0.398  0.934  0.125-  41 2.10  28 2.11  26 2.15
 153  0.602  0.731  0.126-  41 2.10  68 2.11  66 2.15
 154  0.434  0.767  0.998-  42 2.09  47 2.12  41 2.14
 155  0.565  0.898  0.000-  50 2.08  41 2.10  47 2.24
 156  0.398  0.934  0.375-  43 2.10  28 2.11  30 2.15
 157  0.602  0.731  0.374-  43 2.10  68 2.11  70 2.15
 158  0.435  0.768  0.250-  44 2.10  41 2.14  43 2.14
 159  0.565  0.898  0.250-  52 2.09  43 2.14  41 2.14
 160  0.411  0.946  0.612-  30 2.07  45 2.13  32 2.15
 161  0.614  0.744  0.612-  70 2.06  45 2.13  72 2.15
 162  0.434  0.767  0.502-  46 2.09  45 2.12  43 2.14
 163  0.565  0.898  0.500-  54 2.08  43 2.10  45 2.24
 164  0.411  0.946  0.888-  26 2.07  47 2.13  32 2.15
 165  0.613  0.744  0.888-  66 2.06  47 2.13  72 2.15
 166  0.383  0.830  0.750-  48 2.24  47 2.27  45 2.28  32 2.32
 167  0.565  0.898  0.750-  56 2.08  47 2.13  45 2.13
 168  0.732  0.267  0.125-  49 2.09  58 2.13  60 2.13
 169  0.937  0.067  0.126-  49 2.10   4 2.12   2 2.14
 170  0.769  0.100  0.000-  50 2.12  49 2.12  55 2.14
 171  0.899  0.232  1.000-  10 2.11  49 2.13  55 2.13
 172  0.732  0.267  0.375-  51 2.09  62 2.13  60 2.13
 173  0.937  0.067  0.374-  51 2.10   4 2.12   6 2.14
 174  0.768  0.101  0.250-  52 2.10  49 2.13  51 2.13
 175  0.898  0.232  0.250-  12 2.09  51 2.13  49 2.13
 176  0.732  0.267  0.626-  53 2.09  62 2.13  64 2.14
 177  0.935  0.065  0.626-  53 2.09   6 2.13   8 2.14
 178  0.769  0.100  0.500-  54 2.12  51 2.12  53 2.14
 179  0.899  0.232  0.500-  14 2.11  51 2.13  53 2.13
 180  0.732  0.267  0.874-  55 2.09  58 2.13  64 2.14
 181  0.935  0.065  0.875-  55 2.09   2 2.13   8 2.14
 182  0.768  0.101  0.750-  56 2.10  55 2.12  53 2.12
 183  0.899  0.232  0.750-  16 2.11  55 2.13  53 2.13
 184  0.733  0.599  0.127-  57 2.09  66 2.12  68 2.13
 185  0.936  0.398  0.124-  57 2.09  12 2.13  10 2.13
 186  0.767  0.434  0.000-  58 2.10  57 2.13  63 2.13
 187  0.897  0.566  0.999-  18 2.10  57 2.12  63 2.14
 188  0.732  0.599  0.373-  59 2.09  70 2.12  68 2.13
 189  0.936  0.398  0.376-  59 2.09  12 2.13  14 2.13
 190  0.771  0.433  0.250-  60 2.09  59 2.13  57 2.13
 191  0.900  0.564  0.250-  20 2.10  57 2.13  59 2.13
 192  0.728  0.602  0.629-  61 2.09  70 2.12  72 2.23
 193  0.934  0.399  0.625-  61 2.13  14 2.13  16 2.13
 194  0.767  0.434  0.500-  62 2.10  59 2.13  61 2.13
 195  0.897  0.566  0.501-  22 2.10  59 2.12  61 2.14
 196  0.728  0.602  0.871-  63 2.09  66 2.12  72 2.23
 197  0.934  0.399  0.875-  63 2.13  10 2.13  16 2.13
 198  0.767  0.432  0.750-  64 2.10  63 2.12  61 2.12
 199  0.899  0.564  0.750-  24 2.09  61 2.12  63 2.12
 200  0.733  0.935  0.125-  65 2.10  52 2.13  50 2.14
 201  0.938  0.733  0.126-  65 2.10  20 2.12  18 2.13
 202  0.774  0.765  0.005-  66 2.11  65 2.12  71 2.12
 203  0.898  0.899  0.999-   2 2.08  65 2.12  71 2.16
 204  0.733  0.935  0.375-  67 2.10  52 2.13  54 2.14
 205  0.938  0.733  0.374-  67 2.10  20 2.12  22 2.13
 206  0.771  0.769  0.250-  68 2.11  65 2.13  67 2.13
 207  0.903  0.903  0.250-  67 2.13  65 2.13   4 2.15
 208  0.733  0.935  0.625-  69 2.09  54 2.12  56 2.13
 209  0.934  0.731  0.625-  69 2.10  22 2.12  24 2.13
 210  0.774  0.765  0.495-  70 2.11  67 2.12  69 2.12
 211  0.898  0.899  0.501-   6 2.08  67 2.12  69 2.16
 212  0.733  0.935  0.875-  71 2.09  50 2.12  56 2.13
 213  0.934  0.731  0.875-  71 2.10  18 2.12  24 2.13
 214  0.765  0.766  0.750-  71 2.12  69 2.12  72 2.15
 215  0.897  0.896  0.750-   8 2.10  71 2.14  69 2.14
 216  0.497  0.716  0.750-  48 2.24  45 2.27  47 2.28  72 2.31
 217  0.102  0.103  0.250-   4 1.96   1 1.99   3 2.00
 

IMPORTANT INFORMATION: All symmetrisations will be switched off!
NOSYMM: (Re-)initialisation of all symmetry stuff for point group C_1.

 
 
 KPOINTS: KPOINTS created by Atomic Simulation Env

Automatic generation of k-mesh.
Space group operators:
 irot       det(A)        alpha          n_x          n_y          n_z        tau_x        tau_y        tau_z
    1     1.000000     0.000000     1.000000     0.000000     0.000000     0.000000     0.000000     0.000000
 
 Subroutine IBZKPT returns following result:
 ===========================================
 
 Found      4 irreducible k-points:
 
 Following reciprocal coordinates:
            Coordinates               Weight
  0.250000  0.250000  0.250000      2.000000
 -0.250000  0.250000  0.250000      2.000000
  0.250000 -0.250000  0.250000      2.000000
 -0.250000 -0.250000  0.250000      2.000000
 
 Following cartesian coordinates:
            Coordinates               Weight
  0.017111  0.017111  0.018996      2.000000
 -0.017111  0.017111  0.018996      2.000000
  0.017111 -0.017111  0.018996      2.000000
 -0.017111 -0.017111  0.018996      2.000000
 


--------------------------------------------------------------------------------------------------------




 Dimension of arrays:
   k-points           NKPTS =      4   k-points in BZ     NKDIM =      4   number of bands    NBANDS=   1170
   number of dos      NEDOS =    301   number of ions     NIONS =    217
   non local maximal  LDIM  =      6   non local SUM 2l+1 LMDIM =     18
   total plane-waves  NPLWV = 829440
   max r-space proj   IRMAX =      1   max aug-charges    IRDMAX=  71863
   dimension x,y,z NGX =    96 NGY =   96 NGZ =   90
   dimension x,y,z NGXF=   192 NGYF=  192 NGZF=  180
   support grid    NGXF=   384 NGYF=  384 NGZF=  360
   ions per type =              72 144   1
   NGX,Y,Z   is equivalent  to a cutoff of  10.92, 10.92, 11.37 a.u.
   NGXF,Y,Z  is equivalent  to a cutoff of  21.85, 21.85, 22.74 a.u.

 SYSTEM =  unknown system                          
 POSCAR =  Mn  F  H                                

 Startparameter for this run:
   NWRITE =      2    write-flag & timer
   PREC   = normal    normal or accurate (medium, high low for compatibility)
   ISTART =      1    job   : 0-new  1-cont  2-samecut
   ICHARG =      0    charge: 1-file 2-atom 10-const
   ISPIN  =      2    spin polarized calculation?
   LNONCOLLINEAR =      F non collinear calculations
   LSORBIT =      F    spin-orbit coupling
   INIWAV =      1    electr: 0-lowe 1-rand  2-diag
   LASPH  =      T    aspherical Exc in radial PAW
   METAGGA=      F    non-selfconsistent MetaGGA calc.

 Electronic Relaxation 1
   ENCUT  =  700.0 eV  51.45 Ry    7.17 a.u.  31.52 31.52 28.39*2*pi/ulx,y,z
   ENINI  =  700.0     initial cutoff
   ENAUG  =  613.6 eV  augmentation charge cutoff
   NELM   =     60;   NELMIN=  2; NELMDL=  0     # of ELM steps 
   EDIFF  = 0.1E-06   stopping-criterion for ELM
   LREAL  =      F    real-space projection
   NLSPLINE    = F    spline interpolate recip. space projectors
   LCOMPAT=      F    compatible to vasp.4.4
   GGA_COMPAT  = T    GGA compatible to vasp.4.4-vasp.4.6
   LMAXPAW     = -100 max onsite density
   LMAXMIX     =    4 max onsite mixed and CHGCAR
   VOSKOWN=      0    Vosko Wilk Nusair interpolation
   ROPT   =    0.00000   0.00000   0.00000
 Ionic relaxation
   EDIFFG = -.5E-02   stopping-criterion for IOM
   NSW    =      0    number of steps for IOM
   NBLOCK =      1;   KBLOCK =      1    inner block; outer block 
   IBRION =     -1    ionic relax: 0-MD 1-quasi-New 2-CG
   NFREE  =      0    steps in history (QN), initial steepest desc. (CG)
   ISIF   =      2    stress and relaxation
   IWAVPR =     10    prediction:  0-non 1-charg 2-wave 3-comb
   ISYM   =      0    0-nonsym 1-usesym 2-fastsym
   LCORR  =      T    Harris-Foulkes like correction to forces

   POTIM  = 0.5500    time-step for ionic-motion
   TEIN   =    0.0    initial temperature
   TEBEG  =    0.0;   TEEND  =   0.0 temperature during run
   SMASS  =  -3.00    Nose mass-parameter (am)
   estimated Nose-frequenzy (Omega)   =  0.10E-29 period in steps =****** mass=  -0.488E-26a.u.
   SCALEE = 1.0000    scale energy and forces
   NPACO  =    256;   APACO  = 16.0  distance and # of slots for P.C.
   PSTRESS=    0.0 pullay stress

  Mass of Ions in am
   POMASS =  54.94 19.00  1.00
  Ionic Valenz
   ZVAL   =  13.00  7.00  1.00
  Atomic Wigner-Seitz radii
   RWIGS  =  -1.00 -1.00 -1.00
  virtual crystal weights 
   VCA    =   1.00  1.00  1.00
   NELECT =    1946.0000    total number of electrons
   NUPDOWN=      -1.0000    fix difference up-down

 DOS related values:
   EMIN   =  10.00;   EMAX   =-10.00  energy-range for DOS
   EFERMI =   0.00
   ISMEAR =     0;   SIGMA  =   0.01  broadening in eV -4-tet -1-fermi 0-gaus

 Electronic relaxation 2 (details)
   IALGO  =     68    algorithm
   LDIAG  =      T    sub-space diagonalisation (order eigenvalues)
   LSUBROT=      F    optimize rotation matrix (better conditioning)
   TURBO    =      0    0=normal 1=particle mesh
   IRESTART =      0    0=no restart 2=restart with 2 vectors
   NREBOOT  =      0    no. of reboots
   NMIN     =      0    reboot dimension
   EREF     =   0.00    reference energy to select bands
   IMIX   =      4    mixing-type and parameters
     AMIX     =   0.40;   BMIX     =  1.00
     AMIX_MAG =   1.60;   BMIX_MAG =  1.00
     AMIN     =   0.10
     WC   =   100.;   INIMIX=   1;  MIXPRE=   1;  MAXMIX= -45

 Intra band minimization:
   WEIMIN = 0.0000     energy-eigenvalue tresh-hold
   EBREAK =  0.21E-10  absolut break condition
   DEPER  =   0.30     relativ break condition  

   TIME   =   0.40     timestep for ELM

  volume/ion in A,a.u.               =      12.95        87.36
  Fermi-wavevector in a.u.,A,eV,Ry     =   1.448539  2.737341 28.548623  2.098265
  Thomas-Fermi vector in A             =   2.566368
 
 Write flags
   LWAVE        =      T    write WAVECAR
   LDOWNSAMPLE  =      F    k-point downsampling of WAVECAR
   LCHARG       =      T    write CHGCAR
   LVTOT        =      F    write LOCPOT, total local potential
   LVHAR        =      F    write LOCPOT, Hartree potential only
   LELF         =      F    write electronic localiz. function (ELF)
   LORBIT       =     11    0 simple, 1 ext, 2 COOP (PROOUT), +10 PAW based schemes


 Dipole corrections
   LMONO  =      F    monopole corrections only (constant potential shift)
   LDIPOL =      F    correct potential (dipole corrections)
   IDIPOL =      0    1-x, 2-y, 3-z, 4-all directions 
   EPSILON=  1.0000000 bulk dielectric constant

 LDA+U is selected, type is set to LDAUTYPE =  2
   angular momentum for each species LDAUL =     2   -1   -1
   U (eV)           for each species LDAUU =   2.0  0.0  0.0
   J (eV)           for each species LDAUJ =   0.0  0.0  0.0
 Exchange correlation treatment:
   GGA     =    PS    GGA type
   LEXCH   =    14    internal setting for exchange type
   VOSKOWN=      0    Vosko Wilk Nusair interpolation
   LHFCALC =     F    Hartree Fock is set to
   LHFONE  =     F    Hartree Fock one center treatment
   AEXX    =    0.0000 exact exchange contribution

 Linear response parameters
   LEPSILON=     F    determine dielectric tensor
   LRPA    =     F    only Hartree local field effects (RPA)
   LNABLA  =     F    use nabla operator in PAW spheres
   LVEL    =     F    velocity operator in full k-point grid
   LINTERFAST=   F  fast interpolation
   KINTER  =     0    interpolate to denser k-point grid
   CSHIFT  =0.1000    complex shift for real part using Kramers Kronig
   OMEGAMAX=  -1.0    maximum frequency
   DEG_THRESHOLD= 0.2000000E-02 threshold for treating states as degnerate
   RTIME   =   -0.100 relaxation time in fs
  (WPLASMAI=    0.000 imaginary part of plasma frequency in eV, 0.658/RTIME)
   DFIELD  = 0.0000000 0.0000000 0.0000000 field for delta impulse in time
 
 Orbital magnetization related:
   ORBITALMAG=     F  switch on orbital magnetization
   LCHIMAG   =     F  perturbation theory with respect to B field
   DQ        =  0.001000  dq finite difference perturbation B field
   LLRAUG    =     F  two centre corrections for induced B field



--------------------------------------------------------------------------------------------------------


 Static calculation
 charge density and potential will be updated during run
 spin polarized calculation
 RMM-DIIS sequential band-by-band and
  variant of blocked Davidson during initial phase
 perform sub-space diagonalisation
    before iterative eigenvector-optimisation
 modified Broyden-mixing scheme, WC =      100.0
 initial mixing is a Kerker type mixing with AMIX =  0.4000 and BMIX =      1.0000
 Hartree-type preconditioning will be used
 using additional bands          197
 reciprocal scheme for non local part
 use partial core corrections
 calculate Harris-corrections to forces 
   (improved forces if not selfconsistent)
 use gradient corrections 
 use of overlap-Matrix (Vanderbilt PP)
 Gauss-broadening in eV      SIGMA  =   0.01


--------------------------------------------------------------------------------------------------------


  energy-cutoff  :      700.00
  volume of cell :     2809.16
      direct lattice vectors                 reciprocal lattice vectors
    14.610086635  0.000000000  0.000000000     0.068445864  0.000000000  0.000000000
     0.000000000 14.610086635  0.000000000     0.000000000  0.068445864  0.000000000
     0.000000000  0.000000000 13.160468869     0.000000000  0.000000000  0.075985135

  length of vectors
    14.610086635 14.610086635 13.160468869     0.068445864  0.068445864  0.075985135


 
 old parameters found on file WAVECAR:
  energy-cutoff  :      700.00
  volume of cell :     2809.16
      direct lattice vectors                 reciprocal lattice vectors
    14.610086635  0.000000000  0.000000000     0.068445864  0.000000000  0.000000000
     0.000000000 14.610086635  0.000000000     0.000000000  0.068445864  0.000000000
     0.000000000  0.000000000 13.160468869     0.000000000  0.000000000  0.075985135

  length of vectors

 
 k-points in units of 2pi/SCALE and weight: KPOINTS created by Atomic Simulation Env
   0.01711147  0.01711147  0.01899628       0.250
  -0.01711147  0.01711147  0.01899628       0.250
   0.01711147 -0.01711147  0.01899628       0.250
  -0.01711147 -0.01711147  0.01899628       0.250
 
 k-points in reciprocal lattice and weights: KPOINTS created by Atomic Simulation Env
   0.25000000  0.25000000  0.25000000       0.250
  -0.25000000  0.25000000  0.25000000       0.250
   0.25000000 -0.25000000  0.25000000       0.250
  -0.25000000 -0.25000000  0.25000000       0.250
 
 position of ions in fractional coordinates (direct lattice) 
   0.16111024  0.16173407  0.12995806
   0.99926943  0.99884310  0.99962239
   0.16113234  0.16172825  0.37011511
   0.00809010  0.00682139  0.25001843
   0.16865056  0.16327719  0.62513949
   0.99925685  0.99884823  0.50041800
   0.16863835  0.16329904  0.87492698
   0.00000045  0.99705388  0.75001852
   0.16593686  0.49853735  0.12451206
   0.00120628  0.33330156  0.99804554
   0.16592712  0.49854448  0.37553411
   0.99920986  0.33284651  0.25002405
   0.17109654  0.50346609  0.62720095
   0.00122918  0.33328062  0.50200350
   0.17109229  0.50346249  0.87284506
   0.00141864  0.33418743  0.75002458
   0.16764978  0.83298511  0.12471633
   0.99937832  0.66641857  0.99970562
   0.16762543  0.83296561  0.37530799
   0.00147924  0.66580982  0.25000636
   0.16663692  0.83190346  0.62541840
   0.99936599  0.66642249  0.50031990
   0.16663535  0.83187494  0.87460618
   0.99993143  0.66521268  0.75001218
   0.50108365  0.16748362  0.12540695
   0.33138023  0.00283399  0.00109498
   0.50105866  0.16744849  0.37468556
   0.33500941  0.99876178  0.25005048
   0.49738683  0.16309048  0.62539814
   0.33139704  0.00277871  0.49901897
   0.49735139  0.16304359  0.87468345
   0.34146787  0.98267542  0.75008335
   0.50036650  0.49917446  0.12470031
   0.33196623  0.33040147  0.00048727
   0.50038720  0.49919851  0.37536546
   0.33239519  0.33295062  0.25004098
   0.49936708  0.49833401  0.62501985
   0.33196242  0.33041238  0.49958132
   0.49939804  0.49833797  0.87504620
   0.33248425  0.33219008  0.75003469
   0.50032496  0.83298733  0.12313667
   0.33348767  0.66543717  0.99990124
   0.50033917  0.83297363  0.37690690
   0.33382515  0.66597738  0.25002053
   0.49599854  0.82872363  0.63078138
   0.33349703  0.66542993  0.50013894
   0.49590527  0.82881019  0.86926212
   0.34808246  0.68015173  0.75001955
   0.83335329  0.16557542  0.12453556
   0.66559495  0.99790166  0.99972095
   0.83335033  0.16557823  0.37551463
   0.66645071  0.99912280  0.25002402
   0.83375974  0.16600433  0.62539321
   0.66558935  0.99790931  0.50032703
   0.83376009  0.16599957  0.87465726
   0.66635119  0.99906726  0.75002409
   0.83427251  0.49920268  0.12460876
   0.66673292  0.33159212  0.99969825
   0.83427755  0.49918067  0.37541393
   0.66776671  0.33330706  0.25003120
   0.83001758  0.50088868  0.62625873
   0.66672844  0.33160269  0.50036003
   0.82999722  0.50090355  0.87377077
   0.66436248  0.33181414  0.75003044
   0.83676804  0.83547073  0.12658354
   0.67010470  0.66492548  0.00110138
   0.83680418  0.83549702  0.37342008
   0.66690485  0.66762924  0.24999372
   0.83029762  0.82997933  0.62531677
   0.67015918  0.66490954  0.49887278
   0.83034801  0.83001741  0.87469584
   0.64966633  0.67393268  0.74995822
   0.06398201  0.26654794  0.12497450
   0.26487895  0.06373038  0.12779257
   0.10132654  0.09935235  0.00031902
   0.23060063  0.22788397  0.00406553
   0.06399372  0.26653979  0.37506905
   0.26492287  0.06374611  0.37232072
   0.23030610  0.23149222  0.25003227
   0.06652494  0.26673225  0.62558124
   0.26900596  0.06141936  0.62861235
   0.10133382  0.09934220  0.49973834
   0.23059762  0.22789195  0.49601488
   0.06651893  0.26674833  0.87448070
   0.26896867  0.06142018  0.87147331
   0.10006350  0.10027711  0.75003349
   0.23075618  0.23155381  0.75003125
   0.06440652  0.59962181  0.12427544
   0.26706967  0.39729367  0.12488081
   0.10253943  0.43474345  0.99748813
   0.23228422  0.56476502  0.00181761
   0.06438731  0.59961498  0.37574788
   0.26707327  0.39730924  0.37519057
   0.10092948  0.43350463  0.25002273
   0.23124021  0.56443197  0.25002341
   0.06609917  0.60140058  0.62450878
   0.26804062  0.39754868  0.62423776
   0.10255589  0.43472869  0.50256155
   0.23222671  0.56482437  0.49822461
   0.06610964  0.60140896  0.87551939
   0.26802707  0.39753348  0.87582787
   0.10338614  0.43631748  0.75002156
   0.23788867  0.56965941  0.75002517
   0.06716993  0.93606628  0.12595992
   0.26857972  0.73130782  0.12524550
   0.10139624  0.76741454  0.00077784
   0.23232458  0.89783782  0.99934384
   0.06713505  0.93604164  0.37407671
   0.26859811  0.73132332  0.37480352
   0.10332570  0.76678111  0.25000202
   0.23217246  0.89803296  0.25002560
   0.06293675  0.93181053  0.62365443
   0.26785044  0.73036169  0.62422039
   0.10142203  0.76738166  0.49927541
   0.23226578  0.89786652  0.50065858
   0.06293566  0.93179509  0.87637976
   0.26769336  0.73019648  0.87583562
   0.10105522  0.76618344  0.74999746
   0.21948397  0.90582832  0.75002033
   0.39948044  0.26905102  0.12630494
   0.60175988  0.06509412  0.12511966
   0.43098192  0.10644022  0.00373087
   0.56556906  0.23031632  0.99884289
   0.39944472  0.26899982  0.37378323
   0.60177382  0.06510382  0.37492412
   0.43503700  0.10176114  0.25003685
   0.56680623  0.23194801  0.25005735
   0.39679699  0.26591431  0.62495170
   0.60232977  0.06564013  0.62482935
   0.43106362  0.10631543  0.49640959
   0.56555484  0.23033376  0.50120637
   0.39679027  0.26590226  0.87510924
   0.60232103  0.06562789  0.87523250
   0.43398806  0.09695703  0.75000474
   0.56288536  0.23024220  0.75005496
   0.39893929  0.60045500  0.12541687
   0.60189664  0.39761969  0.12511216
   0.43394464  0.43295154  0.00057521
   0.56553208  0.56452352  0.99968780
   0.39892756  0.60043967  0.37461656
   0.60192405  0.39765551  0.37494856
   0.43438768  0.43453315  0.25004365
   0.56603273  0.56410832  0.25001891
   0.39801554  0.59970053  0.62423669
   0.59970428  0.39517344  0.62364481
   0.43397756  0.43292450  0.49946046
   0.56549996  0.56458443  0.50040172
   0.39819075  0.59986618  0.87578911
   0.59972155  0.39517641  0.87641700
   0.43387309  0.43260142  0.75004972
   0.57279178  0.55175435  0.75002361
   0.39814024  0.93438840  0.12512160
   0.60180145  0.73096883  0.12559933
   0.43432888  0.76664684  0.99818110
   0.56496098  0.89765622  0.00025200
   0.39812714  0.93434887  0.37496151
   0.60184283  0.73098447  0.37440554
   0.43519283  0.76788479  0.25002161
   0.56501411  0.89808600  0.25002192
   0.41100246  0.94584013  0.61230571
   0.61372741  0.74438701  0.61228949
   0.43444769  0.76653099  0.50186376
   0.56488574  0.89773354  0.49979078
   0.41120925  0.94618187  0.88785466
   0.61336996  0.74416721  0.88763691
   0.38331028  0.82961293  0.75036216
   0.56533861  0.89842178  0.75002432
   0.73238196  0.26716650  0.12493568
   0.93745214  0.06669499  0.12595002
   0.76866406  0.09983344  0.00015954
   0.89892813  0.23178233  0.99987913
   0.73238802  0.26717699  0.37512690
   0.93744082  0.06668833  0.37408570
   0.76847168  0.10068184  0.25002502
   0.89812349  0.23157015  0.25002518
   0.73202661  0.26686402  0.62560793
   0.93499613  0.06469258  0.62554521
   0.76866176  0.09983764  0.49989195
   0.89893495  0.23177734  0.50016973
   0.73203873  0.26686739  0.87444618
   0.93498784  0.06467475  0.87450095
   0.76841973  0.10061903  0.75002404
   0.89949689  0.23207406  0.75002673
   0.73250422  0.59945466  0.12713407
   0.93602747  0.39847594  0.12389929
   0.76746017  0.43430621  0.00003345
   0.89687163  0.56586540  0.99906882
   0.73248419  0.59940508  0.37284161
   0.93603705  0.39846517  0.37615433
   0.77058913  0.43262027  0.25000613
   0.89977839  0.56428554  0.25001606
   0.72838972  0.60169403  0.62853108
   0.93408019  0.39908081  0.62546814
   0.76747109  0.43429616  0.50000414
   0.89686116  0.56586930  0.50094647
   0.72839068  0.60173346  0.87147155
   0.93406666  0.39908964  0.87456820
   0.76726998  0.43201588  0.75001585
   0.89894510  0.56372955  0.75001490
   0.73291131  0.93456482  0.12546380
   0.93751183  0.73290873  0.12613886
   0.77431259  0.76465565  0.00460003
   0.89813430  0.89871322  0.99883385
   0.73290211  0.93455147  0.37458856
   0.93756739  0.73294914  0.37386684
   0.77050999  0.76862822  0.25001138
   0.90338912  0.90296291  0.24999144
   0.73270095  0.93462907  0.62498222
   0.93448676  0.73094320  0.62548705
   0.77444083  0.76457156  0.49535084
   0.89811178  0.89873214  0.50121461
   0.73271453  0.93463864  0.87505254
   0.93449985  0.73094935  0.87454628
   0.76455174  0.76624748  0.75004418
   0.89729055  0.89622701  0.74999179
   0.49721116  0.71588353  0.74966794
   0.10166406  0.10332731  0.25003964
 
 position of ions in cartesian coordinates  (Angst):
   2.35383451  2.36294880  1.71030894
  14.59941301 14.59318417 13.15549928
   2.35415743  2.36286374  4.87088840
   0.11819709  0.09966115  3.29035974
   2.46399931  2.38549388  8.22712880
  14.59922911 14.59325923  6.58573550
   2.46382095  2.38581318 11.51444931
   0.00000652 14.56704357  9.87059544
   2.42435186  7.28367387  1.63863708
   0.01762383  4.86956463 13.13474726
   2.42420960  7.28377801  4.94220494
  14.59854259  4.86291631  3.29043377
   2.49973534  7.35568315  8.25425854
   0.01795838  4.86925872  6.60660140
   2.49967312  7.35563063 11.48705026
   0.02072641  4.88250736  9.87067520
   2.44937782 12.16998457  1.64132544
  14.60100377  9.73643298 13.15659473
   2.44902208 12.16969971  4.93922909
   0.02161189  9.72753920  3.29020085
   2.43457986 12.15418156  8.23079945
  14.60082364  9.73649034  6.58444444
   2.43455695 12.15376490 11.51022734
  14.60908484  9.71881494  9.87051199
   7.32087557  2.44695019  1.65041423
   4.84149386  0.04140488  0.01441043
   7.32051037  2.44643691  4.93103770
   4.89451648 14.59199614  3.29078156
   7.26686462  2.38276598  8.23053272
   4.84173954  0.04059725  6.56732358
   7.26634688  2.38208095 11.51124425
   4.98887514 14.35697307  9.87144863
   7.31039788  7.29298205  1.64111453
   4.85005543  4.82719414  0.00641264
   7.31070041  7.29333345  4.93998543
   4.85632250  4.86443741  3.29065647
   7.29579636  7.28070313  8.22555422
   4.84999969  4.82735356  6.57472447
   7.29624857  7.28076085 11.51601822
   4.85762365  4.85332583  9.87080824
   7.30979105 12.17001709  1.62053637
   4.87228374  9.72209477 13.15916914
   7.30999856 12.16981685  4.96027156
   4.87721436  9.72998722  3.29038736
   7.24658170 12.10772403  8.30137867
   4.87242053  9.72198886  6.58206301
   7.24521889 12.10898867 11.43989703
   5.08551487  9.93707571  9.87060890
  12.17536379  2.41907117  1.63894640
   9.72439994 14.57942971 13.15679638
  12.17532048  2.41911230  4.94194863
   9.73690267 14.59727069  3.29043330
  12.18130207  2.42533763  8.23046788
   9.72431812 14.57954150  6.58453836
  12.18130720  2.42526814 11.51089958
   9.73544859 14.59645921  9.87066871
  12.18879359  7.29339434  1.63990965
   9.74102572  4.84458959 13.15649774
  12.18886728  7.29307283  4.94062335
   9.75612953  4.86964501  3.29052779
  12.12662868  7.31802702  8.24185852
   9.74096033  4.84474406  6.58497257
  12.12633122  7.31824431 11.49923306
   9.70639337  4.84783339  9.87075221
  12.22525358 12.20629975  1.66589879
   9.79028775  9.71461891  0.01449474
  12.22578152 12.20668386  4.91438331
   9.74353756  9.75412107  3.29003453
  12.13072023 12.12606986  8.22946189
   9.79108362  9.71438600  6.56539966
  12.13145639 12.12662631 11.51140733
   9.49168133  9.84621479  9.86980185
   0.93478275  3.89428855  1.64472297
   3.86990436  0.93110638  1.68181019
   1.48038947  1.45154641  0.00419849
   3.36909515  3.32940449  0.05350433
   0.93495384  3.89416936  4.93608452
   3.87054613  0.93133617  4.89991520
   3.36479213  3.38212139  3.29054185
   0.97193515  3.89698130  8.23294250
   3.93020038  0.89734223  8.27283324
   1.48049596  1.45139816  6.57679082
   3.36905125  3.32952120  6.52778836
   0.97184739  3.89721623 11.50857603
   3.92965562  0.89735421 11.46899735
   1.46193645  1.46505721  9.87079238
   3.37136782  3.38302122  9.87076295
   0.94098480  8.76052659  1.63552300
   3.90191105  5.80449492  1.64348999
   1.49810998  6.35163949 13.12741145
   3.39369252  8.25126587  0.02392061
   0.94070418  8.76042678  4.94501826
   3.90196368  5.80472235  4.93768381
   1.47458851  6.33354023  3.29041631
   3.37843947  8.24639997  3.29042524
   0.96571467  8.78651456  8.21882838
   3.91609661  5.80822069  8.21526164
   1.49835037  6.35142387  6.61394563
   3.39285229  8.25213295  6.55686944
   0.96586760  8.78663706 11.52224573
   3.91589868  5.80799852 11.52630538
   1.51048040  6.37463619  9.87063538
   3.47557408  8.32277336  9.87068289
   0.98135853 13.67600949  1.65769167
   3.92397292 10.68447054  1.64828945
   1.48140789 11.21199292  0.01023674
   3.39428220 13.11748831 13.15183346
   0.98084895 13.67564952  4.92302493
   3.92424164 10.68469701  4.93259008
   1.50959741 11.20273850  3.29014375
   3.39205969 13.12033942  3.29045418
   0.91951136 13.61383264  8.20758473
   3.91331810 10.67064755  8.21503302
   1.48178466 11.21151252  6.57069850
   3.39342320 13.11790766  6.58890163
   0.91949547 13.61360695 11.53356858
   3.91102322 10.66823386 11.52640739
   1.47642548 11.19400637  9.87031826
   3.20667982 13.23423028  9.87061922
   5.83644388  3.93085875  1.66223226
   8.79176402  0.95103076  1.64663340
   6.29668320  1.55510084  0.04910001
   8.26301299  3.36494141 13.14524081
   5.83592198  3.93011062  4.91916259
   8.79196757  0.95117247  4.93417724
   6.35592830  1.48673912  3.29060212
   8.28108811  3.38878059  3.29087196
   5.79723838  3.88503110  8.22465735
   8.80009016  0.95900796  8.22304726
   6.29787677  1.55327766  6.53298299
   8.26280519  3.36519617  6.59611082
   5.79714016  3.88485512 11.51684790
   8.79996245  0.95882921 11.51847013
   6.34060311  1.41655066  9.87041398
   8.22380386  3.36385850  9.87107492
   5.82853764  8.77269963  1.65054476
   8.79376209  5.80925806  1.64653464
   6.33996882  6.32545956  0.00757009
   8.26247275  8.24773757 13.15636013
   5.82836621  8.77247566  4.93012961
   8.79416258  5.80978138  4.93449880
   6.34644170  6.34856696  3.29069172
   8.26978728  8.24167141  3.29036613
   5.81504148  8.76167667  8.21524754
   8.76173153  5.77351822  8.20745807
   6.34044977  6.32506450  6.57313385
   8.26200341  8.24862740  6.58552129
   5.81760133  8.76409681 11.52579537
   8.76198386  5.77356153 11.53405860
   6.33892340  6.32034421  9.87100605
   8.36853752  8.06117892  9.87066239
   5.81686343 13.65149553  1.64665893
   8.79237126 10.67951796  1.65294607
   6.34558262 11.20077672 13.13653125
   8.25412892 13.11483512  0.00331639
   5.81667201 13.65091787  4.93466924
   8.79297594 10.67974650  4.92735239
   6.35820500 11.21886330  3.29040155
   8.25490503 13.12111421  3.29040572
   6.00478154 13.81880623  8.05823028
   8.96661061 10.87555875  8.05801679
   6.34731835 11.19908418  6.60476234
   8.25302964 13.11596475  6.57748097
   6.00780276 13.82379916 11.68458365
   8.96138831 10.87234741 11.68171794
   5.60019638 12.12071684  9.87511785
   8.25964600 13.12602002  9.87067167
  10.70016389  3.90332573  1.64421213
  13.69625703  0.97441957  1.65756132
  11.23024854  1.45857515  0.00209959
  13.13341785  3.38635989 13.15887815
  10.70025249  3.90347904  4.93684594
  13.69609160  0.97432234  4.92314319
  11.22743785  1.47097047  3.29044646
  13.12166196  3.38326001  3.29044862
  10.69497222  3.89890651  8.23329363
  13.66037444  0.94516418  8.23246827
  11.23021492  1.45863653  6.57881250
  13.13351743  3.38628701  6.58246821
  10.69514928  3.89895569 11.50812173
  13.66025335  0.94490367 11.50884247
  11.22667883  1.47005281  9.87066802
  13.14172744  3.39062213  9.87070339
  10.70195018  8.75808446  1.67314401
  13.67544239  5.82176794  1.63057274
  11.21265957  6.34525143  0.00044018
  13.10337227  8.26734245 13.14821410
  10.70165742  8.75736011  4.90677036
  13.67558234  5.82161060  4.95036733
  11.25837388  6.32061969  3.29019786
  13.14584023  8.24426058  3.29032851
  10.64183684  8.79080193  8.27176377
  13.64699247  5.83060514  8.23145393
  11.21281917  6.34510448  6.58028892
  13.10321920  8.26739945  6.59269047
  10.64185090  8.79137798 11.46897417
  13.64679477  5.83073415 11.50972755
  11.20988090  6.31178936  9.87056021
  13.13366578  8.23613761  9.87054773
  10.70789776 13.65407298  1.65116249
  13.69712911 10.70786003  1.66004657
  11.31277405 11.17168533  0.06053856
  13.12181999 13.13027803 13.14512182
  10.70776339 13.65387792  4.92976114
  13.69794087 10.70845049  4.92026290
  11.25721767 11.22972488  3.29026694
  13.19859335 13.19236638  3.29000453
  10.70482439 13.65501171  8.22505908
  13.65293251 10.67914343  8.23170285
  11.31464769 11.17045674  6.51904931
  13.12149097 13.13055436  6.59621928
  10.70502276 13.65515147 11.51610170
  13.65312372 10.67923333 11.50943906
  11.17016710 11.19494210  9.87093313
  13.10949265 13.09395429  9.87024361
   7.26429814 10.45912042  9.86598157
   1.48532074  1.50962096  3.29063895
 


--------------------------------------------------------------------------------------------------------


 k-point  1 :   0.2500 0.2500 0.2500  plane waves:  118129
 k-point  2 :  -0.2500 0.2500 0.2500  plane waves:  118129
 k-point  3 :   0.2500-0.2500 0.2500  plane waves:  118129
 k-point  4 :  -0.2500-0.2500 0.2500  plane waves:  118129

 maximum and minimum number of plane-waves per node :     19742    19655

 maximum number of plane-waves:    118129
 maximum index in each direction: 
   IXMAX=   31   IYMAX=   31   IZMAX=   28
   IXMIN=  -31   IYMIN=  -31   IZMIN=  -28


 parallel 3D FFT for wavefunctions:
    minimum data exchange during FFTs selected (reduces bandwidth)
 parallel 3D FFT for charge:
    minimum data exchange during FFTs selected (reduces bandwidth)


 total amount of memory used by VASP MPI-rank0   697375. kBytes
=======================================================================

   base      :      30000. kBytes
   nonl-proj :     102460. kBytes
   fftplans  :      32099. kBytes
   grid      :      29521. kBytes
   one-center:       1150. kBytes
   wavefun   :     502145. kBytes
 
     INWAV:  cpu time  174.3523: real time  174.4341
 Broyden mixing: mesh for mixing (old mesh)
   NGX = 63   NGY = 63   NGZ = 57
  (NGX  =192   NGY  =192   NGZ  =180)
  gives a total of 226233 points

 charge density for first step will be calculated from the start-wavefunctions


--------------------------------------------------------------------------------------------------------


 Maximum index for augmentation-charges         2312 (set IRDMAX)


--------------------------------------------------------------------------------------------------------


 initial charge from wavefunction
 First call to EWALD:  gamma=   0.126
 Maximum number of real-space cells 3x 3x 3
 Maximum number of reciprocal cells 3x 3x 3

    FEWALD:  cpu time    0.0121: real time    0.0121


--------------------------------------- Iteration      1(   1)  ---------------------------------------


    POTLOK:  cpu time    0.3275: real time    0.3358
    SETDIJ:  cpu time    4.0656: real time    4.0657
atom =   1  type =  1  l = 2
 
 onsite density matrix
 
spin component  1
 
  0.9601  0.0053  0.0209  0.0044  0.0001
  0.0053  0.9513  0.0025  0.0131 -0.0027
  0.0209  0.0025  0.9454  0.0021  0.0001
  0.0044  0.0131  0.0021  0.9513  0.0023
  0.0001 -0.0027  0.0001  0.0023  0.9401
 
spin component  2
 
  0.0562 -0.0004  0.0334 -0.0016  0.0003
 -0.0004  0.0472 -0.0021  0.0283 -0.0018
  0.0334 -0.0021  0.0411 -0.0032  0.0003
 -0.0016  0.0283 -0.0032  0.0475  0.0008
  0.0003 -0.0018  0.0003  0.0008  0.0164
 
 occupancies and eigenvectors
 
  o =  0.0144  v =  0.0000  0.0000  0.0000  0.0000  0.0000  0.6228 -0.0218 -0.7817 -0.0252  0.0000      0.0000  0.0000  0.0000  0.0000  0.0000  0.0000  0.0000  0.0000  0.0000  0.0000
  o =  0.0155  v =  0.0000  0.0000  0.0000  0.0000  0.0000 -0.0109  0.3328 -0.0077 -0.3176  0.8878      0.0000  0.0000  0.0000  0.0000  0.0000  0.0000  0.0000  0.0000  0.0000  0.0000
  o =  0.0200  v =  0.0000  0.0000  0.0000  0.0000  0.0000  0.0115 -0.6252  0.0063  0.6303  0.4600      0.0000  0.0000  0.0000  0.0000  0.0000  0.0000  0.0000  0.0000  0.0000  0.0000
  o =  0.0743  v =  0.0000  0.0000  0.0000  0.0000  0.0000  0.3125  0.6587  0.2096  0.6516 -0.0082      0.0000  0.0000  0.0000  0.0000  0.0000  0.0000  0.0000  0.0000  0.0000  0.0000
  o =  0.0842  v =  0.0000  0.0000  0.0000  0.0000  0.0000 -0.7171  0.2530 -0.5873  0.2769 -0.0096      0.0000  0.0000  0.0000  0.0000  0.0000  0.0000  0.0000  0.0000  0.0000  0.0000
  o =  0.9306  v = -0.5832  0.0426  0.8111  0.0128  0.0051  0.0000  0.0000  0.0000  0.0000  0.0000      0.0000  0.0000  0.0000  0.0000  0.0000  0.0000  0.0000  0.0000  0.0000  0.0000
  o =  0.9354  v = -0.0027  0.5675 -0.0268 -0.5552  0.6074  0.0000  0.0000  0.0000  0.0000  0.0000      0.0000  0.0000  0.0000  0.0000  0.0000  0.0000  0.0000  0.0000  0.0000  0.0000
  o =  0.9427  v = -0.0001 -0.4232  0.0103  0.4358  0.7943  0.0000  0.0000  0.0000  0.0000  0.0000      0.0000  0.0000  0.0000  0.0000  0.0000  0.0000  0.0000  0.0000  0.0000  0.0000
  o =  0.9606  v =  0.3554 -0.6190  0.2981 -0.6336  0.0140  0.0000  0.0000  0.0000  0.0000  0.0000      0.0000  0.0000  0.0000  0.0000  0.0000  0.0000  0.0000  0.0000  0.0000  0.0000
  o =  0.9788  v = -0.7304 -0.3373 -0.5025 -0.3165  0.0004  0.0000  0.0000  0.0000  0.0000  0.0000      0.0000  0.0000  0.0000  0.0000  0.0000  0.0000  0.0000  0.0000  0.0000  0.0000
atom =   2  type =  1  l = 2
 
 onsite density matrix
 
spin component  1
 
  0.0556 -0.0005 -0.0305  0.0004  0.0006
 -0.0005  0.0456  0.0006 -0.0244 -0.0010
 -0.0305  0.0006  0.0390 -0.0000 -0.0005
  0.0004 -0.0244 -0.0000  0.0443  0.0007
  0.0006 -0.0010 -0.0005  0.0007  0.0175
 
spin component  2
 
  0.9644 -0.0006 -0.0198  0.0001  0.0004
 -0.0006  0.9594  0.0001 -0.0173 -0.0007
 -0.0198  0.0001  0.9527  0.0000 -0.0003
  0.0001 -0.0173  0.0000  0.9586  0.0005
  0.0004 -0.0007 -0.0003  0.0005  0.9425
 
 occupancies and eigenvectors
 
  o =  0.0157  v = -0.6063  0.0374 -0.7934  0.0399 -0.0048  0.0000  0.0000  0.0000  0.0000  0.0000      0.0000  0.0000  0.0000  0.0000  0.0000  0.0000  0.0000  0.0000  0.0000  0.0000
  o =  0.0175  v = -0.0103  0.0552  0.0056  0.0245  0.9981  0.0000  0.0000  0.0000  0.0000  0.0000      0.0000  0.0000  0.0000  0.0000  0.0000  0.0000  0.0000  0.0000  0.0000  0.0000
  o =  0.0206  v = -0.0381 -0.6951 -0.0399 -0.7146  0.0558  0.0000  0.0000  0.0000  0.0000  0.0000      0.0000  0.0000  0.0000  0.0000  0.0000  0.0000  0.0000  0.0000  0.0000  0.0000
  o =  0.0693  v =  0.0656  0.7130 -0.0514 -0.6958 -0.0214  0.0000  0.0000  0.0000  0.0000  0.0000      0.0000  0.0000  0.0000  0.0000  0.0000  0.0000  0.0000  0.0000  0.0000  0.0000
  o =  0.0790  v = -0.7916  0.0632  0.6052 -0.0541 -0.0137  0.0000  0.0000  0.0000  0.0000  0.0000      0.0000  0.0000  0.0000  0.0000  0.0000  0.0000  0.0000  0.0000  0.0000  0.0000
  o =  0.9379  v =  0.0000  0.0000  0.0000  0.0000  0.0000 -0.5989 -0.0243 -0.8003 -0.0165  0.0044      0.0000  0.0000  0.0000  0.0000  0.0000  0.0000  0.0000  0.0000  0.0000  0.0000
  o =  0.9417  v =  0.0000  0.0000  0.0000  0.0000  0.0000 -0.0108  0.6958 -0.0269  0.7078  0.1187      0.0000  0.0000  0.0000  0.0000  0.0000  0.0000  0.0000  0.0000  0.0000  0.0000
  o =  0.9425  v =  0.0000  0.0000  0.0000  0.0000  0.0000 -0.0065 -0.0657  0.0144 -0.1015  0.9925      0.0000  0.0000  0.0000  0.0000  0.0000  0.0000  0.0000  0.0000  0.0000  0.0000
  o =  0.9763  v =  0.0000  0.0000  0.0000  0.0000  0.0000  0.1184  0.7056 -0.0958 -0.6918 -0.0219      0.0000  0.0000  0.0000  0.0000  0.0000  0.0000  0.0000  0.0000  0.0000  0.0000
  o =  0.9793  v =  0.0000  0.0000  0.0000  0.0000  0.0000 -0.7919  0.1148  0.5911 -0.0998 -0.0163      0.0000  0.0000  0.0000  0.0000  0.0000  0.0000  0.0000  0.0000  0.0000  0.0000
atom =   3  type =  1  l = 2
 
 onsite density matrix
 
spin component  1
 
  0.9601 -0.0053  0.0209 -0.0044  0.0001
 -0.0053  0.9513 -0.0025  0.0131  0.0027
  0.0209 -0.0025  0.9454 -0.0021  0.0001
 -0.0044  0.0131 -0.0021  0.9513 -0.0023
  0.0001  0.0027  0.0001 -0.0023  0.9401
 
spin component  2
 
  0.0562  0.0004  0.0334  0.0016  0.0003
  0.0004  0.0472  0.0021  0.0283  0.0018
  0.0334  0.0021  0.0411  0.0031  0.0003
  0.0016  0.0283  0.0031  0.0475 -0.0008
  0.0003  0.0018  0.0003 -0.0008  0.0164
 
 occupancies and eigenvectors
 
  o =  0.0144  v =  0.0000  0.0000  0.0000  0.0000  0.0000  0.6227  0.0207 -0.7817  0.0262  0.0018      0.0000  0.0000  0.0000  0.0000  0.0000  0.0000  0.0000  0.0000  0.0000  0.0000
  o =  0.0155  v =  0.0000  0.0000  0.0000  0.0000  0.0000 -0.0121 -0.3330 -0.0058  0.3176  0.8878      0.0000  0.0000  0.0000  0.0000  0.0000  0.0000  0.0000  0.0000  0.0000  0.0000
  o =  0.0199  v =  0.0000  0.0000  0.0000  0.0000  0.0000  0.0117  0.6252  0.0058 -0.6303  0.4601      0.0000  0.0000  0.0000  0.0000  0.0000  0.0000  0.0000  0.0000  0.0000  0.0000
  o =  0.0744  v =  0.0000  0.0000  0.0000  0.0000  0.0000  0.3125 -0.6586  0.2096 -0.6516 -0.0083      0.0000  0.0000  0.0000  0.0000  0.0000  0.0000  0.0000  0.0000  0.0000  0.0000
  o =  0.0842  v =  0.0000  0.0000  0.0000  0.0000  0.0000 -0.7171 -0.2532 -0.5873 -0.2769 -0.0095      0.0000  0.0000  0.0000  0.0000  0.0000  0.0000  0.0000  0.0000  0.0000  0.0000
  o =  0.9306  v =  0.5832  0.0428 -0.8111  0.0127 -0.0053  0.0000  0.0000  0.0000  0.0000  0.0000      0.0000  0.0000  0.0000  0.0000  0.0000  0.0000  0.0000  0.0000  0.0000  0.0000
  o =  0.9354  v =  0.0024  0.5675  0.0269 -0.5552 -0.6075  0.0000  0.0000  0.0000  0.0000  0.0000      0.0000  0.0000  0.0000  0.0000  0.0000  0.0000  0.0000  0.0000  0.0000  0.0000
  o =  0.9428  v = -0.0000  0.4232  0.0103 -0.4359  0.7942  0.0000  0.0000  0.0000  0.0000  0.0000      0.0000  0.0000  0.0000  0.0000  0.0000  0.0000  0.0000  0.0000  0.0000  0.0000
  o =  0.9606  v =  0.3555  0.6191  0.2981  0.6335  0.0139  0.0000  0.0000  0.0000  0.0000  0.0000      0.0000  0.0000  0.0000  0.0000  0.0000  0.0000  0.0000  0.0000  0.0000  0.0000
  o =  0.9788  v = -0.7304  0.3373 -0.5024  0.3167  0.0005  0.0000  0.0000  0.0000  0.0000  0.0000      0.0000  0.0000  0.0000  0.0000  0.0000  0.0000  0.0000  0.0000  0.0000  0.0000
atom =   4  type =  1  l = 2
 
 onsite density matrix
 
spin component  1
 
  0.0637  0.0000 -0.0356  0.0000 -0.0006
  0.0000  0.0455 -0.0000 -0.0281  0.0000
 -0.0356 -0.0000  0.0438 -0.0000  0.0004
  0.0000 -0.0281 -0.0000  0.0450 -0.0000
 -0.0006  0.0000  0.0004 -0.0000  0.0127
 
spin component  2
 
  0.9522  0.0000 -0.0101  0.0000 -0.0001
  0.0000  0.9552 -0.0000 -0.0228  0.0000
 -0.0101 -0.0000  0.9472 -0.0000  0.0000
  0.0000 -0.0228 -0.0000  0.9551 -0.0000
 -0.0001  0.0000  0.0000 -0.0000  0.9351
 
 occupancies and eigenvectors
 
  o =  0.0127  v =  0.0193 -0.0003  0.0104 -0.0001  0.9998  0.0000  0.0000  0.0000  0.0000  0.0000      0.0000  0.0000  0.0000  0.0000  0.0000  0.0000  0.0000  0.0000  0.0000  0.0000
  o =  0.0168  v = -0.6042 -0.0004 -0.7966 -0.0003  0.0200  0.0000  0.0000  0.0000  0.0000  0.0000      0.0000  0.0000  0.0000  0.0000  0.0000  0.0000  0.0000  0.0000  0.0000  0.0000
  o =  0.0172  v = -0.0005  0.7036 -0.0002  0.7106  0.0003  0.0000  0.0000  0.0000  0.0000  0.0000      0.0000  0.0000  0.0000  0.0000  0.0000  0.0000  0.0000  0.0000  0.0000  0.0000
  o =  0.0733  v =  0.0001 -0.7106 -0.0000  0.7036 -0.0001  0.0000  0.0000  0.0000  0.0000  0.0000      0.0000  0.0000  0.0000  0.0000  0.0000  0.0000  0.0000  0.0000  0.0000  0.0000
  o =  0.0908  v = -0.7966 -0.0003  0.6045 -0.0001  0.0091  0.0000  0.0000  0.0000  0.0000  0.0000      0.0000  0.0000  0.0000  0.0000  0.0000  0.0000  0.0000  0.0000  0.0000  0.0000
  o =  0.9324  v =  0.0000  0.0000  0.0000  0.0000  0.0000 -0.0002  0.7065  0.0002  0.7078  0.0003      0.0000  0.0000  0.0000  0.0000  0.0000  0.0000  0.0000  0.0000  0.0000  0.0000
  o =  0.9351  v =  0.0000  0.0000  0.0000  0.0000  0.0000  0.0076 -0.0003  0.0025 -0.0002  1.0000      0.0000  0.0000  0.0000  0.0000  0.0000  0.0000  0.0000  0.0000  0.0000  0.0000
  o =  0.9392  v =  0.0000  0.0000  0.0000  0.0000  0.0000 -0.6172 -0.0000 -0.7868  0.0000  0.0067      0.0000  0.0000  0.0000  0.0000  0.0000  0.0000  0.0000  0.0000  0.0000  0.0000
  o =  0.9601  v =  0.0000  0.0000  0.0000  0.0000  0.0000 -0.7868 -0.0002  0.6172 -0.0002  0.0044      0.0000  0.0000  0.0000  0.0000  0.0000  0.0000  0.0000  0.0000  0.0000  0.0000
  o =  0.9779  v =  0.0000  0.0000  0.0000  0.0000  0.0000 -0.0000 -0.7078  0.0000  0.7065 -0.0001      0.0000  0.0000  0.0000  0.0000  0.0000  0.0000  0.0000  0.0000  0.0000  0.0000
atom =   5  type =  1  l = 2
 
 onsite density matrix
 
spin component  1
 
  0.9632  0.0007  0.0191 -0.0001  0.0002
  0.0007  0.9588 -0.0000  0.0168 -0.0002
  0.0191 -0.0000  0.9523 -0.0004  0.0002
 -0.0001  0.0168 -0.0004  0.9587 -0.0002
  0.0002 -0.0002  0.0002 -0.0002  0.9423
 
spin component  2
 
  0.0530  0.0010  0.0293 -0.0003  0.0004
  0.0010  0.0438  0.0002  0.0240 -0.0004
  0.0293  0.0002  0.0380 -0.0007  0.0003
 -0.0003  0.0240 -0.0007  0.0438 -0.0003
  0.0004 -0.0004  0.0003 -0.0003  0.0168
 
 occupancies and eigenvectors
 
  o =  0.0152  v =  0.0000  0.0000  0.0000  0.0000  0.0000 -0.6130  0.0116  0.7900  0.0044  0.0097      0.0000  0.0000  0.0000  0.0000  0.0000  0.0000  0.0000  0.0000  0.0000  0.0000
  o =  0.0168  v =  0.0000  0.0000  0.0000  0.0000  0.0000 -0.0007  0.0132 -0.0131  0.0006  0.9998      0.0000  0.0000  0.0000  0.0000  0.0000  0.0000  0.0000  0.0000  0.0000  0.0000
  o =  0.0198  v =  0.0000  0.0000  0.0000  0.0000  0.0000 -0.0121  0.7065 -0.0157 -0.7074 -0.0092      0.0000  0.0000  0.0000  0.0000  0.0000  0.0000  0.0000  0.0000  0.0000  0.0000
  o =  0.0678  v =  0.0000  0.0000  0.0000  0.0000  0.0000  0.0110 -0.7069  0.0227 -0.7068  0.0100      0.0000  0.0000  0.0000  0.0000  0.0000  0.0000  0.0000  0.0000  0.0000  0.0000
  o =  0.0758  v =  0.0000  0.0000  0.0000  0.0000  0.0000 -0.7899 -0.0297 -0.6124 -0.0024 -0.0082      0.0000  0.0000  0.0000  0.0000  0.0000  0.0000  0.0000  0.0000  0.0000  0.0000
  o =  0.9378  v = -0.6016  0.0246  0.7983 -0.0060 -0.0120  0.0000  0.0000  0.0000  0.0000  0.0000      0.0000  0.0000  0.0000  0.0000  0.0000  0.0000  0.0000  0.0000  0.0000  0.0000
  o =  0.9419  v =  0.0010 -0.7036  0.0263  0.7040 -0.0929  0.0000  0.0000  0.0000  0.0000  0.0000      0.0000  0.0000  0.0000  0.0000  0.0000  0.0000  0.0000  0.0000  0.0000  0.0000
  o =  0.9423  v = -0.0147 -0.0600  0.0063  0.0711  0.9955  0.0000  0.0000  0.0000  0.0000  0.0000      0.0000  0.0000  0.0000  0.0000  0.0000  0.0000  0.0000  0.0000  0.0000  0.0000
  o =  0.9756  v =  0.0508 -0.7048  0.0548 -0.7054  0.0083  0.0000  0.0000  0.0000  0.0000  0.0000      0.0000  0.0000  0.0000  0.0000  0.0000  0.0000  0.0000  0.0000  0.0000  0.0000
  o =  0.9777  v = -0.7970 -0.0632 -0.5992 -0.0408 -0.0089  0.0000  0.0000  0.0000  0.0000  0.0000      0.0000  0.0000  0.0000  0.0000  0.0000  0.0000  0.0000  0.0000  0.0000  0.0000
atom =   6  type =  1  l = 2
 
 onsite density matrix
 
spin component  1
 
  0.0556  0.0005 -0.0305 -0.0004  0.0006
  0.0005  0.0456 -0.0006 -0.0244  0.0010
 -0.0305 -0.0006  0.0390  0.0000 -0.0005
 -0.0004 -0.0244  0.0000  0.0443 -0.0007
  0.0006  0.0010 -0.0005 -0.0007  0.0175
 
spin component  2
 
  0.9644  0.0006 -0.0198 -0.0001  0.0004
  0.0006  0.9594 -0.0001 -0.0173  0.0006
 -0.0198 -0.0001  0.9527 -0.0000 -0.0003
 -0.0001 -0.0173 -0.0000  0.9586 -0.0005
  0.0004  0.0006 -0.0003 -0.0005  0.9425
 
 occupancies and eigenvectors
 
  o =  0.0157  v =  0.6063  0.0370  0.7934  0.0395  0.0050  0.0000  0.0000  0.0000  0.0000  0.0000      0.0000  0.0000  0.0000  0.0000  0.0000  0.0000  0.0000  0.0000  0.0000  0.0000
  o =  0.0175  v = -0.0106 -0.0553  0.0056 -0.0249  0.9981  0.0000  0.0000  0.0000  0.0000  0.0000      0.0000  0.0000  0.0000  0.0000  0.0000  0.0000  0.0000  0.0000  0.0000  0.0000
  o =  0.0206  v =  0.0378 -0.6950  0.0395 -0.7147 -0.0562  0.0000  0.0000  0.0000  0.0000  0.0000      0.0000  0.0000  0.0000  0.0000  0.0000  0.0000  0.0000  0.0000  0.0000  0.0000
  o =  0.0693  v =  0.0659 -0.7131 -0.0517  0.6957 -0.0212  0.0000  0.0000  0.0000  0.0000  0.0000      0.0000  0.0000  0.0000  0.0000  0.0000  0.0000  0.0000  0.0000  0.0000  0.0000
  o =  0.0790  v = -0.7915 -0.0635  0.6052  0.0545 -0.0140  0.0000  0.0000  0.0000  0.0000  0.0000      0.0000  0.0000  0.0000  0.0000  0.0000  0.0000  0.0000  0.0000  0.0000  0.0000
  o =  0.9379  v =  0.0000  0.0000  0.0000  0.0000  0.0000  0.5989 -0.0241  0.8003 -0.0163 -0.0041      0.0000  0.0000  0.0000  0.0000  0.0000  0.0000  0.0000  0.0000  0.0000  0.0000
  o =  0.9417  v =  0.0000  0.0000  0.0000  0.0000  0.0000  0.0108  0.6956  0.0267  0.7078 -0.1198      0.0000  0.0000  0.0000  0.0000  0.0000  0.0000  0.0000  0.0000  0.0000  0.0000
  o =  0.9425  v =  0.0000  0.0000  0.0000  0.0000  0.0000 -0.0068  0.0666  0.0142  0.1021  0.9924      0.0000  0.0000  0.0000  0.0000  0.0000  0.0000  0.0000  0.0000  0.0000  0.0000
  o =  0.9763  v =  0.0000  0.0000  0.0000  0.0000  0.0000  0.1191 -0.7055 -0.0964  0.6916 -0.0216      0.0000  0.0000  0.0000  0.0000  0.0000  0.0000  0.0000  0.0000  0.0000  0.0000
  o =  0.9793  v =  0.0000  0.0000  0.0000  0.0000  0.0000 -0.7918 -0.1155  0.5910  0.1005 -0.0165      0.0000  0.0000  0.0000  0.0000  0.0000  0.0000  0.0000  0.0000  0.0000  0.0000
atom =   7  type =  1  l = 2
 
 onsite density matrix
 
spin component  1
 
  0.9632 -0.0007  0.0191  0.0001  0.0002
 -0.0007  0.9588  0.0000  0.0168  0.0002
  0.0191  0.0000  0.9523  0.0004  0.0003
  0.0001  0.0168  0.0004  0.9587  0.0002
  0.0002  0.0002  0.0003  0.0002  0.9423
 
spin component  2
 
  0.0530 -0.0010  0.0293  0.0002  0.0004
 -0.0010  0.0438 -0.0002  0.0240  0.0004
  0.0293 -0.0002  0.0380  0.0007  0.0003
  0.0002  0.0240  0.0007  0.0438  0.0003
  0.0004  0.0004  0.0003  0.0003  0.0168
 
 occupancies and eigenvectors
 
  o =  0.0152  v =  0.0000  0.0000  0.0000  0.0000  0.0000  0.6130  0.0114 -0.7900  0.0046 -0.0096      0.0000  0.0000  0.0000  0.0000  0.0000  0.0000  0.0000  0.0000  0.0000  0.0000
  o =  0.0168  v =  0.0000  0.0000  0.0000  0.0000  0.0000 -0.0009 -0.0136 -0.0130 -0.0002  0.9998      0.0000  0.0000  0.0000  0.0000  0.0000  0.0000  0.0000  0.0000  0.0000  0.0000
  o =  0.0198  v =  0.0000  0.0000  0.0000  0.0000  0.0000  0.0122  0.7065  0.0154 -0.7073  0.0096      0.0000  0.0000  0.0000  0.0000  0.0000  0.0000  0.0000  0.0000  0.0000  0.0000
  o =  0.0678  v =  0.0000  0.0000  0.0000  0.0000  0.0000  0.0116  0.7068  0.0232  0.7069  0.0100      0.0000  0.0000  0.0000  0.0000  0.0000  0.0000  0.0000  0.0000  0.0000  0.0000
  o =  0.0758  v =  0.0000  0.0000  0.0000  0.0000  0.0000 -0.7899  0.0302 -0.6124  0.0031 -0.0083      0.0000  0.0000  0.0000  0.0000  0.0000  0.0000  0.0000  0.0000  0.0000  0.0000
  o =  0.9378  v =  0.6017  0.0247 -0.7983 -0.0059  0.0123  0.0000  0.0000  0.0000  0.0000  0.0000      0.0000  0.0000  0.0000  0.0000  0.0000  0.0000  0.0000  0.0000  0.0000  0.0000
  o =  0.9419  v =  0.0010  0.7035  0.0262 -0.7038 -0.0957  0.0000  0.0000  0.0000  0.0000  0.0000      0.0000  0.0000  0.0000  0.0000  0.0000  0.0000  0.0000  0.0000  0.0000  0.0000
  o =  0.9423  v =  0.0150 -0.0620 -0.0065  0.0731 -0.9953  0.0000  0.0000  0.0000  0.0000  0.0000      0.0000  0.0000  0.0000  0.0000  0.0000  0.0000  0.0000  0.0000  0.0000  0.0000
  o =  0.9755  v =  0.0519  0.7047  0.0558  0.7054  0.0083  0.0000  0.0000  0.0000  0.0000  0.0000      0.0000  0.0000  0.0000  0.0000  0.0000  0.0000  0.0000  0.0000  0.0000  0.0000
  o =  0.9777  v = -0.7969  0.0642 -0.5991  0.0419 -0.0090  0.0000  0.0000  0.0000  0.0000  0.0000      0.0000  0.0000  0.0000  0.0000  0.0000  0.0000  0.0000  0.0000  0.0000  0.0000
atom =   8  type =  1  l = 2
 
 onsite density matrix
 
spin component  1
 
  0.0536  0.0000 -0.0295  0.0000  0.0001
  0.0000  0.0454 -0.0000 -0.0244  0.0000
 -0.0295 -0.0000  0.0383 -0.0000 -0.0001
  0.0000 -0.0244 -0.0000  0.0433 -0.0000
  0.0001  0.0000 -0.0001 -0.0000  0.0169
 
spin component  2
 
  0.9641  0.0000 -0.0191  0.0000  0.0002
  0.0000  0.9597 -0.0000 -0.0172  0.0000
 -0.0191 -0.0000  0.9524 -0.0000 -0.0001
  0.0000 -0.0172 -0.0000  0.9583 -0.0000
  0.0002  0.0000 -0.0001 -0.0000  0.9425
 
 occupancies and eigenvectors
 
  o =  0.0155  v = -0.6117  0.0002 -0.7911  0.0001  0.0032  0.0000  0.0000  0.0000  0.0000  0.0000      0.0000  0.0000  0.0000  0.0000  0.0000  0.0000  0.0000  0.0000  0.0000  0.0000
  o =  0.0169  v =  0.0003  0.0001 -0.0043 -0.0000 -1.0000  0.0000  0.0000  0.0000  0.0000  0.0000      0.0000  0.0000  0.0000  0.0000  0.0000  0.0000  0.0000  0.0000  0.0000  0.0000
  o =  0.0199  v =  0.0000 -0.6922 -0.0003 -0.7217 -0.0000  0.0000  0.0000  0.0000  0.0000  0.0000      0.0000  0.0000  0.0000  0.0000  0.0000  0.0000  0.0000  0.0000  0.0000  0.0000
  o =  0.0688  v =  0.0001  0.7217 -0.0000 -0.6922  0.0001  0.0000  0.0000  0.0000  0.0000  0.0000      0.0000  0.0000  0.0000  0.0000  0.0000  0.0000  0.0000  0.0000  0.0000  0.0000
  o =  0.0764  v = -0.7911 -0.0001  0.6117 -0.0002 -0.0029  0.0000  0.0000  0.0000  0.0000  0.0000      0.0000  0.0000  0.0000  0.0000  0.0000  0.0000  0.0000  0.0000  0.0000  0.0000
  o =  0.9383  v =  0.0000  0.0000  0.0000  0.0000  0.0000 -0.5948  0.0001 -0.8038  0.0000  0.0133      0.0000  0.0000  0.0000  0.0000  0.0000  0.0000  0.0000  0.0000  0.0000  0.0000
  o =  0.9418  v =  0.0000  0.0000  0.0000  0.0000  0.0000  0.0001 -0.6930 -0.0002 -0.7210  0.0002      0.0000  0.0000  0.0000  0.0000  0.0000  0.0000  0.0000  0.0000  0.0000  0.0000
  o =  0.9425  v =  0.0000  0.0000  0.0000  0.0000  0.0000 -0.0035 -0.0001 -0.0140 -0.0002 -0.9999      0.0000  0.0000  0.0000  0.0000  0.0000  0.0000  0.0000  0.0000  0.0000  0.0000
  o =  0.9762  v =  0.0000  0.0000  0.0000  0.0000  0.0000 -0.0003 -0.7210  0.0001  0.6930 -0.0001      0.0000  0.0000  0.0000  0.0000  0.0000  0.0000  0.0000  0.0000  0.0000  0.0000
  o =  0.9781  v =  0.0000  0.0000  0.0000  0.0000  0.0000 -0.8039  0.0001  0.5948 -0.0003 -0.0056      0.0000  0.0000  0.0000  0.0000  0.0000  0.0000  0.0000  0.0000  0.0000  0.0000
atom =   9  type =  1  l = 2
 
 onsite density matrix
 
spin component  1
 
  0.9645 -0.0003  0.0196 -0.0005 -0.0000
 -0.0003  0.9592  0.0003  0.0174 -0.0000
  0.0196  0.0003  0.9525  0.0002 -0.0000
 -0.0005  0.0174  0.0002  0.9591 -0.0001
 -0.0000 -0.0000 -0.0000 -0.0001  0.9423
 
spin component  2
 
  0.0548 -0.0004  0.0299 -0.0006 -0.0001
 -0.0004  0.0452  0.0004  0.0247 -0.0000
  0.0299  0.0004  0.0388  0.0002 -0.0001
 -0.0006  0.0247  0.0002  0.0450 -0.0001
 -0.0001 -0.0000 -0.0001 -0.0001  0.0172
 
 occupancies and eigenvectors
 
  o =  0.0158  v =  0.0000  0.0000  0.0000  0.0000  0.0000  0.6094  0.0092 -0.7927  0.0112 -0.0008      0.0000  0.0000  0.0000  0.0000  0.0000  0.0000  0.0000  0.0000  0.0000  0.0000
  o =  0.0172  v =  0.0000  0.0000  0.0000  0.0000  0.0000  0.0018 -0.0134  0.0005  0.0158  0.9998      0.0000  0.0000  0.0000  0.0000  0.0000  0.0000  0.0000  0.0000  0.0000  0.0000
  o =  0.0203  v =  0.0000  0.0000  0.0000  0.0000  0.0000 -0.0017  0.7057 -0.0032 -0.7082  0.0207      0.0000  0.0000  0.0000  0.0000  0.0000  0.0000  0.0000  0.0000  0.0000  0.0000
  o =  0.0698  v =  0.0000  0.0000  0.0000  0.0000  0.0000  0.0179  0.7080  0.0319  0.7053 -0.0017      0.0000  0.0000  0.0000  0.0000  0.0000  0.0000  0.0000  0.0000  0.0000  0.0000
  o =  0.0778  v =  0.0000  0.0000  0.0000  0.0000  0.0000 -0.7927  0.0215 -0.6087  0.0261  0.0016      0.0000  0.0000  0.0000  0.0000  0.0000  0.0000  0.0000  0.0000  0.0000  0.0000
  o =  0.9380  v =  0.5953  0.0105 -0.8033  0.0133 -0.0005  0.0000  0.0000  0.0000  0.0000  0.0000      0.0000  0.0000  0.0000  0.0000  0.0000  0.0000  0.0000  0.0000  0.0000  0.0000
  o =  0.9418  v =  0.0016 -0.7041  0.0036  0.7064  0.0727  0.0000  0.0000  0.0000  0.0000  0.0000      0.0000  0.0000  0.0000  0.0000  0.0000  0.0000  0.0000  0.0000  0.0000  0.0000
  o =  0.9423  v =  0.0013  0.0524  0.0002 -0.0504  0.9974  0.0000  0.0000  0.0000  0.0000  0.0000      0.0000  0.0000  0.0000  0.0000  0.0000  0.0000  0.0000  0.0000  0.0000  0.0000
  o =  0.9766  v =  0.0633  0.7054  0.0677  0.7027 -0.0017  0.0000  0.0000  0.0000  0.0000  0.0000      0.0000  0.0000  0.0000  0.0000  0.0000  0.0000  0.0000  0.0000  0.0000  0.0000
  o =  0.9790  v = -0.8010  0.0622 -0.5917  0.0667  0.0012  0.0000  0.0000  0.0000  0.0000  0.0000      0.0000  0.0000  0.0000  0.0000  0.0000  0.0000  0.0000  0.0000  0.0000  0.0000
[...]
    1        0.182   6.156   4.938  11.276
    2        0.169   6.154   4.960  11.284
    3        0.182   6.156   4.938  11.276
    4        0.182   6.155   4.937  11.274
    5        0.165   6.148   4.952  11.266
    6        0.169   6.154   4.960  11.284
    7        0.165   6.149   4.952  11.266
    8        0.166   6.150   4.955  11.272
    9        0.168   6.153   4.959  11.281
   10        0.167   6.151   4.956  11.274
   11        0.168   6.153   4.959  11.281
   12        0.168   6.153   4.958  11.280
   13        0.167   6.151   4.955  11.273
   14        0.167   6.151   4.956  11.274
   15        0.167   6.151   4.955  11.273
   16        0.165   6.149   4.953  11.267
   17        0.168   6.153   4.959  11.279
   18        0.167   6.152   4.958  11.278
   19        0.168   6.153   4.959  11.279
   20        0.169   6.154   4.960  11.283
   21        0.168   6.153   4.958  11.278
   22        0.167   6.152   4.958  11.278
   23        0.168   6.153   4.958  11.278
   24        0.168   6.154   4.960  11.282
   25        0.169   6.155   4.962  11.286
   26        0.170   6.157   4.963  11.290
   27        0.169   6.155   4.962  11.286
   28        0.169   6.155   4.962  11.286
   29        0.167   6.151   4.956  11.273
   30        0.170   6.157   4.963  11.290
   31        0.167   6.151   4.956  11.273
   32        0.156   6.137   4.937  11.230
   33        0.167   6.152   4.957  11.277
   34        0.166   6.151   4.955  11.272
   35        0.167   6.152   4.957  11.277
   36        0.168   6.153   4.960  11.281
   37        0.167   6.152   4.957  11.276
   38        0.166   6.151   4.955  11.272
   39        0.167   6.152   4.957  11.276
   40        0.168   6.154   4.959  11.281
   41        0.166   6.150   4.955  11.271
   42        0.170   6.156   4.962  11.287
   43        0.166   6.150   4.955  11.271
   44        0.167   6.152   4.958  11.278
   45        0.160   6.141   4.945  11.245
   46        0.170   6.156   4.962  11.287
   47        0.160   6.141   4.945  11.245
   48        0.154   6.134   4.931  11.218
   49        0.168   6.153   4.958  11.279
   50        0.167   6.152   4.957  11.277
   51        0.168   6.153   4.958  11.279
   52        0.168   6.153   4.959  11.280
   53        0.167   6.152   4.958  11.277
   54        0.167   6.152   4.957  11.277
   55        0.167   6.152   4.958  11.277
   56        0.167   6.152   4.958  11.277
   57        0.168   6.153   4.959  11.281
   58        0.168   6.154   4.960  11.282
   59        0.168   6.153   4.959  11.281
   60        0.168   6.154   4.961  11.283
   61        0.166   6.150   4.955  11.271
   62        0.168   6.154   4.960  11.282
   63        0.166   6.150   4.955  11.271
   64        0.167   6.151   4.956  11.274
   65        0.168   6.154   4.960  11.282
   66        0.170   6.156   4.962  11.287
   67        0.168   6.154   4.960  11.282
   68        0.168   6.153   4.959  11.280
   69        0.166   6.150   4.955  11.272
   70        0.170   6.156   4.962  11.287
   71        0.166   6.150   4.955  11.272
   72        0.155   6.137   4.937  11.229
   73        1.727   4.360   0.000   6.087
   74        1.727   4.362   0.000   6.089
   75        1.727   4.362   0.000   6.089
   76        1.726   4.357   0.000   6.083
   77        1.727   4.360   0.000   6.087
   78        1.727   4.362   0.000   6.089
   79        1.728   4.356   0.000   6.084
   80        1.726   4.359   0.000   6.086
   81        1.726   4.356   0.000   6.082
   82        1.727   4.362   0.000   6.089
   83        1.726   4.357   0.000   6.083
   84        1.726   4.359   0.000   6.086
   85        1.726   4.356   0.000   6.082
   86        1.726   4.361   0.000   6.087
   87        1.726   4.363   0.000   6.089
   88        1.726   4.363   0.000   6.089
   89        1.726   4.363   0.000   6.090
   90        1.726   4.360   0.000   6.086
   91        1.727   4.366   0.000   6.092
   92        1.726   4.363   0.000   6.089
   93        1.726   4.363   0.000   6.090
   94        1.726   4.363   0.000   6.089
   95        1.726   4.360   0.000   6.086
   96        1.726   4.362   0.000   6.088
   97        1.726   4.362   0.000   6.088
   98        1.726   4.360   0.000   6.086
   99        1.727   4.366   0.000   6.092
  100        1.726   4.362   0.000   6.088
  101        1.726   4.362   0.000   6.088
  102        1.726   4.359   0.000   6.086
  103        1.726   4.349   0.000   6.075
  104        1.727   4.360   0.000   6.087
  105        1.726   4.363   0.000   6.089
  106        1.726   4.362   0.000   6.089
  107        1.726   4.361   0.000   6.087
  108        1.727   4.360   0.000   6.087
  109        1.726   4.363   0.000   6.089
  110        1.726   4.362   0.000   6.089
  111        1.727   4.363   0.000   6.089
  112        1.727   4.364   0.000   6.090
  113        1.727   4.361   0.000   6.087
  114        1.726   4.362   0.000   6.089
  115        1.726   4.361   0.000   6.087
  116        1.727   4.363   0.000   6.090
  117        1.727   4.361   0.000   6.087
  118        1.727   4.363   0.000   6.090
  119        1.727   4.364   0.000   6.092
  120        1.727   4.363   0.000   6.090
  121        1.726   4.362   0.000   6.088
  122        1.727   4.365   0.000   6.092
  123        1.726   4.362   0.000   6.088
  124        1.727   4.363   0.000   6.090
  125        1.726   4.362   0.000   6.088
  126        1.726   4.362   0.000   6.088
  127        1.727   4.364   0.000   6.091
  128        1.726   4.362   0.000   6.089
  129        1.726   4.363   0.000   6.089
  130        1.727   4.365   0.000   6.092
  131        1.726   4.362   0.000   6.088
  132        1.726   4.362   0.000   6.089
  133        1.726   4.363   0.000   6.089
  134        1.726   4.359   0.000   6.086
  135        1.726   4.361   0.000   6.087
  136        1.726   4.363   0.000   6.089
  137        1.726   4.362   0.000   6.088
  138        1.726   4.360   0.000   6.086
  139        1.726   4.359   0.000   6.086
  140        1.726   4.363   0.000   6.089
  141        1.726   4.362   0.000   6.088
  142        1.726   4.361   0.000   6.088
  143        1.726   4.361   0.000   6.087
  144        1.727   4.361   0.000   6.088
  145        1.727   4.364   0.000   6.090
  146        1.726   4.360   0.000   6.086
  147        1.726   4.359   0.000   6.086
  148        1.727   4.361   0.000   6.088
  149        1.727   4.364   0.000   6.090
  150        1.726   4.363   0.000   6.089
  151        1.727   4.364   0.000   6.091
  152        1.726   4.362   0.000   6.088
  153        1.726   4.362   0.000   6.088
  154        1.726   4.362   0.000   6.089
  155        1.726   4.360   0.000   6.086
  156        1.726   4.362   0.000   6.088
  157        1.726   4.362   0.000   6.088
  158        1.726   4.359   0.000   6.086
  159        1.726   4.361   0.000   6.087
  160        1.728   4.366   0.000   6.093
  161        1.728   4.366   0.000   6.093
  162        1.726   4.362   0.000   6.089
  163        1.726   4.360   0.000   6.086
  164        1.728   4.366   0.000   6.093
  165        1.728   4.366   0.000   6.093
  166        1.731   4.348   0.000   6.079
  167        1.727   4.363   0.000   6.090
  168        1.727   4.363   0.000   6.089
  169        1.727   4.361   0.000   6.088
  170        1.726   4.360   0.000   6.087
  171        1.726   4.361   0.000   6.087
  172        1.727   4.363   0.000   6.089
  173        1.727   4.361   0.000   6.088
  174        1.726   4.362   0.000   6.088
  175        1.727   4.362   0.000   6.089
  176        1.726   4.362   0.000   6.089
  177        1.726   4.362   0.000   6.089
  178        1.726   4.360   0.000   6.087
  179        1.726   4.361   0.000   6.087
  180        1.726   4.362   0.000   6.089
  181        1.726   4.362   0.000   6.089
  182        1.726   4.362   0.000   6.089
  183        1.726   4.360   0.000   6.087
  184        1.726   4.364   0.000   6.090
  185        1.726   4.362   0.000   6.089
  186        1.726   4.361   0.000   6.088
  187        1.726   4.361   0.000   6.088
  188        1.726   4.364   0.000   6.090
  189        1.726   4.362   0.000   6.089
  190        1.726   4.363   0.000   6.089
  191        1.726   4.362   0.000   6.088
  192        1.726   4.356   0.000   6.082
  193        1.726   4.359   0.000   6.085
  194        1.726   4.361   0.000   6.088
  195        1.726   4.361   0.000   6.088
  196        1.726   4.356   0.000   6.082
  197        1.726   4.359   0.000   6.085
  198        1.726   4.363   0.000   6.089
  199        1.726   4.363   0.000   6.089
  200        1.726   4.362   0.000   6.088
  201        1.727   4.363   0.000   6.089
  202        1.727   4.363   0.000   6.090
  203        1.726   4.363   0.000   6.089
  204        1.726   4.362   0.000   6.088
  205        1.727   4.363   0.000   6.089
  206        1.726   4.360   0.000   6.086
  207        1.726   4.356   0.000   6.082
  208        1.726   4.363   0.000   6.089
  209        1.726   4.363   0.000   6.089
  210        1.727   4.363   0.000   6.090
  211        1.726   4.363   0.000   6.089
  212        1.726   4.363   0.000   6.089
  213        1.726   4.363   0.000   6.089
  214        1.726   4.359   0.000   6.085
  215        1.726   4.359   0.000   6.086
  216        1.731   4.348   0.000   6.079
  217        0.535   0.006   0.000   0.541
--------------------------------------------------
tot        261.2291070.951 356.8241689.004
 


 magnetization (x)
 
# of ion       s       p       d       tot
------------------------------------------
    1        0.020   0.019   4.531   4.569
    2       -0.018  -0.018  -4.567  -4.603
    3        0.020   0.019   4.531   4.570
    4       -0.017  -0.017  -4.525  -4.559
    5        0.018   0.018   4.571   4.607
    6       -0.018  -0.018  -4.567  -4.603
    7        0.018   0.018   4.571   4.607
    8       -0.018  -0.018  -4.570  -4.606
    9        0.018   0.018   4.568   4.603
   10       -0.018  -0.018  -4.569  -4.604
   11        0.018   0.018   4.568   4.603
   12       -0.018  -0.018  -4.568  -4.604
   13        0.018   0.018   4.570   4.605
   14       -0.018  -0.018  -4.569  -4.604
   15        0.018   0.018   4.570   4.605
   16       -0.017  -0.017  -4.571  -4.606
   17        0.018   0.018   4.568   4.604
   18       -0.018  -0.018  -4.569  -4.604
   19        0.018   0.018   4.568   4.604
   20       -0.018  -0.018  -4.567  -4.603
   21        0.018   0.018   4.568   4.604
   22       -0.018  -0.018  -4.569  -4.604
   23        0.018   0.018   4.568   4.604
   24       -0.018  -0.018  -4.568  -4.603
   25        0.018   0.018   4.566   4.602
   26       -0.017  -0.018  -4.564  -4.599
   27        0.018   0.018   4.566   4.602
   28       -0.017  -0.018  -4.567  -4.602
   29        0.018   0.018   4.570   4.606
   30       -0.017  -0.018  -4.564  -4.599
   31        0.018   0.018   4.570   4.606
   32       -0.018  -0.018  -4.581  -4.617
   33        0.018   0.018   4.569   4.604
   34       -0.018  -0.018  -4.570  -4.606
   35        0.018   0.018   4.569   4.604
   36       -0.017  -0.018  -4.566  -4.601
   37        0.018   0.018   4.568   4.604
   38       -0.018  -0.018  -4.570  -4.606
   39        0.018   0.018   4.568   4.604
   40       -0.018  -0.018  -4.568  -4.603
   41        0.018   0.018   4.569   4.605
   42       -0.018  -0.018  -4.566  -4.601
   43        0.018   0.018   4.569   4.605
   44       -0.018  -0.018  -4.569  -4.604
   45        0.018   0.017   4.572   4.608
   46       -0.018  -0.018  -4.566  -4.601
   47        0.018   0.017   4.572   4.608
   48       -0.019  -0.019  -4.582  -4.620
   49        0.018   0.018   4.568   4.604
   50       -0.018  -0.018  -4.568  -4.604
   51        0.018   0.018   4.568   4.604
   52       -0.018  -0.018  -4.568  -4.603
   53        0.018   0.018   4.569   4.604
   54       -0.018  -0.018  -4.568  -4.604
   55        0.018   0.018   4.569   4.604
   56       -0.017  -0.018  -4.568  -4.603
   57        0.018   0.018   4.568   4.603
   58       -0.018  -0.018  -4.568  -4.603
   59        0.018   0.018   4.568   4.603
   60       -0.018  -0.018  -4.567  -4.603
   61        0.018   0.018   4.570   4.605
   62       -0.018  -0.018  -4.568  -4.603
   63        0.018   0.018   4.570   4.605
   64       -0.018  -0.018  -4.570  -4.605
   65        0.018   0.018   4.567   4.603
   66       -0.018  -0.018  -4.565  -4.601
   67        0.018   0.018   4.567   4.603
   68       -0.017  -0.018  -4.568  -4.603
   69        0.018   0.018   4.570   4.606
   70       -0.018  -0.018  -4.565  -4.601
   71        0.018   0.018   4.570   4.606
   72       -0.018  -0.018  -4.581  -4.618
   73       -0.002  -0.016   0.000  -0.018
   74       -0.002  -0.015   0.000  -0.017
   75        0.002   0.019   0.000   0.021
   76        0.002   0.017   0.000   0.019
   77       -0.002  -0.016   0.000  -0.018
   78       -0.002  -0.015   0.000  -0.017
   79        0.003   0.028   0.000   0.030
   80       -0.002  -0.023   0.000  -0.025
   81       -0.002  -0.014   0.000  -0.016
   82        0.002   0.019   0.000   0.021
   83        0.002   0.017   0.000   0.019
   84       -0.002  -0.023   0.000  -0.025
   85       -0.002  -0.014   0.000  -0.016
   86        0.002   0.020   0.000   0.022
   87        0.002   0.019   0.000   0.021
   88       -0.002  -0.019   0.000  -0.021
   89       -0.002  -0.019   0.000  -0.021
   90        0.002   0.017   0.000   0.019
   91        0.002   0.020   0.000   0.022
   92       -0.002  -0.019   0.000  -0.021
   93       -0.002  -0.019   0.000  -0.021
   94        0.002   0.018   0.000   0.021
   95        0.002   0.020   0.000   0.022
   96       -0.002  -0.020   0.000  -0.022
   97       -0.002  -0.020   0.000  -0.022
   98        0.002   0.017   0.000   0.019
   99        0.002   0.020   0.000   0.022
  100       -0.002  -0.020   0.000  -0.022
  101       -0.002  -0.020   0.000  -0.022
  102        0.002   0.021   0.000   0.023
  103        0.002   0.033   0.000   0.036
  104       -0.002  -0.021   0.000  -0.023
  105       -0.002  -0.019   0.000  -0.021
  106        0.002   0.019   0.000   0.021
  107        0.002   0.021   0.000   0.023
  108       -0.002  -0.021   0.000  -0.023
  109       -0.002  -0.019   0.000  -0.021
  110        0.002   0.019   0.000   0.021
  111        0.002   0.020   0.000   0.022
  112       -0.002  -0.022   0.000  -0.024
  113       -0.002  -0.018   0.000  -0.020
  114        0.002   0.019   0.000   0.021
  115        0.002   0.021   0.000   0.023
  116       -0.002  -0.022   0.000  -0.024
  117       -0.002  -0.018   0.000  -0.020
  118        0.002   0.019   0.000   0.021
  119        0.002   0.024   0.000   0.026
  120       -0.002  -0.020   0.000  -0.022
  121       -0.002  -0.019   0.000  -0.021
  122        0.002   0.021   0.000   0.024
  123        0.002   0.018   0.000   0.020
  124       -0.002  -0.020   0.000  -0.022
  125       -0.002  -0.019   0.000  -0.021
  126        0.002   0.020   0.000   0.022
  127        0.002   0.019   0.000   0.021
  128       -0.002  -0.021   0.000  -0.023
  129       -0.002  -0.020   0.000  -0.022
  130        0.002   0.021   0.000   0.023
  131        0.002   0.018   0.000   0.020
  132       -0.002  -0.021   0.000  -0.023
  133       -0.002  -0.020   0.000  -0.022
  134        0.002   0.026   0.000   0.028
  135        0.002   0.019   0.000   0.021
  136       -0.002  -0.019   0.000  -0.022
  137       -0.002  -0.020   0.000  -0.022
  138        0.002   0.020   0.000   0.022
  139        0.002   0.021   0.000   0.023
  140       -0.002  -0.019   0.000  -0.022
  141       -0.002  -0.020   0.000  -0.022
  142        0.002   0.019   0.000   0.022
  143        0.002   0.020   0.000   0.022
  144       -0.002  -0.018   0.000  -0.020
  145       -0.002  -0.022   0.000  -0.024
  146        0.002   0.020   0.000   0.022
  147        0.002   0.021   0.000   0.023
  148       -0.002  -0.018   0.000  -0.020
  149       -0.002  -0.022   0.000  -0.024
  150        0.002   0.019   0.000   0.021
  151        0.002   0.023   0.000   0.026
  152       -0.002  -0.021   0.000  -0.023
  153       -0.002  -0.021   0.000  -0.023
  154        0.002   0.017   0.000   0.019
  155        0.002   0.015   0.000   0.016
  156       -0.002  -0.021   0.000  -0.023
  157       -0.002  -0.021   0.000  -0.023
  158        0.002   0.016   0.000   0.018
  159        0.002   0.017   0.000   0.019
  160       -0.002  -0.026   0.000  -0.028
  161       -0.002  -0.026   0.000  -0.028
  162        0.002   0.017   0.000   0.019
  163        0.002   0.015   0.000   0.016
  164       -0.002  -0.026   0.000  -0.028
  165       -0.002  -0.026   0.000  -0.028
  166       -0.000   0.005   0.000   0.004
  167        0.002   0.019   0.000   0.022
  168       -0.002  -0.019   0.000  -0.021
  169       -0.002  -0.020   0.000  -0.022
  170        0.002   0.022   0.000   0.025
  171        0.002   0.020   0.000   0.022
  172       -0.002  -0.019   0.000  -0.021
  173       -0.002  -0.020   0.000  -0.022
  174        0.002   0.021   0.000   0.023
  175        0.002   0.018   0.000   0.020
  176       -0.002  -0.019   0.000  -0.022
  177       -0.002  -0.020   0.000  -0.022
  178        0.002   0.022   0.000   0.025
  179        0.002   0.020   0.000   0.022
  180       -0.002  -0.019   0.000  -0.022
  181       -0.002  -0.020   0.000  -0.022
  182        0.002   0.021   0.000   0.023
  183        0.002   0.021   0.000   0.023
  184       -0.002  -0.017   0.000  -0.019
  185       -0.002  -0.019   0.000  -0.021
  186        0.002   0.020   0.000   0.022
  187        0.002   0.019   0.000   0.021
  188       -0.002  -0.017   0.000  -0.019
  189       -0.002  -0.019   0.000  -0.021
  190        0.002   0.019   0.000   0.021
  191        0.002   0.020   0.000   0.022
  192       -0.002  -0.014   0.000  -0.016
  193       -0.002  -0.023   0.000  -0.025
  194        0.002   0.020   0.000   0.022
  195        0.002   0.019   0.000   0.021
  196       -0.002  -0.014   0.000  -0.016
  197       -0.002  -0.023   0.000  -0.025
  198        0.002   0.021   0.000   0.023
  199        0.002   0.020   0.000   0.022
  200       -0.002  -0.019   0.000  -0.021
  201       -0.002  -0.021   0.000  -0.023
  202        0.002   0.021   0.000   0.023
  203        0.002   0.017   0.000   0.019
  204       -0.002  -0.019   0.000  -0.021
  205       -0.002  -0.021   0.000  -0.023
  206        0.002   0.021   0.000   0.024
  207        0.002   0.022   0.000   0.024
  208       -0.002  -0.020   0.000  -0.022
  209       -0.002  -0.021   0.000  -0.023
  210        0.002   0.021   0.000   0.023
  211        0.002   0.017   0.000   0.019
  212       -0.002  -0.020   0.000  -0.022
  213       -0.002  -0.021   0.000  -0.023
  214        0.002   0.027   0.000   0.029
  215        0.002   0.019   0.000   0.021
  216       -0.000   0.004   0.000   0.004
  217       -0.004   0.001   0.000  -0.003
--------------------------------------------------
tot          0.002  -0.015  -0.030  -0.043
 

 total amount of memory used by VASP MPI-rank0   697375. kBytes
=======================================================================

   base      :      30000. kBytes
   nonl-proj :     102460. kBytes
   fftplans  :      32099. kBytes
   grid      :      29521. kBytes
   one-center:       1150. kBytes
   wavefun   :     502145. kBytes
 
  
  
 General timing and accounting informations for this job:
 ========================================================
  
                  Total CPU time used (sec):     1189.976
                            User time (sec):     1163.346
                          System time (sec):       26.630
                         Elapsed time (sec):     1286.913
  
                   Maximum memory used (kb):      920788.
                   Average memory used (kb):           0.
  
                          Minor page faults:       273326
                          Major page faults:           15
                 Voluntary context switches:        10077
