       N       E                     dE             d eps       ncg     rms          rms(c)
DAV:   1     0.653886840023E+03    0.65389E+03   -0.32754E+04  1296   0.178E+03
DAV:   2     0.574820851977E+01   -0.64814E+03   -0.63151E+03  1464   0.497E+02
DAV:   3    -0.408049892580E+02   -0.46553E+02   -0.46364E+02  1560   0.148E+02
DAV:   4    -0.414135904138E+02   -0.60860E+00   -0.60851E+00  1440   0.185E+01
DAV:   5    -0.414231507483E+02   -0.95603E-02   -0.95603E-02  1548   0.224E+00    0.247E+01
DAV:   6    -0.393336468417E+02    0.20895E+01   -0.15758E+01  1596   0.319E+01    0.159E+01
DAV:   7    -0.399759843433E+02   -0.64234E+00   -0.15651E+00  1536   0.107E+01    0.118E+01
DAV:   8    -0.398888263896E+02    0.87158E-01   -0.51881E-01  1524   0.595E+00    0.473E+00
DAV:   9    -0.401637393871E+02   -0.27491E+00   -0.73567E-02  1428   0.258E+00    0.137E+00
DAV:  10    -0.401641942758E+02   -0.45489E-03   -0.15928E-02  1536   0.101E+00    0.251E-01
DAV:  11    -0.401641564913E+02    0.37784E-04   -0.15478E-03  1392   0.268E-01    0.137E-01
DAV:  12    -0.401641991874E+02   -0.42696E-04   -0.38136E-05  1764   0.825E-02    0.625E-02
DAV:  13    -0.401642055041E+02   -0.63167E-05   -0.38104E-05  1392   0.337E-02    0.214E-02
DAV:  14    -0.401642070418E+02   -0.15377E-05   -0.18996E-06  1212   0.139E-02    0.394E-03
DAV:  15    -0.401642072276E+02   -0.18579E-06   -0.15045E-07   648   0.335E-03
   1 F= -.40164207E+02 E0= -.40164207E+02  d E =0.000000E+00  mag=     0.0000
