 vasp.5.4.4.18Apr17-6-g9f103f2a35 (build Apr 27 2017 11:13:10) complex          
  
 executed on           IFC91_ompi date 2020.05.13  11:11:34
 running on   12 total cores
 distrk:  each k-point on   12 cores,    1 groups
 distr:  one band on NCORES_PER_BAND=   1 cores,   12 groups


--------------------------------------------------------------------------------------------------------


 INCAR:
 POTCAR:    PAW Mn_pv 02Aug2007                   
 POTCAR:    PAW F 31May2000                       

 ----------------------------------------------------------------------------- 
|                                                                             |
|           W    W    AA    RRRRR   N    N  II  N    N   GGGG   !!!           |
|           W    W   A  A   R    R  NN   N  II  NN   N  G    G  !!!           |
|           W    W  A    A  R    R  N N  N  II  N N  N  G       !!!           |
|           W WW W  AAAAAA  RRRRR   N  N N  II  N  N N  G  GGG   !            |
|           WW  WW  A    A  R   R   N   NN  II  N   NN  G    G                |
|           W    W  A    A  R    R  N    N  II  N    N   GGGG   !!!           |
|                                                                             |
|      For optimal performance we recommend to set                            |
|        NCORE= 4 - approx SQRT( number of cores)                             |
|      NCORE specifies how many cores store one orbital (NPAR=cpu/NCORE).     |
|      This setting can  greatly improve the performance of VASP for DFT.     |
|      The default,   NCORE=1            might be grossly inefficient         |
|      on modern multi-core architectures or massively parallel machines.     |
|      Do your own testing !!!!                                               |
|      Unfortunately you need to use the default for GW and RPA calculations. |
|      (for HF NCORE is supported but not extensively tested yet)             |
|                                                                             |
 ----------------------------------------------------------------------------- 

 POTCAR:    PAW Mn_pv 02Aug2007                   
   VRHFIN =Mn: 3p4s3d                                                           
   LEXCH  = CA                                                                  
   EATOM  =  2028.0466 eV,  149.0572 Ry                                         
                                                                                
   TITEL  = PAW Mn_pv 02Aug2007                                                 
   LULTRA =        F    use ultrasoft PP ?                                      
   IUNSCR =        1    unscreen: 0-lin 1-nonlin 2-no                           
   RPACOR =    2.080    partial core radius                                     
   POMASS =   54.938; ZVAL   =   13.000    mass and valenz                      
   RCORE  =    2.300    outmost cutoff radius                                   
   RWIGS  =    2.500; RWIGS  =    1.323    wigner-seitz radius (au A)           
   ENMAX  =  269.944; ENMIN  =  202.458 eV                                      
   ICORE  =        3    local potential                                         
   LCOR   =        T    correct aug charges                                     
   LPAW   =        T    paw PP                                                  
   EAUG   =  569.085                                                            
   DEXC   =    0.000                                                            
   RMAX   =    2.343    core radius for proj-oper                               
   RAUG   =    1.300    factor for augmentation sphere                          
   RDEP   =    2.338    radius for radial grids                                 
   RDEPT  =    1.798    core radius for aug-charge                              
                                                                                
   Atomic configuration                                                         
    8 entries                                                                   
     n  l   j            E        occ.                                          
     1  0  0.50     -6393.6057   2.0000                                         
     2  0  0.50      -735.9993   2.0000                                         
     2  1  1.50      -624.3417   6.0000                                         
     3  0  0.50       -80.9782   2.0000                                         
     3  1  1.50       -50.3144   6.0000                                         
     3  2  2.50        -3.6171   6.0000                                         
     4  0  0.50        -4.3304   1.0000                                         
     4  3  2.50        -1.3606   0.0000                                         
   Description                                                                  
     l       E           TYP  RCUT    TYP  RCUT                                 
     1    -50.3143634     23  2.000                                             
     1     -1.3605826     23  2.000                                             
     2     -3.6171470     23  2.300                                             
     2     -4.9777296     23  2.300                                             
     0     -4.3303688     23  2.300                                             
     0      7.3408788     23  2.300                                             
     3      9.5240782     23  2.300                                             
  local pseudopotential read in
  partial core-charges read in
  partial kinetic energy density read in
  atomic valenz-charges read in
  non local Contribution for L=           1  read in
    real space projection operators read in
  non local Contribution for L=           1  read in
    real space projection operators read in
  non local Contribution for L=           2  read in
    real space projection operators read in
  non local Contribution for L=           2  read in
    real space projection operators read in
  non local Contribution for L=           0  read in
    real space projection operators read in
  non local Contribution for L=           0  read in
    real space projection operators read in
    PAW grid and wavefunctions read in
 
   number of l-projection  operators is LMAX  =           6
   number of lm-projection operators is LMMAX =          18
 
 POTCAR:    PAW F 31May2000                       
   VRHFIN =F: s2p5                                                              
   LEXCH  = CA                                                                  
   EATOM  =   658.3685 eV,   48.3887 Ry                                         
                                                                                
   TITEL  = PAW F 31May2000                                                     
   LULTRA =        F    use ultrasoft PP ?                                      
   IUNSCR =        1    unscreen: 0-lin 1-nonlin 2-no                           
   RPACOR =    1.200    partial core radius                                     
   POMASS =   18.998; ZVAL   =    7.000    mass and valenz                      
   RCORE  =    1.520    outmost cutoff radius                                   
   RWIGS  =    1.500; RWIGS  =    0.794    wigner-seitz radius (au A)           
   ENMAX  =  400.000; ENMIN  =  300.000 eV                                      
   ICORE  =        2    local potential                                         
   LCOR   =        T    correct aug charges                                     
   LPAW   =        T    paw PP                                                  
   EAUG   =  613.614                                                            
   DEXC   =    0.000                                                            
   RMAX   =    1.555    core radius for proj-oper                               
   RAUG   =    1.300    factor for augmentation sphere                          
   RDEP   =    1.539    radius for radial grids                                 
   RDEPT  =    1.299    core radius for aug-charge                              
                                                                                
   Atomic configuration                                                         
    4 entries                                                                   
     n  l   j            E        occ.                                          
     1  0  0.50      -658.3386   2.0000                                         
     2  0  0.50       -29.6221   2.0000                                         
     2  1  0.50       -11.2952   5.0000                                         
     3  2  1.50       -12.2452   0.0000                                         
   Description                                                                  
     l       E           TYP  RCUT    TYP  RCUT                                 
     0    -29.6221019     23  1.200                                             
     0     -9.5240782     23  1.200                                             
     1    -11.2951545     23  1.520                                             
     1      1.3605826     23  1.520                                             
     2    -12.2452434      7  1.500                                             
  local pseudopotential read in
  partial core-charges read in
  partial kinetic energy density read in
  kinetic energy density of atom read in
  atomic valenz-charges read in
  non local Contribution for L=           0  read in
    real space projection operators read in
  non local Contribution for L=           0  read in
    real space projection operators read in
  non local Contribution for L=           1  read in
    real space projection operators read in
  non local Contribution for L=           1  read in
    real space projection operators read in
    PAW grid and wavefunctions read in
 
   number of l-projection  operators is LMAX  =           4
   number of lm-projection operators is LMMAX =           8
 
  PAW Mn_pv 02Aug2007                   :
 energy of atom  1       EATOM=-2028.0466
 kinetic energy error for atom=    0.0055 (will be added to EATOM!!)
  PAW F 31May2000                       :
 energy of atom  2       EATOM= -658.3685
 kinetic energy error for atom=    0.0292 (will be added to EATOM!!)
 
 
 POSCAR: Mn  F                                   
  positions in cartesian coordinates
  No initial velocities read in
 exchange correlation table for  LEXCH =        2
   RHO(1)=    0.500       N(1)  =     2000
   RHO(2)=  100.500       N(2)  =     4000
 


--------------------------------------------------------------------------------------------------------


 ion  position               nearest neighbor table
   1  0.500  0.500  0.500-   3 2.06   4 2.06   5 2.10   6 2.10   5 2.10   6 2.10
   2  0.000  0.000  0.000-   5 2.06   6 2.06   3 2.10   4 2.10   3 2.10   4 2.10
   3  0.196  0.804  0.500-   1 2.06   2 2.10   2 2.10
   4  0.804  0.196  0.500-   1 2.06   2 2.10   2 2.10
   5  0.304  0.304  0.000-   2 2.06   1 2.10   1 2.10
   6  0.696  0.696  0.000-   2 2.06   1 2.10   1 2.10
 
  LATTYP: Found a simple tetragonal cell.
 ALAT       =     4.7995270320
 C/A-ratio  =     0.6771156592
  
  Lattice vectors:
  
 A1 = (   4.7995270320,   0.0000000000,   0.0000000000)
 A2 = (   0.0000000000,   4.7995270320,   0.0000000000)
 A3 = (   0.0000000000,   0.0000000000,   3.2498349099)


Analysis of symmetry for initial positions (statically):
=====================================================================
 Subroutine PRICEL returns:
 Original cell was already a primitive cell.
 

 Routine SETGRP: Setting up the symmetry group for a 
 simple tetragonal supercell.


 Subroutine GETGRP returns: Found 16 space group operations
 (whereof  8 operations were pure point group operations)
 out of a pool of 16 trial point group operations.


The static configuration has the point symmetry D_2h.
 The point group associated with its full space group is D_4h.


Analysis of symmetry for dynamics (positions and initial velocities):
=====================================================================
 Subroutine PRICEL returns:
 Original cell was already a primitive cell.
 

 Routine SETGRP: Setting up the symmetry group for a 
 simple tetragonal supercell.


 Subroutine GETGRP returns: Found 16 space group operations
 (whereof  8 operations were pure point group operations)
 out of a pool of 16 trial point group operations.


The dynamic configuration has the point symmetry D_2h.
 The point group associated with its full space group is D_4h.


Analysis of structural, dynamic, and magnetic symmetry:
=====================================================================
 Subroutine PRICEL returns:
 Original cell was already a primitive cell.
 

 Routine SETGRP: Setting up the symmetry group for a 
 simple tetragonal supercell.


 Subroutine GETGRP returns: Found 16 space group operations
 (whereof  8 operations were pure point group operations)
 out of a pool of 16 trial point group operations.


The magnetic configuration has the point symmetry D_2h.
 The point group associated with its full space group is D_4h.


 Subroutine INISYM returns: Found 16 space group operations
 (whereof  8 operations are pure point group operations),
 and found     1 'primitive' translations

 
 
 KPOINTS: KPOINTS created by Atomic Simulation Env

Automatic generation of k-mesh.
Space group operators:
 irot       det(A)        alpha          n_x          n_y          n_z        tau_x        tau_y        tau_z
    1     1.000000     0.000000     1.000000     0.000000     0.000000     0.000000     0.000000     0.000000
    2    -1.000000     0.000000     1.000000     0.000000     0.000000     0.000000     0.000000     0.000000
    3     1.000000   180.000000     0.000000     0.000000     1.000000     0.000000     0.000000     0.000000
    4    -1.000000   180.000000     0.000000     0.000000     1.000000     0.000000     0.000000     0.000000
    5     1.000000   180.000000     0.707107     0.707107     0.000000     0.000000     0.000000     0.000000
    6    -1.000000   180.000000     0.707107     0.707107     0.000000     0.000000     0.000000     0.000000
    7     1.000000   180.000000     0.707107    -0.707107     0.000000     0.000000     0.000000     0.000000
    8    -1.000000   180.000000     0.707107    -0.707107     0.000000     0.000000     0.000000     0.000000
    9     1.000000    90.000000     0.000000     0.000000    -1.000000     0.500000     0.500000     0.500000
   10    -1.000000    90.000000     0.000000     0.000000    -1.000000     0.500000     0.500000     0.500000
   11     1.000000    90.000000     0.000000     0.000000     1.000000     0.500000     0.500000     0.500000
   12    -1.000000    90.000000     0.000000     0.000000     1.000000     0.500000     0.500000     0.500000
   13     1.000000   180.000000     0.000000     1.000000     0.000000     0.500000     0.500000     0.500000
   14    -1.000000   180.000000     0.000000     1.000000     0.000000     0.500000     0.500000     0.500000
   15     1.000000   180.000000     1.000000     0.000000     0.000000     0.500000     0.500000     0.500000
   16    -1.000000   180.000000     1.000000     0.000000     0.000000     0.500000     0.500000     0.500000
 
 Subroutine IBZKPT returns following result:
 ===========================================
 
 Found      9 irreducible k-points:
 
 Following reciprocal coordinates:
            Coordinates               Weight
  0.125000  0.125000  0.083333      8.000000
  0.375000  0.125000  0.083333     16.000000
  0.375000  0.375000  0.083333      8.000000
  0.125000  0.125000  0.250000      8.000000
  0.375000  0.125000  0.250000     16.000000
  0.375000  0.375000  0.250000      8.000000
  0.125000  0.125000  0.416667      8.000000
  0.375000  0.125000  0.416667     16.000000
  0.375000  0.375000  0.416667      8.000000
 
 Following cartesian coordinates:
            Coordinates               Weight
  0.026044  0.026044  0.025642      8.000000
  0.078133  0.026044  0.025642     16.000000
  0.078133  0.078133  0.025642      8.000000
  0.026044  0.026044  0.076927      8.000000
  0.078133  0.026044  0.076927     16.000000
  0.078133  0.078133  0.076927      8.000000
  0.026044  0.026044  0.128212      8.000000
  0.078133  0.026044  0.128212     16.000000
  0.078133  0.078133  0.128212      8.000000
 
 TETIRR: Found    106 inequivalent tetrahedra from      576


--------------------------------------------------------------------------------------------------------




 Dimension of arrays:
   k-points           NKPTS =      9   k-points in BZ     NKDIM =      9   number of bands    NBANDS=     36
   number of dos      NEDOS =    301   number of ions     NIONS =      6
   non local maximal  LDIM  =      6   non local SUM 2l+1 LMDIM =     18
   total plane-waves  NPLWV =  15680
   max r-space proj   IRMAX =      1   max aug-charges    IRDMAX=  51037
   dimension x,y,z NGX =    28 NGY =   28 NGZ =   20
   dimension x,y,z NGXF=    56 NGYF=   56 NGZF=   40
   support grid    NGXF=   112 NGYF=  112 NGZF=   80
   ions per type =               2   4
   NGX,Y,Z   is equivalent  to a cutoff of   9.70,  9.70, 10.23 a.u.
   NGXF,Y,Z  is equivalent  to a cutoff of  19.40, 19.40, 20.46 a.u.

 SYSTEM =  unknown system                          
 POSCAR =  Mn  F                                   

 Startparameter for this run:
   NWRITE =      2    write-flag & timer
   PREC   = normal    normal or accurate (medium, high low for compatibility)
   ISTART =      0    job   : 0-new  1-cont  2-samecut
   ICHARG =      2    charge: 1-file 2-atom 10-const
   ISPIN  =      2    spin polarized calculation?
   LNONCOLLINEAR =      F non collinear calculations
   LSORBIT =      F    spin-orbit coupling
   INIWAV =      1    electr: 0-lowe 1-rand  2-diag
   LASPH  =      T    aspherical Exc in radial PAW
   METAGGA=      F    non-selfconsistent MetaGGA calc.

 Electronic Relaxation 1
   ENCUT  =  550.0 eV  40.42 Ry    6.36 a.u.   9.18  9.18  6.21*2*pi/ulx,y,z
   ENINI  =  550.0     initial cutoff
   ENAUG  =  613.6 eV  augmentation charge cutoff
   NELM   =     60;   NELMIN=  2; NELMDL= -5     # of ELM steps 
   EDIFF  = 0.1E-05   stopping-criterion for ELM
   LREAL  =      F    real-space projection
   NLSPLINE    = F    spline interpolate recip. space projectors
   LCOMPAT=      F    compatible to vasp.4.4
   GGA_COMPAT  = T    GGA compatible to vasp.4.4-vasp.4.6
   LMAXPAW     = -100 max onsite density
   LMAXMIX     =    4 max onsite mixed and CHGCAR
   VOSKOWN=      0    Vosko Wilk Nusair interpolation
   ROPT   =    0.00000   0.00000
 Ionic relaxation
   EDIFFG = 0.1E-04   stopping-criterion for IOM
   NSW    =      0    number of steps for IOM
   NBLOCK =      1;   KBLOCK =      1    inner block; outer block 
   IBRION =     -1    ionic relax: 0-MD 1-quasi-New 2-CG
   NFREE  =      0    steps in history (QN), initial steepest desc. (CG)
   ISIF   =      2    stress and relaxation
   IWAVPR =     10    prediction:  0-non 1-charg 2-wave 3-comb
   ISYM   =      2    0-nonsym 1-usesym 2-fastsym
   LCORR  =      T    Harris-Foulkes like correction to forces

   POTIM  = 0.5000    time-step for ionic-motion
   TEIN   =    0.0    initial temperature
   TEBEG  =    0.0;   TEEND  =   0.0 temperature during run
   SMASS  =  -3.00    Nose mass-parameter (am)
   estimated Nose-frequenzy (Omega)   =  0.10E-29 period in steps =****** mass=  -0.526E-27a.u.
   SCALEE = 1.0000    scale energy and forces
   NPACO  =    256;   APACO  = 16.0  distance and # of slots for P.C.
   PSTRESS=    0.0 pullay stress

  Mass of Ions in am
   POMASS =  54.94 19.00
  Ionic Valenz
   ZVAL   =  13.00  7.00
  Atomic Wigner-Seitz radii
   RWIGS  =  -1.00 -1.00
  virtual crystal weights 
   VCA    =   1.00  1.00
   NELECT =      54.0000    total number of electrons
   NUPDOWN=      -1.0000    fix difference up-down

 DOS related values:
   EMIN   =  10.00;   EMAX   =-10.00  energy-range for DOS
   EFERMI =   0.00
   ISMEAR =    -5;   SIGMA  =   0.20  broadening in eV -4-tet -1-fermi 0-gaus

 Electronic relaxation 2 (details)
   IALGO  =     38    algorithm
   LDIAG  =      T    sub-space diagonalisation (order eigenvalues)
   LSUBROT=      F    optimize rotation matrix (better conditioning)
   TURBO    =      0    0=normal 1=particle mesh
   IRESTART =      0    0=no restart 2=restart with 2 vectors
   NREBOOT  =      0    no. of reboots
   NMIN     =      0    reboot dimension
   EREF     =   0.00    reference energy to select bands
   IMIX   =      4    mixing-type and parameters
     AMIX     =   0.40;   BMIX     =  1.00
     AMIX_MAG =   1.60;   BMIX_MAG =  1.00
     AMIN     =   0.10
     WC   =   100.;   INIMIX=   1;  MIXPRE=   1;  MAXMIX= -45

 Intra band minimization:
   WEIMIN = 0.0000     energy-eigenvalue tresh-hold
   EBREAK =  0.69E-08  absolut break condition
   DEPER  =   0.30     relativ break condition  

   TIME   =   0.40     timestep for ELM

  volume/ion in A,a.u.               =      12.48        84.20
  Fermi-wavevector in a.u.,A,eV,Ry     =   1.468205  2.774505 29.329070  2.155626
  Thomas-Fermi vector in A             =   2.583731
 
 Write flags
   LWAVE        =      T    write WAVECAR
   LDOWNSAMPLE  =      F    k-point downsampling of WAVECAR
   LCHARG       =      T    write CHGCAR
   LVTOT        =      F    write LOCPOT, total local potential
   LVHAR        =      F    write LOCPOT, Hartree potential only
   LELF         =      F    write electronic localiz. function (ELF)
   LORBIT       =     11    0 simple, 1 ext, 2 COOP (PROOUT), +10 PAW based schemes


 Dipole corrections
   LMONO  =      F    monopole corrections only (constant potential shift)
   LDIPOL =      F    correct potential (dipole corrections)
   IDIPOL =      0    1-x, 2-y, 3-z, 4-all directions 
   EPSILON=  1.0000000 bulk dielectric constant

 LDA+U is selected, type is set to LDAUTYPE =  2
   angular momentum for each species LDAUL =     2   -1
   U (eV)           for each species LDAUU =   4.0  0.0
   J (eV)           for each species LDAUJ =   0.0  0.0
 Exchange correlation treatment:
   GGA     =    --    GGA type
   LEXCH   =     2    internal setting for exchange type
   VOSKOWN=      0    Vosko Wilk Nusair interpolation
   LHFCALC =     F    Hartree Fock is set to
   LHFONE  =     F    Hartree Fock one center treatment
   AEXX    =    0.0000 exact exchange contribution

 Linear response parameters
   LEPSILON=     F    determine dielectric tensor
   LRPA    =     F    only Hartree local field effects (RPA)
   LNABLA  =     F    use nabla operator in PAW spheres
   LVEL    =     F    velocity operator in full k-point grid
   LINTERFAST=   F  fast interpolation
   KINTER  =     0    interpolate to denser k-point grid
   CSHIFT  =0.1000    complex shift for real part using Kramers Kronig
   OMEGAMAX=  -1.0    maximum frequency
   DEG_THRESHOLD= 0.2000000E-02 threshold for treating states as degnerate
   RTIME   =   -0.100 relaxation time in fs
  (WPLASMAI=    0.000 imaginary part of plasma frequency in eV, 0.658/RTIME)
   DFIELD  = 0.0000000 0.0000000 0.0000000 field for delta impulse in time
 
 Orbital magnetization related:
   ORBITALMAG=     F  switch on orbital magnetization
   LCHIMAG   =     F  perturbation theory with respect to B field
   DQ        =  0.001000  dq finite difference perturbation B field
   LLRAUG    =     F  two centre corrections for induced B field



--------------------------------------------------------------------------------------------------------


 Static calculation
 charge density and potential will be updated during run
 spin polarized calculation
 Variant of blocked Davidson
 Davidson routine will perform the subspace rotation
 perform sub-space diagonalisation
    after iterative eigenvector-optimisation
 modified Broyden-mixing scheme, WC =      100.0
 initial mixing is a Kerker type mixing with AMIX =  0.4000 and BMIX =      1.0000
 Hartree-type preconditioning will be used
 using additional bands            9
 reciprocal scheme for non local part
 use partial core corrections
 calculate Harris-corrections to forces 
   (improved forces if not selfconsistent)
 use of overlap-Matrix (Vanderbilt PP)
 Fermi weights with tetrahedron method with Bloechl corrections


--------------------------------------------------------------------------------------------------------


  energy-cutoff  :      550.00
  volume of cell :       74.86
      direct lattice vectors                 reciprocal lattice vectors
     4.799527032  0.000000000  0.000000000     0.208353863  0.000000000  0.000000000
     0.000000000  4.799527032  0.000000000     0.000000000  0.208353863  0.000000000
     0.000000000  0.000000000  3.249834910     0.000000000  0.000000000  0.307707938

  length of vectors
     4.799527032  4.799527032  3.249834910     0.208353863  0.208353863  0.307707938


 
 k-points in units of 2pi/SCALE and weight: KPOINTS created by Atomic Simulation Env
   0.02604423  0.02604423  0.02564233       0.083
   0.07813270  0.02604423  0.02564233       0.167
   0.07813270  0.07813270  0.02564233       0.083
   0.02604423  0.02604423  0.07692698       0.083
   0.07813270  0.02604423  0.07692698       0.167
   0.07813270  0.07813270  0.07692698       0.083
   0.02604423  0.02604423  0.12821164       0.083
   0.07813270  0.02604423  0.12821164       0.167
   0.07813270  0.07813270  0.12821164       0.083
 
 k-points in reciprocal lattice and weights: KPOINTS created by Atomic Simulation Env
   0.12500000  0.12500000  0.08333333       0.083
   0.37500000  0.12500000  0.08333333       0.167
   0.37500000  0.37500000  0.08333333       0.083
   0.12500000  0.12500000  0.25000000       0.083
   0.37500000  0.12500000  0.25000000       0.167
   0.37500000  0.37500000  0.25000000       0.083
   0.12500000  0.12500000  0.41666667       0.083
   0.37500000  0.12500000  0.41666667       0.167
   0.37500000  0.37500000  0.41666667       0.083
 
 position of ions in fractional coordinates (direct lattice) 
   0.50000000  0.50000000  0.50000000
   0.00000000  0.00000000  0.00000000
   0.19587222  0.80412778  0.50000000
   0.80412778  0.19587222  0.50000000
   0.30412778  0.30412778  0.00000000
   0.69587222  0.69587222  0.00000000
 
 position of ions in cartesian coordinates  (Angst):
   2.39976352  2.39976352  1.62491745
   0.00000000  0.00000000  0.00000000
   0.94009404  3.85943300  1.62491745
   3.85943300  0.94009404  1.62491745
   1.45966948  1.45966948  0.00000000
   3.33985755  3.33985755  0.00000000
 


--------------------------------------------------------------------------------------------------------


 k-point  1 :   0.1250 0.1250 0.0833  plane waves:    2178
 k-point  2 :   0.3750 0.1250 0.0833  plane waves:    2192
 k-point  3 :   0.3750 0.3750 0.0833  plane waves:    2197
 k-point  4 :   0.1250 0.1250 0.2500  plane waves:    2183
 k-point  5 :   0.3750 0.1250 0.2500  plane waves:    2187
 k-point  6 :   0.3750 0.3750 0.2500  plane waves:    2201
 k-point  7 :   0.1250 0.1250 0.4167  plane waves:    2194
 k-point  8 :   0.3750 0.1250 0.4167  plane waves:    2201
 k-point  9 :   0.3750 0.3750 0.4167  plane waves:    2189

 maximum and minimum number of plane-waves per node :      2201     2178

 maximum number of plane-waves:      2201
 maximum index in each direction: 
   IXMAX=    9   IYMAX=    9   IZMAX=    6
   IXMIN=   -9   IYMIN=   -9   IZMIN=   -6


 serial   3D FFT for wavefunctions
 parallel 3D FFT for charge:
    minimum data exchange during FFTs selected (reduces bandwidth)


 total amount of memory used by VASP MPI-rank0    42019. kBytes
=======================================================================

   base      :      30000. kBytes
   nonl-proj :       5935. kBytes
   fftplans  :       1718. kBytes
   grid      :       2211. kBytes
   one-center:        186. kBytes
   wavefun   :       1969. kBytes
 
     INWAV:  cpu time    0.0000: real time    0.0000
 Broyden mixing: mesh for mixing (old mesh)
   NGX = 19   NGY = 19   NGZ = 13
  (NGX  = 56   NGY  = 56   NGZ  = 40)
  gives a total of   4693 points

 initial charge density was supplied:
 charge density of overlapping atoms calculated
 number of electron      54.0000000 magnetization       0.0000000
 keeping initial charge density in first step


--------------------------------------------------------------------------------------------------------


 Maximum index for augmentation-charges         5238 (set IRDMAX)


--------------------------------------------------------------------------------------------------------


 First call to EWALD:  gamma=   0.421
 Maximum number of real-space cells 2x 2x 3
 Maximum number of reciprocal cells 3x 3x 2

    FEWALD:  cpu time    0.0010: real time    0.0010


--------------------------------------- Iteration      1(   1)  ---------------------------------------


    POTLOK:  cpu time    0.0057: real time    0.0057
    SETDIJ:  cpu time    0.2267: real time    0.2267
atom =   1  type =  1  l = 2
 
 onsite density matrix
 
spin component  1
 
  0.2837  0.0000  0.0000  0.0000  0.0000
  0.0000  0.2837  0.0000  0.0000  0.0000
  0.0000  0.0000  0.2837  0.0000  0.0000
  0.0000  0.0000  0.0000  0.2837  0.0000
  0.0000  0.0000  0.0000  0.0000  0.2837
 
spin component  2
 
  0.7701  0.0000  0.0000  0.0000  0.0000
  0.0000  0.7701  0.0000  0.0000  0.0000
  0.0000  0.0000  0.7701  0.0000  0.0000
  0.0000  0.0000  0.0000  0.7701  0.0000
  0.0000  0.0000  0.0000  0.0000  0.7701
 
 occupancies and eigenvectors
 
  o =  0.2837  v =  1.0000  0.0000  0.0000  0.0000  0.0000  0.0000  0.0000  0.0000  0.0000  0.0000      0.0000  0.0000  0.0000  0.0000  0.0000  0.0000  0.0000  0.0000  0.0000  0.0000
  o =  0.2837  v =  0.0000  1.0000  0.0000  0.0000  0.0000  0.0000  0.0000  0.0000  0.0000  0.0000      0.0000  0.0000  0.0000  0.0000  0.0000  0.0000  0.0000  0.0000  0.0000  0.0000
  o =  0.2837  v =  0.0000  0.0000  1.0000  0.0000  0.0000  0.0000  0.0000  0.0000  0.0000  0.0000      0.0000  0.0000  0.0000  0.0000  0.0000  0.0000  0.0000  0.0000  0.0000  0.0000
  o =  0.2837  v =  0.0000  0.0000  0.0000  1.0000  0.0000  0.0000  0.0000  0.0000  0.0000  0.0000      0.0000  0.0000  0.0000  0.0000  0.0000  0.0000  0.0000  0.0000  0.0000  0.0000
  o =  0.2837  v =  0.0000  0.0000  0.0000  0.0000  1.0000  0.0000  0.0000  0.0000  0.0000  0.0000      0.0000  0.0000  0.0000  0.0000  0.0000  0.0000  0.0000  0.0000  0.0000  0.0000
  o =  0.7701  v =  0.0000  0.0000  0.0000  0.0000  0.0000  1.0000  0.0000  0.0000  0.0000  0.0000      0.0000  0.0000  0.0000  0.0000  0.0000  0.0000  0.0000  0.0000  0.0000  0.0000
  o =  0.7701  v =  0.0000  0.0000  0.0000  0.0000  0.0000  0.0000  1.0000  0.0000  0.0000  0.0000      0.0000  0.0000  0.0000  0.0000  0.0000  0.0000  0.0000  0.0000  0.0000  0.0000
  o =  0.7701  v =  0.0000  0.0000  0.0000  0.0000  0.0000  0.0000  0.0000  1.0000  0.0000  0.0000      0.0000  0.0000  0.0000  0.0000  0.0000  0.0000  0.0000  0.0000  0.0000  0.0000
  o =  0.7701  v =  0.0000  0.0000  0.0000  0.0000  0.0000  0.0000  0.0000  0.0000  1.0000  0.0000      0.0000  0.0000  0.0000  0.0000  0.0000  0.0000  0.0000  0.0000  0.0000  0.0000
  o =  0.7701  v =  0.0000  0.0000  0.0000  0.0000  0.0000  0.0000  0.0000  0.0000  0.0000  1.0000      0.0000  0.0000  0.0000  0.0000  0.0000  0.0000  0.0000  0.0000  0.0000  0.0000
atom =   2  type =  1  l = 2
 
 onsite density matrix
 
spin component  1
 
  0.7701  0.0000  0.0000  0.0000  0.0000
  0.0000  0.7701  0.0000  0.0000  0.0000
  0.0000  0.0000  0.7701  0.0000  0.0000
  0.0000  0.0000  0.0000  0.7701  0.0000
  0.0000  0.0000  0.0000  0.0000  0.7701
 
spin component  2
 
  0.2837  0.0000  0.0000  0.0000  0.0000
  0.0000  0.2837  0.0000  0.0000  0.0000
  0.0000  0.0000  0.2837  0.0000  0.0000
  0.0000  0.0000  0.0000  0.2837  0.0000
  0.0000  0.0000  0.0000  0.0000  0.2837
 
 occupancies and eigenvectors
 
  o =  0.2837  v =  0.0000  0.0000  0.0000  0.0000  0.0000  1.0000  0.0000  0.0000  0.0000  0.0000      0.0000  0.0000  0.0000  0.0000  0.0000  0.0000  0.0000  0.0000  0.0000  0.0000
  o =  0.2837  v =  0.0000  0.0000  0.0000  0.0000  0.0000  0.0000  1.0000  0.0000  0.0000  0.0000      0.0000  0.0000  0.0000  0.0000  0.0000  0.0000  0.0000  0.0000  0.0000  0.0000
  o =  0.2837  v =  0.0000  0.0000  0.0000  0.0000  0.0000  0.0000  0.0000  1.0000  0.0000  0.0000      0.0000  0.0000  0.0000  0.0000  0.0000  0.0000  0.0000  0.0000  0.0000  0.0000
  o =  0.2837  v =  0.0000  0.0000  0.0000  0.0000  0.0000  0.0000  0.0000  0.0000  1.0000  0.0000      0.0000  0.0000  0.0000  0.0000  0.0000  0.0000  0.0000  0.0000  0.0000  0.0000
  o =  0.2837  v =  0.0000  0.0000  0.0000  0.0000  0.0000  0.0000  0.0000  0.0000  0.0000  1.0000      0.0000  0.0000  0.0000  0.0000  0.0000  0.0000  0.0000  0.0000  0.0000  0.0000
  o =  0.7701  v =  1.0000  0.0000  0.0000  0.0000  0.0000  0.0000  0.0000  0.0000  0.0000  0.0000      0.0000  0.0000  0.0000  0.0000  0.0000  0.0000  0.0000  0.0000  0.0000  0.0000
  o =  0.7701  v =  0.0000  1.0000  0.0000  0.0000  0.0000  0.0000  0.0000  0.0000  0.0000  0.0000      0.0000  0.0000  0.0000  0.0000  0.0000  0.0000  0.0000  0.0000  0.0000  0.0000
  o =  0.7701  v =  0.0000  0.0000  1.0000  0.0000  0.0000  0.0000  0.0000  0.0000  0.0000  0.0000      0.0000  0.0000  0.0000  0.0000  0.0000  0.0000  0.0000  0.0000  0.0000  0.0000
  o =  0.7701  v =  0.0000  0.0000  0.0000  1.0000  0.0000  0.0000  0.0000  0.0000  0.0000  0.0000      0.0000  0.0000  0.0000  0.0000  0.0000  0.0000  0.0000  0.0000  0.0000  0.0000
  o =  0.7701  v =  0.0000  0.0000  0.0000  0.0000  1.0000  0.0000  0.0000  0.0000  0.0000  0.0000      0.0000  0.0000  0.0000  0.0000  0.0000  0.0000  0.0000  0.0000  0.0000  0.0000
     EDDAV:  cpu time    0.2957: real time    0.3165
 BZINTS: Fermi energy: 18.292463; 54.000000 electrons
         Band energy: -72.561947;  BLOECHL correction: -0.022636
       DOS:  cpu time    0.0101: real time    0.0101
    --------------------------------------------
      LOOP:  cpu time    0.5382: real time    0.5590

 eigenvalue-minimisations  :  1296
 total energy-change (2. order) : 0.6538868E+03  (-0.3275428E+04)
 number of electron      54.0000000 magnetization       0.0000000
 augmentation part       54.0000000 magnetization       0.0000000

 Free energy of the ion-electron system (eV)
  ---------------------------------------------------
  alpha Z        PSCENC =       203.52042995
  Ewald energy   TEWEN  =     -4249.92954187
  -Hartree energ DENC   =     -2093.69576858
  -exchange      EXHF   =         0.00000000
  -V(xc)+E(xc)   XCENC  =       295.19148667
  PAW double counting   =      5431.03059579    -5549.10764102
  entropy T*S    EENTRO =         0.00000000
  eigenvalues    EBANDS =       -72.56194710
  atomic energy  EATOM  =      6689.43922617
  Solvation  Ediel_sol  =         0.00000000
  ---------------------------------------------------
  free energy    TOTEN  =       653.88684002 eV

  energy without entropy =      653.88684002  energy(sigma->0) =      653.88684002


--------------------------------------------------------------------------------------------------------




--------------------------------------- Iteration      1(   2)  ---------------------------------------


     EDDAV:  cpu time    0.3223: real time    0.3223
 BZINTS: Fermi energy:  4.206058; 54.000000 electrons
         Band energy:-720.700579;  BLOECHL correction:  0.000000
       DOS:  cpu time    0.0021: real time    0.0021
    --------------------------------------------
      LOOP:  cpu time    0.3245: real time    0.3245

 eigenvalue-minimisations  :  1464
 total energy-change (2. order) :-0.6481386E+03  (-0.6315094E+03)
 number of electron      54.0000000 magnetization       0.0000000
 augmentation part       54.0000000 magnetization       0.0000000

 Free energy of the ion-electron system (eV)
  ---------------------------------------------------
  alpha Z        PSCENC =       203.52042995
  Ewald energy   TEWEN  =     -4249.92954187
  -Hartree energ DENC   =     -2093.69576858
  -exchange      EXHF   =         0.00000000
  -V(xc)+E(xc)   XCENC  =       295.19148667
  PAW double counting   =      5431.03059579    -5549.10764102
  entropy T*S    EENTRO =         0.00000000
  eigenvalues    EBANDS =      -720.70057861
  atomic energy  EATOM  =      6689.43922617
  Solvation  Ediel_sol  =         0.00000000
  ---------------------------------------------------
  free energy    TOTEN  =         5.74820852 eV

  energy without entropy =        5.74820852  energy(sigma->0) =        5.74820852


--------------------------------------------------------------------------------------------------------




--------------------------------------- Iteration      1(   3)  ---------------------------------------


     EDDAV:  cpu time    0.3446: real time    0.3446
 BZINTS: Fermi energy:  3.485232; 54.000000 electrons
         Band energy:-767.253776;  BLOECHL correction:  0.000000
       DOS:  cpu time    0.0020: real time    0.0020
    --------------------------------------------
      LOOP:  cpu time    0.3466: real time    0.3466

 eigenvalue-minimisations  :  1560
 total energy-change (2. order) :-0.4655320E+02  (-0.4636365E+02)
 number of electron      54.0000000 magnetization       0.0000000
 augmentation part       54.0000000 magnetization       0.0000000

 Free energy of the ion-electron system (eV)
  ---------------------------------------------------
  alpha Z        PSCENC =       203.52042995
  Ewald energy   TEWEN  =     -4249.92954187
  -Hartree energ DENC   =     -2093.69576858
  -exchange      EXHF   =         0.00000000
  -V(xc)+E(xc)   XCENC  =       295.19148667
  PAW double counting   =      5431.03059579    -5549.10764102
  entropy T*S    EENTRO =         0.00000000
  eigenvalues    EBANDS =      -767.25377638
  atomic energy  EATOM  =      6689.43922617
  Solvation  Ediel_sol  =         0.00000000
  ---------------------------------------------------
  free energy    TOTEN  =       -40.80498926 eV

  energy without entropy =      -40.80498926  energy(sigma->0) =      -40.80498926


--------------------------------------------------------------------------------------------------------




--------------------------------------- Iteration      1(   4)  ---------------------------------------


     EDDAV:  cpu time    0.3195: real time    0.3195
 BZINTS: Fermi energy:  3.472695; 54.000000 electrons
         Band energy:-767.862378;  BLOECHL correction:  0.000000
       DOS:  cpu time    0.0017: real time    0.0017
    --------------------------------------------
      LOOP:  cpu time    0.3212: real time    0.3212

 eigenvalue-minimisations  :  1440
 total energy-change (2. order) :-0.6086012E+00  (-0.6085109E+00)
 number of electron      54.0000000 magnetization       0.0000000
 augmentation part       54.0000000 magnetization       0.0000000

 Free energy of the ion-electron system (eV)
  ---------------------------------------------------
  alpha Z        PSCENC =       203.52042995
  Ewald energy   TEWEN  =     -4249.92954187
  -Hartree energ DENC   =     -2093.69576858
  -exchange      EXHF   =         0.00000000
  -V(xc)+E(xc)   XCENC  =       295.19148667
  PAW double counting   =      5431.03059579    -5549.10764102
  entropy T*S    EENTRO =         0.00000000
  eigenvalues    EBANDS =      -767.86237754
  atomic energy  EATOM  =      6689.43922617
  Solvation  Ediel_sol  =         0.00000000
  ---------------------------------------------------
  free energy    TOTEN  =       -41.41359041 eV

  energy without entropy =      -41.41359041  energy(sigma->0) =      -41.41359041


--------------------------------------------------------------------------------------------------------




--------------------------------------- Iteration      1(   5)  ---------------------------------------


     EDDAV:  cpu time    0.3417: real time    0.3417
 BZINTS: Fermi energy:  3.460681; 54.000000 electrons
         Band energy:-767.871938;  BLOECHL correction:  0.000000
       DOS:  cpu time    0.0017: real time    0.0017
    CHARGE:  cpu time    0.0320: real time    0.0320
    MIXING:  cpu time    0.0004: real time    0.0004
    --------------------------------------------
      LOOP:  cpu time    0.3759: real time    0.3759

 eigenvalue-minimisations  :  1548
 total energy-change (2. order) :-0.9560335E-02  (-0.9560272E-02)
 number of electron      53.9999996 magnetization       0.0000000
 augmentation part       20.1237591 magnetization       0.0000000

 Broyden mixing:
  rms(total) = 0.24695E+01    rms(broyden)= 0.24695E+01
  rms(prec ) = 0.32071E+01
  weight for this iteration     100.00

 Free energy of the ion-electron system (eV)
  ---------------------------------------------------
  alpha Z        PSCENC =       203.52042995
  Ewald energy   TEWEN  =     -4249.92954187
  -Hartree energ DENC   =     -2093.69576858
  -exchange      EXHF   =         0.00000000
  -V(xc)+E(xc)   XCENC  =       295.19148667
  PAW double counting   =      5431.03059579    -5549.10764102
  entropy T*S    EENTRO =         0.00000000
  eigenvalues    EBANDS =      -767.87193787
  atomic energy  EATOM  =      6689.43922617
  Solvation  Ediel_sol  =         0.00000000
  ---------------------------------------------------
  free energy    TOTEN  =       -41.42315075 eV

  energy without entropy =      -41.42315075  energy(sigma->0) =      -41.42315075


--------------------------------------------------------------------------------------------------------




--------------------------------------- Iteration      1(   6)  ---------------------------------------


    POTLOK:  cpu time    0.0043: real time    0.0043
    SETDIJ:  cpu time    0.2267: real time    0.2267
atom =   1  type =  1  l = 2
 
 onsite density matrix
 
spin component  1
 
 -0.0730  0.0000  0.0049  0.0000 -0.0000
  0.0000 -0.0764  0.0000  0.0033  0.0000
  0.0049  0.0000 -0.0741  0.0000  0.0000
  0.0000  0.0033  0.0000 -0.0764  0.0000
 -0.0000  0.0000  0.0000  0.0000 -0.0829
 
spin component  2
 
  1.1007  0.0000  0.0137  0.0000 -0.0000
  0.0000  1.0985  0.0000  0.0123  0.0000
  0.0137  0.0000  1.0919  0.0000  0.0000
  0.0000  0.0123  0.0000  1.0985  0.0000
 -0.0000  0.0000  0.0000  0.0000  1.0886
 
 occupancies and eigenvectors
 
  o = -0.0829  v =  0.0000 -0.0000 -0.0000 -0.0000  1.0000  0.0000  0.0000  0.0000  0.0000  0.0000      0.0000  0.0000  0.0000  0.0000  0.0000  0.0000  0.0000  0.0000  0.0000  0.0000
  o = -0.0797  v =  0.0000 -0.7071 -0.0000  0.7071 -0.0000  0.0000  0.0000  0.0000  0.0000  0.0000      0.0000  0.0000  0.0000  0.0000  0.0000  0.0000  0.0000  0.0000  0.0000  0.0000
  o = -0.0785  v =  0.6638  0.0000 -0.7479 -0.0000 -0.0000  0.0000  0.0000  0.0000  0.0000  0.0000      0.0000  0.0000  0.0000  0.0000  0.0000  0.0000  0.0000  0.0000  0.0000  0.0000
  o = -0.0731  v = -0.0000 -0.7071  0.0000 -0.7071 -0.0000  0.0000  0.0000  0.0000  0.0000  0.0000      0.0000  0.0000  0.0000  0.0000  0.0000  0.0000  0.0000  0.0000  0.0000  0.0000
  o = -0.0686  v =  0.7479 -0.0000  0.6638 -0.0000  0.0000  0.0000  0.0000  0.0000  0.0000  0.0000      0.0000  0.0000  0.0000  0.0000  0.0000  0.0000  0.0000  0.0000  0.0000  0.0000
  o =  1.0820  v =  0.0000  0.0000  0.0000  0.0000  0.0000 -0.5884  0.0000  0.8086 -0.0000 -0.0000      0.0000  0.0000  0.0000  0.0000  0.0000  0.0000  0.0000  0.0000  0.0000  0.0000
  o =  1.0862  v =  0.0000  0.0000  0.0000  0.0000  0.0000 -0.0000 -0.7071  0.0000  0.7071 -0.0000      0.0000  0.0000  0.0000  0.0000  0.0000  0.0000  0.0000  0.0000  0.0000  0.0000
  o =  1.0886  v =  0.0000  0.0000  0.0000  0.0000  0.0000 -0.0000 -0.0000  0.0000  0.0000  1.0000      0.0000  0.0000  0.0000  0.0000  0.0000  0.0000  0.0000  0.0000  0.0000  0.0000
  o =  1.1107  v =  0.0000  0.0000  0.0000  0.0000  0.0000 -0.8086 -0.0000 -0.5884 -0.0000 -0.0000      0.0000  0.0000  0.0000  0.0000  0.0000  0.0000  0.0000  0.0000  0.0000  0.0000
  o =  1.1108  v =  0.0000  0.0000  0.0000  0.0000  0.0000  0.0000 -0.7071  0.0000 -0.7071  0.0000      0.0000  0.0000  0.0000  0.0000  0.0000  0.0000  0.0000  0.0000  0.0000  0.0000
atom =   2  type =  1  l = 2
 
 onsite density matrix
 
spin component  1
 
  1.1007  0.0000 -0.0137  0.0000 -0.0000
  0.0000  1.0985  0.0000 -0.0123  0.0000
 -0.0137  0.0000  1.0919  0.0000  0.0000
  0.0000 -0.0123  0.0000  1.0985  0.0000
 -0.0000  0.0000  0.0000  0.0000  1.0886
 
spin component  2
 
 -0.0730  0.0000 -0.0049  0.0000  0.0000
  0.0000 -0.0764  0.0000 -0.0033  0.0000
 -0.0049  0.0000 -0.0741  0.0000  0.0000
  0.0000 -0.0033  0.0000 -0.0764  0.0000
  0.0000  0.0000  0.0000  0.0000 -0.0829
 
 occupancies and eigenvectors
 
  o = -0.0829  v =  0.0000  0.0000  0.0000  0.0000  0.0000  0.0000  0.0000  0.0000  0.0000 -1.0000      0.0000  0.0000  0.0000  0.0000  0.0000  0.0000  0.0000  0.0000  0.0000  0.0000
  o = -0.0797  v =  0.0000  0.0000  0.0000  0.0000  0.0000  0.0000 -0.7071  0.0000 -0.7071 -0.0000      0.0000  0.0000  0.0000  0.0000  0.0000  0.0000  0.0000  0.0000  0.0000  0.0000
  o = -0.0785  v =  0.0000  0.0000  0.0000  0.0000  0.0000 -0.6638  0.0000 -0.7479  0.0000 -0.0000      0.0000  0.0000  0.0000  0.0000  0.0000  0.0000  0.0000  0.0000  0.0000  0.0000
  o = -0.0731  v =  0.0000  0.0000  0.0000  0.0000  0.0000  0.0000  0.7071  0.0000 -0.7071  0.0000      0.0000  0.0000  0.0000  0.0000  0.0000  0.0000  0.0000  0.0000  0.0000  0.0000
  o = -0.0686  v =  0.0000  0.0000  0.0000  0.0000  0.0000  0.7479  0.0000 -0.6638  0.0000 -0.0000      0.0000  0.0000  0.0000  0.0000  0.0000  0.0000  0.0000  0.0000  0.0000  0.0000
  o =  1.0820  v = -0.5884  0.0000 -0.8086  0.0000  0.0000  0.0000  0.0000  0.0000  0.0000  0.0000      0.0000  0.0000  0.0000  0.0000  0.0000  0.0000  0.0000  0.0000  0.0000  0.0000
  o =  1.0862  v = -0.0000 -0.7071 -0.0000 -0.7071 -0.0000  0.0000  0.0000  0.0000  0.0000  0.0000      0.0000  0.0000  0.0000  0.0000  0.0000  0.0000  0.0000  0.0000  0.0000  0.0000
  o =  1.0886  v =  0.0000 -0.0000  0.0000 -0.0000  1.0000  0.0000  0.0000  0.0000  0.0000  0.0000      0.0000  0.0000  0.0000  0.0000  0.0000  0.0000  0.0000  0.0000  0.0000  0.0000
  o =  1.1107  v = -0.8086 -0.0000  0.5884  0.0000  0.0000  0.0000  0.0000  0.0000  0.0000  0.0000      0.0000  0.0000  0.0000  0.0000  0.0000  0.0000  0.0000  0.0000  0.0000  0.0000
  o =  1.1108  v =  0.0000 -0.7071 -0.0000  0.7071 -0.0000  0.0000  0.0000  0.0000  0.0000  0.0000      0.0000  0.0000  0.0000  0.0000  0.0000  0.0000  0.0000  0.0000  0.0000  0.0000
     EDDAV:  cpu time    0.3490: real time    0.3490
 BZINTS: Fermi energy:  1.736613; 54.000000 electrons
         Band energy:-751.940591;  BLOECHL correction:  0.000000
       DOS:  cpu time    0.0018: real time    0.0018
    CHARGE:  cpu time    0.0316: real time    0.0316
    MIXING:  cpu time    0.0005: real time    0.0005
    --------------------------------------------
      LOOP:  cpu time    0.6138: real time    0.6138

 eigenvalue-minimisations  :  1596
 total energy-change (2. order) : 0.2089504E+01  (-0.1575761E+01)
 number of electron      53.9999997 magnetization      -0.0000000
 augmentation part       19.9711321 magnetization      -0.0000000

 Broyden mixing:
  rms(total) = 0.15874E+01    rms(broyden)= 0.15873E+01
  rms(prec ) = 0.16371E+01
  weight for this iteration     100.00

 eigenvalues of (default mixing * dielectric matrix)
  average eigenvalue GAMMA=   0.8117
  0.8117

 Free energy of the ion-electron system (eV)
  ---------------------------------------------------
  alpha Z        PSCENC =       203.52042995
  Ewald energy   TEWEN  =     -4249.92954187
  -Hartree energ DENC   =     -2116.58361763
  -exchange      EXHF   =         0.00000000
  -V(xc)+E(xc)   XCENC  =       295.81335700
  PAW double counting   =      5721.68616384    -5831.33907283
  entropy T*S    EENTRO =         0.00000000
  eigenvalues    EBANDS =      -751.94059148
  atomic energy  EATOM  =      6689.43922617
  Solvation  Ediel_sol  =         0.00000000
  ---------------------------------------------------
  free energy    TOTEN  =       -39.33364684 eV

  energy without entropy =      -39.33364684  energy(sigma->0) =      -39.33364684


--------------------------------------------------------------------------------------------------------




--------------------------------------- Iteration      1(   7)  ---------------------------------------


    POTLOK:  cpu time    0.0042: real time    0.0042
    SETDIJ:  cpu time    0.2266: real time    0.2266
atom =   1  type =  1  l = 2
 
 onsite density matrix
 
spin component  1
 
  0.1238  0.0000  0.0221  0.0000 -0.0000
  0.0000  0.1169  0.0000  0.0183  0.0000
  0.0221  0.0000  0.1115  0.0000 -0.0000
  0.0000  0.0183  0.0000  0.1169  0.0000
 -0.0000  0.0000 -0.0000  0.0000  0.0973
 
spin component  2
 
  0.8994  0.0000  0.0073  0.0000 -0.0000
  0.0000  0.8972  0.0000  0.0064  0.0000
  0.0073  0.0000  0.8956  0.0000 -0.0000
  0.0000  0.0064  0.0000  0.8972  0.0000
 -0.0000  0.0000 -0.0000  0.0000  0.8905
 
 occupancies and eigenvectors
 
  o =  0.0947  v = -0.6042 -0.0000  0.7968  0.0000  0.0000  0.0000  0.0000  0.0000  0.0000  0.0000      0.0000  0.0000  0.0000  0.0000  0.0000  0.0000  0.0000  0.0000  0.0000  0.0000
  o =  0.0973  v = -0.0000  0.0000  0.0000 -0.0000 -1.0000  0.0000  0.0000  0.0000  0.0000  0.0000      0.0000  0.0000  0.0000  0.0000  0.0000  0.0000  0.0000  0.0000  0.0000  0.0000
  o =  0.0985  v = -0.0000 -0.7071  0.0000  0.7071 -0.0000  0.0000  0.0000  0.0000  0.0000  0.0000      0.0000  0.0000  0.0000  0.0000  0.0000  0.0000  0.0000  0.0000  0.0000  0.0000
  o =  0.1352  v =  0.0000  0.7071  0.0000  0.7071  0.0000  0.0000  0.0000  0.0000  0.0000  0.0000      0.0000  0.0000  0.0000  0.0000  0.0000  0.0000  0.0000  0.0000  0.0000  0.0000
  o =  0.1406  v = -0.7968  0.0000 -0.6042  0.0000  0.0000  0.0000  0.0000  0.0000  0.0000  0.0000      0.0000  0.0000  0.0000  0.0000  0.0000  0.0000  0.0000  0.0000  0.0000  0.0000
  o =  0.8899  v =  0.0000  0.0000  0.0000  0.0000  0.0000 -0.6128  0.0000  0.7903  0.0000  0.0000      0.0000  0.0000  0.0000  0.0000  0.0000  0.0000  0.0000  0.0000  0.0000  0.0000
  o =  0.8905  v =  0.0000  0.0000  0.0000  0.0000  0.0000 -0.0000 -0.0000  0.0000  0.0000 -1.0000      0.0000  0.0000  0.0000  0.0000  0.0000  0.0000  0.0000  0.0000  0.0000  0.0000
  o =  0.8908  v =  0.0000  0.0000  0.0000  0.0000  0.0000  0.0000 -0.7071  0.0000  0.7071  0.0000      0.0000  0.0000  0.0000  0.0000  0.0000  0.0000  0.0000  0.0000  0.0000  0.0000
  o =  0.9036  v =  0.0000  0.0000  0.0000  0.0000  0.0000  0.0000 -0.7071  0.0000 -0.7071  0.0000      0.0000  0.0000  0.0000  0.0000  0.0000  0.0000  0.0000  0.0000  0.0000  0.0000
  o =  0.9050  v =  0.0000  0.0000  0.0000  0.0000  0.0000 -0.7903 -0.0000 -0.6128  0.0000  0.0000      0.0000  0.0000  0.0000  0.0000  0.0000  0.0000  0.0000  0.0000  0.0000  0.0000
atom =   2  type =  1  l = 2
 
 onsite density matrix
 
spin component  1
 
  0.8994  0.0000 -0.0073  0.0000 -0.0000
  0.0000  0.8972  0.0000 -0.0064  0.0000
 -0.0073  0.0000  0.8956  0.0000  0.0000
  0.0000 -0.0064  0.0000  0.8972  0.0000
 -0.0000  0.0000  0.0000  0.0000  0.8905
 
spin component  2
 
  0.1238  0.0000 -0.0221  0.0000 -0.0000
  0.0000  0.1169  0.0000 -0.0183  0.0000
 -0.0221  0.0000  0.1115  0.0000 -0.0000
  0.0000 -0.0183  0.0000  0.1169  0.0000
 -0.0000  0.0000 -0.0000  0.0000  0.0973
 
 occupancies and eigenvectors
 
  o =  0.0947  v =  0.0000  0.0000  0.0000  0.0000  0.0000 -0.6042  0.0000 -0.7968  0.0000 -0.0000      0.0000  0.0000  0.0000  0.0000  0.0000  0.0000  0.0000  0.0000  0.0000  0.0000
  o =  0.0973  v =  0.0000  0.0000  0.0000  0.0000  0.0000  0.0000  0.0000  0.0000  0.0000 -1.0000      0.0000  0.0000  0.0000  0.0000  0.0000  0.0000  0.0000  0.0000  0.0000  0.0000
  o =  0.0985  v =  0.0000  0.0000  0.0000  0.0000  0.0000  0.0000  0.7071  0.0000  0.7071  0.0000      0.0000  0.0000  0.0000  0.0000  0.0000  0.0000  0.0000  0.0000  0.0000  0.0000
  o =  0.1352  v =  0.0000  0.0000  0.0000  0.0000  0.0000 -0.0000 -0.7071  0.0000  0.7071 -0.0000      0.0000  0.0000  0.0000  0.0000  0.0000  0.0000  0.0000  0.0000  0.0000  0.0000
  o =  0.1406  v =  0.0000  0.0000  0.0000  0.0000  0.0000 -0.7968  0.0000  0.6042 -0.0000 -0.0000      0.0000  0.0000  0.0000  0.0000  0.0000  0.0000  0.0000  0.0000  0.0000  0.0000
  o =  0.8899  v = -0.6128  0.0000 -0.7903  0.0000  0.0000  0.0000  0.0000  0.0000  0.0000  0.0000      0.0000  0.0000  0.0000  0.0000  0.0000  0.0000  0.0000  0.0000  0.0000  0.0000
  o =  0.8905  v =  0.0000 -0.0000  0.0000 -0.0000  1.0000  0.0000  0.0000  0.0000  0.0000  0.0000      0.0000  0.0000  0.0000  0.0000  0.0000  0.0000  0.0000  0.0000  0.0000  0.0000
  o =  0.8908  v = -0.0000 -0.7071 -0.0000 -0.7071 -0.0000  0.0000  0.0000  0.0000  0.0000  0.0000      0.0000  0.0000  0.0000  0.0000  0.0000  0.0000  0.0000  0.0000  0.0000  0.0000
  o =  0.9036  v =  0.0000  0.7071  0.0000 -0.7071  0.0000  0.0000  0.0000  0.0000  0.0000  0.0000      0.0000  0.0000  0.0000  0.0000  0.0000  0.0000  0.0000  0.0000  0.0000  0.0000
  o =  0.9050  v = -0.7903  0.0000  0.6128  0.0000  0.0000  0.0000  0.0000  0.0000  0.0000  0.0000      0.0000  0.0000  0.0000  0.0000  0.0000  0.0000  0.0000  0.0000  0.0000  0.0000
     EDDAV:  cpu time    0.3388: real time    0.3388
 BZINTS: Fermi energy:  2.025284; 54.000000 electrons
         Band energy:-747.122826;  BLOECHL correction:  0.000000
       DOS:  cpu time    0.0018: real time    0.0018
    CHARGE:  cpu time    0.0317: real time    0.0317
    MIXING:  cpu time    0.0005: real time    0.0005
    --------------------------------------------
      LOOP:  cpu time    0.6036: real time    0.6036

 eigenvalue-minimisations  :  1536
 total energy-change (2. order) :-0.6423375E+00  (-0.1565101E+00)
 number of electron      53.9999997 magnetization       0.0000000
 augmentation part       19.9485551 magnetization       0.0000000

 Broyden mixing:
  rms(total) = 0.11797E+01    rms(broyden)= 0.11797E+01
  rms(prec ) = 0.12078E+01
  weight for this iteration     100.00

 eigenvalues of (default mixing * dielectric matrix)
  average eigenvalue GAMMA=   1.4354
  0.7014  2.1694

 Free energy of the ion-electron system (eV)
  ---------------------------------------------------
  alpha Z        PSCENC =       203.52042995
  Ewald energy   TEWEN  =     -4249.92954187
  -Hartree energ DENC   =     -2112.86681995
  -exchange      EXHF   =         0.00000000
  -V(xc)+E(xc)   XCENC  =       296.44489937
  PAW double counting   =      5972.63893455    -6092.10028667
  entropy T*S    EENTRO =         0.00000000
  eigenvalues    EBANDS =      -747.12282589
  atomic energy  EATOM  =      6689.43922617
  Solvation  Ediel_sol  =         0.00000000
  ---------------------------------------------------
  free energy    TOTEN  =       -39.97598434 eV

  energy without entropy =      -39.97598434  energy(sigma->0) =      -39.97598434


--------------------------------------------------------------------------------------------------------




--------------------------------------- Iteration      1(   8)  ---------------------------------------


    POTLOK:  cpu time    0.0043: real time    0.0043
    SETDIJ:  cpu time    0.2266: real time    0.2266
atom =   1  type =  1  l = 2
 
 onsite density matrix
 
spin component  1
 
 -0.0254  0.0000  0.0235  0.0000 -0.0000
  0.0000 -0.0332  0.0000  0.0182  0.0000
  0.0235  0.0000 -0.0362  0.0000  0.0000
  0.0000  0.0182  0.0000 -0.0332  0.0000
 -0.0000  0.0000  0.0000  0.0000 -0.0560
 
spin component  2
 
  1.0498  0.0000  0.0208  0.0000  0.0000
  0.0000  1.0437  0.0000  0.0191  0.0000
  0.0208  0.0000  1.0357  0.0000 -0.0000
  0.0000  0.0191  0.0000  1.0437  0.0000
  0.0000  0.0000 -0.0000  0.0000  1.0267
 
 occupancies and eigenvectors
 
  o = -0.0560  v =  0.0000  0.0000 -0.0000  0.0000  1.0000  0.0000  0.0000  0.0000  0.0000  0.0000      0.0000  0.0000  0.0000  0.0000  0.0000  0.0000  0.0000  0.0000  0.0000  0.0000
  o = -0.0549  v = -0.6234  0.0000  0.7819  0.0000  0.0000  0.0000  0.0000  0.0000  0.0000  0.0000      0.0000  0.0000  0.0000  0.0000  0.0000  0.0000  0.0000  0.0000  0.0000  0.0000
  o = -0.0514  v =  0.0000 -0.7071  0.0000  0.7071  0.0000  0.0000  0.0000  0.0000  0.0000  0.0000      0.0000  0.0000  0.0000  0.0000  0.0000  0.0000  0.0000  0.0000  0.0000  0.0000
  o = -0.0150  v =  0.0000  0.7071  0.0000  0.7071 -0.0000  0.0000  0.0000  0.0000  0.0000  0.0000      0.0000  0.0000  0.0000  0.0000  0.0000  0.0000  0.0000  0.0000  0.0000  0.0000
  o = -0.0067  v =  0.7819  0.0000  0.6234  0.0000  0.0000  0.0000  0.0000  0.0000  0.0000  0.0000      0.0000  0.0000  0.0000  0.0000  0.0000  0.0000  0.0000  0.0000  0.0000  0.0000
  o =  1.0208  v =  0.0000  0.0000  0.0000  0.0000  0.0000  0.5825  0.0000 -0.8128 -0.0000 -0.0000      0.0000  0.0000  0.0000  0.0000  0.0000  0.0000  0.0000  0.0000  0.0000  0.0000
  o =  1.0246  v =  0.0000  0.0000  0.0000  0.0000  0.0000 -0.0000  0.7071  0.0000 -0.7071 -0.0000      0.0000  0.0000  0.0000  0.0000  0.0000  0.0000  0.0000  0.0000  0.0000  0.0000
  o =  1.0267  v =  0.0000  0.0000  0.0000  0.0000  0.0000 -0.0000 -0.0000  0.0000  0.0000 -1.0000      0.0000  0.0000  0.0000  0.0000  0.0000  0.0000  0.0000  0.0000  0.0000  0.0000
  o =  1.0628  v =  0.0000  0.0000  0.0000  0.0000  0.0000  0.0000  0.7071  0.0000  0.7071  0.0000      0.0000  0.0000  0.0000  0.0000  0.0000  0.0000  0.0000  0.0000  0.0000  0.0000
  o =  1.0647  v =  0.0000  0.0000  0.0000  0.0000  0.0000  0.8128 -0.0000  0.5825 -0.0000 -0.0000      0.0000  0.0000  0.0000  0.0000  0.0000  0.0000  0.0000  0.0000  0.0000  0.0000
atom =   2  type =  1  l = 2
 
 onsite density matrix
 
spin component  1
 
  1.0498  0.0000 -0.0208  0.0000 -0.0000
  0.0000  1.0437  0.0000 -0.0191  0.0000
 -0.0208  0.0000  1.0357  0.0000 -0.0000
  0.0000 -0.0191  0.0000  1.0437  0.0000
 -0.0000  0.0000 -0.0000  0.0000  1.0267
 
spin component  2
 
 -0.0254  0.0000 -0.0235  0.0000 -0.0000
  0.0000 -0.0332  0.0000 -0.0182  0.0000
 -0.0235  0.0000 -0.0362  0.0000  0.0000
  0.0000 -0.0182  0.0000 -0.0332  0.0000
 -0.0000  0.0000  0.0000  0.0000 -0.0560
 
 occupancies and eigenvectors
 
  o = -0.0560  v =  0.0000  0.0000  0.0000  0.0000  0.0000  0.0000  0.0000  0.0000  0.0000 -1.0000      0.0000  0.0000  0.0000  0.0000  0.0000  0.0000  0.0000  0.0000  0.0000  0.0000
  o = -0.0549  v =  0.0000  0.0000  0.0000  0.0000  0.0000  0.6234 -0.0000  0.7819 -0.0000  0.0000      0.0000  0.0000  0.0000  0.0000  0.0000  0.0000  0.0000  0.0000  0.0000  0.0000
  o = -0.0514  v =  0.0000  0.0000  0.0000  0.0000  0.0000 -0.0000 -0.7071 -0.0000 -0.7071 -0.0000      0.0000  0.0000  0.0000  0.0000  0.0000  0.0000  0.0000  0.0000  0.0000  0.0000
  o = -0.0150  v =  0.0000  0.0000  0.0000  0.0000  0.0000 -0.0000 -0.7071  0.0000  0.7071 -0.0000      0.0000  0.0000  0.0000  0.0000  0.0000  0.0000  0.0000  0.0000  0.0000  0.0000
  o = -0.0067  v =  0.0000  0.0000  0.0000  0.0000  0.0000  0.7819 -0.0000 -0.6234  0.0000 -0.0000      0.0000  0.0000  0.0000  0.0000  0.0000  0.0000  0.0000  0.0000  0.0000  0.0000
  o =  1.0208  v = -0.5825 -0.0000 -0.8128  0.0000 -0.0000  0.0000  0.0000  0.0000  0.0000  0.0000      0.0000  0.0000  0.0000  0.0000  0.0000  0.0000  0.0000  0.0000  0.0000  0.0000
  o =  1.0246  v =  0.0000 -0.7071  0.0000 -0.7071  0.0000  0.0000  0.0000  0.0000  0.0000  0.0000      0.0000  0.0000  0.0000  0.0000  0.0000  0.0000  0.0000  0.0000  0.0000  0.0000
  o =  1.0267  v = -0.0000  0.0000 -0.0000  0.0000  1.0000  0.0000  0.0000  0.0000  0.0000  0.0000      0.0000  0.0000  0.0000  0.0000  0.0000  0.0000  0.0000  0.0000  0.0000  0.0000
  o =  1.0628  v =  0.0000  0.7071  0.0000 -0.7071 -0.0000  0.0000  0.0000  0.0000  0.0000  0.0000      0.0000  0.0000  0.0000  0.0000  0.0000  0.0000  0.0000  0.0000  0.0000  0.0000
  o =  1.0647  v = -0.8128 -0.0000  0.5825  0.0000 -0.0000  0.0000  0.0000  0.0000  0.0000  0.0000      0.0000  0.0000  0.0000  0.0000  0.0000  0.0000  0.0000  0.0000  0.0000  0.0000
     EDDAV:  cpu time    0.3348: real time    0.3348
 BZINTS: Fermi energy:  1.663804; 54.000000 electrons
         Band energy:-755.236865;  BLOECHL correction:  0.000000
       DOS:  cpu time    0.0018: real time    0.0017
    CHARGE:  cpu time    0.0314: real time    0.0314
    MIXING:  cpu time    0.0005: real time    0.0005
    --------------------------------------------
      LOOP:  cpu time    0.5994: real time    0.5994

 eigenvalue-minimisations  :  1524
 total energy-change (2. order) : 0.8715795E-01  (-0.5188074E-01)
 number of electron      53.9999997 magnetization       0.0000000
 augmentation part       19.9830696 magnetization       0.0000000

 Broyden mixing:
  rms(total) = 0.47333E+00    rms(broyden)= 0.47333E+00
  rms(prec ) = 0.50433E+00
  weight for this iteration     100.00

 eigenvalues of (default mixing * dielectric matrix)
  average eigenvalue GAMMA=   1.2498
  2.0929  1.0235  0.6331

 Free energy of the ion-electron system (eV)
  ---------------------------------------------------
  alpha Z        PSCENC =       203.52042995
  Ewald energy   TEWEN  =     -4249.92954187
  -Hartree energ DENC   =     -2107.31294202
  -exchange      EXHF   =         0.00000000
  -V(xc)+E(xc)   XCENC  =       295.76695184
  PAW double counting   =      6241.64097218    -6357.77705750
  entropy T*S    EENTRO =         0.00000000
  eigenvalues    EBANDS =      -755.23686514
  atomic energy  EATOM  =      6689.43922617
  Solvation  Ediel_sol  =         0.00000000
  ---------------------------------------------------
  free energy    TOTEN  =       -39.88882639 eV

  energy without entropy =      -39.88882639  energy(sigma->0) =      -39.88882639


--------------------------------------------------------------------------------------------------------




--------------------------------------- Iteration      1(   9)  ---------------------------------------


    POTLOK:  cpu time    0.0043: real time    0.0043
    SETDIJ:  cpu time    0.2265: real time    0.2265
atom =   1  type =  1  l = 2
 
 onsite density matrix
 
spin component  1
 
  0.0494  0.0000  0.0274  0.0000  0.0000
  0.0000  0.0399  0.0000  0.0230  0.0000
  0.0274  0.0000  0.0341  0.0000  0.0000
  0.0000  0.0230  0.0000  0.0399  0.0000
  0.0000  0.0000  0.0000  0.0000  0.0145
 
spin component  2
 
  0.9742  0.0000  0.0240  0.0000 -0.0000
  0.0000  0.9672  0.0000  0.0206  0.0000
  0.0240  0.0000  0.9602  0.0000  0.0000
  0.0000  0.0206  0.0000  0.9672  0.0000
 -0.0000  0.0000  0.0000  0.0000  0.9463
 
 occupancies and eigenvectors
 
  o =  0.0133  v = -0.6051  0.0000  0.7961  0.0000 -0.0000  0.0000  0.0000  0.0000  0.0000  0.0000      0.0000  0.0000  0.0000  0.0000  0.0000  0.0000  0.0000  0.0000  0.0000  0.0000
  o =  0.0145  v = -0.0000 -0.0000  0.0000  0.0000  1.0000  0.0000  0.0000  0.0000  0.0000  0.0000      0.0000  0.0000  0.0000  0.0000  0.0000  0.0000  0.0000  0.0000  0.0000  0.0000
  o =  0.0170  v =  0.0000  0.7071  0.0000 -0.7071  0.0000  0.0000  0.0000  0.0000  0.0000  0.0000      0.0000  0.0000  0.0000  0.0000  0.0000  0.0000  0.0000  0.0000  0.0000  0.0000
  o =  0.0629  v =  0.0000 -0.7071  0.0000 -0.7071 -0.0000  0.0000  0.0000  0.0000  0.0000  0.0000      0.0000  0.0000  0.0000  0.0000  0.0000  0.0000  0.0000  0.0000  0.0000  0.0000
  o =  0.0702  v = -0.7961  0.0000 -0.6051  0.0000 -0.0000  0.0000  0.0000  0.0000  0.0000  0.0000      0.0000  0.0000  0.0000  0.0000  0.0000  0.0000  0.0000  0.0000  0.0000  0.0000
  o =  0.9422  v =  0.0000  0.0000  0.0000  0.0000  0.0000 -0.6005  0.0000  0.7996  0.0000 -0.0000      0.0000  0.0000  0.0000  0.0000  0.0000  0.0000  0.0000  0.0000  0.0000  0.0000
  o =  0.9463  v =  0.0000  0.0000  0.0000  0.0000  0.0000  0.0000  0.0000  0.0000  0.0000  1.0000      0.0000  0.0000  0.0000  0.0000  0.0000  0.0000  0.0000  0.0000  0.0000  0.0000
  o =  0.9466  v =  0.0000  0.0000  0.0000  0.0000  0.0000  0.0000  0.7071  0.0000 -0.7071 -0.0000      0.0000  0.0000  0.0000  0.0000  0.0000  0.0000  0.0000  0.0000  0.0000  0.0000
  o =  0.9878  v =  0.0000  0.0000  0.0000  0.0000  0.0000  0.0000 -0.7071  0.0000 -0.7071  0.0000      0.0000  0.0000  0.0000  0.0000  0.0000  0.0000  0.0000  0.0000  0.0000  0.0000
  o =  0.9922  v =  0.0000  0.0000  0.0000  0.0000  0.0000 -0.7996  0.0000 -0.6005  0.0000  0.0000      0.0000  0.0000  0.0000  0.0000  0.0000  0.0000  0.0000  0.0000  0.0000  0.0000
atom =   2  type =  1  l = 2
 
 onsite density matrix
 
spin component  1
 
  0.9742  0.0000 -0.0240  0.0000  0.0000
  0.0000  0.9672  0.0000 -0.0206  0.0000
 -0.0240  0.0000  0.9602  0.0000  0.0000
  0.0000 -0.0206  0.0000  0.9672  0.0000
  0.0000  0.0000  0.0000  0.0000  0.9463
 
spin component  2
 
  0.0494  0.0000 -0.0274  0.0000 -0.0000
  0.0000  0.0399  0.0000 -0.0230  0.0000
 -0.0274  0.0000  0.0341  0.0000  0.0000
  0.0000 -0.0230  0.0000  0.0399  0.0000
 -0.0000  0.0000  0.0000  0.0000  0.0145
 
 occupancies and eigenvectors
 
  o =  0.0133  v =  0.0000  0.0000  0.0000  0.0000  0.0000 -0.6051  0.0000 -0.7961  0.0000  0.0000      0.0000  0.0000  0.0000  0.0000  0.0000  0.0000  0.0000  0.0000  0.0000  0.0000
  o =  0.0145  v =  0.0000  0.0000  0.0000  0.0000  0.0000 -0.0000 -0.0000 -0.0000  0.0000 -1.0000      0.0000  0.0000  0.0000  0.0000  0.0000  0.0000  0.0000  0.0000  0.0000  0.0000
  o =  0.0170  v =  0.0000  0.0000  0.0000  0.0000  0.0000  0.0000  0.7071  0.0000  0.7071 -0.0000      0.0000  0.0000  0.0000  0.0000  0.0000  0.0000  0.0000  0.0000  0.0000  0.0000
  o =  0.0629  v =  0.0000  0.0000  0.0000  0.0000  0.0000  0.0000  0.7071  0.0000 -0.7071 -0.0000      0.0000  0.0000  0.0000  0.0000  0.0000  0.0000  0.0000  0.0000  0.0000  0.0000
  o =  0.0702  v =  0.0000  0.0000  0.0000  0.0000  0.0000 -0.7961  0.0000  0.6051  0.0000  0.0000      0.0000  0.0000  0.0000  0.0000  0.0000  0.0000  0.0000  0.0000  0.0000  0.0000
  o =  0.9422  v = -0.6005 -0.0000 -0.7996  0.0000  0.0000  0.0000  0.0000  0.0000  0.0000  0.0000      0.0000  0.0000  0.0000  0.0000  0.0000  0.0000  0.0000  0.0000  0.0000  0.0000
  o =  0.9463  v = -0.0000  0.0000 -0.0000  0.0000 -1.0000  0.0000  0.0000  0.0000  0.0000  0.0000      0.0000  0.0000  0.0000  0.0000  0.0000  0.0000  0.0000  0.0000  0.0000  0.0000
  o =  0.9466  v =  0.0000 -0.7071  0.0000 -0.7071 -0.0000  0.0000  0.0000  0.0000  0.0000  0.0000      0.0000  0.0000  0.0000  0.0000  0.0000  0.0000  0.0000  0.0000  0.0000  0.0000
  o =  0.9878  v =  0.0000 -0.7071  0.0000  0.7071 -0.0000  0.0000  0.0000  0.0000  0.0000  0.0000      0.0000  0.0000  0.0000  0.0000  0.0000  0.0000  0.0000  0.0000  0.0000  0.0000
  o =  0.9922  v = -0.7996 -0.0000  0.6005  0.0000  0.0000  0.0000  0.0000  0.0000  0.0000  0.0000      0.0000  0.0000  0.0000  0.0000  0.0000  0.0000  0.0000  0.0000  0.0000  0.0000
     EDDAV:  cpu time    0.3158: real time    0.3158
 BZINTS: Fermi energy:  1.787661; 54.000000 electrons
         Band energy:-751.455332;  BLOECHL correction:  0.000000
       DOS:  cpu time    0.0020: real time    0.0020
    CHARGE:  cpu time    0.0321: real time    0.0321
    MIXING:  cpu time    0.0006: real time    0.0006
    --------------------------------------------
      LOOP:  cpu time    0.5813: real time    0.5813

 eigenvalue-minimisations  :  1428
 total energy-change (2. order) :-0.2749130E+00  (-0.7356686E-02)
 number of electron      53.9999997 magnetization      -0.0000000
 augmentation part       19.9725808 magnetization      -0.0000000

 Broyden mixing:
  rms(total) = 0.13652E+00    rms(broyden)= 0.13652E+00
  rms(prec ) = 0.14604E+00
  weight for this iteration     100.00

 eigenvalues of (default mixing * dielectric matrix)
  average eigenvalue GAMMA=   1.2169
  2.6245  0.8087  0.8087  0.6256

 Free energy of the ion-electron system (eV)
  ---------------------------------------------------
  alpha Z        PSCENC =       203.52042995
  Ewald energy   TEWEN  =     -4249.92954187
  -Hartree energ DENC   =     -2107.44884328
  -exchange      EXHF   =         0.00000000
  -V(xc)+E(xc)   XCENC  =       296.05410115
  PAW double counting   =      6373.95709503    -6494.30087490
  entropy T*S    EENTRO =         0.00000000
  eigenvalues    EBANDS =      -751.45533164
  atomic energy  EATOM  =      6689.43922617
  Solvation  Ediel_sol  =         0.00000000
  ---------------------------------------------------
  free energy    TOTEN  =       -40.16373939 eV

  energy without entropy =      -40.16373939  energy(sigma->0) =      -40.16373939


--------------------------------------------------------------------------------------------------------




--------------------------------------- Iteration      1(  10)  ---------------------------------------


    POTLOK:  cpu time    0.0042: real time    0.0042
    SETDIJ:  cpu time    0.2265: real time    0.2265
atom =   1  type =  1  l = 2
 
 onsite density matrix
 
spin component  1
 
  0.0544  0.0000  0.0297  0.0000 -0.0000
  0.0000  0.0445  0.0000  0.0244  0.0000
  0.0297  0.0000  0.0383  0.0000  0.0000
  0.0000  0.0244  0.0000  0.0445  0.0000
 -0.0000  0.0000  0.0000  0.0000  0.0172
 
spin component  2
 
  0.9695  0.0000  0.0215  0.0000  0.0000
  0.0000  0.9630  0.0000  0.0189  0.0000
  0.0215  0.0000  0.9564  0.0000  0.0000
  0.0000  0.0189  0.0000  0.9630  0.0000
  0.0000  0.0000  0.0000  0.0000  0.9443
 
 occupancies and eigenvectors
 
  o =  0.0155  v = -0.6079  0.0000  0.7940  0.0000 -0.0000  0.0000  0.0000  0.0000  0.0000  0.0000      0.0000  0.0000  0.0000  0.0000  0.0000  0.0000  0.0000  0.0000  0.0000  0.0000
  o =  0.0172  v =  0.0000  0.0000  0.0000  0.0000  1.0000  0.0000  0.0000  0.0000  0.0000  0.0000      0.0000  0.0000  0.0000  0.0000  0.0000  0.0000  0.0000  0.0000  0.0000  0.0000
  o =  0.0201  v =  0.0000  0.7071  0.0000 -0.7071 -0.0000  0.0000  0.0000  0.0000  0.0000  0.0000      0.0000  0.0000  0.0000  0.0000  0.0000  0.0000  0.0000  0.0000  0.0000  0.0000
  o =  0.0690  v =  0.0000 -0.7071  0.0000 -0.7071  0.0000  0.0000  0.0000  0.0000  0.0000  0.0000      0.0000  0.0000  0.0000  0.0000  0.0000  0.0000  0.0000  0.0000  0.0000  0.0000
  o =  0.0771  v = -0.7940  0.0000 -0.6079  0.0000  0.0000  0.0000  0.0000  0.0000  0.0000  0.0000      0.0000  0.0000  0.0000  0.0000  0.0000  0.0000  0.0000  0.0000  0.0000  0.0000
  o =  0.9405  v =  0.0000  0.0000  0.0000  0.0000  0.0000 -0.5956  0.0000  0.8032  0.0000  0.0000      0.0000  0.0000  0.0000  0.0000  0.0000  0.0000  0.0000  0.0000  0.0000  0.0000
  o =  0.9441  v =  0.0000  0.0000  0.0000  0.0000  0.0000  0.0000  0.7071  0.0000 -0.7071  0.0000      0.0000  0.0000  0.0000  0.0000  0.0000  0.0000  0.0000  0.0000  0.0000  0.0000
  o =  0.9443  v =  0.0000  0.0000  0.0000  0.0000  0.0000  0.0000 -0.0000 -0.0000  0.0000  1.0000      0.0000  0.0000  0.0000  0.0000  0.0000  0.0000  0.0000  0.0000  0.0000  0.0000
  o =  0.9819  v =  0.0000  0.0000  0.0000  0.0000  0.0000  0.0000 -0.7071  0.0000 -0.7071 -0.0000      0.0000  0.0000  0.0000  0.0000  0.0000  0.0000  0.0000  0.0000  0.0000  0.0000
  o =  0.9855  v =  0.0000  0.0000  0.0000  0.0000  0.0000 -0.8032  0.0000 -0.5956  0.0000 -0.0000      0.0000  0.0000  0.0000  0.0000  0.0000  0.0000  0.0000  0.0000  0.0000  0.0000
atom =   2  type =  1  l = 2
 
 onsite density matrix
 
spin component  1
 
  0.9695  0.0000 -0.0215  0.0000 -0.0000
  0.0000  0.9630  0.0000 -0.0189  0.0000
 -0.0215  0.0000  0.9564  0.0000  0.0000
  0.0000 -0.0189  0.0000  0.9630  0.0000
 -0.0000  0.0000  0.0000  0.0000  0.9443
 
spin component  2
 
  0.0544  0.0000 -0.0297  0.0000  0.0000
  0.0000  0.0445  0.0000 -0.0244  0.0000
 -0.0297  0.0000  0.0383  0.0000  0.0000
  0.0000 -0.0244  0.0000  0.0445  0.0000
  0.0000  0.0000  0.0000  0.0000  0.0172
 
 occupancies and eigenvectors
 
  o =  0.0155  v =  0.0000  0.0000  0.0000  0.0000  0.0000 -0.6079 -0.0000 -0.7940  0.0000  0.0000      0.0000  0.0000  0.0000  0.0000  0.0000  0.0000  0.0000  0.0000  0.0000  0.0000
  o =  0.0172  v =  0.0000  0.0000  0.0000  0.0000  0.0000 -0.0000  0.0000 -0.0000  0.0000 -1.0000      0.0000  0.0000  0.0000  0.0000  0.0000  0.0000  0.0000  0.0000  0.0000  0.0000
  o =  0.0201  v =  0.0000  0.0000  0.0000  0.0000  0.0000  0.0000  0.7071  0.0000  0.7071  0.0000      0.0000  0.0000  0.0000  0.0000  0.0000  0.0000  0.0000  0.0000  0.0000  0.0000
  o =  0.0690  v =  0.0000  0.0000  0.0000  0.0000  0.0000  0.0000  0.7071  0.0000 -0.7071  0.0000      0.0000  0.0000  0.0000  0.0000  0.0000  0.0000  0.0000  0.0000  0.0000  0.0000
  o =  0.0771  v =  0.0000  0.0000  0.0000  0.0000  0.0000 -0.7940 -0.0000  0.6079  0.0000  0.0000      0.0000  0.0000  0.0000  0.0000  0.0000  0.0000  0.0000  0.0000  0.0000  0.0000
  o =  0.9405  v = -0.5956  0.0000 -0.8032  0.0000 -0.0000  0.0000  0.0000  0.0000  0.0000  0.0000      0.0000  0.0000  0.0000  0.0000  0.0000  0.0000  0.0000  0.0000  0.0000  0.0000
  o =  0.9441  v =  0.0000 -0.7071  0.0000 -0.7071  0.0000  0.0000  0.0000  0.0000  0.0000  0.0000      0.0000  0.0000  0.0000  0.0000  0.0000  0.0000  0.0000  0.0000  0.0000  0.0000
  o =  0.9443  v =  0.0000 -0.0000  0.0000  0.0000 -1.0000  0.0000  0.0000  0.0000  0.0000  0.0000      0.0000  0.0000  0.0000  0.0000  0.0000  0.0000  0.0000  0.0000  0.0000  0.0000
  o =  0.9819  v =  0.0000 -0.7071  0.0000  0.7071  0.0000  0.0000  0.0000  0.0000  0.0000  0.0000      0.0000  0.0000  0.0000  0.0000  0.0000  0.0000  0.0000  0.0000  0.0000  0.0000
  o =  0.9855  v = -0.8032  0.0000  0.5956  0.0000  0.0000  0.0000  0.0000  0.0000  0.0000  0.0000      0.0000  0.0000  0.0000  0.0000  0.0000  0.0000  0.0000  0.0000  0.0000  0.0000
     EDDAV:  cpu time    0.3378: real time    0.3378
 BZINTS: Fermi energy:  1.783454; 54.000000 electrons
         Band energy:-750.765456;  BLOECHL correction:  0.000000
       DOS:  cpu time    0.0020: real time    0.0020
    CHARGE:  cpu time    0.0314: real time    0.0314
    MIXING:  cpu time    0.0006: real time    0.0006
    --------------------------------------------
      LOOP:  cpu time    0.6026: real time    0.6026

 eigenvalue-minimisations  :  1536
 total energy-change (2. order) :-0.4548886E-03  (-0.1592815E-02)
 number of electron      53.9999997 magnetization       0.0000000
 augmentation part       19.9692021 magnetization       0.0000000

 Broyden mixing:
  rms(total) = 0.25143E-01    rms(broyden)= 0.25138E-01
  rms(prec ) = 0.27745E-01
  weight for this iteration     100.00

 eigenvalues of (default mixing * dielectric matrix)
  average eigenvalue GAMMA=   1.1595
  2.5376  0.9626  0.9626  0.7289  0.6057

 Free energy of the ion-electron system (eV)
  ---------------------------------------------------
  alpha Z        PSCENC =       203.52042995
  Ewald energy   TEWEN  =     -4249.92954187
  -Hartree energ DENC   =     -2108.14760773
  -exchange      EXHF   =         0.00000000
  -V(xc)+E(xc)   XCENC  =       296.14905649
  PAW double counting   =      6361.81562572    -6482.24592745
  entropy T*S    EENTRO =         0.00000000
  eigenvalues    EBANDS =      -750.76545555
  atomic energy  EATOM  =      6689.43922617
  Solvation  Ediel_sol  =         0.00000000
  ---------------------------------------------------
  free energy    TOTEN  =       -40.16419428 eV

  energy without entropy =      -40.16419428  energy(sigma->0) =      -40.16419428


--------------------------------------------------------------------------------------------------------




--------------------------------------- Iteration      1(  11)  ---------------------------------------


    POTLOK:  cpu time    0.0042: real time    0.0042
    SETDIJ:  cpu time    0.2274: real time    0.2274
atom =   1  type =  1  l = 2
 
 onsite density matrix
 
spin component  1
 
  0.0530  0.0000  0.0295  0.0000  0.0000
  0.0000  0.0432  0.0000  0.0243  0.0000
  0.0295  0.0000  0.0369  0.0000 -0.0000
  0.0000  0.0243  0.0000  0.0432  0.0000
  0.0000  0.0000 -0.0000  0.0000  0.0161
 
spin component  2
 
  0.9717  0.0000  0.0215  0.0000 -0.0000
  0.0000  0.9653  0.0000  0.0189  0.0000
  0.0215  0.0000  0.9587  0.0000  0.0000
  0.0000  0.0189  0.0000  0.9653  0.0000
 -0.0000  0.0000  0.0000  0.0000  0.9465
 
 occupancies and eigenvectors
 
  o =  0.0144  v = -0.6071 -0.0000  0.7946  0.0000  0.0000  0.0000  0.0000  0.0000  0.0000  0.0000      0.0000  0.0000  0.0000  0.0000  0.0000  0.0000  0.0000  0.0000  0.0000  0.0000
  o =  0.0161  v = -0.0000  0.0000  0.0000  0.0000 -1.0000  0.0000  0.0000  0.0000  0.0000  0.0000      0.0000  0.0000  0.0000  0.0000  0.0000  0.0000  0.0000  0.0000  0.0000  0.0000
  o =  0.0189  v =  0.0000  0.7071  0.0000 -0.7071  0.0000  0.0000  0.0000  0.0000  0.0000  0.0000      0.0000  0.0000  0.0000  0.0000  0.0000  0.0000  0.0000  0.0000  0.0000  0.0000
  o =  0.0674  v =  0.0000  0.7071  0.0000  0.7071  0.0000  0.0000  0.0000  0.0000  0.0000  0.0000      0.0000  0.0000  0.0000  0.0000  0.0000  0.0000  0.0000  0.0000  0.0000  0.0000
  o =  0.0755  v = -0.7946 -0.0000 -0.6071  0.0000  0.0000  0.0000  0.0000  0.0000  0.0000  0.0000      0.0000  0.0000  0.0000  0.0000  0.0000  0.0000  0.0000  0.0000  0.0000  0.0000
  o =  0.9427  v =  0.0000  0.0000  0.0000  0.0000  0.0000 -0.5960  0.0000  0.8030  0.0000 -0.0000      0.0000  0.0000  0.0000  0.0000  0.0000  0.0000  0.0000  0.0000  0.0000  0.0000
  o =  0.9464  v =  0.0000  0.0000  0.0000  0.0000  0.0000  0.0000  0.7071  0.0000 -0.7071 -0.0000      0.0000  0.0000  0.0000  0.0000  0.0000  0.0000  0.0000  0.0000  0.0000  0.0000
  o =  0.9465  v =  0.0000  0.0000  0.0000  0.0000  0.0000  0.0000  0.0000  0.0000  0.0000  1.0000      0.0000  0.0000  0.0000  0.0000  0.0000  0.0000  0.0000  0.0000  0.0000  0.0000
  o =  0.9841  v =  0.0000  0.0000  0.0000  0.0000  0.0000  0.0000 -0.7071  0.0000 -0.7071  0.0000      0.0000  0.0000  0.0000  0.0000  0.0000  0.0000  0.0000  0.0000  0.0000  0.0000
  o =  0.9877  v =  0.0000  0.0000  0.0000  0.0000  0.0000 -0.8030  0.0000 -0.5960  0.0000  0.0000      0.0000  0.0000  0.0000  0.0000  0.0000  0.0000  0.0000  0.0000  0.0000  0.0000
atom =   2  type =  1  l = 2
 
 onsite density matrix
 
spin component  1
 
  0.9717  0.0000 -0.0215  0.0000 -0.0000
  0.0000  0.9653  0.0000 -0.0189  0.0000
 -0.0215  0.0000  0.9587  0.0000  0.0000
  0.0000 -0.0189  0.0000  0.9653  0.0000
 -0.0000  0.0000  0.0000  0.0000  0.9465
 
spin component  2
 
  0.0530  0.0000 -0.0295  0.0000  0.0000
  0.0000  0.0432  0.0000 -0.0243  0.0000
 -0.0295  0.0000  0.0369  0.0000 -0.0000
  0.0000 -0.0243  0.0000  0.0432  0.0000
  0.0000  0.0000 -0.0000  0.0000  0.0161
 
 occupancies and eigenvectors
 
  o =  0.0144  v =  0.0000  0.0000  0.0000  0.0000  0.0000 -0.6071  0.0000 -0.7946  0.0000 -0.0000      0.0000  0.0000  0.0000  0.0000  0.0000  0.0000  0.0000  0.0000  0.0000  0.0000
  o =  0.0161  v =  0.0000  0.0000  0.0000  0.0000  0.0000 -0.0000 -0.0000 -0.0000 -0.0000  1.0000      0.0000  0.0000  0.0000  0.0000  0.0000  0.0000  0.0000  0.0000  0.0000  0.0000
  o =  0.0189  v =  0.0000  0.0000  0.0000  0.0000  0.0000  0.0000 -0.7071  0.0000 -0.7071 -0.0000      0.0000  0.0000  0.0000  0.0000  0.0000  0.0000  0.0000  0.0000  0.0000  0.0000
  o =  0.0674  v =  0.0000  0.0000  0.0000  0.0000  0.0000 -0.0000  0.7071  0.0000 -0.7071  0.0000      0.0000  0.0000  0.0000  0.0000  0.0000  0.0000  0.0000  0.0000  0.0000  0.0000
  o =  0.0755  v =  0.0000  0.0000  0.0000  0.0000  0.0000 -0.7946 -0.0000  0.6071  0.0000 -0.0000      0.0000  0.0000  0.0000  0.0000  0.0000  0.0000  0.0000  0.0000  0.0000  0.0000
  o =  0.9427  v = -0.5960  0.0000 -0.8030  0.0000 -0.0000  0.0000  0.0000  0.0000  0.0000  0.0000      0.0000  0.0000  0.0000  0.0000  0.0000  0.0000  0.0000  0.0000  0.0000  0.0000
  o =  0.9464  v =  0.0000 -0.7071  0.0000 -0.7071  0.0000  0.0000  0.0000  0.0000  0.0000  0.0000      0.0000  0.0000  0.0000  0.0000  0.0000  0.0000  0.0000  0.0000  0.0000  0.0000
  o =  0.9465  v =  0.0000 -0.0000  0.0000  0.0000 -1.0000  0.0000  0.0000  0.0000  0.0000  0.0000      0.0000  0.0000  0.0000  0.0000  0.0000  0.0000  0.0000  0.0000  0.0000  0.0000
[...]
     33       8.9383      0.00000
     34      10.1453      0.00000
     35      10.4249      0.00000
     36      11.5075      0.00000

 k-point     7 :       0.1250    0.1250    0.4167
  band No.  band energies     occupation 
      1     -45.9885      1.00000
      2     -45.9583      1.00000
      3     -45.9319      1.00000
      4     -41.4007      1.00000
      5     -41.3802      1.00000
      6     -41.3458      1.00000
      7     -20.5860      1.00000
      8     -20.4349      1.00000
      9     -20.3870      1.00000
     10     -20.2774      1.00000
     11      -4.3221      1.00000
     12      -4.0314      1.00000
     13      -3.6670      1.00000
     14      -3.5862      1.00000
     15      -3.4779      1.00000
     16      -3.2112      1.00000
     17      -2.7213      1.00000
     18      -2.5053      1.00000
     19      -2.4819      1.00000
     20      -1.9645      1.00000
     21      -1.8189      1.00000
     22      -1.7632      1.00000
     23      -0.0363      1.00000
     24       0.1607      1.00000
     25       0.4913      1.00000
     26       1.0672      1.00000
     27       1.4129      1.00000
     28       7.0481      0.00000
     29       7.0603      0.00000
     30       7.1751      0.00000
     31       7.9888      0.00000
     32       8.2004      0.00000
     33       8.8712      0.00000
     34      11.0399      0.00000
     35      12.4497      0.00000
     36      12.6879      0.00000

 k-point     8 :       0.3750    0.1250    0.4167
  band No.  band energies     occupation 
      1     -45.9886      1.00000
      2     -45.9583      1.00000
      3     -45.9319      1.00000
      4     -41.4007      1.00000
      5     -41.3802      1.00000
      6     -41.3458      1.00000
      7     -20.5185      1.00000
      8     -20.4522      1.00000
      9     -20.4020      1.00000
     10     -20.3121      1.00000
     11      -4.2209      1.00000
     12      -4.0835      1.00000
     13      -4.0018      1.00000
     14      -3.6879      1.00000
     15      -3.4471      1.00000
     16      -3.0294      1.00000
     17      -2.8496      1.00000
     18      -2.6823      1.00000
     19      -2.2219      1.00000
     20      -1.9225      1.00000
     21      -1.6984      1.00000
     22      -1.5724      1.00000
     23      -0.0268      1.00000
     24       0.0920      1.00000
     25       0.3828      1.00000
     26       1.0145      1.00000
     27       1.6168      1.00000
     28       7.0426      0.00000
     29       7.0491      0.00000
     30       7.2941      0.00000
     31       7.9129      0.00000
     32       8.4352      0.00000
     33       9.4200      0.00000
     34      10.8013      0.00000
     35      11.4211      0.00000
     36      12.4757      0.00000

 k-point     9 :       0.3750    0.3750    0.4167
  band No.  band energies     occupation 
      1     -45.9886      1.00000
      2     -45.9583      1.00000
      3     -45.9319      1.00000
      4     -41.4008      1.00000
      5     -41.3802      1.00000
      6     -41.3459      1.00000
      7     -20.4914      1.00000
      8     -20.4818      1.00000
      9     -20.4049      1.00000
     10     -20.3014      1.00000
     11      -4.4932      1.00000
     12      -4.2540      1.00000
     13      -3.9670      1.00000
     14      -3.9113      1.00000
     15      -3.4890      1.00000
     16      -3.0101      1.00000
     17      -2.7121      1.00000
     18      -2.4577      1.00000
     19      -2.0005      1.00000
     20      -1.7354      1.00000
     21      -1.6204      1.00000
     22      -1.5128      1.00000
     23      -0.0265      1.00000
     24       0.0905      1.00000
     25       0.3417      1.00000
     26       1.0654      1.00000
     27       1.5714      1.00000
     28       7.0451      0.00000
     29       7.0684      0.00000
     30       7.3266      0.00000
     31       7.8874      0.00000
     32       8.3166      0.00000
     33       9.9277      0.00000
     34      11.3726      0.00000
     35      11.3855      0.00000
     36      11.5512      0.00000


--------------------------------------------------------------------------------------------------------


 soft charge-density along one line, spin component           1
         0         1         2         3         4         5         6         7         8         9
 total charge-density along one line
 
 soft charge-density along one line, spin component           2
         0         1         2         3         4         5         6         7         8         9
 total charge-density along one line
 
 pseudopotential strength for first ion, spin component:           1
-41.906  -0.000  -0.031   7.907   0.000   0.012   0.000   0.000
 -0.000 -41.880  -0.000   0.000   7.896   0.000  -0.000  -0.000
 -0.031  -0.000 -41.906   0.012   0.000   7.907  -0.000  -0.000
  7.907   0.000   0.012   5.345  -0.000  -0.004  -0.000  -0.000
  0.000   7.896   0.000  -0.000   5.350  -0.000  -0.000  -0.000
  0.012   0.000   7.907  -0.004  -0.000   5.345  -0.000  -0.000
  0.000  -0.000  -0.000  -0.000  -0.000  -0.000  -1.392  -0.000
  0.000  -0.000  -0.000  -0.000  -0.000  -0.000  -0.000  -1.347
  0.000   0.000  -0.000   0.000  -0.000  -0.000  -0.075   0.000
 -0.000  -0.000   0.000  -0.000  -0.000  -0.000  -0.000  -0.090
  0.000  -0.000  -0.000   0.000   0.000   0.000   0.000   0.000
  0.000  -0.000  -0.000  -0.000  -0.000  -0.000  -1.835  -0.000
  0.000  -0.000  -0.000  -0.000  -0.000  -0.000  -0.000  -1.789
  0.000   0.000  -0.000   0.000  -0.000  -0.000  -0.078   0.000
 -0.000  -0.000   0.000  -0.000  -0.000  -0.000  -0.000  -0.092
  0.000  -0.000  -0.000   0.000   0.000   0.000   0.000   0.000
 -0.000  -0.000   0.000  -0.000  -0.000   0.000   0.006   0.000
 -0.000  -0.000   0.000  -0.000  -0.000   0.000   0.012   0.000
 pseudopotential strength for first ion, spin component:           2
-44.975  -0.000  -0.024   9.393   0.000   0.008   0.000   0.000
 -0.000 -44.957  -0.000   0.000   9.386   0.000  -0.000  -0.000
 -0.024  -0.000 -44.975   0.008   0.000   9.393  -0.000  -0.000
  9.393   0.000   0.008   4.851  -0.000  -0.003   0.000  -0.000
  0.000   9.386   0.000  -0.000   4.853  -0.000   0.000  -0.000
  0.008   0.000   9.393  -0.003  -0.000   4.851  -0.000   0.000
  0.000  -0.000  -0.000   0.000   0.000  -0.000  -7.395  -0.000
  0.000  -0.000  -0.000  -0.000  -0.000   0.000  -0.000  -7.364
  0.000   0.000  -0.000   0.000  -0.000  -0.000  -0.052   0.000
 -0.000  -0.000   0.000   0.000  -0.000  -0.000  -0.000  -0.073
  0.000  -0.000  -0.000   0.000   0.000  -0.000   0.000   0.000
  0.000  -0.000  -0.000   0.000   0.000  -0.000  -7.888  -0.000
  0.000  -0.000  -0.000  -0.000  -0.000   0.000  -0.000  -7.856
  0.000   0.000  -0.000   0.000  -0.000  -0.000  -0.055   0.000
 -0.000  -0.000   0.000   0.000  -0.000  -0.000  -0.000  -0.075
  0.000  -0.000  -0.000   0.000   0.000  -0.000   0.000   0.000
 -0.000  -0.000   0.000  -0.000  -0.000   0.000   0.004   0.000
 -0.000  -0.000   0.000  -0.000  -0.000   0.000   0.007   0.000
 total augmentation occupancy for first ion, spin component:           1
  1.998   0.000  -0.000  -0.013   0.000   0.000   0.000   0.000   0.000   0.000   0.000   0.000   0.000   0.000   0.000   0.000
  0.000   1.998   0.000   0.000  -0.013   0.000   0.000   0.000   0.000   0.000   0.000   0.000   0.000   0.000   0.000   0.000
 -0.000   0.000   1.998   0.000   0.000  -0.013   0.000   0.000   0.000   0.000   0.000   0.000   0.000   0.000   0.000   0.000
 -0.013   0.000   0.000   0.096   0.000  -0.010   0.000   0.000   0.000   0.000   0.000   0.000   0.000   0.000   0.000   0.000
  0.000  -0.013   0.000   0.000   0.108   0.000   0.000   0.000   0.000   0.000   0.000   0.000   0.000   0.000   0.000   0.000
  0.000   0.000  -0.013  -0.010   0.000   0.096   0.000   0.000   0.000   0.000   0.000   0.000   0.000   0.000   0.000   0.000
  0.000   0.000   0.000   0.000   0.000   0.000   8.342   0.000   3.365   0.000   0.000  -6.412   0.000  -3.192   0.000   0.000
  0.000   0.000   0.000   0.000   0.000   0.000   0.000   6.980   0.000   2.905   0.000   0.000  -5.113   0.000  -2.744   0.000
  0.000   0.000   0.000   0.000   0.000   0.000   3.365   0.000   6.295   0.000   0.000  -3.193   0.000  -4.492   0.000   0.000
  0.000   0.000   0.000   0.000   0.000   0.000   0.000   2.905   0.000   6.980   0.000   0.000  -2.744   0.000  -5.113   0.000
  0.000   0.000   0.000   0.000   0.000   0.000   0.000   0.000   0.000   0.000   3.955   0.000   0.000   0.000   0.000  -2.228
  0.000   0.000   0.000   0.000   0.000   0.000  -6.412   0.000  -3.193   0.000   0.000   5.653   0.000   3.064   0.000  -0.000
  0.000   0.000   0.000   0.000   0.000   0.000   0.000  -5.113   0.000  -2.744   0.000   0.000   4.405   0.000   2.620   0.000
  0.000   0.000   0.000   0.000   0.000   0.000  -3.192   0.000  -4.492   0.000   0.000   3.064   0.000   3.833   0.000  -0.000
  0.000   0.000   0.000   0.000   0.000   0.000   0.000  -2.744   0.000  -5.113   0.000   0.000   2.620   0.000   4.405   0.000
  0.000   0.000   0.000   0.000   0.000   0.000   0.000   0.000  -0.000   0.000  -2.228   0.000   0.000  -0.000   0.000   1.620
  0.000   0.000   0.000   0.000   0.000   0.000   0.261   0.000  -0.231   0.000  -0.000  -0.291   0.000   0.240   0.000   0.000
  0.000   0.000   0.000   0.000   0.000   0.000  -0.007   0.000   0.027   0.000   0.000   0.033   0.000  -0.038   0.000  -0.000
 total augmentation occupancy for first ion, spin component:           2
  0.004   0.000  -0.000   0.016   0.000  -0.000   0.000   0.000   0.000   0.000   0.000   0.000   0.000   0.000   0.000   0.000
  0.000   0.004   0.000   0.000   0.017   0.000   0.000   0.000   0.000   0.000   0.000   0.000   0.000   0.000   0.000   0.000
 -0.000   0.000   0.004  -0.000   0.000   0.016   0.000   0.000   0.000   0.000   0.000   0.000   0.000   0.000   0.000   0.000
  0.016   0.000  -0.000  -0.009   0.000  -0.000   0.000   0.000   0.000   0.000   0.000   0.000   0.000   0.000   0.000   0.000
  0.000   0.017   0.000   0.000  -0.009   0.000   0.000   0.000   0.000   0.000   0.000   0.000   0.000   0.000   0.000   0.000
 -0.000   0.000   0.016  -0.000   0.000  -0.009   0.000   0.000   0.000   0.000   0.000   0.000   0.000   0.000   0.000   0.000
  0.000   0.000   0.000   0.000   0.000   0.000  -5.661   0.000  -1.860   0.000  -0.000   3.327   0.000   1.468   0.000  -0.000
  0.000   0.000   0.000   0.000   0.000   0.000   0.000  -4.906   0.000  -1.633   0.000   0.000   2.712   0.000   1.288   0.000
  0.000   0.000   0.000   0.000   0.000   0.000  -1.860   0.000  -4.438   0.000  -0.000   1.468   0.000   2.353   0.000  -0.000
  0.000   0.000   0.000   0.000   0.000   0.000   0.000  -1.633   0.000  -4.906   0.000   0.000   1.288   0.000   2.712   0.000
  0.000   0.000   0.000   0.000   0.000   0.000  -0.000   0.000  -0.000   0.000  -3.279   0.000   0.000   0.000   0.000   1.427
  0.000   0.000   0.000   0.000   0.000   0.000   3.327   0.000   1.468   0.000   0.000  -2.093   0.000  -1.082   0.000  -0.000
  0.000   0.000   0.000   0.000   0.000   0.000   0.000   2.712   0.000   1.288   0.000   0.000  -1.618   0.000  -0.950   0.000
  0.000   0.000   0.000   0.000   0.000   0.000   1.468   0.000   2.353   0.000   0.000  -1.082   0.000  -1.363   0.000  -0.000
  0.000   0.000   0.000   0.000   0.000   0.000   0.000   1.288   0.000   2.712   0.000   0.000  -0.950   0.000  -1.618   0.000
  0.000   0.000   0.000   0.000   0.000   0.000   0.000   0.000   0.000   0.000   1.427  -0.000   0.000   0.000   0.000  -0.671
  0.000   0.000   0.000   0.000   0.000   0.000   0.006   0.000   0.024   0.000  -0.000  -0.015   0.000  -0.004   0.000  -0.000
  0.000   0.000   0.000   0.000   0.000   0.000  -0.046   0.000   0.012   0.000   0.000   0.027   0.000  -0.006   0.000   0.000


------------------------ aborting loop because EDIFF is reached ----------------------------------------


 


 total charge     
 
# of ion       s       p       d       tot
------------------------------------------
    1        0.178   6.172   4.979  11.329
    2        0.183   6.166   4.986  11.336
    3        1.723   4.362   0.000   6.085
    4        1.723   4.362   0.000   6.085
    5        1.723   4.357   0.000   6.080
    6        1.723   4.357   0.000   6.080
--------------------------------------------------
tot          7.254  29.776   9.965  46.995
 


 magnetization (x)
 
# of ion       s       p       d       tot
------------------------------------------
    1       -0.014  -0.015  -4.598  -4.627
    2        0.014   0.013   4.595   4.623
    3        0.002   0.021   0.000   0.023
    4        0.002   0.021   0.000   0.023
    5       -0.003  -0.017   0.000  -0.019
    6       -0.003  -0.017   0.000  -0.019
--------------------------------------------------
tot         -0.001   0.007  -0.003   0.003
 
    CHARGE:  cpu time    0.0310: real time    0.0310
    FORLOC:  cpu time    0.0007: real time    0.0007
    FORNL :  cpu time    0.1501: real time    0.1501
    STRESS:  cpu time    0.4376: real time    0.4376
    FORCOR:  cpu time    0.0038: real time    0.0038
    FORHAR:  cpu time    0.0019: real time    0.0019
    MIXING:  cpu time    0.0007: real time    0.0007
    OFIELD:  cpu time    0.0000: real time    0.0000

  FORCE on cell =-STRESS in cart. coord.  units (eV):
  Direction    XX          YY          ZZ          XY          YZ          ZX
  --------------------------------------------------------------------------------------
  Alpha Z   203.52043   203.52043   203.52043
  Ewald   -1605.66148 -1605.66148 -1038.60977     0.00000     0.00000     0.00000
  Hartree   576.11397   576.11397   956.26228    -0.00000    -0.00000    -0.00000
  E(xc)    -309.47438  -309.47438  -309.51903    -0.00000     0.00000     0.00000
  Local     185.02512   185.02512  -754.90828     0.00000     0.00000    -0.00000
  n-local  -238.20008  -238.54925  -237.33140     0.02752     0.12159     0.12210
  augment   267.18464   267.18464   266.56832    -0.00000    -0.00001    -0.00001
  Kinetic   921.27826   922.04832   914.00654    -0.50974    -0.95176    -1.01047
  Fock        0.00000     0.00000     0.00000     0.00000     0.00000     0.00000
  -------------------------------------------------------------------------------------
  Total      -0.00307    -0.00307    -0.01089     0.00000     0.00000     0.00000
  in kB      -0.06568    -0.06568    -0.23310     0.00000     0.00000     0.00000
  external pressure =       -0.12 kB  Pullay stress =        0.00 kB


 VOLUME and BASIS-vectors are now :
 -----------------------------------------------------------------------------
  energy-cutoff  :      550.00
  volume of cell :       74.86
      direct lattice vectors                 reciprocal lattice vectors
     4.799527032  0.000000000  0.000000000     0.208353863  0.000000000  0.000000000
     0.000000000  4.799527032  0.000000000     0.000000000  0.208353863  0.000000000
     0.000000000  0.000000000  3.249834910     0.000000000  0.000000000  0.307707938

  length of vectors
     4.799527032  4.799527032  3.249834910     0.208353863  0.208353863  0.307707938


 FORCES acting on ions
    electron-ion (+dipol)            ewald-force                    non-local-force                 convergence-correction
 -----------------------------------------------------------------------------------------------
   0.215E-11 0.529E-11 0.370E-11   -.284E-13 0.142E-12 -.125E-13   0.000E+00 0.000E+00 0.000E+00   0.989E-13 -.276E-13 0.457E-13
   -.469E-13 -.414E-13 0.535E-13   -.142E-12 -.199E-12 -.128E-13   0.000E+00 0.000E+00 0.000E+00   -.567E-14 -.171E-13 -.915E-13
   -.340E+02 0.340E+02 0.258E-11   0.353E+02 -.353E+02 0.427E-14   -.130E+01 0.130E+01 0.434E-18   -.264E-03 0.264E-03 0.600E-13
   0.340E+02 -.340E+02 -.679E-11   -.353E+02 0.353E+02 0.390E-14   0.130E+01 -.130E+01 -.434E-18   0.264E-03 -.264E-03 0.277E-13
   0.340E+02 0.340E+02 -.168E-07   -.353E+02 -.353E+02 0.311E-14   0.130E+01 0.130E+01 0.542E-18   0.264E-03 0.264E-03 -.252E-10
   -.340E+02 -.340E+02 0.168E-07   0.353E+02 0.353E+02 0.266E-14   -.130E+01 -.130E+01 -.542E-18   -.264E-03 -.264E-03 0.251E-10
 -----------------------------------------------------------------------------------------------
   0.535E-11 0.810E-11 0.209E-11   0.000E+00 0.711E-14 -.114E-13   0.222E-15 -.222E-15 0.000E+00   0.913E-13 -.307E-13 -.481E-13
 
 
 POSITION                                       TOTAL-FORCE (eV/Angst)
 -----------------------------------------------------------------------------------
      2.39976      2.39976      1.62492         0.000000      0.000000     -0.000000
      0.00000      0.00000      0.00000         0.000000      0.000000     -0.000000
      0.94009      3.85943      1.62492        -0.001663      0.001663     -0.000000
      3.85943      0.94009      1.62492         0.001663     -0.001663     -0.000000
      1.45967      1.45967      0.00000         0.001663      0.001663     -0.000000
      3.33986      3.33986      0.00000        -0.001663     -0.001663      0.000000
 -----------------------------------------------------------------------------------
    total drift:                                0.000000      0.000000      0.000000


--------------------------------------------------------------------------------------------------------



  FREE ENERGIE OF THE ION-ELECTRON SYSTEM (eV)
  ---------------------------------------------------
  free  energy   TOTEN  =       -40.16420723 eV

  energy  without entropy=      -40.16420723  energy(sigma->0) =      -40.16420723
 


--------------------------------------------------------------------------------------------------------


    POTLOK:  cpu time    0.2304: real time    0.2304


--------------------------------------------------------------------------------------------------------


 writing wavefunctions
     LOOP+:  cpu time    9.1085: real time    9.1294
    4ORBIT:  cpu time    0.0000: real time    0.0000
 


 total charge     
 
# of ion       s       p       d       tot
------------------------------------------
    1        0.178   6.172   4.979  11.329
    2        0.183   6.166   4.986  11.336
    3        1.723   4.362   0.000   6.085
    4        1.723   4.362   0.000   6.085
    5        1.723   4.357   0.000   6.080
    6        1.723   4.357   0.000   6.080
--------------------------------------------------
tot          7.254  29.776   9.965  46.995
 


 magnetization (x)
 
# of ion       s       p       d       tot
------------------------------------------
    1       -0.014  -0.015  -4.598  -4.627
    2        0.014   0.013   4.595   4.623
    3        0.002   0.021   0.000   0.023
    4        0.002   0.021   0.000   0.023
    5       -0.003  -0.017   0.000  -0.019
    6       -0.003  -0.017   0.000  -0.019
--------------------------------------------------
tot         -0.001   0.007  -0.003   0.003
 
 BZINTS: Fermi energy:  1.790170; 54.000000 electrons
         Band energy:-750.550111;  BLOECHL correction:  0.000000

 total amount of memory used by VASP MPI-rank0    42019. kBytes
=======================================================================

   base      :      30000. kBytes
   nonl-proj :       5935. kBytes
   fftplans  :       1718. kBytes
   grid      :       2211. kBytes
   one-center:        186. kBytes
   wavefun   :       1969. kBytes
 
  
  
 General timing and accounting informations for this job:
 ========================================================
  
                  Total CPU time used (sec):       10.370
                            User time (sec):        8.447
                          System time (sec):        1.923
                         Elapsed time (sec):       10.438
  
                   Maximum memory used (kb):       57392.
                   Average memory used (kb):           0.
  
                          Minor page faults:         8143
                          Major page faults:            7
                 Voluntary context switches:          296
