 vasp.5.4.4.18Apr17-6-g9f103f2a35 (build Apr 27 2017 11:13:10) complex          
  
 executed on           IFC91_ompi date 2021.06.08  16:36:22
 running on   12 total cores
 distrk:  each k-point on   12 cores,    1 groups
 distr:  one band on NCORES_PER_BAND=   1 cores,   12 groups


--------------------------------------------------------------------------------------------------------


 INCAR:
 POTCAR:    PAW_PBE Mn_pv 02Aug2007               
 POTCAR:    PAW_PBE F 08Apr2002                   

 ----------------------------------------------------------------------------- 
|                                                                             |
|           W    W    AA    RRRRR   N    N  II  N    N   GGGG   !!!           |
|           W    W   A  A   R    R  NN   N  II  NN   N  G    G  !!!           |
|           W    W  A    A  R    R  N N  N  II  N N  N  G       !!!           |
|           W WW W  AAAAAA  RRRRR   N  N N  II  N  N N  G  GGG   !            |
|           WW  WW  A    A  R   R   N   NN  II  N   NN  G    G                |
|           W    W  A    A  R    R  N    N  II  N    N   GGGG   !!!           |
|                                                                             |
|      For optimal performance we recommend to set                            |
|        NCORE= 4 - approx SQRT( number of cores)                             |
|      NCORE specifies how many cores store one orbital (NPAR=cpu/NCORE).     |
|      This setting can  greatly improve the performance of VASP for DFT.     |
|      The default,   NCORE=1            might be grossly inefficient         |
|      on modern multi-core architectures or massively parallel machines.     |
|      Do your own testing !!!!                                               |
|      Unfortunately you need to use the default for GW and RPA calculations. |
|      (for HF NCORE is supported but not extensively tested yet)             |
|                                                                             |
 ----------------------------------------------------------------------------- 

 POTCAR:    PAW_PBE Mn_pv 02Aug2007               
   VRHFIN =Mn: 3p4s3d                                                           
   LEXCH  = PE                                                                  
   EATOM  =  2025.2664 eV,  148.8529 Ry                                         
                                                                                
   TITEL  = PAW_PBE Mn_pv 02Aug2007                                             
   LULTRA =        F    use ultrasoft PP ?                                      
   IUNSCR =        1    unscreen: 0-lin 1-nonlin 2-no                           
   RPACOR =    2.080    partial core radius                                     
   POMASS =   54.938; ZVAL   =   13.000    mass and valenz                      
   RCORE  =    2.300    outmost cutoff radius                                   
   RWIGS  =    2.500; RWIGS  =    1.323    wigner-seitz radius (au A)           
   ENMAX  =  269.864; ENMIN  =  202.398 eV                                      
   ICORE  =        3    local potential                                         
   LCOR   =        T    correct aug charges                                     
   LPAW   =        T    paw PP                                                  
   EAUG   =  569.085                                                            
   DEXC   =    0.000                                                            
   RMAX   =    2.343    core radius for proj-oper                               
   RAUG   =    1.300    factor for augmentation sphere                          
   RDEP   =    2.338    radius for radial grids                                 
   RDEPT  =    1.798    core radius for aug-charge                              
                                                                                
   Atomic configuration                                                         
    8 entries                                                                   
     n  l   j            E        occ.                                          
     1  0  0.50     -6424.8287   2.0000                                         
     2  0  0.50      -739.1154   2.0000                                         
     2  1  1.50      -625.3949   6.0000                                         
     3  0  0.50       -81.6100   2.0000                                         
     3  1  1.50       -50.4667   6.0000                                         
     3  2  2.50        -3.3745   6.0000                                         
     4  0  0.50        -4.1331   1.0000                                         
     4  3  2.50        -1.3606   0.0000                                         
   Description                                                                  
     l       E           TYP  RCUT    TYP  RCUT                                 
     1    -50.4666628     23  2.000                                             
     1     -1.3605826     23  2.000                                             
     2     -3.3744729     23  2.300                                             
     2     -4.7350555     23  2.300                                             
     0     -4.1331431     23  2.300                                             
     0      7.6656591     23  2.300                                             
     3      9.5240782     23  2.300                                             
  local pseudopotential read in
  partial core-charges read in
  partial kinetic energy density read in
  atomic valenz-charges read in
  non local Contribution for L=           1  read in
    real space projection operators read in
  non local Contribution for L=           1  read in
    real space projection operators read in
  non local Contribution for L=           2  read in
    real space projection operators read in
  non local Contribution for L=           2  read in
    real space projection operators read in
  non local Contribution for L=           0  read in
    real space projection operators read in
  non local Contribution for L=           0  read in
    real space projection operators read in
    PAW grid and wavefunctions read in
 
   number of l-projection  operators is LMAX  =           6
   number of lm-projection operators is LMMAX =          18
 
 POTCAR:    PAW_PBE F 08Apr2002                   
   VRHFIN =F: s2p5                                                              
   LEXCH  = PE                                                                  
   EATOM  =   659.6475 eV,   48.4827 Ry                                         
                                                                                
   TITEL  = PAW_PBE F 08Apr2002                                                 
   LULTRA =        F    use ultrasoft PP ?                                      
   IUNSCR =        1    unscreen: 0-lin 1-nonlin 2-no                           
   RPACOR =    1.200    partial core radius                                     
   POMASS =   18.998; ZVAL   =    7.000    mass and valenz                      
   RCORE  =    1.520    outmost cutoff radius                                   
   RWIGS  =    1.500; RWIGS  =    0.794    wigner-seitz radius (au A)           
   ENMAX  =  400.000; ENMIN  =  300.000 eV                                      
   ICORE  =        2    local potential                                         
   LCOR   =        T    correct aug charges                                     
   LPAW   =        T    paw PP                                                  
   EAUG   =  613.614                                                            
   RMAX   =    1.555    core radius for proj-oper                               
   RAUG   =    1.300    factor for augmentation sphere                          
   RDEP   =    1.539    radius for radial grids                                 
   RDEPT  =    1.299    core radius for aug-charge                              
                                                                                
   Atomic configuration                                                         
    4 entries                                                                   
     n  l   j            E        occ.                                          
     1  0  0.50      -663.3661   2.0000                                         
     2  0  0.50       -29.8995   2.0000                                         
     2  1  0.50       -11.1114   5.0000                                         
     3  2  1.50       -10.8847   0.0000                                         
   Description                                                                  
     l       E           TYP  RCUT    TYP  RCUT                                 
     0    -29.8995018     23  1.200                                             
     0     -9.5240782     23  1.200                                             
     1    -11.1113914     23  1.520                                             
     1      1.3605826     23  1.520                                             
     2    -10.8846608      7  1.500                                             
  local pseudopotential read in
  partial core-charges read in
  partial kinetic energy density read in
  atomic valenz-charges read in
  non local Contribution for L=           0  read in
    real space projection operators read in
  non local Contribution for L=           0  read in
    real space projection operators read in
  non local Contribution for L=           1  read in
    real space projection operators read in
  non local Contribution for L=           1  read in
    real space projection operators read in
    PAW grid and wavefunctions read in
 
   number of l-projection  operators is LMAX  =           4
   number of lm-projection operators is LMMAX =           8
 

 ----------------------------------------------------------------------------- 
|                                                                             |
|  ADVICE TO THIS USER RUNNING 'VASP/VAMP'   (HEAR YOUR MASTER'S VOICE ...):  |
|                                                                             |
|      You enforced a specific xc-type in the INCAR file,                     |
|      a different type was found on the POTCAR file                          |
|          I HOPE YOU KNOW, WHAT YOU ARE  DOING                               |
|                                                                             |
 ----------------------------------------------------------------------------- 

  PAW_PBE Mn_pv 02Aug2007               :
 energy of atom  1       EATOM=-2025.2664
 kinetic energy error for atom=    0.0047 (will be added to EATOM!!)
  PAW_PBE F 08Apr2002                   :
 energy of atom  2       EATOM= -659.6475
 kinetic energy error for atom=    0.0256 (will be added to EATOM!!)
 
 
 POSCAR: Mn  F                                   
  positions in cartesian coordinates
  No initial velocities read in
 exchange correlation table for  LEXCH =       14
   RHO(1)=    0.500       N(1)  =     2000
   RHO(2)=  100.500       N(2)  =     4000
 


--------------------------------------------------------------------------------------------------------


 ion  position               nearest neighbor table
   1  0.500  0.500  0.500-   3 2.11   4 2.11   5 2.14   6 2.14   5 2.14   6 2.14
   2  0.000  0.000  0.000-   5 2.11   6 2.11   3 2.14   4 2.14   3 2.14   4 2.14
   3  0.195  0.805  0.500-   1 2.11   2 2.14   2 2.14
   4  0.805  0.195  0.500-   1 2.11   2 2.14   2 2.14
   5  0.305  0.305  0.000-   2 2.11   1 2.14   1 2.14
   6  0.695  0.695  0.000-   2 2.11   1 2.14   1 2.14
 

IMPORTANT INFORMATION: All symmetrisations will be switched off!
NOSYMM: (Re-)initialisation of all symmetry stuff for point group C_1.

 
 
 KPOINTS: KPOINTS created by Atomic Simulation Env

Automatic generation of k-mesh.
Space group operators:
 irot       det(A)        alpha          n_x          n_y          n_z        tau_x        tau_y        tau_z
    1     1.000000     0.000001     1.000000     0.000000     0.000000     0.000000     0.000000     0.000000
 
 Subroutine IBZKPT returns following result:
 ===========================================
 
 Found     48 irreducible k-points:
 
 Following reciprocal coordinates:
            Coordinates               Weight
  0.125000  0.125000  0.083333      2.000000
  0.375000  0.125000  0.083333      2.000000
 -0.375000  0.125000  0.083333      2.000000
 -0.125000  0.125000  0.083333      2.000000
  0.125000  0.375000  0.083333      2.000000
  0.375000  0.375000  0.083333      2.000000
 -0.375000  0.375000  0.083333      2.000000
 -0.125000  0.375000  0.083333      2.000000
  0.125000 -0.375000  0.083333      2.000000
  0.375000 -0.375000  0.083333      2.000000
 -0.375000 -0.375000  0.083333      2.000000
 -0.125000 -0.375000  0.083333      2.000000
  0.125000 -0.125000  0.083333      2.000000
  0.375000 -0.125000  0.083333      2.000000
 -0.375000 -0.125000  0.083333      2.000000
 -0.125000 -0.125000  0.083333      2.000000
  0.125000  0.125000  0.250000      2.000000
  0.375000  0.125000  0.250000      2.000000
 -0.375000  0.125000  0.250000      2.000000
 -0.125000  0.125000  0.250000      2.000000
  0.125000  0.375000  0.250000      2.000000
  0.375000  0.375000  0.250000      2.000000
 -0.375000  0.375000  0.250000      2.000000
 -0.125000  0.375000  0.250000      2.000000
  0.125000 -0.375000  0.250000      2.000000
  0.375000 -0.375000  0.250000      2.000000
 -0.375000 -0.375000  0.250000      2.000000
 -0.125000 -0.375000  0.250000      2.000000
  0.125000 -0.125000  0.250000      2.000000
  0.375000 -0.125000  0.250000      2.000000
 -0.375000 -0.125000  0.250000      2.000000
 -0.125000 -0.125000  0.250000      2.000000
  0.125000  0.125000  0.416667      2.000000
  0.375000  0.125000  0.416667      2.000000
 -0.375000  0.125000  0.416667      2.000000
 -0.125000  0.125000  0.416667      2.000000
  0.125000  0.375000  0.416667      2.000000
  0.375000  0.375000  0.416667      2.000000
 -0.375000  0.375000  0.416667      2.000000
 -0.125000  0.375000  0.416667      2.000000
  0.125000 -0.375000  0.416667      2.000000
  0.375000 -0.375000  0.416667      2.000000
 -0.375000 -0.375000  0.416667      2.000000
 -0.125000 -0.375000  0.416667      2.000000
  0.125000 -0.125000  0.416667      2.000000
  0.375000 -0.125000  0.416667      2.000000
 -0.375000 -0.125000  0.416667      2.000000
 -0.125000 -0.125000  0.416667      2.000000
 
 Following cartesian coordinates:
            Coordinates               Weight
  0.025518  0.025518  0.025148      2.000000
  0.076554  0.025518  0.025148      2.000000
 -0.076554  0.025518  0.025148      2.000000
 -0.025518  0.025518  0.025148      2.000000
  0.025518  0.076554  0.025148      2.000000
  0.076554  0.076554  0.025148      2.000000
 -0.076554  0.076554  0.025148      2.000000
 -0.025518  0.076554  0.025148      2.000000
  0.025518 -0.076554  0.025148      2.000000
  0.076554 -0.076554  0.025148      2.000000
 -0.076554 -0.076554  0.025148      2.000000
 -0.025518 -0.076554  0.025148      2.000000
  0.025518 -0.025518  0.025148      2.000000
  0.076554 -0.025518  0.025148      2.000000
 -0.076554 -0.025518  0.025148      2.000000
 -0.025518 -0.025518  0.025148      2.000000
  0.025518  0.025518  0.075445      2.000000
  0.076554  0.025518  0.075445      2.000000
 -0.076554  0.025518  0.075445      2.000000
 -0.025518  0.025518  0.075445      2.000000
  0.025518  0.076554  0.075445      2.000000
  0.076554  0.076554  0.075445      2.000000
 -0.076554  0.076554  0.075445      2.000000
 -0.025518  0.076554  0.075445      2.000000
  0.025518 -0.076554  0.075445      2.000000
  0.076554 -0.076554  0.075445      2.000000
 -0.076554 -0.076554  0.075445      2.000000
 -0.025518 -0.076554  0.075445      2.000000
  0.025518 -0.025518  0.075445      2.000000
  0.076554 -0.025518  0.075445      2.000000
 -0.076554 -0.025518  0.075445      2.000000
 -0.025518 -0.025518  0.075445      2.000000
  0.025518  0.025518  0.125741      2.000000
  0.076554  0.025518  0.125741      2.000000
 -0.076554  0.025518  0.125741      2.000000
 -0.025518  0.025518  0.125741      2.000000
  0.025518  0.076554  0.125741      2.000000
  0.076554  0.076554  0.125741      2.000000
 -0.076554  0.076554  0.125741      2.000000
 -0.025518  0.076554  0.125741      2.000000
  0.025518 -0.076554  0.125741      2.000000
  0.076554 -0.076554  0.125741      2.000000
 -0.076554 -0.076554  0.125741      2.000000
 -0.025518 -0.076554  0.125741      2.000000
  0.025518 -0.025518  0.125741      2.000000
  0.076554 -0.025518  0.125741      2.000000
 -0.076554 -0.025518  0.125741      2.000000
 -0.025518 -0.025518  0.125741      2.000000
 
 TETIRR: Found    288 inequivalent tetrahedra from      576


--------------------------------------------------------------------------------------------------------




 Dimension of arrays:
   k-points           NKPTS =     48   k-points in BZ     NKDIM =     48   number of bands    NBANDS=     36
   number of dos      NEDOS =    301   number of ions     NIONS =      6
   non local maximal  LDIM  =      6   non local SUM 2l+1 LMDIM =     18
   total plane-waves  NPLWV =  18000
   max r-space proj   IRMAX =      1   max aug-charges    IRDMAX=  55144
   dimension x,y,z NGX =    30 NGY =   30 NGZ =   20
   dimension x,y,z NGXF=    60 NGYF=   60 NGZF=   40
   support grid    NGXF=   120 NGYF=  120 NGZF=   80
   ions per type =               2   4
   NGX,Y,Z   is equivalent  to a cutoff of  10.18, 10.18, 10.03 a.u.
   NGXF,Y,Z  is equivalent  to a cutoff of  20.36, 20.36, 20.07 a.u.

 SYSTEM =  unknown system                          
 POSCAR =  Mn  F                                   

 Startparameter for this run:
   NWRITE =      2    write-flag & timer
   PREC   = normal    normal or accurate (medium, high low for compatibility)
   ISTART =      1    job   : 0-new  1-cont  2-samecut
   ICHARG =      0    charge: 1-file 2-atom 10-const
   ISPIN  =      2    spin polarized calculation?
   LNONCOLLINEAR =      F non collinear calculations
   LSORBIT =      F    spin-orbit coupling
   INIWAV =      1    electr: 0-lowe 1-rand  2-diag
   LASPH  =      T    aspherical Exc in radial PAW
   METAGGA=      F    non-selfconsistent MetaGGA calc.

 Electronic Relaxation 1
   ENCUT  =  600.0 eV  44.10 Ry    6.64 a.u.   9.78  9.78  6.62*2*pi/ulx,y,z
   ENINI  =  600.0     initial cutoff
   ENAUG  =  613.6 eV  augmentation charge cutoff
   NELM   =     60;   NELMIN=  2; NELMDL=  0     # of ELM steps 
   EDIFF  = 0.1E-07   stopping-criterion for ELM
   LREAL  =      F    real-space projection
   NLSPLINE    = F    spline interpolate recip. space projectors
   LCOMPAT=      F    compatible to vasp.4.4
   GGA_COMPAT  = T    GGA compatible to vasp.4.4-vasp.4.6
   LMAXPAW     = -100 max onsite density
   LMAXMIX     =    4 max onsite mixed and CHGCAR
   VOSKOWN=      0    Vosko Wilk Nusair interpolation
   ROPT   =    0.00000   0.00000
 Ionic relaxation
   EDIFFG = 0.1E-06   stopping-criterion for IOM
   NSW    =      0    number of steps for IOM
   NBLOCK =      1;   KBLOCK =      1    inner block; outer block 
   IBRION =     -1    ionic relax: 0-MD 1-quasi-New 2-CG
   NFREE  =      0    steps in history (QN), initial steepest desc. (CG)
   ISIF   =      2    stress and relaxation
   IWAVPR =     10    prediction:  0-non 1-charg 2-wave 3-comb
   ISYM   =      0    0-nonsym 1-usesym 2-fastsym
   LCORR  =      T    Harris-Foulkes like correction to forces

   POTIM  = 0.5000    time-step for ionic-motion
   TEIN   =    0.0    initial temperature
   TEBEG  =    0.0;   TEEND  =   0.0 temperature during run
   SMASS  =  -3.00    Nose mass-parameter (am)
   estimated Nose-frequenzy (Omega)   =  0.10E-29 period in steps =****** mass=  -0.548E-27a.u.
   SCALEE = 1.0000    scale energy and forces
   NPACO  =    256;   APACO  = 16.0  distance and # of slots for P.C.
   PSTRESS=    0.0 pullay stress

  Mass of Ions in am
   POMASS =  54.94 19.00
  Ionic Valenz
   ZVAL   =  13.00  7.00
  Atomic Wigner-Seitz radii
   RWIGS  =  -1.00 -1.00
  virtual crystal weights 
   VCA    =   1.00  1.00
   NELECT =      54.0000    total number of electrons
   NUPDOWN=      -1.0000    fix difference up-down

 DOS related values:
   EMIN   =  10.00;   EMAX   =-10.00  energy-range for DOS
   EFERMI =   0.00
   ISMEAR =    -5;   SIGMA  =   0.20  broadening in eV -4-tet -1-fermi 0-gaus

 Electronic relaxation 2 (details)
   IALGO  =     38    algorithm
   LDIAG  =      T    sub-space diagonalisation (order eigenvalues)
   LSUBROT=      F    optimize rotation matrix (better conditioning)
   TURBO    =      0    0=normal 1=particle mesh
   IRESTART =      0    0=no restart 2=restart with 2 vectors
   NREBOOT  =      0    no. of reboots
   NMIN     =      0    reboot dimension
   EREF     =   0.00    reference energy to select bands
   IMIX   =      4    mixing-type and parameters
     AMIX     =   0.40;   BMIX     =  1.00
     AMIX_MAG =   1.60;   BMIX_MAG =  1.00
     AMIN     =   0.10
     WC   =   100.;   INIMIX=   1;  MIXPRE=   1;  MAXMIX= -45

 Intra band minimization:
   WEIMIN = 0.0000     energy-eigenvalue tresh-hold
   EBREAK =  0.69E-10  absolut break condition
   DEPER  =   0.30     relativ break condition  

   TIME   =   0.40     timestep for ELM

  volume/ion in A,a.u.               =      13.25        89.43
  Fermi-wavevector in a.u.,A,eV,Ry     =   1.438993  2.719302 28.173591  2.070700
  Thomas-Fermi vector in A             =   2.557898
 
 Write flags
   LWAVE        =      T    write WAVECAR
   LDOWNSAMPLE  =      F    k-point downsampling of WAVECAR
   LCHARG       =      T    write CHGCAR
   LVTOT        =      F    write LOCPOT, total local potential
   LVHAR        =      F    write LOCPOT, Hartree potential only
   LELF         =      F    write electronic localiz. function (ELF)
   LORBIT       =     11    0 simple, 1 ext, 2 COOP (PROOUT), +10 PAW based schemes


 Dipole corrections
   LMONO  =      F    monopole corrections only (constant potential shift)
   LDIPOL =      F    correct potential (dipole corrections)
   IDIPOL =      0    1-x, 2-y, 3-z, 4-all directions 
   EPSILON=  1.0000000 bulk dielectric constant

 LDA+U is selected, type is set to LDAUTYPE =  2
   angular momentum for each species LDAUL =     2   -1
   U (eV)           for each species LDAUU =   8.0  0.0
   J (eV)           for each species LDAUJ =   0.0  0.0
 Exchange correlation treatment:
   GGA     =    PS    GGA type
   LEXCH   =    14    internal setting for exchange type
   VOSKOWN=      0    Vosko Wilk Nusair interpolation
   LHFCALC =     F    Hartree Fock is set to
   LHFONE  =     F    Hartree Fock one center treatment
   AEXX    =    0.0000 exact exchange contribution

 Linear response parameters
   LEPSILON=     F    determine dielectric tensor
   LRPA    =     F    only Hartree local field effects (RPA)
   LNABLA  =     F    use nabla operator in PAW spheres
   LVEL    =     F    velocity operator in full k-point grid
   LINTERFAST=   F  fast interpolation
   KINTER  =     0    interpolate to denser k-point grid
   CSHIFT  =0.1000    complex shift for real part using Kramers Kronig
   OMEGAMAX=  -1.0    maximum frequency
   DEG_THRESHOLD= 0.2000000E-02 threshold for treating states as degnerate
   RTIME   =   -0.100 relaxation time in fs
  (WPLASMAI=    0.000 imaginary part of plasma frequency in eV, 0.658/RTIME)
   DFIELD  = 0.0000000 0.0000000 0.0000000 field for delta impulse in time
 
 Orbital magnetization related:
   ORBITALMAG=     F  switch on orbital magnetization
   LCHIMAG   =     F  perturbation theory with respect to B field
   DQ        =  0.001000  dq finite difference perturbation B field
   LLRAUG    =     F  two centre corrections for induced B field



--------------------------------------------------------------------------------------------------------


 Static calculation
 charge density and potential will be updated during run
 spin polarized calculation
 Variant of blocked Davidson
 Davidson routine will perform the subspace rotation
 perform sub-space diagonalisation
    after iterative eigenvector-optimisation
 modified Broyden-mixing scheme, WC =      100.0
 initial mixing is a Kerker type mixing with AMIX =  0.4000 and BMIX =      1.0000
 Hartree-type preconditioning will be used
 using additional bands            9
 reciprocal scheme for non local part
 use partial core corrections
 calculate Harris-corrections to forces 
   (improved forces if not selfconsistent)
 use gradient corrections 
 use of overlap-Matrix (Vanderbilt PP)
 Fermi weights with tetrahedron method with Bloechl corrections


--------------------------------------------------------------------------------------------------------


  energy-cutoff  :      600.00
  volume of cell :       79.51
      direct lattice vectors                 reciprocal lattice vectors
     4.898521820  0.000000000  0.000000000     0.204143216  0.000000000  0.000000000
     0.000000000  4.898521820  0.000000000     0.000000000  0.204143216  0.000000000
     0.000000000  0.000000000  3.313692693     0.000000000  0.000000000  0.301778135

  length of vectors
     4.898521820  4.898521820  3.313692693     0.204143216  0.204143216  0.301778135


 
 old parameters found on file WAVECAR:
  energy-cutoff  :      600.00
  volume of cell :       79.51
      direct lattice vectors                 reciprocal lattice vectors
     4.898521820  0.000000000  0.000000000     0.204143216  0.000000000  0.000000000
     0.000000000  4.898521820  0.000000000     0.000000000  0.204143216  0.000000000
     0.000000000  0.000000000  3.313692693     0.000000000  0.000000000  0.301778135

  length of vectors

 
 k-points in units of 2pi/SCALE and weight: KPOINTS created by Atomic Simulation Env
   0.02551790  0.02551790  0.02514818       0.021
   0.07655371  0.02551790  0.02514818       0.021
  -0.07655371  0.02551790  0.02514818       0.021
  -0.02551790  0.02551790  0.02514818       0.021
   0.02551790  0.07655371  0.02514818       0.021
   0.07655371  0.07655371  0.02514818       0.021
  -0.07655371  0.07655371  0.02514818       0.021
  -0.02551790  0.07655371  0.02514818       0.021
   0.02551790 -0.07655371  0.02514818       0.021
   0.07655371 -0.07655371  0.02514818       0.021
  -0.07655371 -0.07655371  0.02514818       0.021
  -0.02551790 -0.07655371  0.02514818       0.021
   0.02551790 -0.02551790  0.02514818       0.021
   0.07655371 -0.02551790  0.02514818       0.021
  -0.07655371 -0.02551790  0.02514818       0.021
  -0.02551790 -0.02551790  0.02514818       0.021
   0.02551790  0.02551790  0.07544453       0.021
   0.07655371  0.02551790  0.07544453       0.021
  -0.07655371  0.02551790  0.07544453       0.021
  -0.02551790  0.02551790  0.07544453       0.021
   0.02551790  0.07655371  0.07544453       0.021
   0.07655371  0.07655371  0.07544453       0.021
  -0.07655371  0.07655371  0.07544453       0.021
  -0.02551790  0.07655371  0.07544453       0.021
   0.02551790 -0.07655371  0.07544453       0.021
   0.07655371 -0.07655371  0.07544453       0.021
  -0.07655371 -0.07655371  0.07544453       0.021
  -0.02551790 -0.07655371  0.07544453       0.021
   0.02551790 -0.02551790  0.07544453       0.021
   0.07655371 -0.02551790  0.07544453       0.021
  -0.07655371 -0.02551790  0.07544453       0.021
  -0.02551790 -0.02551790  0.07544453       0.021
   0.02551790  0.02551790  0.12574089       0.021
   0.07655371  0.02551790  0.12574089       0.021
  -0.07655371  0.02551790  0.12574089       0.021
  -0.02551790  0.02551790  0.12574089       0.021
   0.02551790  0.07655371  0.12574089       0.021
   0.07655371  0.07655371  0.12574089       0.021
  -0.07655371  0.07655371  0.12574089       0.021
  -0.02551790  0.07655371  0.12574089       0.021
   0.02551790 -0.07655371  0.12574089       0.021
   0.07655371 -0.07655371  0.12574089       0.021
  -0.07655371 -0.07655371  0.12574089       0.021
  -0.02551790 -0.07655371  0.12574089       0.021
   0.02551790 -0.02551790  0.12574089       0.021
   0.07655371 -0.02551790  0.12574089       0.021
  -0.07655371 -0.02551790  0.12574089       0.021
  -0.02551790 -0.02551790  0.12574089       0.021
 
 k-points in reciprocal lattice and weights: KPOINTS created by Atomic Simulation Env
   0.12500000  0.12500000  0.08333333       0.021
   0.37500000  0.12500000  0.08333333       0.021
  -0.37500000  0.12500000  0.08333333       0.021
  -0.12500000  0.12500000  0.08333333       0.021
   0.12500000  0.37500000  0.08333333       0.021
   0.37500000  0.37500000  0.08333333       0.021
  -0.37500000  0.37500000  0.08333333       0.021
  -0.12500000  0.37500000  0.08333333       0.021
   0.12500000 -0.37500000  0.08333333       0.021
   0.37500000 -0.37500000  0.08333333       0.021
  -0.37500000 -0.37500000  0.08333333       0.021
  -0.12500000 -0.37500000  0.08333333       0.021
   0.12500000 -0.12500000  0.08333333       0.021
   0.37500000 -0.12500000  0.08333333       0.021
  -0.37500000 -0.12500000  0.08333333       0.021
  -0.12500000 -0.12500000  0.08333333       0.021
   0.12500000  0.12500000  0.25000000       0.021
   0.37500000  0.12500000  0.25000000       0.021
  -0.37500000  0.12500000  0.25000000       0.021
  -0.12500000  0.12500000  0.25000000       0.021
   0.12500000  0.37500000  0.25000000       0.021
   0.37500000  0.37500000  0.25000000       0.021
  -0.37500000  0.37500000  0.25000000       0.021
  -0.12500000  0.37500000  0.25000000       0.021
   0.12500000 -0.37500000  0.25000000       0.021
   0.37500000 -0.37500000  0.25000000       0.021
  -0.37500000 -0.37500000  0.25000000       0.021
  -0.12500000 -0.37500000  0.25000000       0.021
   0.12500000 -0.12500000  0.25000000       0.021
   0.37500000 -0.12500000  0.25000000       0.021
  -0.37500000 -0.12500000  0.25000000       0.021
  -0.12500000 -0.12500000  0.25000000       0.021
   0.12500000  0.12500000  0.41666667       0.021
   0.37500000  0.12500000  0.41666667       0.021
  -0.37500000  0.12500000  0.41666667       0.021
  -0.12500000  0.12500000  0.41666667       0.021
   0.12500000  0.37500000  0.41666667       0.021
   0.37500000  0.37500000  0.41666667       0.021
  -0.37500000  0.37500000  0.41666667       0.021
  -0.12500000  0.37500000  0.41666667       0.021
   0.12500000 -0.37500000  0.41666667       0.021
   0.37500000 -0.37500000  0.41666667       0.021
  -0.37500000 -0.37500000  0.41666667       0.021
  -0.12500000 -0.37500000  0.41666667       0.021
   0.12500000 -0.12500000  0.41666667       0.021
   0.37500000 -0.12500000  0.41666667       0.021
  -0.37500000 -0.12500000  0.41666667       0.021
  -0.12500000 -0.12500000  0.41666667       0.021
 
 position of ions in fractional coordinates (direct lattice) 
   0.50000000  0.50000000  0.50000000
   0.00000000  0.00000000  0.00000000
   0.19504534  0.80495466  0.50000000
   0.80495466  0.19504534  0.50000000
   0.30495466  0.30495466  0.00000000
   0.69504534  0.69504534  0.00000000
 
 position of ions in cartesian coordinates  (Angst):
   2.44926091  2.44926091  1.65684635
   0.00000000  0.00000000  0.00000000
   0.95543383  3.94308799  1.65684635
   3.94308799  0.95543383  1.65684635
   1.49382708  1.49382708  0.00000000
   3.40469474  3.40469474  0.00000000
 


--------------------------------------------------------------------------------------------------------


 k-point  1 :   0.1250 0.1250 0.0833  plane waves:    2662
 k-point  2 :   0.3750 0.1250 0.0833  plane waves:    2654
 k-point  3 :  -0.3750 0.1250 0.0833  plane waves:    2654
 k-point  4 :  -0.1250 0.1250 0.0833  plane waves:    2662
 k-point  5 :   0.1250 0.3750 0.0833  plane waves:    2654
 k-point  6 :   0.3750 0.3750 0.0833  plane waves:    2663
 k-point  7 :  -0.3750 0.3750 0.0833  plane waves:    2663
 k-point  8 :  -0.1250 0.3750 0.0833  plane waves:    2654
 k-point  9 :   0.1250-0.3750 0.0833  plane waves:    2654
 k-point 10 :   0.3750-0.3750 0.0833  plane waves:    2663
 k-point 11 :  -0.3750-0.3750 0.0833  plane waves:    2663
 k-point 12 :  -0.1250-0.3750 0.0833  plane waves:    2654
 k-point 13 :   0.1250-0.1250 0.0833  plane waves:    2662
 k-point 14 :   0.3750-0.1250 0.0833  plane waves:    2654
 k-point 15 :  -0.3750-0.1250 0.0833  plane waves:    2654
 k-point 16 :  -0.1250-0.1250 0.0833  plane waves:    2662
 k-point 17 :   0.1250 0.1250 0.2500  plane waves:    2651
 k-point 18 :   0.3750 0.1250 0.2500  plane waves:    2657
 k-point 19 :  -0.3750 0.1250 0.2500  plane waves:    2657
 k-point 20 :  -0.1250 0.1250 0.2500  plane waves:    2651
 k-point 21 :   0.1250 0.3750 0.2500  plane waves:    2657
 k-point 22 :   0.3750 0.3750 0.2500  plane waves:    2654
 k-point 23 :  -0.3750 0.3750 0.2500  plane waves:    2654
 k-point 24 :  -0.1250 0.3750 0.2500  plane waves:    2657
 k-point 25 :   0.1250-0.3750 0.2500  plane waves:    2657
 k-point 26 :   0.3750-0.3750 0.2500  plane waves:    2654
 k-point 27 :  -0.3750-0.3750 0.2500  plane waves:    2654
 k-point 28 :  -0.1250-0.3750 0.2500  plane waves:    2657
 k-point 29 :   0.1250-0.1250 0.2500  plane waves:    2651
 k-point 30 :   0.3750-0.1250 0.2500  plane waves:    2657
 k-point 31 :  -0.3750-0.1250 0.2500  plane waves:    2657
 k-point 32 :  -0.1250-0.1250 0.2500  plane waves:    2651
 k-point 33 :   0.1250 0.1250 0.4167  plane waves:    2647
 k-point 34 :   0.3750 0.1250 0.4167  plane waves:    2649
 k-point 35 :  -0.3750 0.1250 0.4167  plane waves:    2649
 k-point 36 :  -0.1250 0.1250 0.4167  plane waves:    2647
 k-point 37 :   0.1250 0.3750 0.4167  plane waves:    2649
 k-point 38 :   0.3750 0.3750 0.4167  plane waves:    2641
 k-point 39 :  -0.3750 0.3750 0.4167  plane waves:    2641
 k-point 40 :  -0.1250 0.3750 0.4167  plane waves:    2649
 k-point 41 :   0.1250-0.3750 0.4167  plane waves:    2649
 k-point 42 :   0.3750-0.3750 0.4167  plane waves:    2641
 k-point 43 :  -0.3750-0.3750 0.4167  plane waves:    2641
 k-point 44 :  -0.1250-0.3750 0.4167  plane waves:    2649
 k-point 45 :   0.1250-0.1250 0.4167  plane waves:    2647
 k-point 46 :   0.3750-0.1250 0.4167  plane waves:    2649
 k-point 47 :  -0.3750-0.1250 0.4167  plane waves:    2649
 k-point 48 :  -0.1250-0.1250 0.4167  plane waves:    2647

 maximum and minimum number of plane-waves per node :      2663     2641

 maximum number of plane-waves:      2663
 maximum index in each direction: 
   IXMAX=   10   IYMAX=   10   IZMAX=    6
   IXMIN=  -10   IYMIN=  -10   IZMIN=   -7


 serial   3D FFT for wavefunctions
 parallel 3D FFT for charge:
    minimum data exchange during FFTs selected (reduces bandwidth)


 total amount of memory used by VASP MPI-rank0    84217. kBytes
=======================================================================

   base      :      30000. kBytes
   nonl-proj :      37082. kBytes
   fftplans  :       1875. kBytes
   grid      :       2467. kBytes
   one-center:        186. kBytes
   wavefun   :      12607. kBytes
 
     INWAV:  cpu time    0.7388: real time    0.7388
 Broyden mixing: mesh for mixing (old mesh)
   NGX = 19   NGY = 19   NGZ = 13
  (NGX  = 60   NGY  = 60   NGZ  = 40)
  gives a total of   4693 points

 charge density for first step will be calculated from the start-wavefunctions


--------------------------------------------------------------------------------------------------------


 Maximum index for augmentation-charges         4215 (set IRDMAX)


--------------------------------------------------------------------------------------------------------


 initial charge from wavefunction
 First call to EWALD:  gamma=   0.412
 Maximum number of real-space cells 2x 2x 3
 Maximum number of reciprocal cells 3x 3x 2

    FEWALD:  cpu time    0.0011: real time    0.0011


--------------------------------------- Iteration      1(   1)  ---------------------------------------


    POTLOK:  cpu time    0.0180: real time    0.0180
    SETDIJ:  cpu time    2.1595: real time    2.1595
atom =   1  type =  1  l = 2
 
 onsite density matrix
 
spin component  1
 
  0.1143  0.0124 -0.0111  0.0127  0.0000
  0.0124  0.0797  0.0087  0.0347 -0.0139
 -0.0111  0.0087  0.0626  0.0087  0.0013
  0.0127  0.0347  0.0087  0.0781  0.0143
  0.0000 -0.0139  0.0013  0.0143  0.0892
 
spin component  2
 
  0.9286 -0.0046  0.0260 -0.0047 -0.0001
 -0.0046  0.9233 -0.0033  0.0088  0.0054
  0.0260 -0.0033  0.9293 -0.0032 -0.0005
 -0.0047  0.0088 -0.0032  0.9239 -0.0055
 -0.0001  0.0054 -0.0005 -0.0055  0.8956
 
 occupancies and eigenvectors
 
  o =  0.0366  v =  0.0028  0.6540 -0.0123 -0.6680  0.3548  0.0000  0.0000  0.0000  0.0000  0.0000      0.0000  0.0000  0.0000  0.0000  0.0000  0.0000  0.0000  0.0000  0.0000  0.0000
  o =  0.0557  v = -0.2592  0.1835 -0.9248  0.2082  0.0238  0.0000  0.0000  0.0000  0.0000  0.0000      0.0000  0.0000  0.0000  0.0000  0.0000  0.0000  0.0000  0.0000  0.0000  0.0000
  o =  0.0967  v = -0.0444  0.2844 -0.0040 -0.2171 -0.9327  0.0000  0.0000  0.0000  0.0000  0.0000      0.0000  0.0000  0.0000  0.0000  0.0000  0.0000  0.0000  0.0000  0.0000  0.0000
  o =  0.1031  v =  0.6534 -0.4549 -0.3800 -0.4671 -0.0594  0.0000  0.0000  0.0000  0.0000  0.0000      0.0000  0.0000  0.0000  0.0000  0.0000  0.0000  0.0000  0.0000  0.0000  0.0000
  o =  0.1316  v = -0.7099 -0.5009 -0.0120 -0.4950 -0.0037  0.0000  0.0000  0.0000  0.0000  0.0000      0.0000  0.0000  0.0000  0.0000  0.0000  0.0000  0.0000  0.0000  0.0000  0.0000
  o =  0.8929  v =  0.0000  0.0000  0.0000  0.0000  0.0000 -0.0098 -0.2337  0.0182  0.2343  0.9434      0.0000  0.0000  0.0000  0.0000  0.0000  0.0000  0.0000  0.0000  0.0000  0.0000
  o =  0.9028  v =  0.0000  0.0000  0.0000  0.0000  0.0000 -0.7157 -0.0243  0.6962 -0.0485 -0.0148      0.0000  0.0000  0.0000  0.0000  0.0000  0.0000  0.0000  0.0000  0.0000  0.0000
  o =  0.9174  v =  0.0000  0.0000  0.0000  0.0000  0.0000 -0.0134 -0.6864  0.0003  0.6474 -0.3309      0.0000  0.0000  0.0000  0.0000  0.0000  0.0000  0.0000  0.0000  0.0000  0.0000
  o =  0.9300  v =  0.0000  0.0000  0.0000  0.0000  0.0000 -0.1741 -0.6550 -0.2498 -0.6915  0.0125      0.0000  0.0000  0.0000  0.0000  0.0000  0.0000  0.0000  0.0000  0.0000  0.0000
  o =  0.9575  v =  0.0000  0.0000  0.0000  0.0000  0.0000 -0.6762  0.2113 -0.6728  0.2132  0.0054      0.0000  0.0000  0.0000  0.0000  0.0000  0.0000  0.0000  0.0000  0.0000  0.0000
atom =   2  type =  1  l = 2
 
 onsite density matrix
 
spin component  1
 
  0.9311 -0.0044 -0.0082 -0.0045  0.0001
 -0.0044  0.9227 -0.0027 -0.0263  0.0047
 -0.0082 -0.0027  0.9304 -0.0026 -0.0005
 -0.0045 -0.0263 -0.0026  0.9233 -0.0049
  0.0001  0.0047 -0.0005 -0.0049  0.8956
 
spin component  2
 
  0.1170  0.0135 -0.0443  0.0137  0.0001
  0.0135  0.0795  0.0095  0.0129 -0.0143
 -0.0443  0.0095  0.0624  0.0094  0.0013
  0.0137  0.0129  0.0094  0.0779  0.0146
  0.0001 -0.0143  0.0013  0.0146  0.0894
 
 occupancies and eigenvectors
 
  o =  0.0303  v =  0.0000  0.0000  0.0000  0.0000  0.0000 -0.4863  0.2343 -0.8090  0.2320  0.0175      0.0000  0.0000  0.0000  0.0000  0.0000  0.0000  0.0000  0.0000  0.0000  0.0000
  o =  0.0540  v =  0.0000  0.0000  0.0000  0.0000  0.0000  0.0080  0.5947 -0.0025 -0.6302  0.4991      0.0000  0.0000  0.0000  0.0000  0.0000  0.0000  0.0000  0.0000  0.0000  0.0000
  o =  0.0968  v =  0.0000  0.0000  0.0000  0.0000  0.0000  0.0237 -0.6816 -0.3885 -0.6189  0.0285      0.0000  0.0000  0.0000  0.0000  0.0000  0.0000  0.0000  0.0000  0.0000  0.0000
  o =  0.1012  v =  0.0000  0.0000  0.0000  0.0000  0.0000 -0.0141  0.3235 -0.0257 -0.3805 -0.8659      0.0000  0.0000  0.0000  0.0000  0.0000  0.0000  0.0000  0.0000  0.0000  0.0000
  o =  0.1439  v =  0.0000  0.0000  0.0000  0.0000  0.0000 -0.8733 -0.1488  0.4403 -0.1456  0.0096      0.0000  0.0000  0.0000  0.0000  0.0000  0.0000  0.0000  0.0000  0.0000  0.0000
  o =  0.8946  v =  0.1403  0.4164  0.1118  0.5368  0.7115  0.0000  0.0000  0.0000  0.0000  0.0000      0.0000  0.0000  0.0000  0.0000  0.0000  0.0000  0.0000  0.0000  0.0000  0.0000
  o =  0.8949  v = -0.1435 -0.5557 -0.0976 -0.4277  0.6915  0.0000  0.0000  0.0000  0.0000  0.0000      0.0000  0.0000  0.0000  0.0000  0.0000  0.0000  0.0000  0.0000  0.0000  0.0000
  o =  0.9243  v = -0.6481  0.1742 -0.7212  0.1715  0.0097  0.0000  0.0000  0.0000  0.0000  0.0000      0.0000  0.0000  0.0000  0.0000  0.0000  0.0000  0.0000  0.0000  0.0000  0.0000
  o =  0.9391  v =  0.7346 -0.0459 -0.6766 -0.0231  0.0058  0.0000  0.0000  0.0000  0.0000  0.0000      0.0000  0.0000  0.0000  0.0000  0.0000  0.0000  0.0000  0.0000  0.0000  0.0000
  o =  0.9502  v =  0.0122  0.6967 -0.0090 -0.7064  0.1242  0.0000  0.0000  0.0000  0.0000  0.0000      0.0000  0.0000  0.0000  0.0000  0.0000  0.0000  0.0000  0.0000  0.0000  0.0000
     EDDAV:  cpu time    2.3787: real time    2.3999
 BZINTS: Fermi energy:  2.938309; 54.000000 electrons
         Band energy:-782.386617;  BLOECHL correction:  0.000000
       DOS:  cpu time    0.0086: real time    0.0086
    CHARGE:  cpu time    0.0942: real time    0.0942
    MIXING:  cpu time    0.0005: real time    0.0005
    --------------------------------------------
      LOOP:  cpu time    4.6595: real time    4.6808

 eigenvalue-minimisations  :  8964
 total energy-change (2. order) :-0.1929236E+02  (-0.1058076E+03)
 number of electron      54.0000009 magnetization       0.0000000
 augmentation part       20.5933859 magnetization       0.0060661

 Broyden mixing:
  rms(total) = 0.18252E+01    rms(broyden)= 0.18252E+01
  rms(prec ) = 0.19911E+01
  weight for this iteration     100.00

 Free energy of the ion-electron system (eV)
  ---------------------------------------------------
  alpha Z        PSCENC =       194.14860460
  Ewald energy   TEWEN  =     -4163.87317235
  -Hartree energ DENC   =     -2138.06716064
  -exchange      EXHF   =         0.00000000
  -V(xc)+E(xc)   XCENC  =       292.39666530
  PAW double counting   =      7322.49528411    -7421.65450837
  entropy T*S    EENTRO =         0.00000000
  eigenvalues    EBANDS =      -782.38661672
  atomic energy  EATOM  =      6677.64854832
  Solvation  Ediel_sol  =         0.00000000
  ---------------------------------------------------
  free energy    TOTEN  =       -19.29235574 eV

  energy without entropy =      -19.29235574  energy(sigma->0) =      -19.29235574


--------------------------------------------------------------------------------------------------------




--------------------------------------- Iteration      1(   2)  ---------------------------------------


    POTLOK:  cpu time    0.0159: real time    0.0159
    SETDIJ:  cpu time    2.1769: real time    2.1769
atom =   1  type =  1  l = 2
 
 onsite density matrix
 
spin component  1
 
  0.0109 -0.0015  0.0246 -0.0017 -0.0001
 -0.0015  0.0070 -0.0007  0.0167  0.0011
  0.0246 -0.0007  0.0053 -0.0009 -0.0002
 -0.0017  0.0167 -0.0009  0.0072 -0.0015
 -0.0001  0.0011 -0.0002 -0.0015 -0.0250
 
spin component  2
 
  1.0208  0.0064 -0.0019  0.0068  0.0001
  0.0064  0.9941  0.0041  0.0216 -0.0053
 -0.0019  0.0041  0.9870  0.0045  0.0006
  0.0068  0.0216  0.0045  0.9932  0.0060
  0.0001 -0.0053  0.0006  0.0060  1.0035
 
 occupancies and eigenvectors
 
  o = -0.0253  v = -0.0029 -0.0782  0.0089  0.0864  0.9931  0.0000  0.0000  0.0000  0.0000  0.0000      0.0000  0.0000  0.0000  0.0000  0.0000  0.0000  0.0000  0.0000  0.0000  0.0000
  o = -0.0167  v =  0.6661  0.0156 -0.7456  0.0085  0.0091  0.0000  0.0000  0.0000  0.0000  0.0000      0.0000  0.0000  0.0000  0.0000  0.0000  0.0000  0.0000  0.0000  0.0000  0.0000
  o = -0.0094  v =  0.0069 -0.7050 -0.0020  0.6996 -0.1163  0.0000  0.0000  0.0000  0.0000  0.0000      0.0000  0.0000  0.0000  0.0000  0.0000  0.0000  0.0000  0.0000  0.0000  0.0000
  o =  0.0232  v = -0.1711 -0.6841 -0.1749 -0.6871  0.0070  0.0000  0.0000  0.0000  0.0000  0.0000      0.0000  0.0000  0.0000  0.0000  0.0000  0.0000  0.0000  0.0000  0.0000  0.0000
  o =  0.0334  v =  0.7260 -0.1691  0.6429 -0.1760 -0.0016  0.0000  0.0000  0.0000  0.0000  0.0000      0.0000  0.0000  0.0000  0.0000  0.0000  0.0000  0.0000  0.0000  0.0000  0.0000
  o =  0.9701  v =  0.0000  0.0000  0.0000  0.0000  0.0000 -0.0076 -0.6770 -0.0112  0.6978 -0.2336      0.0000  0.0000  0.0000  0.0000  0.0000  0.0000  0.0000  0.0000  0.0000  0.0000
  o =  0.9854  v =  0.0000  0.0000  0.0000  0.0000  0.0000 -0.1113  0.1688 -0.9662  0.1571  0.0302      0.0000  0.0000  0.0000  0.0000  0.0000  0.0000  0.0000  0.0000  0.0000  0.0000
  o =  1.0054  v =  0.0000  0.0000  0.0000  0.0000  0.0000  0.0359 -0.2166  0.0070  0.1146  0.9688      0.0000  0.0000  0.0000  0.0000  0.0000  0.0000  0.0000  0.0000  0.0000  0.0000
  o =  1.0099  v =  0.0000  0.0000  0.0000  0.0000  0.0000  0.6009 -0.5303 -0.2516 -0.5373 -0.0755      0.0000  0.0000  0.0000  0.0000  0.0000  0.0000  0.0000  0.0000  0.0000  0.0000
  o =  1.0279  v =  0.0000  0.0000  0.0000  0.0000  0.0000 -0.7907 -0.4301 -0.0548 -0.4319 -0.0154      0.0000  0.0000  0.0000  0.0000  0.0000  0.0000  0.0000  0.0000  0.0000  0.0000
atom =   2  type =  1  l = 2
 
 onsite density matrix
 
spin component  1
 
  1.0131  0.0061 -0.0272  0.0061 -0.0001
  0.0061  1.0006  0.0078  0.0029 -0.0079
 -0.0272  0.0078  0.9887  0.0077  0.0008
  0.0061  0.0029  0.0077  0.9992  0.0083
 -0.0001 -0.0079  0.0008  0.0083  0.9991
 
spin component  2
 
  0.0192 -0.0017 -0.0187 -0.0016  0.0002
 -0.0017  0.0018 -0.0022 -0.0235  0.0023
 -0.0187 -0.0022  0.0051 -0.0022 -0.0004
 -0.0016 -0.0235 -0.0022  0.0025 -0.0026
  0.0002  0.0023 -0.0004 -0.0026 -0.0216
 
 occupancies and eigenvectors
 
  o = -0.0225  v =  0.0000  0.0000  0.0000  0.0000  0.0000  0.1368  0.6155  0.1981  0.6445  0.3844      0.0000  0.0000  0.0000  0.0000  0.0000  0.0000  0.0000  0.0000  0.0000  0.0000
  o = -0.0217  v =  0.0000  0.0000  0.0000  0.0000  0.0000 -0.0586 -0.3145 -0.0695 -0.2146  0.9202      0.0000  0.0000  0.0000  0.0000  0.0000  0.0000  0.0000  0.0000  0.0000  0.0000
  o = -0.0068  v =  0.0000  0.0000  0.0000  0.0000  0.0000  0.5485 -0.1822  0.7956 -0.1812 -0.0095      0.0000  0.0000  0.0000  0.0000  0.0000  0.0000  0.0000  0.0000  0.0000  0.0000
  o =  0.0259  v =  0.0000  0.0000  0.0000  0.0000  0.0000 -0.0101 -0.6992  0.0079  0.7111 -0.0732      0.0000  0.0000  0.0000  0.0000  0.0000  0.0000  0.0000  0.0000  0.0000  0.0000
  o =  0.0321  v =  0.0000  0.0000  0.0000  0.0000  0.0000 -0.8227  0.0118  0.5682 -0.0071 -0.0071      0.0000  0.0000  0.0000  0.0000  0.0000  0.0000  0.0000  0.0000  0.0000  0.0000
  o =  0.9659  v = -0.5146  0.2481 -0.7817  0.2495  0.0142  0.0000  0.0000  0.0000  0.0000  0.0000      0.0000  0.0000  0.0000  0.0000  0.0000  0.0000  0.0000  0.0000  0.0000  0.0000
  o =  0.9865  v =  0.0058  0.4946 -0.0102 -0.5503  0.6726  0.0000  0.0000  0.0000  0.0000  0.0000      0.0000  0.0000  0.0000  0.0000  0.0000  0.0000  0.0000  0.0000  0.0000  0.0000
  o =  1.0080  v =  0.1465  0.6455  0.3242  0.6713  0.0782  0.0000  0.0000  0.0000  0.0000  0.0000      0.0000  0.0000  0.0000  0.0000  0.0000  0.0000  0.0000  0.0000  0.0000  0.0000
  o =  1.0096  v =  0.0117 -0.5246 -0.0242  0.4279  0.7355  0.0000  0.0000  0.0000  0.0000  0.0000      0.0000  0.0000  0.0000  0.0000  0.0000  0.0000  0.0000  0.0000  0.0000  0.0000
  o =  1.0308  v = -0.8447 -0.0431  0.5321 -0.0334  0.0197  0.0000  0.0000  0.0000  0.0000  0.0000      0.0000  0.0000  0.0000  0.0000  0.0000  0.0000  0.0000  0.0000  0.0000  0.0000
     EDDAV:  cpu time    1.9471: real time    1.9472
 BZINTS: Fermi energy:  0.430319; 54.000000 electrons
         Band energy:-773.366098;  BLOECHL correction:  0.000000
       DOS:  cpu time    0.0047: real time    0.0047
    CHARGE:  cpu time    0.0955: real time    0.0955
    MIXING:  cpu time    0.0005: real time    0.0005
    --------------------------------------------
      LOOP:  cpu time    4.2407: real time    4.2408

 eigenvalue-minimisations  :  7392
 total energy-change (2. order) :-0.1842206E+02  (-0.1922976E+02)
 number of electron      54.0000009 magnetization       0.0000000
 augmentation part       19.8885125 magnetization      -0.0017718

 Broyden mixing:
  rms(total) = 0.23059E+01    rms(broyden)= 0.23059E+01
  rms(prec ) = 0.23298E+01
  weight for this iteration     100.00

 eigenvalues of (default mixing * dielectric matrix)
  average eigenvalue GAMMA=   0.2404
  0.2404

 Free energy of the ion-electron system (eV)
  ---------------------------------------------------
  alpha Z        PSCENC =       194.14860460
  Ewald energy   TEWEN  =     -4163.87317235
  -Hartree energ DENC   =     -2169.88084673
  -exchange      EXHF   =         0.00000000
  -V(xc)+E(xc)   XCENC  =       294.44674906
  PAW double counting   =      7203.76415812    -7300.60235472
  entropy T*S    EENTRO =         0.00000000
  eigenvalues    EBANDS =      -773.36609790
  atomic energy  EATOM  =      6677.64854832
  Solvation  Ediel_sol  =         0.00000000
  ---------------------------------------------------
  free energy    TOTEN  =       -37.71441158 eV

  energy without entropy =      -37.71441158  energy(sigma->0) =      -37.71441158


--------------------------------------------------------------------------------------------------------




--------------------------------------- Iteration      1(   3)  ---------------------------------------


    POTLOK:  cpu time    0.0162: real time    0.0162
    SETDIJ:  cpu time    2.1829: real time    2.1829
atom =   1  type =  1  l = 2
 
 onsite density matrix
 
spin component  1
 
  0.0267  0.0002  0.0180  0.0002 -0.0000
  0.0002  0.0178  0.0004  0.0172 -0.0004
  0.0180  0.0004  0.0150  0.0003  0.0000
  0.0002  0.0172  0.0003  0.0178  0.0003
 -0.0000 -0.0004  0.0000  0.0003 -0.0038
 
spin component  2
 
  1.0021  0.0040  0.0067  0.0042  0.0000
  0.0040  0.9829  0.0026  0.0204 -0.0033
  0.0067  0.0026  0.9768  0.0028  0.0004
  0.0042  0.0204  0.0028  0.9823  0.0036
  0.0000 -0.0033  0.0004  0.0036  0.9802
 
 occupancies and eigenvectors
 
  o = -0.0038  v =  0.0038  0.0757 -0.0042 -0.0723  0.9945  0.0000  0.0000  0.0000  0.0000  0.0000      0.0000  0.0000  0.0000  0.0000  0.0000  0.0000  0.0000  0.0000  0.0000  0.0000
  o =  0.0007  v = -0.0124 -0.7029  0.0198  0.7032  0.1048  0.0000  0.0000  0.0000  0.0000  0.0000      0.0000  0.0000  0.0000  0.0000  0.0000  0.0000  0.0000  0.0000  0.0000  0.0000
  o =  0.0020  v = -0.5878  0.0121  0.8086 -0.0215  0.0032  0.0000  0.0000  0.0000  0.0000  0.0000      0.0000  0.0000  0.0000  0.0000  0.0000  0.0000  0.0000  0.0000  0.0000  0.0000
  o =  0.0349  v =  0.0907 -0.7030  0.0578 -0.7030  0.0023  0.0000  0.0000  0.0000  0.0000  0.0000      0.0000  0.0000  0.0000  0.0000  0.0000  0.0000  0.0000  0.0000  0.0000  0.0000
  o =  0.0398  v = -0.8038 -0.0770 -0.5852 -0.0748  0.0010  0.0000  0.0000  0.0000  0.0000  0.0000      0.0000  0.0000  0.0000  0.0000  0.0000  0.0000  0.0000  0.0000  0.0000  0.0000
  o =  0.9610  v =  0.0000  0.0000  0.0000  0.0000  0.0000 -0.0043 -0.6797 -0.0021  0.6918 -0.2439      0.0000  0.0000  0.0000  0.0000  0.0000  0.0000  0.0000  0.0000  0.0000  0.0000
  o =  0.9749  v =  0.0000  0.0000  0.0000  0.0000  0.0000 -0.2218 -0.0520  0.9700 -0.0675 -0.0509      0.0000  0.0000  0.0000  0.0000  0.0000  0.0000  0.0000  0.0000  0.0000  0.0000
  o =  0.9815  v =  0.0000  0.0000  0.0000  0.0000  0.0000 -0.0162 -0.1800  0.0489  0.1646  0.9684      0.0000  0.0000  0.0000  0.0000  0.0000  0.0000  0.0000  0.0000  0.0000  0.0000
  o =  0.9969  v =  0.0000  0.0000  0.0000  0.0000  0.0000  0.6873 -0.5154  0.0943 -0.5031 -0.0036      0.0000  0.0000  0.0000  0.0000  0.0000  0.0000  0.0000  0.0000  0.0000  0.0000
  o =  1.0100  v =  0.0000  0.0000  0.0000  0.0000  0.0000 -0.6915 -0.4871 -0.2186 -0.4865 -0.0083      0.0000  0.0000  0.0000  0.0000  0.0000  0.0000  0.0000  0.0000  0.0000  0.0000
atom =   2  type =  1  l = 2
 
 onsite density matrix
 
spin component  1
 
  0.9987  0.0037 -0.0247  0.0037 -0.0001
  0.0037  0.9860  0.0047 -0.0056 -0.0049
 -0.0247  0.0047  0.9781  0.0046  0.0005
  0.0037 -0.0056  0.0046  0.9852  0.0050
 -0.0001 -0.0049  0.0005  0.0050  0.9779
 
spin component  2
 
  0.0306  0.0001 -0.0200  0.0002  0.0001
  0.0001  0.0157  0.0002 -0.0166 -0.0001
 -0.0200  0.0002  0.0151  0.0001 -0.0001
  0.0002 -0.0166  0.0001  0.0159 -0.0001
  0.0001 -0.0001 -0.0001 -0.0001 -0.0023
 
 occupancies and eigenvectors
 
  o = -0.0023  v =  0.0000  0.0000  0.0000  0.0000  0.0000 -0.0053  0.0581 -0.0011  0.0593  0.9965      0.0000  0.0000  0.0000  0.0000  0.0000  0.0000  0.0000  0.0000  0.0000  0.0000
  o = -0.0009  v =  0.0000  0.0000  0.0000  0.0000  0.0000 -0.0732  0.7013 -0.1039  0.6966 -0.0829      0.0000  0.0000  0.0000  0.0000  0.0000  0.0000  0.0000  0.0000  0.0000  0.0000
  o =  0.0014  v =  0.0000  0.0000  0.0000  0.0000  0.0000  0.5602  0.0904  0.8186  0.0891 -0.0067      0.0000  0.0000  0.0000  0.0000  0.0000  0.0000  0.0000  0.0000  0.0000  0.0000
  o =  0.0324  v =  0.0000  0.0000  0.0000  0.0000  0.0000  0.0054  0.7047 -0.0044 -0.7094  0.0012      0.0000  0.0000  0.0000  0.0000  0.0000  0.0000  0.0000  0.0000  0.0000  0.0000
  o =  0.0442  v =  0.0000  0.0000  0.0000  0.0000  0.0000 -0.8251  0.0035  0.5649 -0.0063 -0.0036      0.0000  0.0000  0.0000  0.0000  0.0000  0.0000  0.0000  0.0000  0.0000  0.0000
  o =  0.9584  v = -0.5205  0.2546 -0.7738  0.2555  0.0141  0.0000  0.0000  0.0000  0.0000  0.0000      0.0000  0.0000  0.0000  0.0000  0.0000  0.0000  0.0000  0.0000  0.0000  0.0000
  o =  0.9749  v =  0.0042  0.2473 -0.0082 -0.3134  0.9168  0.0000  0.0000  0.0000  0.0000  0.0000      0.0000  0.0000  0.0000  0.0000  0.0000  0.0000  0.0000  0.0000  0.0000  0.0000
  o =  0.9833  v = -0.1839 -0.6553 -0.3112 -0.6613 -0.0512  0.0000  0.0000  0.0000  0.0000  0.0000      0.0000  0.0000  0.0000  0.0000  0.0000  0.0000  0.0000  0.0000  0.0000  0.0000
  o =  0.9942  v =  0.0021 -0.6666 -0.0050  0.6317  0.3957  0.0000  0.0000  0.0000  0.0000  0.0000      0.0000  0.0000  0.0000  0.0000  0.0000  0.0000  0.0000  0.0000  0.0000  0.0000
  o =  1.0151  v = -0.8338 -0.0148  0.5517 -0.0137  0.0081  0.0000  0.0000  0.0000  0.0000  0.0000      0.0000  0.0000  0.0000  0.0000  0.0000  0.0000  0.0000  0.0000  0.0000  0.0000
     EDDAV:  cpu time    2.1945: real time    2.1946
 BZINTS: Fermi energy:  0.301597; 54.000000 electrons
         Band energy:-774.642103;  BLOECHL correction:  0.000000
       DOS:  cpu time    0.0047: real time    0.0047
    CHARGE:  cpu time    0.0956: real time    0.0956
    MIXING:  cpu time    0.0006: real time    0.0006
    --------------------------------------------
      LOOP:  cpu time    4.4945: real time    4.4945

 eigenvalue-minimisations  :  8460
 total energy-change (2. order) :-0.3208768E+00  (-0.2644737E+00)
 number of electron      54.0000009 magnetization      -0.0000000
 augmentation part       19.9120239 magnetization      -0.0008865

 Broyden mixing:
  rms(total) = 0.17758E+01    rms(broyden)= 0.17758E+01
  rms(prec ) = 0.17973E+01
  weight for this iteration     100.00

 eigenvalues of (default mixing * dielectric matrix)
  average eigenvalue GAMMA=   0.9229
  1.2560  0.5897

 Free energy of the ion-electron system (eV)
  ---------------------------------------------------
  alpha Z        PSCENC =       194.14860460
  Ewald energy   TEWEN  =     -4163.87317235
  -Hartree energ DENC   =     -2169.26109095
  -exchange      EXHF   =         0.00000000
  -V(xc)+E(xc)   XCENC  =       294.28364936
  PAW double counting   =      7071.47707592    -7167.81680017
  entropy T*S    EENTRO =         0.00000000
  eigenvalues    EBANDS =      -774.64210314
  atomic energy  EATOM  =      6677.64854832
  Solvation  Ediel_sol  =         0.00000000
  ---------------------------------------------------
  free energy    TOTEN  =       -38.03528841 eV

  energy without entropy =      -38.03528841  energy(sigma->0) =      -38.03528841


--------------------------------------------------------------------------------------------------------




--------------------------------------- Iteration      1(   4)  ---------------------------------------


    POTLOK:  cpu time    0.0158: real time    0.0158
    SETDIJ:  cpu time    2.1644: real time    2.1644
atom =   1  type =  1  l = 2
 
 onsite density matrix
 
spin component  1
 
  0.0324  0.0005  0.0190  0.0006 -0.0000
  0.0005  0.0251  0.0003  0.0174  0.0000
  0.0190  0.0003  0.0213  0.0003  0.0000
  0.0006  0.0174  0.0003  0.0250 -0.0002
 -0.0000  0.0000  0.0000 -0.0002  0.0058
 
spin component  2
 
  0.9862  0.0014  0.0124  0.0014  0.0000
  0.0014  0.9741  0.0011  0.0174 -0.0017
  0.0124  0.0011  0.9691  0.0012  0.0002
  0.0014  0.0174  0.0012  0.9741  0.0020
  0.0000 -0.0017  0.0002  0.0020  0.9642
 
 occupancies and eigenvectors
 
  o =  0.0058  v =  0.0111 -0.0388 -0.0142  0.0431  0.9982  0.0000  0.0000  0.0000  0.0000  0.0000      0.0000  0.0000  0.0000  0.0000  0.0000  0.0000  0.0000  0.0000  0.0000  0.0000
  o =  0.0071  v = -0.5972 -0.0559  0.7975  0.0628  0.0132  0.0000  0.0000  0.0000  0.0000  0.0000      0.0000  0.0000  0.0000  0.0000  0.0000  0.0000  0.0000  0.0000  0.0000  0.0000
  o =  0.0077  v = -0.0496  0.7021  0.0667 -0.7048  0.0592  0.0000  0.0000  0.0000  0.0000  0.0000      0.0000  0.0000  0.0000  0.0000  0.0000  0.0000  0.0000  0.0000  0.0000  0.0000
  o =  0.0423  v =  0.1539 -0.6952  0.1209 -0.6917  0.0029  0.0000  0.0000  0.0000  0.0000  0.0000      0.0000  0.0000  0.0000  0.0000  0.0000  0.0000  0.0000  0.0000  0.0000  0.0000
  o =  0.0468  v = -0.7855 -0.1385 -0.5871 -0.1382  0.0010  0.0000  0.0000  0.0000  0.0000  0.0000      0.0000  0.0000  0.0000  0.0000  0.0000  0.0000  0.0000  0.0000  0.0000  0.0000
  o =  0.9559  v =  0.0000  0.0000  0.0000  0.0000  0.0000 -0.0000  0.6715  0.0012 -0.6750  0.3056      0.0000  0.0000  0.0000  0.0000  0.0000  0.0000  0.0000  0.0000  0.0000  0.0000
  o =  0.9625  v =  0.0000  0.0000  0.0000  0.0000  0.0000  0.4628  0.0033 -0.8848  0.0236  0.0483      0.0000  0.0000  0.0000  0.0000  0.0000  0.0000  0.0000  0.0000  0.0000  0.0000
  o =  0.9651  v =  0.0000  0.0000  0.0000  0.0000  0.0000  0.0260  0.2214 -0.0430 -0.2104 -0.9509      0.0000  0.0000  0.0000  0.0000  0.0000  0.0000  0.0000  0.0000  0.0000  0.0000
  o =  0.9896  v =  0.0000  0.0000  0.0000  0.0000  0.0000 -0.5536  0.5572 -0.2725  0.5557  0.0040      0.0000  0.0000  0.0000  0.0000  0.0000  0.0000  0.0000  0.0000  0.0000  0.0000
  o =  0.9947  v =  0.0000  0.0000  0.0000  0.0000  0.0000 -0.6919 -0.4354 -0.3755 -0.4367 -0.0066      0.0000  0.0000  0.0000  0.0000  0.0000  0.0000  0.0000  0.0000  0.0000  0.0000
atom =   2  type =  1  l = 2
 
 onsite density matrix
 
spin component  1
 
  0.9842  0.0019 -0.0211  0.0019  0.0000
  0.0019  0.9761  0.0022 -0.0109 -0.0018
 -0.0211  0.0022  0.9683  0.0021  0.0002
  0.0019 -0.0109  0.0021  0.9758  0.0018
  0.0000 -0.0018  0.0002  0.0018  0.9637
 
spin component  2
 
  0.0343 -0.0001 -0.0197 -0.0000  0.0000
 -0.0001  0.0237  0.0001 -0.0167 -0.0004
 -0.0197  0.0001  0.0222  0.0001 -0.0001
 -0.0000 -0.0167  0.0001  0.0237  0.0004
  0.0000 -0.0004 -0.0001  0.0004  0.0059
 
 occupancies and eigenvectors
 
  o =  0.0058  v =  0.0000  0.0000  0.0000  0.0000  0.0000  0.0139  0.0237  0.0201  0.0010  0.9994      0.0000  0.0000  0.0000  0.0000  0.0000  0.0000  0.0000  0.0000  0.0000  0.0000
  o =  0.0070  v =  0.0000  0.0000  0.0000  0.0000  0.0000 -0.0367  0.7054 -0.0548  0.7055 -0.0158      0.0000  0.0000  0.0000  0.0000  0.0000  0.0000  0.0000  0.0000  0.0000  0.0000
  o =  0.0077  v =  0.0000  0.0000  0.0000  0.0000  0.0000  0.5930  0.0462  0.8021  0.0464 -0.0255      0.0000  0.0000  0.0000  0.0000  0.0000  0.0000  0.0000  0.0000  0.0000  0.0000
  o =  0.0405  v =  0.0000  0.0000  0.0000  0.0000  0.0000  0.0049  0.7069 -0.0039 -0.7071 -0.0161      0.0000  0.0000  0.0000  0.0000  0.0000  0.0000  0.0000  0.0000  0.0000  0.0000
  o =  0.0489  v =  0.0000  0.0000  0.0000  0.0000  0.0000 -0.8042  0.0066  0.5943 -0.0022 -0.0009      0.0000  0.0000  0.0000  0.0000  0.0000  0.0000  0.0000  0.0000  0.0000  0.0000
  o =  0.9525  v =  0.5441 -0.2150  0.7820 -0.2140 -0.0181  0.0000  0.0000  0.0000  0.0000  0.0000      0.0000  0.0000  0.0000  0.0000  0.0000  0.0000  0.0000  0.0000  0.0000  0.0000
  o =  0.9634  v =  0.0065  0.0484  0.0032 -0.1047  0.9933  0.0000  0.0000  0.0000  0.0000  0.0000      0.0000  0.0000  0.0000  0.0000  0.0000  0.0000  0.0000  0.0000  0.0000  0.0000
  o =  0.9664  v = -0.1620 -0.6713 -0.2574 -0.6749 -0.0365  0.0000  0.0000  0.0000  0.0000  0.0000      0.0000  0.0000  0.0000  0.0000  0.0000  0.0000  0.0000  0.0000  0.0000  0.0000
  o =  0.9871  v =  0.0003  0.7076  0.0008 -0.6983 -0.1081  0.0000  0.0000  0.0000  0.0000  0.0000      0.0000  0.0000  0.0000  0.0000  0.0000  0.0000  0.0000  0.0000  0.0000  0.0000
  o =  0.9988  v =  0.8232  0.0094 -0.5676  0.0096 -0.0030  0.0000  0.0000  0.0000  0.0000  0.0000      0.0000  0.0000  0.0000  0.0000  0.0000  0.0000  0.0000  0.0000  0.0000  0.0000
     EDDAV:  cpu time    2.2389: real time    2.2389
 BZINTS: Fermi energy:  0.314039; 54.000000 electrons
         Band energy:-778.068176;  BLOECHL correction:  0.000000
       DOS:  cpu time    0.0055: real time    0.0055
    CHARGE:  cpu time    0.0955: real time    0.0955
    MIXING:  cpu time    0.0006: real time    0.0006
    --------------------------------------------
      LOOP:  cpu time    4.5208: real time    4.5208

 eigenvalue-minimisations  :  8784
 total energy-change (2. order) : 0.6982883E-01  (-0.7310044E-01)
 number of electron      54.0000009 magnetization      -0.0000000
 augmentation part       19.9377642 magnetization       0.0008144

 Broyden mixing:
  rms(total) = 0.58612E+00    rms(broyden)= 0.58611E+00
  rms(prec ) = 0.59741E+00
  weight for this iteration     100.00

 eigenvalues of (default mixing * dielectric matrix)
  average eigenvalue GAMMA=   1.1564
  2.0474  0.7109  0.7109

 Free energy of the ion-electron system (eV)
  ---------------------------------------------------
  alpha Z        PSCENC =       194.14860460
  Ewald energy   TEWEN  =     -4163.87317235
  -Hartree energ DENC   =     -2170.57112598
  -exchange      EXHF   =         0.00000000
  -V(xc)+E(xc)   XCENC  =       294.37917268
  PAW double counting   =      6549.12359181    -6640.75290271
  entropy T*S    EENTRO =         0.00000000
  eigenvalues    EBANDS =      -778.06817595
  atomic energy  EATOM  =      6677.64854832
  Solvation  Ediel_sol  =         0.00000000
  ---------------------------------------------------
  free energy    TOTEN  =       -37.96545958 eV

  energy without entropy =      -37.96545958  energy(sigma->0) =      -37.96545958


--------------------------------------------------------------------------------------------------------




--------------------------------------- Iteration      1(   5)  ---------------------------------------


    POTLOK:  cpu time    0.0158: real time    0.0158
    SETDIJ:  cpu time    2.1621: real time    2.1621
atom =   1  type =  1  l = 2
 
 onsite density matrix
 
spin component  1
 
  0.0403  0.0006  0.0168  0.0006  0.0000
  0.0006  0.0306  0.0005  0.0177 -0.0009
  0.0168  0.0005  0.0261  0.0006  0.0001
  0.0006  0.0177  0.0006  0.0306  0.0011
  0.0000 -0.0009  0.0001  0.0011  0.0159
 
spin component  2
 
  0.9738 -0.0003  0.0199 -0.0003 -0.0000
 -0.0003  0.9700 -0.0002  0.0159  0.0005
  0.0199 -0.0002  0.9652 -0.0002 -0.0000
 -0.0003  0.0159 -0.0002  0.9699 -0.0007
 -0.0000  0.0005 -0.0000 -0.0007  0.9510
 
 occupancies and eigenvectors
 
  o =  0.0124  v = -0.0022  0.6551  0.0035 -0.6570  0.3731  0.0000  0.0000  0.0000  0.0000  0.0000      0.0000  0.0000  0.0000  0.0000  0.0000  0.0000  0.0000  0.0000  0.0000  0.0000
  o =  0.0149  v = -0.5515  0.0047  0.8332 -0.0105 -0.0376  0.0000  0.0000  0.0000  0.0000  0.0000      0.0000  0.0000  0.0000  0.0000  0.0000  0.0000  0.0000  0.0000  0.0000  0.0000
  o =  0.0165  v =  0.0229  0.2667 -0.0315 -0.2607 -0.9270  0.0000  0.0000  0.0000  0.0000  0.0000      0.0000  0.0000  0.0000  0.0000  0.0000  0.0000  0.0000  0.0000  0.0000  0.0000
  o =  0.0479  v =  0.2558 -0.6736  0.1644 -0.6737 -0.0036  0.0000  0.0000  0.0000  0.0000  0.0000      0.0000  0.0000  0.0000  0.0000  0.0000  0.0000  0.0000  0.0000  0.0000  0.0000
  o =  0.0518  v = -0.7936 -0.2144 -0.5270 -0.2155 -0.0028  0.0000  0.0000  0.0000  0.0000  0.0000      0.0000  0.0000  0.0000  0.0000  0.0000  0.0000  0.0000  0.0000  0.0000  0.0000
  o =  0.9492  v =  0.0000  0.0000  0.0000  0.0000  0.0000  0.6282  0.0058 -0.7778 -0.0052 -0.0154      0.0000  0.0000  0.0000  0.0000  0.0000  0.0000  0.0000  0.0000  0.0000  0.0000
  o =  0.9508  v =  0.0000  0.0000  0.0000  0.0000  0.0000 -0.0116  0.1775  0.0123 -0.1814 -0.9671      0.0000  0.0000  0.0000  0.0000  0.0000  0.0000  0.0000  0.0000  0.0000  0.0000
  o =  0.9543  v =  0.0000  0.0000  0.0000  0.0000  0.0000 -0.0024  0.6841  0.0027 -0.6838  0.2538      0.0000  0.0000  0.0000  0.0000  0.0000  0.0000  0.0000  0.0000  0.0000  0.0000
  o =  0.9858  v =  0.0000  0.0000  0.0000  0.0000  0.0000  0.0859  0.7031  0.0700  0.7024 -0.0028      0.0000  0.0000  0.0000  0.0000  0.0000  0.0000  0.0000  0.0000  0.0000  0.0000
  o =  0.9899  v =  0.0000  0.0000  0.0000  0.0000  0.0000 -0.7732  0.0780 -0.6244  0.0787  0.0009      0.0000  0.0000  0.0000  0.0000  0.0000  0.0000  0.0000  0.0000  0.0000  0.0000
atom =   2  type =  1  l = 2
 
 onsite density matrix
 
spin component  1
 
  0.9754 -0.0006 -0.0177 -0.0005  0.0000
 -0.0006  0.9686 -0.0006 -0.0177  0.0004
 -0.0177 -0.0006  0.9657 -0.0006 -0.0001
 -0.0005 -0.0177 -0.0006  0.9687 -0.0005
  0.0000  0.0004 -0.0001 -0.0005  0.9514
 
spin component  2
 
  0.0385  0.0010 -0.0210  0.0010  0.0000
  0.0010  0.0321  0.0011 -0.0144 -0.0008
 -0.0210  0.0011  0.0254  0.0011  0.0001
  0.0010 -0.0144  0.0011  0.0319  0.0009
  0.0000 -0.0008  0.0001  0.0009  0.0154
 
 occupancies and eigenvectors
 
  o =  0.0094  v =  0.0000  0.0000  0.0000  0.0000  0.0000 -0.5755  0.1722 -0.7807  0.1714  0.0192      0.0000  0.0000  0.0000  0.0000  0.0000  0.0000  0.0000  0.0000  0.0000  0.0000
  o =  0.0154  v =  0.0000  0.0000  0.0000  0.0000  0.0000  0.0096  0.0087  0.0094 -0.0457  0.9988      0.0000  0.0000  0.0000  0.0000  0.0000  0.0000  0.0000  0.0000  0.0000  0.0000
  o =  0.0181  v =  0.0000  0.0000  0.0000  0.0000  0.0000 -0.1403 -0.6841 -0.1988 -0.6872 -0.0222      0.0000  0.0000  0.0000  0.0000  0.0000  0.0000  0.0000  0.0000  0.0000  0.0000
  o =  0.0465  v =  0.0000  0.0000  0.0000  0.0000  0.0000  0.0007 -0.7087 -0.0012  0.7044  0.0384      0.0000  0.0000  0.0000  0.0000  0.0000  0.0000  0.0000  0.0000  0.0000  0.0000
  o =  0.0539  v =  0.0000  0.0000  0.0000  0.0000  0.0000 -0.8056 -0.0044  0.5924 -0.0026  0.0021      0.0000  0.0000  0.0000  0.0000  0.0000  0.0000  0.0000  0.0000  0.0000  0.0000
  o =  0.9502  v =  0.3196  0.6016  0.4153  0.6007  0.0518  0.0000  0.0000  0.0000  0.0000  0.0000      0.0000  0.0000  0.0000  0.0000  0.0000  0.0000  0.0000  0.0000  0.0000  0.0000
  o =  0.9514  v =  0.0003 -0.0570  0.0033 -0.0314  0.9979  0.0000  0.0000  0.0000  0.0000  0.0000      0.0000  0.0000  0.0000  0.0000  0.0000  0.0000  0.0000  0.0000  0.0000  0.0000
  o =  0.9529  v =  0.5153 -0.3697  0.6782 -0.3698 -0.0351  0.0000  0.0000  0.0000  0.0000  0.0000      0.0000  0.0000  0.0000  0.0000  0.0000  0.0000  0.0000  0.0000  0.0000  0.0000
  o =  0.9863  v =  0.0077  0.7058 -0.0063 -0.7081  0.0180  0.0000  0.0000  0.0000  0.0000  0.0000      0.0000  0.0000  0.0000  0.0000  0.0000  0.0000  0.0000  0.0000  0.0000  0.0000
  o =  0.9889  v = -0.7952  0.0091  0.6063 -0.0050 -0.0014  0.0000  0.0000  0.0000  0.0000  0.0000      0.0000  0.0000  0.0000  0.0000  0.0000  0.0000  0.0000  0.0000  0.0000  0.0000
     EDDAV:  cpu time    1.9261: real time    1.9261
 BZINTS: Fermi energy:  0.247664; 54.000000 electrons
         Band energy:-782.354553;  BLOECHL correction:  0.000000
       DOS:  cpu time    0.0055: real time    0.0055
    CHARGE:  cpu time    0.0967: real time    0.0967
    MIXING:  cpu time    0.0006: real time    0.0006
    --------------------------------------------
      LOOP:  cpu time    4.2068: real time    4.2069

 eigenvalue-minimisations  :  7344
 total energy-change (2. order) : 0.5397881E-03  (-0.8554626E-02)
 number of electron      54.0000009 magnetization      -0.0000000
 augmentation part       19.9620835 magnetization       0.0005462

 Broyden mixing:
  rms(total) = 0.16090E+00    rms(broyden)= 0.16090E+00
  rms(prec ) = 0.17934E+00
  weight for this iteration     100.00

 eigenvalues of (default mixing * dielectric matrix)
  average eigenvalue GAMMA=   1.1246
  2.3941  0.7607  0.7607  0.5829

 Free energy of the ion-electron system (eV)
  ---------------------------------------------------
  alpha Z        PSCENC =       194.14860460
  Ewald energy   TEWEN  =     -4163.87317235
  -Hartree energ DENC   =     -2168.46454587
  -exchange      EXHF   =         0.00000000
  -V(xc)+E(xc)   XCENC  =       294.24610838
  PAW double counting   =      6287.11525301    -6376.43116279
  entropy T*S    EENTRO =         0.00000000
  eigenvalues    EBANDS =      -782.35455309
  atomic energy  EATOM  =      6677.64854832
  Solvation  Ediel_sol  =         0.00000000
  ---------------------------------------------------
  free energy    TOTEN  =       -37.96491979 eV

  energy without entropy =      -37.96491979  energy(sigma->0) =      -37.96491979


--------------------------------------------------------------------------------------------------------




--------------------------------------- Iteration      1(   6)  ---------------------------------------


    POTLOK:  cpu time    0.0164: real time    0.0164
    SETDIJ:  cpu time    2.1617: real time    2.1617
atom =   1  type =  1  l = 2
 
 onsite density matrix
 
spin component  1
 
  0.0349  0.0002  0.0191  0.0002  0.0000
  0.0002  0.0282  0.0001  0.0170 -0.0001
  0.0191  0.0001  0.0237  0.0001  0.0000
  0.0002  0.0170  0.0001  0.0282  0.0001
  0.0000 -0.0001  0.0000  0.0001  0.0104
 
spin component  2
 
  0.9790 -0.0000  0.0184 -0.0001 -0.0000
 -0.0000  0.9730  0.0000  0.0165 -0.0001
  0.0184  0.0000  0.9681  0.0000  0.0000
 -0.0001  0.0165  0.0000  0.9730  0.0001
 -0.0000 -0.0001  0.0000  0.0001  0.9564
 
 occupancies and eigenvectors
 
  o =  0.0094  v = -0.5999 -0.0009  0.8000  0.0011 -0.0087  0.0000  0.0000  0.0000  0.0000  0.0000      0.0000  0.0000  0.0000  0.0000  0.0000  0.0000  0.0000  0.0000  0.0000  0.0000
  o =  0.0104  v = -0.0054  0.0803  0.0070 -0.0806  0.9935  0.0000  0.0000  0.0000  0.0000  0.0000      0.0000  0.0000  0.0000  0.0000  0.0000  0.0000  0.0000  0.0000  0.0000  0.0000
  o =  0.0112  v =  0.0000 -0.7022 -0.0005  0.7028  0.1137  0.0000  0.0000  0.0000  0.0000  0.0000      0.0000  0.0000  0.0000  0.0000  0.0000  0.0000  0.0000  0.0000  0.0000  0.0000
  o =  0.0452  v =  0.0617 -0.7053  0.0465 -0.7046 -0.0002  0.0000  0.0000  0.0000  0.0000  0.0000      0.0000  0.0000  0.0000  0.0000  0.0000  0.0000  0.0000  0.0000  0.0000  0.0000
  o =  0.0492  v = -0.7977 -0.0545 -0.5981 -0.0548 -0.0002  0.0000  0.0000  0.0000  0.0000  0.0000      0.0000  0.0000  0.0000  0.0000  0.0000  0.0000  0.0000  0.0000  0.0000  0.0000
  o =  0.9543  v =  0.0000  0.0000  0.0000  0.0000  0.0000  0.5983 -0.0008 -0.8012  0.0033  0.0004      0.0000  0.0000  0.0000  0.0000  0.0000  0.0000  0.0000  0.0000  0.0000  0.0000
  o =  0.9563  v =  0.0000  0.0000  0.0000  0.0000  0.0000  0.0008  0.4159 -0.0012 -0.4162  0.8086      0.0000  0.0000  0.0000  0.0000  0.0000  0.0000  0.0000  0.0000  0.0000  0.0000
  o =  0.9566  v =  0.0000  0.0000  0.0000  0.0000  0.0000  0.0014  0.5723 -0.0022 -0.5712 -0.5884      0.0000  0.0000  0.0000  0.0000  0.0000  0.0000  0.0000  0.0000  0.0000  0.0000
  o =  0.9894  v =  0.0000  0.0000  0.0000  0.0000  0.0000  0.0114  0.7067  0.0107  0.7074  0.0007      0.0000  0.0000  0.0000  0.0000  0.0000  0.0000  0.0000  0.0000  0.0000  0.0000
  o =  0.9928  v =  0.0000  0.0000  0.0000  0.0000  0.0000 -0.8012  0.0108 -0.5982  0.0111  0.0000      0.0000  0.0000  0.0000  0.0000  0.0000  0.0000  0.0000  0.0000  0.0000  0.0000
atom =   2  type =  1  l = 2
 
 onsite density matrix
 
spin component  1
 
  0.9789  0.0001 -0.0187  0.0001  0.0000
  0.0001  0.9730  0.0001 -0.0164  0.0000
 -0.0187  0.0001  0.9678  0.0000  0.0000
  0.0001 -0.0164  0.0000  0.9730 -0.0001
  0.0000  0.0000  0.0000 -0.0001  0.9565
 
spin component  2
 
  0.0348  0.0001 -0.0196  0.0001 -0.0000
  0.0001  0.0282  0.0001 -0.0165 -0.0002
 -0.0196  0.0001  0.0239  0.0001  0.0000
  0.0001 -0.0165  0.0001  0.0282  0.0002
 -0.0000 -0.0002  0.0000  0.0002  0.0103
 
 occupancies and eigenvectors
 
  o =  0.0089  v =  0.0000  0.0000  0.0000  0.0000  0.0000  0.6023 -0.0630  0.7933 -0.0630 -0.0041      0.0000  0.0000  0.0000  0.0000  0.0000  0.0000  0.0000  0.0000  0.0000  0.0000
  o =  0.0103  v =  0.0000  0.0000  0.0000  0.0000  0.0000  0.0025  0.0016  0.0026 -0.0099  0.9999      0.0000  0.0000  0.0000  0.0000  0.0000  0.0000  0.0000  0.0000  0.0000  0.0000
  o =  0.0117  v =  0.0000  0.0000  0.0000  0.0000  0.0000  0.0541  0.7039  0.0708  0.7046  0.0056      0.0000  0.0000  0.0000  0.0000  0.0000  0.0000  0.0000  0.0000  0.0000  0.0000
  o =  0.0447  v =  0.0000  0.0000  0.0000  0.0000  0.0000  0.0010  0.7075 -0.0007 -0.7067 -0.0081      0.0000  0.0000  0.0000  0.0000  0.0000  0.0000  0.0000  0.0000  0.0000  0.0000
  o =  0.0497  v =  0.0000  0.0000  0.0000  0.0000  0.0000 -0.7964  0.0011  0.6048 -0.0007  0.0004      0.0000  0.0000  0.0000  0.0000  0.0000  0.0000  0.0000  0.0000  0.0000  0.0000
  o =  0.9538  v = -0.5977  0.0282 -0.8007  0.0281  0.0067  0.0000  0.0000  0.0000  0.0000  0.0000      0.0000  0.0000  0.0000  0.0000  0.0000  0.0000  0.0000  0.0000  0.0000  0.0000
  o =  0.9565  v =  0.0046  0.0212  0.0065  0.0245  0.9994  0.0000  0.0000  0.0000  0.0000  0.0000      0.0000  0.0000  0.0000  0.0000  0.0000  0.0000  0.0000  0.0000  0.0000  0.0000
  o =  0.9566  v = -0.0230 -0.7064 -0.0322 -0.7060  0.0326  0.0000  0.0000  0.0000  0.0000  0.0000      0.0000  0.0000  0.0000  0.0000  0.0000  0.0000  0.0000  0.0000  0.0000  0.0000
  o =  0.9894  v =  0.0010  0.7070 -0.0006 -0.7072  0.0023  0.0000  0.0000  0.0000  0.0000  0.0000      0.0000  0.0000  0.0000  0.0000  0.0000  0.0000  0.0000  0.0000  0.0000  0.0000
  o =  0.9929  v = -0.8014  0.0003  0.5981 -0.0014 -0.0002  0.0000  0.0000  0.0000  0.0000  0.0000      0.0000  0.0000  0.0000  0.0000  0.0000  0.0000  0.0000  0.0000  0.0000  0.0000
     EDDAV:  cpu time    2.1291: real time    2.1292
 BZINTS: Fermi energy:  0.102056; 54.000000 electrons
         Band energy:-782.678605;  BLOECHL correction:  0.000000
       DOS:  cpu time    0.0047: real time    0.0047
    CHARGE:  cpu time    0.0955: real time    0.0955
    MIXING:  cpu time    0.0007: real time    0.0007
    --------------------------------------------
      LOOP:  cpu time    4.4081: real time    4.4081

 eigenvalue-minimisations  :  8256
 total energy-change (2. order) : 0.1965337E-02  (-0.1407597E-02)
 number of electron      54.0000009 magnetization      -0.0000000
 augmentation part       19.9656667 magnetization       0.0001569

 Broyden mixing:
  rms(total) = 0.67227E-01    rms(broyden)= 0.67225E-01
  rms(prec ) = 0.74792E-01
  weight for this iteration     100.00

 eigenvalues of (default mixing * dielectric matrix)
  average eigenvalue GAMMA=   1.1096
  2.3973  0.9226  0.9226  0.6528  0.6528

 Free energy of the ion-electron system (eV)
  ---------------------------------------------------
  alpha Z        PSCENC =       194.14860460
  Ewald energy   TEWEN  =     -4163.87317235
  -Hartree energ DENC   =     -2168.61477402
  -exchange      EXHF   =         0.00000000
  -V(xc)+E(xc)   XCENC  =       294.22140040
  PAW double counting   =      6264.87657623    -6353.69153304
  entropy T*S    EENTRO =         0.00000000
  eigenvalues    EBANDS =      -782.67860459
  atomic energy  EATOM  =      6677.64854832
  Solvation  Ediel_sol  =         0.00000000
  ---------------------------------------------------
  free energy    TOTEN  =       -37.96295445 eV

  energy without entropy =      -37.96295445  energy(sigma->0) =      -37.96295445


--------------------------------------------------------------------------------------------------------




--------------------------------------- Iteration      1(   7)  ---------------------------------------


    POTLOK:  cpu time    0.0158: real time    0.0158
    SETDIJ:  cpu time    2.1570: real time    2.1570
atom =   1  type =  1  l = 2
 
 onsite density matrix
 
spin component  1
 
  0.0347  0.0001  0.0190  0.0001  0.0000
  0.0001  0.0281  0.0001  0.0169 -0.0001
  0.0190  0.0001  0.0238  0.0001  0.0000
  0.0001  0.0169  0.0001  0.0281  0.0001
  0.0000 -0.0001  0.0000  0.0001  0.0102
 
spin component  2
 
  0.9794 -0.0000  0.0187 -0.0000 -0.0000
 -0.0000  0.9734  0.0000  0.0166 -0.0000
  0.0187  0.0000  0.9684  0.0000 -0.0000
 -0.0000  0.0166  0.0000  0.9734  0.0000
 -0.0000 -0.0000 -0.0000  0.0000  0.9567
 
 occupancies and eigenvectors
 
  o =  0.0094  v = -0.6017  0.0006  0.7987 -0.0005 -0.0076  0.0000  0.0000  0.0000  0.0000  0.0000      0.0000  0.0000  0.0000  0.0000  0.0000  0.0000  0.0000  0.0000  0.0000  0.0000
  o =  0.0102  v =  0.0046 -0.0740 -0.0059  0.0744 -0.9945  0.0000  0.0000  0.0000  0.0000  0.0000      0.0000  0.0000  0.0000  0.0000  0.0000  0.0000  0.0000  0.0000  0.0000  0.0000
  o =  0.0112  v =  0.0010  0.7032 -0.0012 -0.7032 -0.1049  0.0000  0.0000  0.0000  0.0000  0.0000      0.0000  0.0000  0.0000  0.0000  0.0000  0.0000  0.0000  0.0000  0.0000  0.0000
  o =  0.0449  v =  0.0267 -0.7068  0.0202 -0.7067 -0.0003  0.0000  0.0000  0.0000  0.0000  0.0000      0.0000  0.0000  0.0000  0.0000  0.0000  0.0000  0.0000  0.0000  0.0000  0.0000
  o =  0.0490  v = -0.7982 -0.0236 -0.6014 -0.0237 -0.0001  0.0000  0.0000  0.0000  0.0000  0.0000      0.0000  0.0000  0.0000  0.0000  0.0000  0.0000  0.0000  0.0000  0.0000  0.0000
  o =  0.9544  v =  0.0000  0.0000  0.0000  0.0000  0.0000  0.5998  0.0005 -0.8002  0.0008 -0.0005      0.0000  0.0000  0.0000  0.0000  0.0000  0.0000  0.0000  0.0000  0.0000  0.0000
  o =  0.9567  v =  0.0000  0.0000  0.0000  0.0000  0.0000  0.0003  0.1209 -0.0004 -0.1211  0.9853      0.0000  0.0000  0.0000  0.0000  0.0000  0.0000  0.0000  0.0000  0.0000  0.0000
  o =  0.9568  v =  0.0000  0.0000  0.0000  0.0000  0.0000 -0.0000 -0.6968  0.0001  0.6966  0.1711      0.0000  0.0000  0.0000  0.0000  0.0000  0.0000  0.0000  0.0000  0.0000  0.0000
  o =  0.9901  v =  0.0000  0.0000  0.0000  0.0000  0.0000  0.0020 -0.7070  0.0003 -0.7072 -0.0002      0.0000  0.0000  0.0000  0.0000  0.0000  0.0000  0.0000  0.0000  0.0000  0.0000
  o =  0.9934  v =  0.0000  0.0000  0.0000  0.0000  0.0000 -0.8002 -0.0013 -0.5998 -0.0012  0.0000      0.0000  0.0000  0.0000  0.0000  0.0000  0.0000  0.0000  0.0000  0.0000  0.0000
atom =   2  type =  1  l = 2
 
 onsite density matrix
 
spin component  1
 
  0.9794  0.0000 -0.0188  0.0000  0.0000
  0.0000  0.9734  0.0000 -0.0166  0.0000
 -0.0188  0.0000  0.9683  0.0000  0.0000
  0.0000 -0.0166  0.0000  0.9734 -0.0000
  0.0000  0.0000  0.0000 -0.0000  0.9567
 
spin component  2
 
  0.0345  0.0001 -0.0194  0.0001 -0.0000
  0.0001  0.0281  0.0001 -0.0165 -0.0001
 -0.0194  0.0001  0.0237  0.0001  0.0000
  0.0001 -0.0165  0.0001  0.0281  0.0001
 -0.0000 -0.0001  0.0000  0.0001  0.0101
 
 occupancies and eigenvectors
 
  o =  0.0090  v =  0.0000  0.0000  0.0000  0.0000  0.0000  0.6036 -0.0470  0.7945 -0.0469 -0.0085      0.0000  0.0000  0.0000  0.0000  0.0000  0.0000  0.0000  0.0000  0.0000  0.0000
  o =  0.0101  v =  0.0000  0.0000  0.0000  0.0000  0.0000  0.0052  0.0002  0.0065 -0.0052  1.0000      0.0000  0.0000  0.0000  0.0000  0.0000  0.0000  0.0000  0.0000  0.0000  0.0000
  o =  0.0116  v =  0.0000  0.0000  0.0000  0.0000  0.0000  0.0401  0.7054  0.0529  0.7057  0.0030      0.0000  0.0000  0.0000  0.0000  0.0000  0.0000  0.0000  0.0000  0.0000  0.0000
[...]
     18      -2.8768      1.00000
     19      -2.6169      1.00000
     20      -2.2220      1.00000
     21      -2.1809      1.00000
     22      -1.6999      1.00000
     23      -1.5868      1.00000
     24      -1.3463      1.00000
     25      -1.0884      1.00000
     26      -0.6870      1.00000
     27      -0.0733      1.00000
     28       8.6046      0.00000
     29       8.6485      0.00000
     30       8.7697      0.00000
     31       9.0905      0.00000
     32       9.5482      0.00000
     33       9.9667      0.00000
     34      10.5776      0.00000
     35      11.0466      0.00000
     36      12.1625      0.00000

 k-point    48 :      -0.1250   -0.1250    0.4167
  band No.  band energies     occupation 
      1     -46.7843      1.00000
      2     -46.7474      1.00000
      3     -46.7333      1.00000
      4     -41.7352      1.00000
      5     -41.7009      1.00000
      6     -41.6813      1.00000
      7     -20.7983      1.00000
      8     -20.6787      1.00000
      9     -20.6366      1.00000
     10     -20.5296      1.00000
     11      -4.8737      1.00000
     12      -4.1673      1.00000
     13      -3.9314      1.00000
     14      -3.9010      1.00000
     15      -3.6041      1.00000
     16      -3.2187      1.00000
     17      -3.2169      1.00000
     18      -2.7057      1.00000
     19      -2.3865      1.00000
     20      -2.2395      1.00000
     21      -2.1971      1.00000
     22      -1.8092      1.00000
     23      -1.8026      1.00000
     24      -1.2965      1.00000
     25      -0.9617      1.00000
     26      -0.6589      1.00000
     27      -0.4026      1.00000
     28       8.0436      0.00000
     29       8.6256      0.00000
     30       8.7316      0.00000
     31       8.9665      0.00000
     32       9.5518      0.00000
     33       9.8229      0.00000
     34      10.9963      0.00000
     35      11.9588      0.00000
     36      12.3887      0.00000


--------------------------------------------------------------------------------------------------------


 soft charge-density along one line, spin component           1
         0         1         2         3         4         5         6         7         8         9
 total charge-density along one line
 
 soft charge-density along one line, spin component           2
         0         1         2         3         4         5         6         7         8         9
 total charge-density along one line
 
 pseudopotential strength for first ion, spin component:           1
-42.475   0.000  -0.025   7.860  -0.000   0.011  -0.000  -0.000
  0.000 -42.447   0.000  -0.000   7.848  -0.000  -0.000   0.000
 -0.025   0.000 -42.475   0.011  -0.000   7.860   0.000  -0.000
  7.860  -0.000   0.011   5.264   0.000  -0.002  -0.000   0.000
 -0.000   7.848  -0.000   0.000   5.266   0.000  -0.000  -0.000
  0.011  -0.000   7.860  -0.002   0.000   5.264   0.000  -0.000
 -0.000  -0.000   0.000  -0.000  -0.000   0.000   0.228  -0.000
 -0.000   0.000  -0.000   0.000  -0.000  -0.000  -0.000   0.284
 -0.000  -0.000   0.000  -0.000   0.000  -0.000  -0.110  -0.000
 -0.000   0.000  -0.000  -0.000  -0.000   0.000  -0.000  -0.121
 -0.000   0.000  -0.000  -0.000   0.000   0.000  -0.000   0.000
 -0.000  -0.000   0.000  -0.000  -0.000   0.000  -0.163  -0.000
 -0.000   0.000  -0.000   0.000  -0.000  -0.000  -0.000  -0.106
 -0.000  -0.000   0.000  -0.000   0.000  -0.000  -0.115  -0.000
 -0.000   0.000  -0.000  -0.000  -0.000   0.000  -0.000  -0.125
 -0.000   0.000  -0.000  -0.000   0.000   0.000  -0.000   0.000
  0.000   0.000   0.000   0.000   0.000  -0.000   0.006  -0.000
  0.000   0.000   0.000   0.000   0.000  -0.000   0.012  -0.000
 pseudopotential strength for first ion, spin component:           2
-45.858   0.000  -0.019   9.408  -0.000   0.006  -0.000   0.000
  0.000 -45.839   0.000  -0.000   9.402   0.000  -0.000   0.000
 -0.019   0.000 -45.858   0.006   0.000   9.408   0.000  -0.000
  9.408  -0.000   0.006   4.742   0.000  -0.001   0.000  -0.000
 -0.000   9.402   0.000   0.000   4.743   0.000   0.000  -0.000
  0.006   0.000   9.408  -0.001   0.000   4.742  -0.000   0.000
 -0.000  -0.000   0.000   0.000   0.000  -0.000  -9.498  -0.000
  0.000   0.000  -0.000  -0.000  -0.000   0.000  -0.000  -9.447
 -0.000  -0.000   0.000   0.000  -0.000   0.000  -0.112   0.000
 -0.000  -0.000  -0.000   0.000   0.000   0.000  -0.000  -0.123
 -0.000  -0.000  -0.000   0.000   0.000   0.000   0.000   0.000
 -0.000  -0.000   0.000   0.000   0.000  -0.000 -10.045  -0.000
  0.000   0.000  -0.000  -0.000  -0.000   0.000  -0.000  -9.992
 -0.000  -0.000   0.000   0.000  -0.000   0.000  -0.116   0.000
 -0.000  -0.000  -0.000   0.000   0.000   0.000  -0.000  -0.126
 -0.000  -0.000  -0.000   0.000   0.000   0.000   0.000   0.000
 -0.000  -0.000   0.000   0.000   0.000  -0.000   0.003  -0.000
 -0.000  -0.000   0.000   0.000   0.000  -0.000   0.005  -0.000
 total augmentation occupancy for first ion, spin component:           1
  1.999   0.000   0.000  -0.012   0.000   0.001   0.000   0.000  -0.000   0.000   0.000  -0.000  -0.000   0.000  -0.000  -0.000
  0.000   1.998   0.000   0.000  -0.013   0.000  -0.000  -0.000   0.000  -0.000  -0.000   0.000   0.000  -0.000   0.000   0.000
  0.000   0.000   1.999   0.001   0.000  -0.012  -0.000  -0.000   0.000   0.000   0.000   0.000   0.000  -0.000  -0.000  -0.000
 -0.012   0.000   0.001   0.085   0.000  -0.008   0.000   0.000   0.000   0.000  -0.000  -0.000  -0.000  -0.000  -0.000  -0.000
  0.000  -0.013   0.000   0.000   0.097   0.000  -0.000   0.000   0.000  -0.000  -0.000   0.000  -0.000  -0.000   0.000   0.000
  0.001   0.000  -0.012  -0.008   0.000   0.085  -0.000  -0.000  -0.000  -0.000   0.000   0.000   0.000   0.000   0.000  -0.000
  0.000  -0.000  -0.000   0.000  -0.000  -0.000   7.799   0.000   3.016   0.000  -0.000  -5.824  -0.000  -2.848  -0.000   0.000
  0.000  -0.000  -0.000   0.000   0.000  -0.000   0.000   6.693  -0.000   2.665   0.000  -0.000  -4.776   0.000  -2.513  -0.000
 -0.000   0.000   0.000   0.000   0.000  -0.000   3.016  -0.000   6.057  -0.000   0.000  -2.848  -0.000  -4.194  -0.000  -0.000
  0.000  -0.000   0.000   0.000  -0.000  -0.000   0.000   2.665  -0.000   6.693  -0.000  -0.000  -2.513   0.000  -4.776   0.000
  0.000  -0.000   0.000  -0.000  -0.000   0.000  -0.000   0.000   0.000  -0.000   3.891   0.000  -0.000  -0.000   0.000  -2.114
 -0.000   0.000   0.000  -0.000   0.000   0.000  -5.824  -0.000  -2.848  -0.000   0.000   5.016   0.000   2.711   0.000  -0.000
 -0.000   0.000   0.000  -0.000  -0.000   0.000  -0.000  -4.776  -0.000  -2.513  -0.000   0.000   4.015   0.000   2.389   0.000
  0.000  -0.000  -0.000  -0.000  -0.000   0.000  -2.848   0.000  -4.194   0.000  -0.000   2.711   0.000   3.479   0.000  -0.000
 -0.000   0.000  -0.000  -0.000   0.000   0.000  -0.000  -2.513  -0.000  -4.776   0.000   0.000   2.389   0.000   4.015  -0.000
 -0.000   0.000  -0.000  -0.000   0.000  -0.000   0.000  -0.000  -0.000   0.000  -2.114  -0.000   0.000  -0.000  -0.000   1.466
 -0.000  -0.000   0.000  -0.000   0.000   0.000   0.193  -0.000  -0.223  -0.000  -0.000  -0.219   0.000   0.238   0.000   0.000
  0.000   0.000  -0.000   0.000  -0.000  -0.000  -0.001   0.000   0.016   0.000   0.000   0.022  -0.000  -0.030  -0.000  -0.000
 total augmentation occupancy for first ion, spin component:           2
  0.002   0.000  -0.000   0.011   0.000  -0.000   0.000   0.000   0.000   0.000  -0.000  -0.000  -0.000  -0.000  -0.000   0.000
  0.000   0.003   0.000   0.000   0.011   0.000  -0.000   0.000   0.000  -0.000  -0.000   0.000  -0.000  -0.000   0.000   0.000
 -0.000   0.000   0.002  -0.000   0.000   0.011   0.000   0.000  -0.000  -0.000  -0.000  -0.000  -0.000   0.000   0.000   0.000
  0.011   0.000  -0.000  -0.011   0.000   0.000  -0.000  -0.000  -0.000   0.000   0.000   0.000   0.000   0.000  -0.000  -0.000
  0.000   0.011   0.000   0.000  -0.012   0.000  -0.000   0.000   0.000  -0.000  -0.000   0.000  -0.000  -0.000   0.000   0.000
 -0.000   0.000   0.011   0.000   0.000  -0.011   0.000  -0.000  -0.000   0.000   0.000  -0.000   0.000   0.000  -0.000  -0.000
  0.000  -0.000   0.000  -0.000  -0.000   0.000  -5.748  -0.000  -1.847  -0.000   0.000   3.499   0.000   1.526   0.000  -0.000
  0.000   0.000   0.000  -0.000   0.000  -0.000  -0.000  -5.075   0.000  -1.638  -0.000   0.000   2.934  -0.000   1.353   0.000
  0.000   0.000  -0.000  -0.000   0.000  -0.000  -1.847   0.000  -4.622   0.000  -0.000   1.526  -0.000   2.569  -0.000   0.000
  0.000  -0.000  -0.000   0.000  -0.000   0.000  -0.000  -1.638   0.000  -5.075   0.000   0.000   1.353  -0.000   2.934  -0.000
 -0.000  -0.000  -0.000   0.000  -0.000   0.000   0.000  -0.000  -0.000   0.000  -3.396  -0.000   0.000   0.000  -0.000   1.542
 -0.000   0.000  -0.000   0.000   0.000  -0.000   3.499   0.000   1.526   0.000  -0.000  -2.376  -0.000  -1.214  -0.000   0.000
 -0.000  -0.000  -0.000   0.000  -0.000   0.000   0.000   2.934  -0.000   1.353   0.000  -0.000  -1.918   0.000  -1.076  -0.000
 -0.000  -0.000   0.000   0.000  -0.000   0.000   1.526  -0.000   2.569  -0.000   0.000  -1.214   0.000  -1.636   0.000  -0.000
 -0.000   0.000   0.000  -0.000   0.000  -0.000   0.000   1.353  -0.000   2.934  -0.000  -0.000  -1.076   0.000  -1.918   0.000
  0.000   0.000   0.000  -0.000   0.000  -0.000  -0.000   0.000   0.000  -0.000   1.542   0.000  -0.000  -0.000   0.000  -0.805
  0.000  -0.000  -0.000  -0.000   0.000   0.000   0.007   0.000   0.022   0.000   0.000  -0.006  -0.000  -0.013  -0.000  -0.000
 -0.000   0.000   0.000   0.000  -0.000  -0.000  -0.039  -0.000   0.022  -0.000  -0.000   0.023   0.000  -0.013   0.000   0.000


------------------------ aborting loop because EDIFF is reached ----------------------------------------


 


 total charge     
 
# of ion       s       p       d       tot
------------------------------------------
    1        0.165   6.148   4.957  11.270
    2        0.165   6.148   4.957  11.270
    3        1.725   4.371   0.000   6.096
    4        1.725   4.371   0.000   6.096
    5        1.725   4.371   0.000   6.096
    6        1.725   4.371   0.000   6.096
--------------------------------------------------
tot          7.231  29.779   9.914  46.925
 


 magnetization (x)
 
# of ion       s       p       d       tot
------------------------------------------
    1       -0.020  -0.020  -4.717  -4.756
    2        0.020   0.020   4.717   4.756
    3        0.001   0.007   0.000   0.009
    4        0.001   0.007   0.000   0.009
    5       -0.001  -0.007   0.000  -0.009
    6       -0.001  -0.007   0.000  -0.009
--------------------------------------------------
tot         -0.000   0.000  -0.000   0.000
 
    CHARGE:  cpu time    0.0955: real time    0.0955
    FORLOC:  cpu time    0.0008: real time    0.0008
    FORNL :  cpu time    0.5513: real time    0.5513
    STRESS:  cpu time    1.5418: real time    1.5419
    FORCOR:  cpu time    0.0152: real time    0.0152
    FORHAR:  cpu time    0.0021: real time    0.0021
    MIXING:  cpu time    0.0008: real time    0.0008
    OFIELD:  cpu time    0.0000: real time    0.0000

  FORCE on cell =-STRESS in cart. coord.  units (eV):
  Direction    XX          YY          ZZ          XY          YZ          ZX
  --------------------------------------------------------------------------------------
  Alpha Z   194.14860   194.14860   194.14860
  Ewald   -1579.12337 -1579.12337 -1005.62955    -0.00000    -0.00000    -0.00000
  Hartree   594.10492   594.10492   981.97562     0.00013     0.00001     0.00001
  E(xc)    -314.35663  -314.35663  -314.13116    -0.00001    -0.00000    -0.00000
  Local     157.58214   157.58214  -796.86056    -0.00020    -0.00002    -0.00002
  n-local  -243.30045  -243.30045  -242.05066    -0.00004    -0.00002    -0.00003
  augment   265.55995   265.55995   265.02137    -0.00002    -0.00001    -0.00001
  Kinetic   925.41152   925.41152   917.54080     0.00002     0.00001     0.00001
  Fock        0.00000     0.00000     0.00000     0.00000     0.00000     0.00000
  -------------------------------------------------------------------------------------
  Total       0.02670     0.02669     0.01446    -0.00011    -0.00005    -0.00005
  in kB       0.53797     0.53779     0.29140    -0.00222    -0.00092    -0.00101
  external pressure =        0.46 kB  Pullay stress =        0.00 kB


 VOLUME and BASIS-vectors are now :
 -----------------------------------------------------------------------------
  energy-cutoff  :      600.00
  volume of cell :       79.51
      direct lattice vectors                 reciprocal lattice vectors
     4.898521820  0.000000000  0.000000000     0.204143216  0.000000000  0.000000000
     0.000000000  4.898521820  0.000000000     0.000000000  0.204143216  0.000000000
     0.000000000  0.000000000  3.313692693     0.000000000  0.000000000  0.301778135

  length of vectors
     4.898521820  4.898521820  3.313692693     0.204143216  0.204143216  0.301778135


 FORCES acting on ions
    electron-ion (+dipol)            ewald-force                    non-local-force                 convergence-correction
 -----------------------------------------------------------------------------------------------
   -.428E-09 0.147E-09 0.333E-09   0.284E-13 -.853E-13 -.275E-13   -.206E-08 -.200E-08 0.699E-09   -.277E-09 -.431E-09 -.115E-08
   0.282E-09 -.132E-08 0.483E-09   0.171E-12 0.171E-12 -.274E-13   -.334E-08 0.314E-08 0.236E-08   -.107E-08 0.204E-08 -.129E-08
   -.349E+02 0.349E+02 -.514E-06   0.363E+02 -.363E+02 0.154E-13   -.143E+01 0.143E+01 0.811E-07   0.194E-04 -.218E-05 0.362E-06
   0.349E+02 -.349E+02 0.515E-06   -.363E+02 0.363E+02 0.157E-13   0.143E+01 -.143E+01 -.803E-07   -.194E-04 0.218E-05 -.363E-06
   0.349E+02 0.349E+02 0.285E-05   -.363E+02 -.363E+02 0.100E-13   0.143E+01 0.143E+01 0.414E-05   -.277E-04 -.480E-04 -.560E-05
   -.349E+02 -.349E+02 -.285E-05   0.363E+02 0.363E+02 0.105E-13   -.143E+01 -.143E+01 -.414E-05   0.277E-04 0.480E-04 0.560E-05
 -----------------------------------------------------------------------------------------------
   0.506E-09 -.807E-10 0.210E-08   0.711E-14 0.711E-14 -.330E-14   -.351E-08 0.122E-08 0.429E-08   -.209E-08 0.136E-08 -.300E-08
 
 
 POSITION                                       TOTAL-FORCE (eV/Angst)
 -----------------------------------------------------------------------------------
      2.44926      2.44926      1.65685        -0.000000     -0.000000     -0.000000
      0.00000      0.00000      0.00000        -0.000000      0.000000      0.000000
      0.95543      3.94309      1.65685        -0.002514      0.002514     -0.000000
      3.94309      0.95543      1.65685         0.002514     -0.002514      0.000000
      1.49383      1.49383      0.00000         0.002516      0.002517      0.000001
      3.40469      3.40469      0.00000        -0.002516     -0.002517     -0.000001
 -----------------------------------------------------------------------------------
    total drift:                               -0.000000      0.000000      0.000000


--------------------------------------------------------------------------------------------------------



  FREE ENERGIE OF THE ION-ELECTRON SYSTEM (eV)
  ---------------------------------------------------
  free  energy   TOTEN  =       -37.96188624 eV

  energy  without entropy=      -37.96188624  energy(sigma->0) =      -37.96188624
 


--------------------------------------------------------------------------------------------------------


    POTLOK:  cpu time    2.1509: real time    2.1509

 Total magnetic moment S=     1.0000000

 Fermi contact (isotropic) hyperfine coupling parameter (MHz) 
 -------------------------------------------------------------
  ion      A_pw      A_1PS     A_1AE     A_1c      A_tot
 -------------------------------------------------------------
   1   -1302.613 -1302.546  -416.568  1251.270  -416.635
   2    1302.613  1302.546   416.561 -1251.270   416.628
   3      19.578    19.480   163.647   -11.806   163.745
   4      19.578    19.480   163.647   -11.806   163.745
   5     -19.578   -19.480  -163.654    11.805  -163.752
   6     -19.578   -19.480  -163.654    11.805  -163.752
 -------------------------------------------------------------


 Dipolar hyperfine coupling parameters (MHz)
 ---------------------------------------------------------------------
  ion      A_xx      A_yy      A_zz      A_xy      A_xz      A_yz
 ---------------------------------------------------------------------
   1       7.331     7.332   -14.663     3.671     0.006     0.006
   2      -7.329    -7.330    14.659     3.660    -0.006    -0.006
   3     -40.425   -40.425    80.851     6.576     0.000     0.000
   4     -40.425   -40.425    80.851     6.576     0.000     0.000
   5      40.424    40.424   -80.848     6.576     0.001     0.001
   6      40.424    40.424   -80.848     6.576     0.001     0.001
 ---------------------------------------------------------------------


 Total hyperfine coupling parameters after diagonalization (MHz)
 (convention: |A_zz| > |A_xx| > |A_yy|)
 ----------------------------------------------------------------------
  ion      A_xx      A_yy      A_zz     asymmetry (A_yy - A_xx)/ A_zz 
 ----------------------------------------------------------------------
   1    -412.975  -405.632  -431.298      -0.017
   2     412.958   405.639   431.288      -0.017
   3     129.896   116.744   244.596      -0.054
   4     129.896   116.744   244.596      -0.054
   5    -129.904  -116.752  -244.600      -0.054
   6    -129.904  -116.752  -244.600      -0.054
 ---------------------------------------------------------------------



--------------------------------------------------------------------------------------------------------


 writing wavefunctions
     LOOP+:  cpu time   69.1722: real time   69.1942
    4ORBIT:  cpu time    0.0000: real time    0.0000
 


 total charge     
 
# of ion       s       p       d       tot
------------------------------------------
    1        0.165   6.148   4.957  11.270
    2        0.165   6.148   4.957  11.270
    3        1.725   4.371   0.000   6.096
    4        1.725   4.371   0.000   6.096
    5        1.725   4.371   0.000   6.096
    6        1.725   4.371   0.000   6.096
--------------------------------------------------
tot          7.231  29.779   9.914  46.925
 


 magnetization (x)
 
# of ion       s       p       d       tot
------------------------------------------
    1       -0.020  -0.020  -4.717  -4.756
    2        0.020   0.020   4.717   4.756
    3        0.001   0.007   0.000   0.009
    4        0.001   0.007   0.000   0.009
    5       -0.001  -0.007   0.000  -0.009
    6       -0.001  -0.007   0.000  -0.009
--------------------------------------------------
tot         -0.000   0.000  -0.000   0.000
 
 BZINTS: Fermi energy:  0.132094; 54.000000 electrons
         Band energy:-781.093400;  BLOECHL correction:  0.000000

 total amount of memory used by VASP MPI-rank0    84217. kBytes
=======================================================================

   base      :      30000. kBytes
   nonl-proj :      37082. kBytes
   fftplans  :       1875. kBytes
   grid      :       2467. kBytes
   one-center:        186. kBytes
   wavefun   :      12607. kBytes
 
  
  
 General timing and accounting informations for this job:
 ========================================================
  
                  Total CPU time used (sec):       71.666
                            User time (sec):       52.823
                          System time (sec):       18.843
                         Elapsed time (sec):       71.734
  
                   Maximum memory used (kb):       94796.
                   Average memory used (kb):           0.
  
                          Minor page faults:        19771
                          Major page faults:            9
                 Voluntary context switches:          285
