       N       E                     dE             d eps       ncg     rms          rms(c)
DAV:   1     0.979212394224E+03    0.97921E+03   -0.37490E+04   288   0.201E+03
DAV:   2     0.405119759275E+03   -0.57409E+03   -0.54985E+03   336   0.518E+02
DAV:   3     0.369735244133E+03   -0.35385E+02   -0.35141E+02   300   0.139E+02
DAV:   4     0.369270536378E+03   -0.46471E+00   -0.46435E+00   384   0.174E+01
DAV:   5     0.369262380321E+03   -0.81561E-02   -0.81561E-02   288   0.210E+00    0.588E+01
DAV:   6    -0.685417472076E+02   -0.43780E+03   -0.28320E+02   360   0.211E+02    0.630E+01
DAV:   7    -0.712540102024E+02   -0.27123E+01   -0.52753E+01   288   0.457E+01    0.172E+01
DAV:   8    -0.685965466613E+02    0.26575E+01   -0.73338E+00   348   0.218E+01    0.626E+00
DAV:   9    -0.681725188065E+02    0.42403E+00   -0.45163E+00   336   0.182E+01    0.807E+00
DAV:  10    -0.680872874952E+02    0.85231E-01   -0.43673E-01   312   0.596E+00    0.584E+00
DAV:  11    -0.680638802789E+02    0.23407E-01   -0.93283E-01   348   0.673E+00    0.183E+00
DAV:  12    -0.680363489057E+02    0.27531E-01   -0.88343E-02   384   0.298E+00    0.139E+00
DAV:  13    -0.680287329430E+02    0.76160E-02   -0.76989E-02   348   0.167E+00    0.119E+00
DAV:  14    -0.680232156679E+02    0.55173E-02   -0.52227E-02   288   0.270E+00    0.441E-01
DAV:  15    -0.680237673715E+02   -0.55170E-03   -0.62009E-03   300   0.482E-01    0.395E-01
DAV:  16    -0.680234483294E+02    0.31904E-03   -0.27385E-03   288   0.456E-01    0.124E-01
DAV:  17    -0.680232643651E+02    0.18396E-03   -0.92550E-04   336   0.250E-01    0.592E-02
DAV:  18    -0.680231105887E+02    0.15378E-03   -0.39338E-05   336   0.481E-02    0.307E-02
DAV:  19    -0.680231232907E+02   -0.12702E-04   -0.34366E-05   324   0.367E-02    0.611E-03
DAV:  20    -0.680231271389E+02   -0.38481E-05   -0.26707E-06   300   0.106E-02    0.369E-03
DAV:  21    -0.680231294591E+02   -0.23203E-05   -0.86761E-07   192   0.970E-03    0.214E-03
DAV:  22    -0.680231348499E+02   -0.53908E-05   -0.14709E-07   144   0.274E-03    0.846E-04
DAV:  23    -0.680231341660E+02    0.68390E-06   -0.69341E-08   144   0.165E-03
   1 F= -.68023134E+02 E0= -.68023134E+02  d E =-.513220E-91  mag=    -0.0000
