 vasp.5.4.4.18Apr17-6-g9f103f2a35 (build Apr 27 2017 11:13:10) complex          
  
 executed on           IFC91_ompi date 2021.06.08  16:29:25
 running on   12 total cores
 distrk:  each k-point on   12 cores,    1 groups
 distr:  one band on NCORES_PER_BAND=   1 cores,   12 groups


--------------------------------------------------------------------------------------------------------


 INCAR:
 POTCAR:    PAW Mn_pv 02Aug2007                   
 POTCAR:    PAW F 31May2000                       

 ----------------------------------------------------------------------------- 
|                                                                             |
|           W    W    AA    RRRRR   N    N  II  N    N   GGGG   !!!           |
|           W    W   A  A   R    R  NN   N  II  NN   N  G    G  !!!           |
|           W    W  A    A  R    R  N N  N  II  N N  N  G       !!!           |
|           W WW W  AAAAAA  RRRRR   N  N N  II  N  N N  G  GGG   !            |
|           WW  WW  A    A  R   R   N   NN  II  N   NN  G    G                |
|           W    W  A    A  R    R  N    N  II  N    N   GGGG   !!!           |
|                                                                             |
|      For optimal performance we recommend to set                            |
|        NCORE= 4 - approx SQRT( number of cores)                             |
|      NCORE specifies how many cores store one orbital (NPAR=cpu/NCORE).     |
|      This setting can  greatly improve the performance of VASP for DFT.     |
|      The default,   NCORE=1            might be grossly inefficient         |
|      on modern multi-core architectures or massively parallel machines.     |
|      Do your own testing !!!!                                               |
|      Unfortunately you need to use the default for GW and RPA calculations. |
|      (for HF NCORE is supported but not extensively tested yet)             |
|                                                                             |
 ----------------------------------------------------------------------------- 

 POTCAR:    PAW Mn_pv 02Aug2007                   
   VRHFIN =Mn: 3p4s3d                                                           
   LEXCH  = CA                                                                  
   EATOM  =  2028.0466 eV,  149.0572 Ry                                         
                                                                                
   TITEL  = PAW Mn_pv 02Aug2007                                                 
   LULTRA =        F    use ultrasoft PP ?                                      
   IUNSCR =        1    unscreen: 0-lin 1-nonlin 2-no                           
   RPACOR =    2.080    partial core radius                                     
   POMASS =   54.938; ZVAL   =   13.000    mass and valenz                      
   RCORE  =    2.300    outmost cutoff radius                                   
   RWIGS  =    2.500; RWIGS  =    1.323    wigner-seitz radius (au A)           
   ENMAX  =  269.944; ENMIN  =  202.458 eV                                      
   ICORE  =        3    local potential                                         
   LCOR   =        T    correct aug charges                                     
   LPAW   =        T    paw PP                                                  
   EAUG   =  569.085                                                            
   DEXC   =    0.000                                                            
   RMAX   =    2.343    core radius for proj-oper                               
   RAUG   =    1.300    factor for augmentation sphere                          
   RDEP   =    2.338    radius for radial grids                                 
   RDEPT  =    1.798    core radius for aug-charge                              
                                                                                
   Atomic configuration                                                         
    8 entries                                                                   
     n  l   j            E        occ.                                          
     1  0  0.50     -6393.6057   2.0000                                         
     2  0  0.50      -735.9993   2.0000                                         
     2  1  1.50      -624.3417   6.0000                                         
     3  0  0.50       -80.9782   2.0000                                         
     3  1  1.50       -50.3144   6.0000                                         
     3  2  2.50        -3.6171   6.0000                                         
     4  0  0.50        -4.3304   1.0000                                         
     4  3  2.50        -1.3606   0.0000                                         
   Description                                                                  
     l       E           TYP  RCUT    TYP  RCUT                                 
     1    -50.3143634     23  2.000                                             
     1     -1.3605826     23  2.000                                             
     2     -3.6171470     23  2.300                                             
     2     -4.9777296     23  2.300                                             
     0     -4.3303688     23  2.300                                             
     0      7.3408788     23  2.300                                             
     3      9.5240782     23  2.300                                             
  local pseudopotential read in
  partial core-charges read in
  partial kinetic energy density read in
  atomic valenz-charges read in
  non local Contribution for L=           1  read in
    real space projection operators read in
  non local Contribution for L=           1  read in
    real space projection operators read in
  non local Contribution for L=           2  read in
    real space projection operators read in
  non local Contribution for L=           2  read in
    real space projection operators read in
  non local Contribution for L=           0  read in
    real space projection operators read in
  non local Contribution for L=           0  read in
    real space projection operators read in
    PAW grid and wavefunctions read in
 
   number of l-projection  operators is LMAX  =           6
   number of lm-projection operators is LMMAX =          18
 
 POTCAR:    PAW F 31May2000                       
   VRHFIN =F: s2p5                                                              
   LEXCH  = CA                                                                  
   EATOM  =   658.3685 eV,   48.3887 Ry                                         
                                                                                
   TITEL  = PAW F 31May2000                                                     
   LULTRA =        F    use ultrasoft PP ?                                      
   IUNSCR =        1    unscreen: 0-lin 1-nonlin 2-no                           
   RPACOR =    1.200    partial core radius                                     
   POMASS =   18.998; ZVAL   =    7.000    mass and valenz                      
   RCORE  =    1.520    outmost cutoff radius                                   
   RWIGS  =    1.500; RWIGS  =    0.794    wigner-seitz radius (au A)           
   ENMAX  =  400.000; ENMIN  =  300.000 eV                                      
   ICORE  =        2    local potential                                         
   LCOR   =        T    correct aug charges                                     
   LPAW   =        T    paw PP                                                  
   EAUG   =  613.614                                                            
   DEXC   =    0.000                                                            
   RMAX   =    1.555    core radius for proj-oper                               
   RAUG   =    1.300    factor for augmentation sphere                          
   RDEP   =    1.539    radius for radial grids                                 
   RDEPT  =    1.299    core radius for aug-charge                              
                                                                                
   Atomic configuration                                                         
    4 entries                                                                   
     n  l   j            E        occ.                                          
     1  0  0.50      -658.3386   2.0000                                         
     2  0  0.50       -29.6221   2.0000                                         
     2  1  0.50       -11.2952   5.0000                                         
     3  2  1.50       -12.2452   0.0000                                         
   Description                                                                  
     l       E           TYP  RCUT    TYP  RCUT                                 
     0    -29.6221019     23  1.200                                             
     0     -9.5240782     23  1.200                                             
     1    -11.2951545     23  1.520                                             
     1      1.3605826     23  1.520                                             
     2    -12.2452434      7  1.500                                             
  local pseudopotential read in
  partial core-charges read in
  partial kinetic energy density read in
  kinetic energy density of atom read in
  atomic valenz-charges read in
  non local Contribution for L=           0  read in
    real space projection operators read in
  non local Contribution for L=           0  read in
    real space projection operators read in
  non local Contribution for L=           1  read in
    real space projection operators read in
  non local Contribution for L=           1  read in
    real space projection operators read in
    PAW grid and wavefunctions read in
 
   number of l-projection  operators is LMAX  =           4
   number of lm-projection operators is LMMAX =           8
 
  PAW Mn_pv 02Aug2007                   :
 energy of atom  1       EATOM=-2028.0466
 kinetic energy error for atom=    0.0047 (will be added to EATOM!!)
  PAW F 31May2000                       :
 energy of atom  2       EATOM= -658.3685
 kinetic energy error for atom=    0.0252 (will be added to EATOM!!)
 
 
 POSCAR: Mn  F                                   
  positions in cartesian coordinates
  No initial velocities read in
 exchange correlation table for  LEXCH =        2
   RHO(1)=    0.500       N(1)  =     2000
   RHO(2)=  100.500       N(2)  =     4000
 


--------------------------------------------------------------------------------------------------------


 ion  position               nearest neighbor table
   1  0.500  0.500  0.500-   3 2.07   4 2.07   5 2.10   6 2.10   5 2.10   6 2.10
   2  0.000  0.000  0.000-   5 2.07   6 2.07   3 2.10   4 2.10   3 2.10   4 2.10
   3  0.195  0.805  0.500-   1 2.07   2 2.10   2 2.10
   4  0.805  0.195  0.500-   1 2.07   2 2.10   2 2.10
   5  0.305  0.305  0.000-   2 2.07   1 2.10   1 2.10
   6  0.695  0.695  0.000-   2 2.07   1 2.10   1 2.10
 

IMPORTANT INFORMATION: All symmetrisations will be switched off!
NOSYMM: (Re-)initialisation of all symmetry stuff for point group C_1.

 
 
 KPOINTS: KPOINTS created by Atomic Simulation Env

Automatic generation of k-mesh.
Space group operators:
 irot       det(A)        alpha          n_x          n_y          n_z        tau_x        tau_y        tau_z
    1     1.000000     0.000000     1.000000     0.000000     0.000000     0.000000     0.000000     0.000000
 
 Subroutine IBZKPT returns following result:
 ===========================================
 
 Found     48 irreducible k-points:
 
 Following reciprocal coordinates:
            Coordinates               Weight
  0.125000  0.125000  0.083333      2.000000
  0.375000  0.125000  0.083333      2.000000
 -0.375000  0.125000  0.083333      2.000000
 -0.125000  0.125000  0.083333      2.000000
  0.125000  0.375000  0.083333      2.000000
  0.375000  0.375000  0.083333      2.000000
 -0.375000  0.375000  0.083333      2.000000
 -0.125000  0.375000  0.083333      2.000000
  0.125000 -0.375000  0.083333      2.000000
  0.375000 -0.375000  0.083333      2.000000
 -0.375000 -0.375000  0.083333      2.000000
 -0.125000 -0.375000  0.083333      2.000000
  0.125000 -0.125000  0.083333      2.000000
  0.375000 -0.125000  0.083333      2.000000
 -0.375000 -0.125000  0.083333      2.000000
 -0.125000 -0.125000  0.083333      2.000000
  0.125000  0.125000  0.250000      2.000000
  0.375000  0.125000  0.250000      2.000000
 -0.375000  0.125000  0.250000      2.000000
 -0.125000  0.125000  0.250000      2.000000
  0.125000  0.375000  0.250000      2.000000
  0.375000  0.375000  0.250000      2.000000
 -0.375000  0.375000  0.250000      2.000000
 -0.125000  0.375000  0.250000      2.000000
  0.125000 -0.375000  0.250000      2.000000
  0.375000 -0.375000  0.250000      2.000000
 -0.375000 -0.375000  0.250000      2.000000
 -0.125000 -0.375000  0.250000      2.000000
  0.125000 -0.125000  0.250000      2.000000
  0.375000 -0.125000  0.250000      2.000000
 -0.375000 -0.125000  0.250000      2.000000
 -0.125000 -0.125000  0.250000      2.000000
  0.125000  0.125000  0.416667      2.000000
  0.375000  0.125000  0.416667      2.000000
 -0.375000  0.125000  0.416667      2.000000
 -0.125000  0.125000  0.416667      2.000000
  0.125000  0.375000  0.416667      2.000000
  0.375000  0.375000  0.416667      2.000000
 -0.375000  0.375000  0.416667      2.000000
 -0.125000  0.375000  0.416667      2.000000
  0.125000 -0.375000  0.416667      2.000000
  0.375000 -0.375000  0.416667      2.000000
 -0.375000 -0.375000  0.416667      2.000000
 -0.125000 -0.375000  0.416667      2.000000
  0.125000 -0.125000  0.416667      2.000000
  0.375000 -0.125000  0.416667      2.000000
 -0.375000 -0.125000  0.416667      2.000000
 -0.125000 -0.125000  0.416667      2.000000
 
 Following cartesian coordinates:
            Coordinates               Weight
  0.025979  0.025979  0.025540      2.000000
  0.077936  0.025979  0.025540      2.000000
 -0.077936  0.025979  0.025540      2.000000
 -0.025979  0.025979  0.025540      2.000000
  0.025979  0.077936  0.025540      2.000000
  0.077936  0.077936  0.025540      2.000000
 -0.077936  0.077936  0.025540      2.000000
 -0.025979  0.077936  0.025540      2.000000
  0.025979 -0.077936  0.025540      2.000000
  0.077936 -0.077936  0.025540      2.000000
 -0.077936 -0.077936  0.025540      2.000000
 -0.025979 -0.077936  0.025540      2.000000
  0.025979 -0.025979  0.025540      2.000000
  0.077936 -0.025979  0.025540      2.000000
 -0.077936 -0.025979  0.025540      2.000000
 -0.025979 -0.025979  0.025540      2.000000
  0.025979  0.025979  0.076620      2.000000
  0.077936  0.025979  0.076620      2.000000
 -0.077936  0.025979  0.076620      2.000000
 -0.025979  0.025979  0.076620      2.000000
  0.025979  0.077936  0.076620      2.000000
  0.077936  0.077936  0.076620      2.000000
 -0.077936  0.077936  0.076620      2.000000
 -0.025979  0.077936  0.076620      2.000000
  0.025979 -0.077936  0.076620      2.000000
  0.077936 -0.077936  0.076620      2.000000
 -0.077936 -0.077936  0.076620      2.000000
 -0.025979 -0.077936  0.076620      2.000000
  0.025979 -0.025979  0.076620      2.000000
  0.077936 -0.025979  0.076620      2.000000
 -0.077936 -0.025979  0.076620      2.000000
 -0.025979 -0.025979  0.076620      2.000000
  0.025979  0.025979  0.127699      2.000000
  0.077936  0.025979  0.127699      2.000000
 -0.077936  0.025979  0.127699      2.000000
 -0.025979  0.025979  0.127699      2.000000
  0.025979  0.077936  0.127699      2.000000
  0.077936  0.077936  0.127699      2.000000
 -0.077936  0.077936  0.127699      2.000000
 -0.025979  0.077936  0.127699      2.000000
  0.025979 -0.077936  0.127699      2.000000
  0.077936 -0.077936  0.127699      2.000000
 -0.077936 -0.077936  0.127699      2.000000
 -0.025979 -0.077936  0.127699      2.000000
  0.025979 -0.025979  0.127699      2.000000
  0.077936 -0.025979  0.127699      2.000000
 -0.077936 -0.025979  0.127699      2.000000
 -0.025979 -0.025979  0.127699      2.000000
 
 TETIRR: Found    288 inequivalent tetrahedra from      576


--------------------------------------------------------------------------------------------------------




 Dimension of arrays:
   k-points           NKPTS =     48   k-points in BZ     NKDIM =     48   number of bands    NBANDS=     36
   number of dos      NEDOS =    301   number of ions     NIONS =      6
   non local maximal  LDIM  =      6   non local SUM 2l+1 LMDIM =     18
   total plane-waves  NPLWV =  18000
   max r-space proj   IRMAX =      1   max aug-charges    IRDMAX=  58033
   dimension x,y,z NGX =    30 NGY =   30 NGZ =   20
   dimension x,y,z NGXF=    60 NGYF=   60 NGZF=   40
   support grid    NGXF=   120 NGYF=  120 NGZF=   80
   ions per type =               2   4
   NGX,Y,Z   is equivalent  to a cutoff of  10.37, 10.37, 10.19 a.u.
   NGXF,Y,Z  is equivalent  to a cutoff of  20.73, 20.73, 20.38 a.u.

 SYSTEM =  unknown system                          
 POSCAR =  Mn  F                                   

 Startparameter for this run:
   NWRITE =      2    write-flag & timer
   PREC   = normal    normal or accurate (medium, high low for compatibility)
   ISTART =      1    job   : 0-new  1-cont  2-samecut
   ICHARG =      0    charge: 1-file 2-atom 10-const
   ISPIN  =      2    spin polarized calculation?
   LNONCOLLINEAR =      F non collinear calculations
   LSORBIT =      F    spin-orbit coupling
   INIWAV =      1    electr: 0-lowe 1-rand  2-diag
   LASPH  =      T    aspherical Exc in radial PAW
   METAGGA=      F    non-selfconsistent MetaGGA calc.

 Electronic Relaxation 1
   ENCUT  =  600.0 eV  44.10 Ry    6.64 a.u.   9.61  9.61  6.52*2*pi/ulx,y,z
   ENINI  =  600.0     initial cutoff
   ENAUG  =  613.6 eV  augmentation charge cutoff
   NELM   =     60;   NELMIN=  2; NELMDL=  0     # of ELM steps 
   EDIFF  = 0.1E-07   stopping-criterion for ELM
   LREAL  =      F    real-space projection
   NLSPLINE    = F    spline interpolate recip. space projectors
   LCOMPAT=      F    compatible to vasp.4.4
   GGA_COMPAT  = T    GGA compatible to vasp.4.4-vasp.4.6
   LMAXPAW     = -100 max onsite density
   LMAXMIX     =    4 max onsite mixed and CHGCAR
   VOSKOWN=      0    Vosko Wilk Nusair interpolation
   ROPT   =    0.00000   0.00000
 Ionic relaxation
   EDIFFG = 0.1E-06   stopping-criterion for IOM
   NSW    =      0    number of steps for IOM
   NBLOCK =      1;   KBLOCK =      1    inner block; outer block 
   IBRION =     -1    ionic relax: 0-MD 1-quasi-New 2-CG
   NFREE  =      0    steps in history (QN), initial steepest desc. (CG)
   ISIF   =      2    stress and relaxation
   IWAVPR =     10    prediction:  0-non 1-charg 2-wave 3-comb
   ISYM   =      0    0-nonsym 1-usesym 2-fastsym
   LCORR  =      T    Harris-Foulkes like correction to forces

   POTIM  = 0.5000    time-step for ionic-motion
   TEIN   =    0.0    initial temperature
   TEBEG  =    0.0;   TEEND  =   0.0 temperature during run
   SMASS  =  -3.00    Nose mass-parameter (am)
   estimated Nose-frequenzy (Omega)   =  0.10E-29 period in steps =****** mass=  -0.529E-27a.u.
   SCALEE = 1.0000    scale energy and forces
   NPACO  =    256;   APACO  = 16.0  distance and # of slots for P.C.
   PSTRESS=    0.0 pullay stress

  Mass of Ions in am
   POMASS =  54.94 19.00
  Ionic Valenz
   ZVAL   =  13.00  7.00
  Atomic Wigner-Seitz radii
   RWIGS  =  -1.00 -1.00
  virtual crystal weights 
   VCA    =   1.00  1.00
   NELECT =      54.0000    total number of electrons
   NUPDOWN=      -1.0000    fix difference up-down

 DOS related values:
   EMIN   =  10.00;   EMAX   =-10.00  energy-range for DOS
   EFERMI =   0.00
   ISMEAR =    -5;   SIGMA  =   0.20  broadening in eV -4-tet -1-fermi 0-gaus

 Electronic relaxation 2 (details)
   IALGO  =     38    algorithm
   LDIAG  =      T    sub-space diagonalisation (order eigenvalues)
   LSUBROT=      F    optimize rotation matrix (better conditioning)
   TURBO    =      0    0=normal 1=particle mesh
   IRESTART =      0    0=no restart 2=restart with 2 vectors
   NREBOOT  =      0    no. of reboots
   NMIN     =      0    reboot dimension
   EREF     =   0.00    reference energy to select bands
   IMIX   =      4    mixing-type and parameters
     AMIX     =   0.40;   BMIX     =  1.00
     AMIX_MAG =   1.60;   BMIX_MAG =  1.00
     AMIN     =   0.10
     WC   =   100.;   INIMIX=   1;  MIXPRE=   1;  MAXMIX= -45

 Intra band minimization:
   WEIMIN = 0.0000     energy-eigenvalue tresh-hold
   EBREAK =  0.69E-10  absolut break condition
   DEPER  =   0.30     relativ break condition  

   TIME   =   0.40     timestep for ELM

  volume/ion in A,a.u.               =      12.59        84.96
  Fermi-wavevector in a.u.,A,eV,Ry     =   1.463787  2.766156 29.152811  2.142671
  Thomas-Fermi vector in A             =   2.579840
 
 Write flags
   LWAVE        =      T    write WAVECAR
   LDOWNSAMPLE  =      F    k-point downsampling of WAVECAR
   LCHARG       =      T    write CHGCAR
   LVTOT        =      F    write LOCPOT, total local potential
   LVHAR        =      F    write LOCPOT, Hartree potential only
   LELF         =      F    write electronic localiz. function (ELF)
   LORBIT       =     11    0 simple, 1 ext, 2 COOP (PROOUT), +10 PAW based schemes


 Dipole corrections
   LMONO  =      F    monopole corrections only (constant potential shift)
   LDIPOL =      F    correct potential (dipole corrections)
   IDIPOL =      0    1-x, 2-y, 3-z, 4-all directions 
   EPSILON=  1.0000000 bulk dielectric constant

 LDA+U is selected, type is set to LDAUTYPE =  2
   angular momentum for each species LDAUL =     2   -1
   U (eV)           for each species LDAUU =   8.0  0.0
   J (eV)           for each species LDAUJ =   0.0  0.0
 Exchange correlation treatment:
   GGA     =    --    GGA type
   LEXCH   =     2    internal setting for exchange type
   VOSKOWN=      0    Vosko Wilk Nusair interpolation
   LHFCALC =     F    Hartree Fock is set to
   LHFONE  =     F    Hartree Fock one center treatment
   AEXX    =    0.0000 exact exchange contribution

 Linear response parameters
   LEPSILON=     F    determine dielectric tensor
   LRPA    =     F    only Hartree local field effects (RPA)
   LNABLA  =     F    use nabla operator in PAW spheres
   LVEL    =     F    velocity operator in full k-point grid
   LINTERFAST=   F  fast interpolation
   KINTER  =     0    interpolate to denser k-point grid
   CSHIFT  =0.1000    complex shift for real part using Kramers Kronig
   OMEGAMAX=  -1.0    maximum frequency
   DEG_THRESHOLD= 0.2000000E-02 threshold for treating states as degnerate
   RTIME   =   -0.100 relaxation time in fs
  (WPLASMAI=    0.000 imaginary part of plasma frequency in eV, 0.658/RTIME)
   DFIELD  = 0.0000000 0.0000000 0.0000000 field for delta impulse in time
 
 Orbital magnetization related:
   ORBITALMAG=     F  switch on orbital magnetization
   LCHIMAG   =     F  perturbation theory with respect to B field
   DQ        =  0.001000  dq finite difference perturbation B field
   LLRAUG    =     F  two centre corrections for induced B field



--------------------------------------------------------------------------------------------------------


 Static calculation
 charge density and potential will be updated during run
 spin polarized calculation
 Variant of blocked Davidson
 Davidson routine will perform the subspace rotation
 perform sub-space diagonalisation
    after iterative eigenvector-optimisation
 modified Broyden-mixing scheme, WC =      100.0
 initial mixing is a Kerker type mixing with AMIX =  0.4000 and BMIX =      1.0000
 Hartree-type preconditioning will be used
 using additional bands            9
 reciprocal scheme for non local part
 use partial core corrections
 calculate Harris-corrections to forces 
   (improved forces if not selfconsistent)
 use of overlap-Matrix (Vanderbilt PP)
 Fermi weights with tetrahedron method with Bloechl corrections


--------------------------------------------------------------------------------------------------------


  energy-cutoff  :      600.00
  volume of cell :       75.54
      direct lattice vectors                 reciprocal lattice vectors
     4.811631305  0.000000000  0.000000000     0.207829723  0.000000000  0.000000000
     0.000000000  4.811631305  0.000000000     0.000000000  0.207829723  0.000000000
     0.000000000  0.000000000  3.262873884     0.000000000  0.000000000  0.306478287

  length of vectors
     4.811631305  4.811631305  3.262873884     0.207829723  0.207829723  0.306478287


 
 old parameters found on file WAVECAR:
  energy-cutoff  :      600.00
  volume of cell :       75.54
      direct lattice vectors                 reciprocal lattice vectors
     4.811631305  0.000000000  0.000000000     0.207829723  0.000000000  0.000000000
     0.000000000  4.811631305  0.000000000     0.000000000  0.207829723  0.000000000
     0.000000000  0.000000000  3.262873884     0.000000000  0.000000000  0.306478287

  length of vectors

 
 k-points in units of 2pi/SCALE and weight: KPOINTS created by Atomic Simulation Env
   0.02597872  0.02597872  0.02553986       0.021
   0.07793615  0.02597872  0.02553986       0.021
  -0.07793615  0.02597872  0.02553986       0.021
  -0.02597872  0.02597872  0.02553986       0.021
   0.02597872  0.07793615  0.02553986       0.021
   0.07793615  0.07793615  0.02553986       0.021
  -0.07793615  0.07793615  0.02553986       0.021
  -0.02597872  0.07793615  0.02553986       0.021
   0.02597872 -0.07793615  0.02553986       0.021
   0.07793615 -0.07793615  0.02553986       0.021
  -0.07793615 -0.07793615  0.02553986       0.021
  -0.02597872 -0.07793615  0.02553986       0.021
   0.02597872 -0.02597872  0.02553986       0.021
   0.07793615 -0.02597872  0.02553986       0.021
  -0.07793615 -0.02597872  0.02553986       0.021
  -0.02597872 -0.02597872  0.02553986       0.021
   0.02597872  0.02597872  0.07661957       0.021
   0.07793615  0.02597872  0.07661957       0.021
  -0.07793615  0.02597872  0.07661957       0.021
  -0.02597872  0.02597872  0.07661957       0.021
   0.02597872  0.07793615  0.07661957       0.021
   0.07793615  0.07793615  0.07661957       0.021
  -0.07793615  0.07793615  0.07661957       0.021
  -0.02597872  0.07793615  0.07661957       0.021
   0.02597872 -0.07793615  0.07661957       0.021
   0.07793615 -0.07793615  0.07661957       0.021
  -0.07793615 -0.07793615  0.07661957       0.021
  -0.02597872 -0.07793615  0.07661957       0.021
   0.02597872 -0.02597872  0.07661957       0.021
   0.07793615 -0.02597872  0.07661957       0.021
  -0.07793615 -0.02597872  0.07661957       0.021
  -0.02597872 -0.02597872  0.07661957       0.021
   0.02597872  0.02597872  0.12769929       0.021
   0.07793615  0.02597872  0.12769929       0.021
  -0.07793615  0.02597872  0.12769929       0.021
  -0.02597872  0.02597872  0.12769929       0.021
   0.02597872  0.07793615  0.12769929       0.021
   0.07793615  0.07793615  0.12769929       0.021
  -0.07793615  0.07793615  0.12769929       0.021
  -0.02597872  0.07793615  0.12769929       0.021
   0.02597872 -0.07793615  0.12769929       0.021
   0.07793615 -0.07793615  0.12769929       0.021
  -0.07793615 -0.07793615  0.12769929       0.021
  -0.02597872 -0.07793615  0.12769929       0.021
   0.02597872 -0.02597872  0.12769929       0.021
   0.07793615 -0.02597872  0.12769929       0.021
  -0.07793615 -0.02597872  0.12769929       0.021
  -0.02597872 -0.02597872  0.12769929       0.021
 
 k-points in reciprocal lattice and weights: KPOINTS created by Atomic Simulation Env
   0.12500000  0.12500000  0.08333333       0.021
   0.37500000  0.12500000  0.08333333       0.021
  -0.37500000  0.12500000  0.08333333       0.021
  -0.12500000  0.12500000  0.08333333       0.021
   0.12500000  0.37500000  0.08333333       0.021
   0.37500000  0.37500000  0.08333333       0.021
  -0.37500000  0.37500000  0.08333333       0.021
  -0.12500000  0.37500000  0.08333333       0.021
   0.12500000 -0.37500000  0.08333333       0.021
   0.37500000 -0.37500000  0.08333333       0.021
  -0.37500000 -0.37500000  0.08333333       0.021
  -0.12500000 -0.37500000  0.08333333       0.021
   0.12500000 -0.12500000  0.08333333       0.021
   0.37500000 -0.12500000  0.08333333       0.021
  -0.37500000 -0.12500000  0.08333333       0.021
  -0.12500000 -0.12500000  0.08333333       0.021
   0.12500000  0.12500000  0.25000000       0.021
   0.37500000  0.12500000  0.25000000       0.021
  -0.37500000  0.12500000  0.25000000       0.021
  -0.12500000  0.12500000  0.25000000       0.021
   0.12500000  0.37500000  0.25000000       0.021
   0.37500000  0.37500000  0.25000000       0.021
  -0.37500000  0.37500000  0.25000000       0.021
  -0.12500000  0.37500000  0.25000000       0.021
   0.12500000 -0.37500000  0.25000000       0.021
   0.37500000 -0.37500000  0.25000000       0.021
  -0.37500000 -0.37500000  0.25000000       0.021
  -0.12500000 -0.37500000  0.25000000       0.021
   0.12500000 -0.12500000  0.25000000       0.021
   0.37500000 -0.12500000  0.25000000       0.021
  -0.37500000 -0.12500000  0.25000000       0.021
  -0.12500000 -0.12500000  0.25000000       0.021
   0.12500000  0.12500000  0.41666667       0.021
   0.37500000  0.12500000  0.41666667       0.021
  -0.37500000  0.12500000  0.41666667       0.021
  -0.12500000  0.12500000  0.41666667       0.021
   0.12500000  0.37500000  0.41666667       0.021
   0.37500000  0.37500000  0.41666667       0.021
  -0.37500000  0.37500000  0.41666667       0.021
  -0.12500000  0.37500000  0.41666667       0.021
   0.12500000 -0.37500000  0.41666667       0.021
   0.37500000 -0.37500000  0.41666667       0.021
  -0.37500000 -0.37500000  0.41666667       0.021
  -0.12500000 -0.37500000  0.41666667       0.021
   0.12500000 -0.12500000  0.41666667       0.021
   0.37500000 -0.12500000  0.41666667       0.021
  -0.37500000 -0.12500000  0.41666667       0.021
  -0.12500000 -0.12500000  0.41666667       0.021
 
 position of ions in fractional coordinates (direct lattice) 
   0.50000000  0.50000000  0.50000000
   0.00000000  0.00000000  0.00000000
   0.19532645  0.80467355  0.50000000
   0.80467355  0.19532645  0.50000000
   0.30467355  0.30467355  0.00000000
   0.69532645  0.69532645  0.00000000
 
 position of ions in cartesian coordinates  (Angst):
   2.40581565  2.40581565  1.63143694
   0.00000000  0.00000000  0.00000000
   0.93983886  3.87179245  1.63143694
   3.87179245  0.93983886  1.63143694
   1.46597679  1.46597679  0.00000000
   3.34565451  3.34565451  0.00000000
 


--------------------------------------------------------------------------------------------------------


 k-point  1 :   0.1250 0.1250 0.0833  plane waves:    2537
 k-point  2 :   0.3750 0.1250 0.0833  plane waves:    2532
 k-point  3 :  -0.3750 0.1250 0.0833  plane waves:    2532
 k-point  4 :  -0.1250 0.1250 0.0833  plane waves:    2537
 k-point  5 :   0.1250 0.3750 0.0833  plane waves:    2532
 k-point  6 :   0.3750 0.3750 0.0833  plane waves:    2517
 k-point  7 :  -0.3750 0.3750 0.0833  plane waves:    2517
 k-point  8 :  -0.1250 0.3750 0.0833  plane waves:    2532
 k-point  9 :   0.1250-0.3750 0.0833  plane waves:    2532
 k-point 10 :   0.3750-0.3750 0.0833  plane waves:    2517
 k-point 11 :  -0.3750-0.3750 0.0833  plane waves:    2517
 k-point 12 :  -0.1250-0.3750 0.0833  plane waves:    2532
 k-point 13 :   0.1250-0.1250 0.0833  plane waves:    2537
 k-point 14 :   0.3750-0.1250 0.0833  plane waves:    2532
 k-point 15 :  -0.3750-0.1250 0.0833  plane waves:    2532
 k-point 16 :  -0.1250-0.1250 0.0833  plane waves:    2537
 k-point 17 :   0.1250 0.1250 0.2500  plane waves:    2532
 k-point 18 :   0.3750 0.1250 0.2500  plane waves:    2523
 k-point 19 :  -0.3750 0.1250 0.2500  plane waves:    2523
 k-point 20 :  -0.1250 0.1250 0.2500  plane waves:    2532
 k-point 21 :   0.1250 0.3750 0.2500  plane waves:    2523
 k-point 22 :   0.3750 0.3750 0.2500  plane waves:    2521
 k-point 23 :  -0.3750 0.3750 0.2500  plane waves:    2521
 k-point 24 :  -0.1250 0.3750 0.2500  plane waves:    2523
 k-point 25 :   0.1250-0.3750 0.2500  plane waves:    2523
 k-point 26 :   0.3750-0.3750 0.2500  plane waves:    2521
 k-point 27 :  -0.3750-0.3750 0.2500  plane waves:    2521
 k-point 28 :  -0.1250-0.3750 0.2500  plane waves:    2523
 k-point 29 :   0.1250-0.1250 0.2500  plane waves:    2532
 k-point 30 :   0.3750-0.1250 0.2500  plane waves:    2523
 k-point 31 :  -0.3750-0.1250 0.2500  plane waves:    2523
 k-point 32 :  -0.1250-0.1250 0.2500  plane waves:    2532
 k-point 33 :   0.1250 0.1250 0.4167  plane waves:    2514
 k-point 34 :   0.3750 0.1250 0.4167  plane waves:    2513
 k-point 35 :  -0.3750 0.1250 0.4167  plane waves:    2513
 k-point 36 :  -0.1250 0.1250 0.4167  plane waves:    2514
 k-point 37 :   0.1250 0.3750 0.4167  plane waves:    2513
 k-point 38 :   0.3750 0.3750 0.4167  plane waves:    2518
 k-point 39 :  -0.3750 0.3750 0.4167  plane waves:    2518
 k-point 40 :  -0.1250 0.3750 0.4167  plane waves:    2513
 k-point 41 :   0.1250-0.3750 0.4167  plane waves:    2513
 k-point 42 :   0.3750-0.3750 0.4167  plane waves:    2518
 k-point 43 :  -0.3750-0.3750 0.4167  plane waves:    2518
 k-point 44 :  -0.1250-0.3750 0.4167  plane waves:    2513
 k-point 45 :   0.1250-0.1250 0.4167  plane waves:    2514
 k-point 46 :   0.3750-0.1250 0.4167  plane waves:    2513
 k-point 47 :  -0.3750-0.1250 0.4167  plane waves:    2513
 k-point 48 :  -0.1250-0.1250 0.4167  plane waves:    2514

 maximum and minimum number of plane-waves per node :      2537     2513

 maximum number of plane-waves:      2537
 maximum index in each direction: 
   IXMAX=    9   IYMAX=    9   IZMAX=    6
   IXMIN=   -9   IYMIN=   -9   IZMIN=   -6


 serial   3D FFT for wavefunctions
 parallel 3D FFT for charge:
    minimum data exchange during FFTs selected (reduces bandwidth)


 total amount of memory used by VASP MPI-rank0    81994. kBytes
=======================================================================

   base      :      30000. kBytes
   nonl-proj :      35412. kBytes
   fftplans  :       1875. kBytes
   grid      :       2467. kBytes
   one-center:        186. kBytes
   wavefun   :      12054. kBytes
 
     INWAV:  cpu time    0.4423: real time    0.4423
 Broyden mixing: mesh for mixing (old mesh)
   NGX = 19   NGY = 19   NGZ = 13
  (NGX  = 60   NGY  = 60   NGZ  = 40)
  gives a total of   4693 points

 charge density for first step will be calculated from the start-wavefunctions


--------------------------------------------------------------------------------------------------------


 Maximum index for augmentation-charges         4391 (set IRDMAX)


--------------------------------------------------------------------------------------------------------


 initial charge from wavefunction
 First call to EWALD:  gamma=   0.419
 Maximum number of real-space cells 2x 2x 3
 Maximum number of reciprocal cells 3x 3x 2

    FEWALD:  cpu time    0.0013: real time    0.0013


--------------------------------------- Iteration      1(   1)  ---------------------------------------


    POTLOK:  cpu time    0.0066: real time    0.0066
    SETDIJ:  cpu time    3.9549: real time    3.9549
atom =   1  type =  1  l = 2
 
 onsite density matrix
 
spin component  1
 
  0.1234  0.0126 -0.0091  0.0129  0.0000
  0.0126  0.0859  0.0091  0.0371 -0.0143
 -0.0091  0.0091  0.0672  0.0091  0.0014
  0.0129  0.0371  0.0091  0.0843  0.0148
  0.0000 -0.0143  0.0014  0.0148  0.0938
 
spin component  2
 
  0.9297 -0.0047  0.0288 -0.0048 -0.0001
 -0.0047  0.9225 -0.0034  0.0111  0.0055
  0.0288 -0.0034  0.9288 -0.0033 -0.0005
 -0.0048  0.0111 -0.0033  0.9231 -0.0057
 -0.0001  0.0055 -0.0005 -0.0057  0.8918
 
 occupancies and eigenvectors
 
  o =  0.0401  v =  0.0028  0.6534 -0.0127 -0.6667  0.3583  0.0000  0.0000  0.0000  0.0000  0.0000      0.0000  0.0000  0.0000  0.0000  0.0000  0.0000  0.0000  0.0000  0.0000  0.0000
  o =  0.0615  v = -0.2142  0.1721 -0.9403  0.1992  0.0251  0.0000  0.0000  0.0000  0.0000  0.0000      0.0000  0.0000  0.0000  0.0000  0.0000  0.0000  0.0000  0.0000  0.0000  0.0000
  o =  0.1017  v = -0.0312  0.2788 -0.0150 -0.2277 -0.9323  0.0000  0.0000  0.0000  0.0000  0.0000      0.0000  0.0000  0.0000  0.0000  0.0000  0.0000  0.0000  0.0000  0.0000  0.0000
  o =  0.1103  v =  0.6730 -0.4624 -0.3378 -0.4663 -0.0415  0.0000  0.0000  0.0000  0.0000  0.0000      0.0000  0.0000  0.0000  0.0000  0.0000  0.0000  0.0000  0.0000  0.0000  0.0000
  o =  0.1409  v = -0.7073 -0.5019 -0.0361 -0.4966 -0.0046  0.0000  0.0000  0.0000  0.0000  0.0000      0.0000  0.0000  0.0000  0.0000  0.0000  0.0000  0.0000  0.0000  0.0000  0.0000
  o =  0.8890  v =  0.0000  0.0000  0.0000  0.0000  0.0000 -0.0084 -0.2316  0.0164  0.2324  0.9444      0.0000  0.0000  0.0000  0.0000  0.0000  0.0000  0.0000  0.0000  0.0000  0.0000
  o =  0.9003  v =  0.0000  0.0000  0.0000  0.0000  0.0000 -0.7050 -0.0168  0.7077 -0.0412 -0.0125      0.0000  0.0000  0.0000  0.0000  0.0000  0.0000  0.0000  0.0000  0.0000  0.0000
  o =  0.9145  v =  0.0000  0.0000  0.0000  0.0000  0.0000 -0.0129 -0.6826  0.0031  0.6528 -0.3282      0.0000  0.0000  0.0000  0.0000  0.0000  0.0000  0.0000  0.0000  0.0000  0.0000
  o =  0.9314  v =  0.0000  0.0000  0.0000  0.0000  0.0000 -0.1786 -0.6619 -0.2337 -0.6895  0.0098      0.0000  0.0000  0.0000  0.0000  0.0000  0.0000  0.0000  0.0000  0.0000  0.0000
  o =  0.9606  v =  0.0000  0.0000  0.0000  0.0000  0.0000 -0.6862  0.2052 -0.6665  0.2067  0.0050      0.0000  0.0000  0.0000  0.0000  0.0000  0.0000  0.0000  0.0000  0.0000  0.0000
atom =   2  type =  1  l = 2
 
 onsite density matrix
 
spin component  1
 
  0.9325 -0.0044 -0.0109 -0.0045  0.0001
 -0.0044  0.9218 -0.0027 -0.0291  0.0049
 -0.0109 -0.0027  0.9301 -0.0026 -0.0005
 -0.0045 -0.0291 -0.0026  0.9225 -0.0051
  0.0001  0.0049 -0.0005 -0.0051  0.8917
 
spin component  2
 
  0.1266  0.0139 -0.0482  0.0141  0.0001
  0.0139  0.0857  0.0099  0.0119 -0.0147
 -0.0482  0.0099  0.0670  0.0098  0.0013
  0.0141  0.0119  0.0098  0.0840  0.0150
  0.0001 -0.0147  0.0013  0.0150  0.0941
 
 occupancies and eigenvectors
 
  o =  0.0326  v =  0.0000  0.0000  0.0000  0.0000  0.0000 -0.4846  0.2318 -0.8115  0.2292  0.0176      0.0000  0.0000  0.0000  0.0000  0.0000  0.0000  0.0000  0.0000  0.0000  0.0000
  o =  0.0599  v =  0.0000  0.0000  0.0000  0.0000  0.0000  0.0082  0.5835 -0.0021 -0.6204  0.5240      0.0000  0.0000  0.0000  0.0000  0.0000  0.0000  0.0000  0.0000  0.0000  0.0000
  o =  0.1023  v =  0.0000  0.0000  0.0000  0.0000  0.0000 -0.0083  0.6837  0.3764  0.6249 -0.0198      0.0000  0.0000  0.0000  0.0000  0.0000  0.0000  0.0000  0.0000  0.0000  0.0000
  o =  0.1071  v =  0.0000  0.0000  0.0000  0.0000  0.0000 -0.0137  0.3467 -0.0222 -0.3931 -0.8512      0.0000  0.0000  0.0000  0.0000  0.0000  0.0000  0.0000  0.0000  0.0000  0.0000
  o =  0.1554  v =  0.0000  0.0000  0.0000  0.0000  0.0000 -0.8746 -0.1349  0.4464 -0.1326  0.0087      0.0000  0.0000  0.0000  0.0000  0.0000  0.0000  0.0000  0.0000  0.0000  0.0000
  o =  0.8908  v =  0.0643  0.1566  0.0607  0.3087  0.9340  0.0000  0.0000  0.0000  0.0000  0.0000      0.0000  0.0000  0.0000  0.0000  0.0000  0.0000  0.0000  0.0000  0.0000  0.0000
  o =  0.8914  v = -0.1753 -0.6776 -0.1346 -0.6148  0.3377  0.0000  0.0000  0.0000  0.0000  0.0000      0.0000  0.0000  0.0000  0.0000  0.0000  0.0000  0.0000  0.0000  0.0000  0.0000
  o =  0.9221  v = -0.6296  0.1661 -0.7410  0.1639  0.0095  0.0000  0.0000  0.0000  0.0000  0.0000      0.0000  0.0000  0.0000  0.0000  0.0000  0.0000  0.0000  0.0000  0.0000  0.0000
  o =  0.9423  v =  0.7540 -0.0456 -0.6550 -0.0189  0.0045  0.0000  0.0000  0.0000  0.0000  0.0000      0.0000  0.0000  0.0000  0.0000  0.0000  0.0000  0.0000  0.0000  0.0000  0.0000
  o =  0.9520  v =  0.0145  0.6976 -0.0107 -0.7067  0.1163  0.0000  0.0000  0.0000  0.0000  0.0000      0.0000  0.0000  0.0000  0.0000  0.0000  0.0000  0.0000  0.0000  0.0000  0.0000
     EDDAV:  cpu time    2.0507: real time    2.0690
 BZINTS: Fermi energy:  3.452502; 54.000000 electrons
         Band energy:-769.808362;  BLOECHL correction:  0.000000
       DOS:  cpu time    0.0058: real time    0.0058
    CHARGE:  cpu time    0.0996: real time    0.0996
    MIXING:  cpu time    0.0008: real time    0.0008
    --------------------------------------------
      LOOP:  cpu time    6.1184: real time    6.1368

 eigenvalue-minimisations  :  9036
 total energy-change (2. order) :-0.1958056E+02  (-0.1089938E+03)
 number of electron      54.0000001 magnetization       0.0000000
 augmentation part       20.6563267 magnetization       0.0018100

 Broyden mixing:
  rms(total) = 0.19469E+01    rms(broyden)= 0.19469E+01
  rms(prec ) = 0.21213E+01
  weight for this iteration     100.00

 Free energy of the ion-electron system (eV)
  ---------------------------------------------------
  alpha Z        PSCENC =       201.68854072
  Ewald energy   TEWEN  =     -4236.95701916
  -Hartree energ DENC   =     -2086.55177686
  -exchange      EXHF   =         0.00000000
  -V(xc)+E(xc)   XCENC  =       294.42044421
  PAW double counting   =      7525.85234497    -7637.68151141
  entropy T*S    EENTRO =         0.00000000
  eigenvalues    EBANDS =      -769.80836173
  atomic energy  EATOM  =      6689.45677594
  Solvation  Ediel_sol  =         0.00000000
  ---------------------------------------------------
  free energy    TOTEN  =       -19.58056332 eV

  energy without entropy =      -19.58056332  energy(sigma->0) =      -19.58056332


--------------------------------------------------------------------------------------------------------




--------------------------------------- Iteration      1(   2)  ---------------------------------------


    POTLOK:  cpu time    0.0047: real time    0.0047
    SETDIJ:  cpu time    3.9893: real time    3.9893
atom =   1  type =  1  l = 2
 
 onsite density matrix
 
spin component  1
 
  0.0175 -0.0016  0.0282 -0.0017 -0.0001
 -0.0016  0.0124 -0.0007  0.0198  0.0010
  0.0282 -0.0007  0.0107 -0.0009 -0.0002
 -0.0017  0.0198 -0.0009  0.0125 -0.0015
 -0.0001  0.0010 -0.0002 -0.0015 -0.0240
 
spin component  2
 
  1.0238  0.0068  0.0000  0.0071  0.0000
  0.0068  0.9944  0.0044  0.0233 -0.0054
  0.0000  0.0044  0.9862  0.0047  0.0006
  0.0071  0.0233  0.0047  0.9938  0.0062
  0.0000 -0.0054  0.0006  0.0062  1.0038
 
 occupancies and eigenvectors
 
  o = -0.0242  v =  0.0052  0.0690 -0.0105 -0.0788 -0.9944  0.0000  0.0000  0.0000  0.0000  0.0000      0.0000  0.0000  0.0000  0.0000  0.0000  0.0000  0.0000  0.0000  0.0000  0.0000
  o = -0.0143  v =  0.6632  0.0142 -0.7481  0.0074  0.0118  0.0000  0.0000  0.0000  0.0000  0.0000      0.0000  0.0000  0.0000  0.0000  0.0000  0.0000  0.0000  0.0000  0.0000  0.0000
  o = -0.0072  v = -0.0066  0.7046  0.0022 -0.7018  0.1044  0.0000  0.0000  0.0000  0.0000  0.0000      0.0000  0.0000  0.0000  0.0000  0.0000  0.0000  0.0000  0.0000  0.0000  0.0000
  o =  0.0317  v =  0.1583  0.6886  0.1602  0.6892 -0.0077  0.0000  0.0000  0.0000  0.0000  0.0000      0.0000  0.0000  0.0000  0.0000  0.0000  0.0000  0.0000  0.0000  0.0000  0.0000
  o =  0.0430  v = -0.7314  0.1561 -0.6438  0.1617  0.0010  0.0000  0.0000  0.0000  0.0000  0.0000      0.0000  0.0000  0.0000  0.0000  0.0000  0.0000  0.0000  0.0000  0.0000  0.0000
  o =  0.9689  v =  0.0000  0.0000  0.0000  0.0000  0.0000  0.0065  0.6799  0.0093 -0.6968  0.2282      0.0000  0.0000  0.0000  0.0000  0.0000  0.0000  0.0000  0.0000  0.0000  0.0000
  o =  0.9848  v =  0.0000  0.0000  0.0000  0.0000  0.0000 -0.0516  0.1519 -0.9761  0.1440  0.0285      0.0000  0.0000  0.0000  0.0000  0.0000  0.0000  0.0000  0.0000  0.0000  0.0000
  o =  1.0056  v =  0.0000  0.0000  0.0000  0.0000  0.0000  0.0376 -0.2167  0.0084  0.1065  0.9696      0.0000  0.0000  0.0000  0.0000  0.0000  0.0000  0.0000  0.0000  0.0000  0.0000
  o =  1.0114  v =  0.0000  0.0000  0.0000  0.0000  0.0000  0.6041 -0.5373 -0.1987 -0.5479 -0.0816      0.0000  0.0000  0.0000  0.0000  0.0000  0.0000  0.0000  0.0000  0.0000  0.0000
  o =  1.0313  v =  0.0000  0.0000  0.0000  0.0000  0.0000 -0.7943 -0.4232 -0.0873 -0.4267 -0.0161      0.0000  0.0000  0.0000  0.0000  0.0000  0.0000  0.0000  0.0000  0.0000  0.0000
atom =   2  type =  1  l = 2
 
 onsite density matrix
 
spin component  1
 
  1.0157  0.0063 -0.0297  0.0063 -0.0001
  0.0063  1.0010  0.0086  0.0011 -0.0082
 -0.0297  0.0086  0.9871  0.0084  0.0008
  0.0063  0.0011  0.0084  0.9994  0.0086
 -0.0001 -0.0082  0.0008  0.0086  0.9987
 
spin component  2
 
  0.0272 -0.0018 -0.0228 -0.0017  0.0002
 -0.0018  0.0070 -0.0023 -0.0259  0.0024
 -0.0228 -0.0023  0.0109 -0.0022 -0.0004
 -0.0017 -0.0259 -0.0022  0.0079 -0.0028
  0.0002  0.0024 -0.0004 -0.0028 -0.0200
 
 occupancies and eigenvectors
 
  o = -0.0203  v =  0.0000  0.0000  0.0000  0.0000  0.0000 -0.0474 -0.1669 -0.0758 -0.2541 -0.9485      0.0000  0.0000  0.0000  0.0000  0.0000  0.0000  0.0000  0.0000  0.0000  0.0000
  o = -0.0195  v =  0.0000  0.0000  0.0000  0.0000  0.0000  0.1485  0.6694  0.2026  0.6270 -0.3094      0.0000  0.0000  0.0000  0.0000  0.0000  0.0000  0.0000  0.0000  0.0000  0.0000
  o = -0.0040  v =  0.0000  0.0000  0.0000  0.0000  0.0000 -0.5542  0.1884 -0.7886  0.1884  0.0071      0.0000  0.0000  0.0000  0.0000  0.0000  0.0000  0.0000  0.0000  0.0000  0.0000
  o =  0.0336  v =  0.0000  0.0000  0.0000  0.0000  0.0000  0.0003 -0.6990  0.0022  0.7119 -0.0679      0.0000  0.0000  0.0000  0.0000  0.0000  0.0000  0.0000  0.0000  0.0000  0.0000
  o =  0.0433  v =  0.0000  0.0000  0.0000  0.0000  0.0000  0.8177 -0.0033 -0.5757 -0.0011  0.0060      0.0000  0.0000  0.0000  0.0000  0.0000  0.0000  0.0000  0.0000  0.0000  0.0000
  o =  0.9627  v = -0.5015  0.2541 -0.7866  0.2547  0.0138  0.0000  0.0000  0.0000  0.0000  0.0000      0.0000  0.0000  0.0000  0.0000  0.0000  0.0000  0.0000  0.0000  0.0000  0.0000
  o =  0.9869  v = -0.0050 -0.4645  0.0113  0.5269 -0.7117  0.0000  0.0000  0.0000  0.0000  0.0000      0.0000  0.0000  0.0000  0.0000  0.0000  0.0000  0.0000  0.0000  0.0000  0.0000
  o =  1.0070  v = -0.1579 -0.6505 -0.3257 -0.6640 -0.0711  0.0000  0.0000  0.0000  0.0000  0.0000      0.0000  0.0000  0.0000  0.0000  0.0000  0.0000  0.0000  0.0000  0.0000  0.0000
  o =  1.0108  v =  0.0070 -0.5437 -0.0174  0.4647  0.6986  0.0000  0.0000  0.0000  0.0000  0.0000      0.0000  0.0000  0.0000  0.0000  0.0000  0.0000  0.0000  0.0000  0.0000  0.0000
  o =  1.0345  v = -0.8506 -0.0308  0.5241 -0.0262  0.0151  0.0000  0.0000  0.0000  0.0000  0.0000      0.0000  0.0000  0.0000  0.0000  0.0000  0.0000  0.0000  0.0000  0.0000  0.0000
     EDDAV:  cpu time    1.7520: real time    1.7520
 BZINTS: Fermi energy:  0.862187; 54.000000 electrons
         Band energy:-760.418119;  BLOECHL correction:  0.000000
       DOS:  cpu time    0.0038: real time    0.0038
    CHARGE:  cpu time    0.0977: real time    0.0977
    MIXING:  cpu time    0.0008: real time    0.0008
    --------------------------------------------
      LOOP:  cpu time    5.8482: real time    5.8482

 eigenvalue-minimisations  :  7536
 total energy-change (2. order) :-0.1910292E+02  (-0.1998881E+02)
 number of electron      54.0000001 magnetization       0.0000000
 augmentation part       19.8994164 magnetization      -0.0021558

 Broyden mixing:
  rms(total) = 0.23977E+01    rms(broyden)= 0.23977E+01
  rms(prec ) = 0.24249E+01
  weight for this iteration     100.00

 eigenvalues of (default mixing * dielectric matrix)
  average eigenvalue GAMMA=   0.2392
  0.2392

 Free energy of the ion-electron system (eV)
  ---------------------------------------------------
  alpha Z        PSCENC =       201.68854072
  Ewald energy   TEWEN  =     -4236.95701916
  -Hartree energ DENC   =     -2119.32763598
  -exchange      EXHF   =         0.00000000
  -V(xc)+E(xc)   XCENC  =       296.60859879
  PAW double counting   =      7391.24918982    -7500.98381027
  entropy T*S    EENTRO =         0.00000000
  eigenvalues    EBANDS =      -760.41811907
  atomic energy  EATOM  =      6689.45677594
  Solvation  Ediel_sol  =         0.00000000
  ---------------------------------------------------
  free energy    TOTEN  =       -38.68347920 eV

  energy without entropy =      -38.68347920  energy(sigma->0) =      -38.68347920


--------------------------------------------------------------------------------------------------------




--------------------------------------- Iteration      1(   3)  ---------------------------------------


    POTLOK:  cpu time    0.0044: real time    0.0044
    SETDIJ:  cpu time    4.3607: real time    4.3607
atom =   1  type =  1  l = 2
 
 onsite density matrix
 
spin component  1
 
  0.0339  0.0003  0.0208  0.0003 -0.0000
  0.0003  0.0232  0.0005  0.0199 -0.0006
  0.0208  0.0005  0.0202  0.0004  0.0000
  0.0003  0.0199  0.0004  0.0232  0.0004
 -0.0000 -0.0006  0.0000  0.0004 -0.0011
 
spin component  2
 
  1.0042  0.0041  0.0095  0.0043  0.0000
  0.0041  0.9832  0.0027  0.0224 -0.0032
  0.0095  0.0027  0.9762  0.0029  0.0004
  0.0043  0.0224  0.0029  0.9827  0.0035
  0.0000 -0.0032  0.0004  0.0035  0.9787
 
 occupancies and eigenvectors
 
  o = -0.0012  v =  0.0026  0.1075 -0.0034 -0.1036  0.9888  0.0000  0.0000  0.0000  0.0000  0.0000      0.0000  0.0000  0.0000  0.0000  0.0000  0.0000  0.0000  0.0000  0.0000  0.0000
  o =  0.0034  v = -0.0092 -0.6984  0.0149  0.6998  0.1493  0.0000  0.0000  0.0000  0.0000  0.0000      0.0000  0.0000  0.0000  0.0000  0.0000  0.0000  0.0000  0.0000  0.0000  0.0000
  o =  0.0051  v = -0.5859  0.0083  0.8102 -0.0169  0.0016  0.0000  0.0000  0.0000  0.0000  0.0000      0.0000  0.0000  0.0000  0.0000  0.0000  0.0000  0.0000  0.0000  0.0000  0.0000
  o =  0.0430  v =  0.1031 -0.7021  0.0671 -0.7013  0.0028  0.0000  0.0000  0.0000  0.0000  0.0000      0.0000  0.0000  0.0000  0.0000  0.0000  0.0000  0.0000  0.0000  0.0000  0.0000
  o =  0.0490  v = -0.8037 -0.0878 -0.5821 -0.0860  0.0007  0.0000  0.0000  0.0000  0.0000  0.0000      0.0000  0.0000  0.0000  0.0000  0.0000  0.0000  0.0000  0.0000  0.0000  0.0000
  o =  0.9594  v =  0.0000  0.0000  0.0000  0.0000  0.0000  0.0039  0.6819  0.0010 -0.6914  0.2389      0.0000  0.0000  0.0000  0.0000  0.0000  0.0000  0.0000  0.0000  0.0000  0.0000
  o =  0.9731  v =  0.0000  0.0000  0.0000  0.0000  0.0000 -0.2810 -0.0375  0.9561 -0.0544 -0.0499      0.0000  0.0000  0.0000  0.0000  0.0000  0.0000  0.0000  0.0000  0.0000  0.0000
  o =  0.9799  v =  0.0000  0.0000  0.0000  0.0000  0.0000 -0.0173 -0.1770  0.0477  0.1605  0.9697      0.0000  0.0000  0.0000  0.0000  0.0000  0.0000  0.0000  0.0000  0.0000  0.0000
  o =  0.9994  v =  0.0000  0.0000  0.0000  0.0000  0.0000  0.6496 -0.5330  0.1399 -0.5238 -0.0059      0.0000  0.0000  0.0000  0.0000  0.0000  0.0000  0.0000  0.0000  0.0000  0.0000
  o =  1.0132  v =  0.0000  0.0000  0.0000  0.0000  0.0000 -0.7062 -0.4672 -0.2530 -0.4679 -0.0080      0.0000  0.0000  0.0000  0.0000  0.0000  0.0000  0.0000  0.0000  0.0000  0.0000
atom =   2  type =  1  l = 2
 
 onsite density matrix
 
spin component  1
 
  1.0009  0.0036 -0.0275  0.0037 -0.0000
  0.0036  0.9861  0.0051 -0.0080 -0.0049
 -0.0275  0.0051  0.9770  0.0050  0.0004
  0.0037 -0.0080  0.0050  0.9852  0.0051
 -0.0000 -0.0049  0.0004  0.0051  0.9761
 
spin component  2
 
  0.0385  0.0002 -0.0237  0.0003  0.0001
  0.0002  0.0211  0.0003 -0.0186 -0.0001
 -0.0237  0.0003  0.0204  0.0003 -0.0001
  0.0003 -0.0186  0.0003  0.0214 -0.0000
  0.0001 -0.0001 -0.0001 -0.0000  0.0005
 
 occupancies and eigenvectors
 
  o =  0.0005  v =  0.0000  0.0000  0.0000  0.0000  0.0000 -0.0103  0.0401 -0.0103  0.0365  0.9984      0.0000  0.0000  0.0000  0.0000  0.0000  0.0000  0.0000  0.0000  0.0000  0.0000
  o =  0.0025  v =  0.0000  0.0000  0.0000  0.0000  0.0000  0.2005 -0.6626  0.2903 -0.6583  0.0558      0.0000  0.0000  0.0000  0.0000  0.0000  0.0000  0.0000  0.0000  0.0000  0.0000
  o =  0.0043  v =  0.0000  0.0000  0.0000  0.0000  0.0000  0.5306  0.2514  0.7706  0.2478 -0.0057      0.0000  0.0000  0.0000  0.0000  0.0000  0.0000  0.0000  0.0000  0.0000  0.0000
  o =  0.0398  v =  0.0000  0.0000  0.0000  0.0000  0.0000 -0.0018 -0.7044  0.0027  0.7098  0.0024      0.0000  0.0000  0.0000  0.0000  0.0000  0.0000  0.0000  0.0000  0.0000  0.0000
  o =  0.0549  v =  0.0000  0.0000  0.0000  0.0000  0.0000 -0.8235  0.0017  0.5673 -0.0025 -0.0026      0.0000  0.0000  0.0000  0.0000  0.0000  0.0000  0.0000  0.0000  0.0000  0.0000
  o =  0.9555  v = -0.5118  0.2600 -0.7761  0.2605  0.0136  0.0000  0.0000  0.0000  0.0000  0.0000      0.0000  0.0000  0.0000  0.0000  0.0000  0.0000  0.0000  0.0000  0.0000  0.0000
  o =  0.9736  v = -0.0027 -0.2013  0.0079  0.2683 -0.9420  0.0000  0.0000  0.0000  0.0000  0.0000      0.0000  0.0000  0.0000  0.0000  0.0000  0.0000  0.0000  0.0000  0.0000  0.0000
  o =  0.9811  v = -0.1933 -0.6538 -0.3136 -0.6590 -0.0501  0.0000  0.0000  0.0000  0.0000  0.0000      0.0000  0.0000  0.0000  0.0000  0.0000  0.0000  0.0000  0.0000  0.0000  0.0000
  o =  0.9961  v =  0.0006  0.6814  0.0031 -0.6525 -0.3315  0.0000  0.0000  0.0000  0.0000  0.0000      0.0000  0.0000  0.0000  0.0000  0.0000  0.0000  0.0000  0.0000  0.0000  0.0000
  o =  1.0189  v = -0.8371 -0.0069  0.5470 -0.0084  0.0060  0.0000  0.0000  0.0000  0.0000  0.0000      0.0000  0.0000  0.0000  0.0000  0.0000  0.0000  0.0000  0.0000  0.0000  0.0000
     EDDAV:  cpu time    1.9118: real time    1.9119
 BZINTS: Fermi energy:  0.811090; 54.000000 electrons
         Band energy:-762.175543;  BLOECHL correction:  0.000000
       DOS:  cpu time    0.0038: real time    0.0038
    CHARGE:  cpu time    0.1039: real time    0.1039
    MIXING:  cpu time    0.0008: real time    0.0008
    --------------------------------------------
      LOOP:  cpu time    6.3854: real time    6.3855

 eigenvalue-minimisations  :  8364
 total energy-change (2. order) :-0.2956101E+00  (-0.2763030E+00)
 number of electron      54.0000001 magnetization      -0.0000000
 augmentation part       19.9252746 magnetization      -0.0014250

 Broyden mixing:
  rms(total) = 0.18443E+01    rms(broyden)= 0.18443E+01
  rms(prec ) = 0.18674E+01
  weight for this iteration     100.00

 eigenvalues of (default mixing * dielectric matrix)
  average eigenvalue GAMMA=   0.9763
  1.3798  0.5729

 Free energy of the ion-electron system (eV)
  ---------------------------------------------------
  alpha Z        PSCENC =       201.68854072
  Ewald energy   TEWEN  =     -4236.95701916
  -Hartree energ DENC   =     -2118.34701889
  -exchange      EXHF   =         0.00000000
  -V(xc)+E(xc)   XCENC  =       296.40597869
  PAW double counting   =      7238.20795528    -7347.25875933
  entropy T*S    EENTRO =         0.00000000
  eigenvalues    EBANDS =      -762.17554253
  atomic energy  EATOM  =      6689.45677594
  Solvation  Ediel_sol  =         0.00000000
  ---------------------------------------------------
  free energy    TOTEN  =       -38.97908927 eV

  energy without entropy =      -38.97908927  energy(sigma->0) =      -38.97908927


--------------------------------------------------------------------------------------------------------




--------------------------------------- Iteration      1(   4)  ---------------------------------------


    POTLOK:  cpu time    0.0047: real time    0.0047
    SETDIJ:  cpu time    3.9226: real time    3.9226
atom =   1  type =  1  l = 2
 
 onsite density matrix
 
spin component  1
 
  0.0399  0.0006  0.0229  0.0006 -0.0000
  0.0006  0.0311  0.0004  0.0201  0.0001
  0.0229  0.0004  0.0266  0.0003  0.0000
  0.0006  0.0201  0.0003  0.0309 -0.0003
 -0.0000  0.0001  0.0000 -0.0003  0.0085
 
spin component  2
 
  0.9869  0.0013  0.0148  0.0013  0.0000
  0.0013  0.9739  0.0011  0.0192 -0.0019
  0.0148  0.0011  0.9683  0.0011  0.0002
  0.0013  0.0192  0.0011  0.9738  0.0022
  0.0000 -0.0019  0.0002  0.0022  0.9621
 
 occupancies and eigenvectors
 
  o =  0.0085  v =  0.0080 -0.0874 -0.0101  0.0914  0.9919  0.0000  0.0000  0.0000  0.0000  0.0000      0.0000  0.0000  0.0000  0.0000  0.0000  0.0000  0.0000  0.0000  0.0000  0.0000
  o =  0.0095  v = -0.5999 -0.0206  0.7994  0.0259  0.0087  0.0000  0.0000  0.0000  0.0000  0.0000      0.0000  0.0000  0.0000  0.0000  0.0000  0.0000  0.0000  0.0000  0.0000  0.0000
  o =  0.0109  v = -0.0187  0.7000  0.0254 -0.7021  0.1268  0.0000  0.0000  0.0000  0.0000  0.0000      0.0000  0.0000  0.0000  0.0000  0.0000  0.0000  0.0000  0.0000  0.0000  0.0000
  o =  0.0510  v =  0.1253 -0.6995  0.0986 -0.6966  0.0026  0.0000  0.0000  0.0000  0.0000  0.0000      0.0000  0.0000  0.0000  0.0000  0.0000  0.0000  0.0000  0.0000  0.0000  0.0000
  o =  0.0572  v = -0.7900 -0.1128 -0.5921 -0.1127  0.0008  0.0000  0.0000  0.0000  0.0000  0.0000      0.0000  0.0000  0.0000  0.0000  0.0000  0.0000  0.0000  0.0000  0.0000  0.0000
  o =  0.9537  v =  0.0000  0.0000  0.0000  0.0000  0.0000  0.0007  0.6674 -0.0006 -0.6703  0.3245      0.0000  0.0000  0.0000  0.0000  0.0000  0.0000  0.0000  0.0000  0.0000  0.0000
  o =  0.9601  v =  0.0000  0.0000  0.0000  0.0000  0.0000  0.4816 -0.0007 -0.8751  0.0213  0.0427      0.0000  0.0000  0.0000  0.0000  0.0000  0.0000  0.0000  0.0000  0.0000  0.0000
  o =  0.9630  v =  0.0000  0.0000  0.0000  0.0000  0.0000  0.0241  0.2343 -0.0385 -0.2241 -0.9449      0.0000  0.0000  0.0000  0.0000  0.0000  0.0000  0.0000  0.0000  0.0000  0.0000
  o =  0.9915  v =  0.0000  0.0000  0.0000  0.0000  0.0000 -0.4882  0.5906 -0.2546  0.5899  0.0044      0.0000  0.0000  0.0000  0.0000  0.0000  0.0000  0.0000  0.0000  0.0000  0.0000
  o =  0.9966  v =  0.0000  0.0000  0.0000  0.0000  0.0000 -0.7274 -0.3884 -0.4098 -0.3899 -0.0057      0.0000  0.0000  0.0000  0.0000  0.0000  0.0000  0.0000  0.0000  0.0000  0.0000
atom =   2  type =  1  l = 2
 
 onsite density matrix
 
spin component  1
 
  0.9855  0.0020 -0.0233  0.0020  0.0001
  0.0020  0.9758  0.0022 -0.0128 -0.0017
 -0.0233  0.0022  0.9677  0.0021  0.0002
  0.0020 -0.0128  0.0021  0.9755  0.0018
  0.0001 -0.0017  0.0002  0.0018  0.9616
 
spin component  2
 
  0.0418 -0.0002 -0.0237 -0.0002 -0.0000
 -0.0002  0.0295  0.0002 -0.0195 -0.0004
 -0.0237  0.0002  0.0273  0.0002 -0.0001
 -0.0002 -0.0195  0.0002  0.0296  0.0004
 -0.0000 -0.0004 -0.0001  0.0004  0.0086
 
 occupancies and eigenvectors
 
  o =  0.0085  v =  0.0000  0.0000  0.0000  0.0000  0.0000  0.0252  0.0269  0.0343  0.0074  0.9987      0.0000  0.0000  0.0000  0.0000  0.0000  0.0000  0.0000  0.0000  0.0000  0.0000
  o =  0.0098  v =  0.0000  0.0000  0.0000  0.0000  0.0000  0.5605 -0.2288  0.7617 -0.2285 -0.0325      0.0000  0.0000  0.0000  0.0000  0.0000  0.0000  0.0000  0.0000  0.0000  0.0000
  o =  0.0101  v =  0.0000  0.0000  0.0000  0.0000  0.0000  0.1979  0.6693  0.2544  0.6684 -0.0367      0.0000  0.0000  0.0000  0.0000  0.0000  0.0000  0.0000  0.0000  0.0000  0.0000
  o =  0.0490  v =  0.0000  0.0000  0.0000  0.0000  0.0000  0.0028  0.7063 -0.0028 -0.7078 -0.0138      0.0000  0.0000  0.0000  0.0000  0.0000  0.0000  0.0000  0.0000  0.0000  0.0000
  o =  0.0593  v =  0.0000  0.0000  0.0000  0.0000  0.0000 -0.8038  0.0085  0.5949  0.0030 -0.0004      0.0000  0.0000  0.0000  0.0000  0.0000  0.0000  0.0000  0.0000  0.0000  0.0000
  o =  0.9503  v = -0.5429  0.2174 -0.7816  0.2164  0.0184  0.0000  0.0000  0.0000  0.0000  0.0000      0.0000  0.0000  0.0000  0.0000  0.0000  0.0000  0.0000  0.0000  0.0000  0.0000
  o =  0.9614  v =  0.0040  0.0293  0.0011 -0.0996  0.9946  0.0000  0.0000  0.0000  0.0000  0.0000      0.0000  0.0000  0.0000  0.0000  0.0000  0.0000  0.0000  0.0000  0.0000  0.0000
  o =  0.9642  v = -0.1617 -0.6705 -0.2617 -0.6735 -0.0468  0.0000  0.0000  0.0000  0.0000  0.0000      0.0000  0.0000  0.0000  0.0000  0.0000  0.0000  0.0000  0.0000  0.0000  0.0000
  o =  0.9887  v =  0.0010  0.7086  0.0005 -0.6997 -0.0910  0.0000  0.0000  0.0000  0.0000  0.0000      0.0000  0.0000  0.0000  0.0000  0.0000  0.0000  0.0000  0.0000  0.0000  0.0000
  o =  1.0016  v = -0.8241 -0.0106  0.5662 -0.0117  0.0018  0.0000  0.0000  0.0000  0.0000  0.0000      0.0000  0.0000  0.0000  0.0000  0.0000  0.0000  0.0000  0.0000  0.0000  0.0000
     EDDAV:  cpu time    1.8486: real time    1.8486
 BZINTS: Fermi energy:  0.661622; 54.000000 electrons
         Band energy:-767.000614;  BLOECHL correction:  0.000000
       DOS:  cpu time    0.0038: real time    0.0038
    CHARGE:  cpu time    0.0983: real time    0.0983
    MIXING:  cpu time    0.0008: real time    0.0008
    --------------------------------------------
      LOOP:  cpu time    5.8787: real time    5.8788

 eigenvalue-minimisations  :  8124
 total energy-change (2. order) : 0.8842282E-01  (-0.8946534E-01)
 number of electron      54.0000001 magnetization      -0.0000000
 augmentation part       19.9697066 magnetization       0.0001493

 Broyden mixing:
  rms(total) = 0.54469E+00    rms(broyden)= 0.54468E+00
  rms(prec ) = 0.56223E+00
  weight for this iteration     100.00

 eigenvalues of (default mixing * dielectric matrix)
  average eigenvalue GAMMA=   1.1482
  1.9886  0.7280  0.7280

 Free energy of the ion-electron system (eV)
  ---------------------------------------------------
  alpha Z        PSCENC =       201.68854072
  Ewald energy   TEWEN  =     -4236.95701916
  -Hartree energ DENC   =     -2118.71028003
  -exchange      EXHF   =         0.00000000
  -V(xc)+E(xc)   XCENC  =       296.46899222
  PAW double counting   =      6645.12634517    -6748.96340732
  entropy T*S    EENTRO =         0.00000000
  eigenvalues    EBANDS =      -767.00061399
  atomic energy  EATOM  =      6689.45677594
  Solvation  Ediel_sol  =         0.00000000
  ---------------------------------------------------
  free energy    TOTEN  =       -38.89066645 eV

  energy without entropy =      -38.89066645  energy(sigma->0) =      -38.89066645


--------------------------------------------------------------------------------------------------------




--------------------------------------- Iteration      1(   5)  ---------------------------------------


    POTLOK:  cpu time    0.0044: real time    0.0044
    SETDIJ:  cpu time    3.9090: real time    3.9090
atom =   1  type =  1  l = 2
 
 onsite density matrix
 
spin component  1
 
  0.0477  0.0008  0.0197  0.0008  0.0000
  0.0008  0.0360  0.0006  0.0202 -0.0011
  0.0197  0.0006  0.0307  0.0006  0.0001
  0.0008  0.0202  0.0006  0.0360  0.0014
  0.0000 -0.0011  0.0001  0.0014  0.0196
 
spin component  2
 
  0.9751 -0.0004  0.0232 -0.0004 -0.0000
 -0.0004  0.9707 -0.0002  0.0180  0.0007
  0.0232 -0.0002  0.9655 -0.0003 -0.0001
 -0.0004  0.0180 -0.0003  0.9706 -0.0009
 -0.0000  0.0007 -0.0001 -0.0009  0.9484
 
 occupancies and eigenvectors
 
  o =  0.0151  v = -0.0000  0.6559  0.0003 -0.6579  0.3702  0.0000  0.0000  0.0000  0.0000  0.0000      0.0000  0.0000  0.0000  0.0000  0.0000  0.0000  0.0000  0.0000  0.0000  0.0000
  o =  0.0177  v = -0.5492  0.0057  0.8351 -0.0103 -0.0292  0.0000  0.0000  0.0000  0.0000  0.0000      0.0000  0.0000  0.0000  0.0000  0.0000  0.0000  0.0000  0.0000  0.0000  0.0000
  o =  0.0203  v =  0.0186  0.2647 -0.0253 -0.2585 -0.9285  0.0000  0.0000  0.0000  0.0000  0.0000      0.0000  0.0000  0.0000  0.0000  0.0000  0.0000  0.0000  0.0000  0.0000  0.0000
  o =  0.0558  v =  0.2275 -0.6807  0.1458 -0.6808 -0.0040  0.0000  0.0000  0.0000  0.0000  0.0000      0.0000  0.0000  0.0000  0.0000  0.0000  0.0000  0.0000  0.0000  0.0000  0.0000
  o =  0.0611  v = -0.8039 -0.1905 -0.5298 -0.1916 -0.0026  0.0000  0.0000  0.0000  0.0000  0.0000      0.0000  0.0000  0.0000  0.0000  0.0000  0.0000  0.0000  0.0000  0.0000  0.0000
  o =  0.9466  v =  0.0000  0.0000  0.0000  0.0000  0.0000  0.6313  0.0076 -0.7749 -0.0067 -0.0287      0.0000  0.0000  0.0000  0.0000  0.0000  0.0000  0.0000  0.0000  0.0000  0.0000
  o =  0.9481  v =  0.0000  0.0000  0.0000  0.0000  0.0000 -0.0202  0.1729  0.0227 -0.1773 -0.9684      0.0000  0.0000  0.0000  0.0000  0.0000  0.0000  0.0000  0.0000  0.0000  0.0000
  o =  0.9529  v =  0.0000  0.0000  0.0000  0.0000  0.0000 -0.0019  0.6853  0.0019 -0.6848  0.2479      0.0000  0.0000  0.0000  0.0000  0.0000  0.0000  0.0000  0.0000  0.0000  0.0000
  o =  0.9886  v =  0.0000  0.0000  0.0000  0.0000  0.0000  0.0912  0.7025  0.0752  0.7018 -0.0032      0.0000  0.0000  0.0000  0.0000  0.0000  0.0000  0.0000  0.0000  0.0000  0.0000
  o =  0.9941  v =  0.0000  0.0000  0.0000  0.0000  0.0000 -0.7699  0.0833 -0.6272  0.0840  0.0009      0.0000  0.0000  0.0000  0.0000  0.0000  0.0000  0.0000  0.0000  0.0000  0.0000
atom =   2  type =  1  l = 2
 
 onsite density matrix
 
spin component  1
 
  0.9771 -0.0008 -0.0205 -0.0008 -0.0000
 -0.0008  0.9690 -0.0008 -0.0202  0.0006
 -0.0205 -0.0008  0.9659 -0.0008 -0.0001
 -0.0008 -0.0202 -0.0008  0.9692 -0.0007
 -0.0000  0.0006 -0.0001 -0.0007  0.9490
 
spin component  2
 
  0.0458  0.0012 -0.0246  0.0012  0.0000
  0.0012  0.0378  0.0013 -0.0164 -0.0010
 -0.0246  0.0013  0.0302  0.0013  0.0002
  0.0012 -0.0164  0.0013  0.0376  0.0011
  0.0000 -0.0010  0.0002  0.0011  0.0190
 
 occupancies and eigenvectors
 
  o =  0.0115  v =  0.0000  0.0000  0.0000  0.0000  0.0000 -0.5737  0.1751 -0.7807  0.1743  0.0182      0.0000  0.0000  0.0000  0.0000  0.0000  0.0000  0.0000  0.0000  0.0000  0.0000
  o =  0.0189  v =  0.0000  0.0000  0.0000  0.0000  0.0000 -0.0074 -0.0061 -0.0069  0.0551 -0.9984      0.0000  0.0000  0.0000  0.0000  0.0000  0.0000  0.0000  0.0000  0.0000  0.0000
  o =  0.0220  v =  0.0000  0.0000  0.0000  0.0000  0.0000 -0.1404 -0.6828 -0.2040 -0.6866 -0.0312      0.0000  0.0000  0.0000  0.0000  0.0000  0.0000  0.0000  0.0000  0.0000  0.0000
  o =  0.0542  v =  0.0000  0.0000  0.0000  0.0000  0.0000  0.0004  0.7092  0.0007 -0.7037 -0.0432      0.0000  0.0000  0.0000  0.0000  0.0000  0.0000  0.0000  0.0000  0.0000  0.0000
  o =  0.0638  v =  0.0000  0.0000  0.0000  0.0000  0.0000 -0.8069 -0.0053  0.5906 -0.0052  0.0017      0.0000  0.0000  0.0000  0.0000  0.0000  0.0000  0.0000  0.0000  0.0000  0.0000
  o =  0.9478  v =  0.3310  0.5927  0.4266  0.5920  0.0823  0.0000  0.0000  0.0000  0.0000  0.0000      0.0000  0.0000  0.0000  0.0000  0.0000  0.0000  0.0000  0.0000  0.0000  0.0000
  o =  0.9490  v = -0.0146 -0.0752 -0.0161 -0.0434  0.9960  0.0000  0.0000  0.0000  0.0000  0.0000      0.0000  0.0000  0.0000  0.0000  0.0000  0.0000  0.0000  0.0000  0.0000  0.0000
  o =  0.9512  v =  0.5086 -0.3818  0.6703 -0.3815 -0.0271  0.0000  0.0000  0.0000  0.0000  0.0000      0.0000  0.0000  0.0000  0.0000  0.0000  0.0000  0.0000  0.0000  0.0000  0.0000
  o =  0.9893  v =  0.0027  0.7052 -0.0027 -0.7086  0.0223  0.0000  0.0000  0.0000  0.0000  0.0000      0.0000  0.0000  0.0000  0.0000  0.0000  0.0000  0.0000  0.0000  0.0000  0.0000
  o =  0.9927  v = -0.7947  0.0062  0.6070  0.0008 -0.0013  0.0000  0.0000  0.0000  0.0000  0.0000      0.0000  0.0000  0.0000  0.0000  0.0000  0.0000  0.0000  0.0000  0.0000  0.0000
     EDDAV:  cpu time    1.6944: real time    1.6944
 BZINTS: Fermi energy:  0.610286; 54.000000 electrons
         Band energy:-770.833805;  BLOECHL correction:  0.000000
       DOS:  cpu time    0.0037: real time    0.0037
    CHARGE:  cpu time    0.1014: real time    0.1014
    MIXING:  cpu time    0.0009: real time    0.0009
    --------------------------------------------
      LOOP:  cpu time    5.7138: real time    5.7138

 eigenvalue-minimisations  :  7152
 total energy-change (2. order) : 0.8312831E-02  (-0.8506132E-02)
 number of electron      54.0000001 magnetization      -0.0000000
 augmentation part       19.9842310 magnetization       0.0002527

 Broyden mixing:
  rms(total) = 0.16880E+00    rms(broyden)= 0.16880E+00
  rms(prec ) = 0.18513E+00
  weight for this iteration     100.00

 eigenvalues of (default mixing * dielectric matrix)
  average eigenvalue GAMMA=   1.1175
  2.3755  0.7526  0.7526  0.5893

 Free energy of the ion-electron system (eV)
  ---------------------------------------------------
  alpha Z        PSCENC =       201.68854072
  Ewald energy   TEWEN  =     -4236.95701916
  -Hartree energ DENC   =     -2116.88536586
  -exchange      EXHF   =         0.00000000
  -V(xc)+E(xc)   XCENC  =       296.33324704
  PAW double counting   =      6389.46393803    -6491.14866540
  entropy T*S    EENTRO =         0.00000000
  eigenvalues    EBANDS =      -770.83380493
  atomic energy  EATOM  =      6689.45677594
  Solvation  Ediel_sol  =         0.00000000
  ---------------------------------------------------
  free energy    TOTEN  =       -38.88235362 eV

  energy without entropy =      -38.88235362  energy(sigma->0) =      -38.88235362


--------------------------------------------------------------------------------------------------------




--------------------------------------- Iteration      1(   6)  ---------------------------------------


    POTLOK:  cpu time    0.0047: real time    0.0047
    SETDIJ:  cpu time    4.0516: real time    4.0516
atom =   1  type =  1  l = 2
 
 onsite density matrix
 
spin component  1
 
  0.0414  0.0002  0.0227  0.0002 -0.0000
  0.0002  0.0333  0.0001  0.0195 -0.0000
  0.0227  0.0001  0.0282  0.0001  0.0000
  0.0002  0.0195  0.0001  0.0332  0.0000
 -0.0000 -0.0000  0.0000  0.0000  0.0125
 
spin component  2
 
  0.9813 -0.0000  0.0212 -0.0000 -0.0000
 -0.0000  0.9741  0.0000  0.0186 -0.0001
  0.0212  0.0000  0.9687  0.0000  0.0000
 -0.0000  0.0186  0.0000  0.9741  0.0002
 -0.0000 -0.0001  0.0000  0.0002  0.9554
 
 occupancies and eigenvectors
 
  o =  0.0111  v = -0.6009 -0.0009  0.7993  0.0011 -0.0050  0.0000  0.0000  0.0000  0.0000  0.0000      0.0000  0.0000  0.0000  0.0000  0.0000  0.0000  0.0000  0.0000  0.0000  0.0000
  o =  0.0125  v = -0.0031  0.0342  0.0040 -0.0345  0.9988  0.0000  0.0000  0.0000  0.0000  0.0000      0.0000  0.0000  0.0000  0.0000  0.0000  0.0000  0.0000  0.0000  0.0000  0.0000
  o =  0.0137  v =  0.0005 -0.7061 -0.0011  0.7065  0.0486  0.0000  0.0000  0.0000  0.0000  0.0000      0.0000  0.0000  0.0000  0.0000  0.0000  0.0000  0.0000  0.0000  0.0000  0.0000
  o =  0.0528  v =  0.0404 -0.7064  0.0306 -0.7060 -0.0002  0.0000  0.0000  0.0000  0.0000  0.0000      0.0000  0.0000  0.0000  0.0000  0.0000  0.0000  0.0000  0.0000  0.0000  0.0000
  o =  0.0585  v = -0.7983 -0.0357 -0.6001 -0.0360 -0.0001  0.0000  0.0000  0.0000  0.0000  0.0000      0.0000  0.0000  0.0000  0.0000  0.0000  0.0000  0.0000  0.0000  0.0000  0.0000
  o =  0.9529  v =  0.0000  0.0000  0.0000  0.0000  0.0000 -0.5973  0.0005  0.8020 -0.0018 -0.0016      0.0000  0.0000  0.0000  0.0000  0.0000  0.0000  0.0000  0.0000  0.0000  0.0000
  o =  0.9552  v =  0.0000  0.0000  0.0000  0.0000  0.0000 -0.0002  0.4408  0.0001 -0.4411  0.7817      0.0000  0.0000  0.0000  0.0000  0.0000  0.0000  0.0000  0.0000  0.0000  0.0000
  o =  0.9556  v =  0.0000  0.0000  0.0000  0.0000  0.0000  0.0013  0.5531 -0.0018 -0.5524 -0.6236      0.0000  0.0000  0.0000  0.0000  0.0000  0.0000  0.0000  0.0000  0.0000  0.0000
  o =  0.9927  v =  0.0000  0.0000  0.0000  0.0000  0.0000  0.0009 -0.7069 -0.0005 -0.7073 -0.0005      0.0000  0.0000  0.0000  0.0000  0.0000  0.0000  0.0000  0.0000  0.0000  0.0000
  o =  0.9971  v =  0.0000  0.0000  0.0000  0.0000  0.0000 -0.8020 -0.0004 -0.5973 -0.0002 -0.0000      0.0000  0.0000  0.0000  0.0000  0.0000  0.0000  0.0000  0.0000  0.0000  0.0000
atom =   2  type =  1  l = 2
 
 onsite density matrix
 
spin component  1
 
  0.9813  0.0001 -0.0216  0.0001  0.0000
  0.0001  0.9742  0.0001 -0.0184 -0.0000
 -0.0216  0.0001  0.9685  0.0001  0.0000
  0.0001 -0.0184  0.0001  0.9742  0.0000
  0.0000 -0.0000  0.0000  0.0000  0.9555
 
spin component  2
 
  0.0414  0.0001 -0.0232  0.0001 -0.0000
  0.0001  0.0332  0.0001 -0.0191 -0.0002
 -0.0232  0.0001  0.0283  0.0001  0.0000
  0.0001 -0.0191  0.0001  0.0332  0.0002
 -0.0000 -0.0002  0.0000  0.0002  0.0124
 
 occupancies and eigenvectors
 
  o =  0.0107  v =  0.0000  0.0000  0.0000  0.0000  0.0000 -0.6025  0.0460 -0.7954  0.0459  0.0013      0.0000  0.0000  0.0000  0.0000  0.0000  0.0000  0.0000  0.0000  0.0000  0.0000
  o =  0.0124  v =  0.0000  0.0000  0.0000  0.0000  0.0000  0.0009  0.0016  0.0007 -0.0067  1.0000      0.0000  0.0000  0.0000  0.0000  0.0000  0.0000  0.0000  0.0000  0.0000  0.0000
  o =  0.0141  v =  0.0000  0.0000  0.0000  0.0000  0.0000 -0.0397 -0.7054 -0.0515 -0.7059 -0.0035      0.0000  0.0000  0.0000  0.0000  0.0000  0.0000  0.0000  0.0000  0.0000  0.0000
  o =  0.0523  v =  0.0000  0.0000  0.0000  0.0000  0.0000  0.0010  0.7074 -0.0007 -0.7068 -0.0058      0.0000  0.0000  0.0000  0.0000  0.0000  0.0000  0.0000  0.0000  0.0000  0.0000
  o =  0.0589  v =  0.0000  0.0000  0.0000  0.0000  0.0000 -0.7971  0.0012  0.6039 -0.0004  0.0003      0.0000  0.0000  0.0000  0.0000  0.0000  0.0000  0.0000  0.0000  0.0000  0.0000
  o =  0.9523  v = -0.5975  0.0330 -0.8005  0.0329  0.0064  0.0000  0.0000  0.0000  0.0000  0.0000      0.0000  0.0000  0.0000  0.0000  0.0000  0.0000  0.0000  0.0000  0.0000  0.0000
  o =  0.9555  v =  0.0038  0.0019  0.0053  0.0018  1.0000  0.0000  0.0000  0.0000  0.0000  0.0000      0.0000  0.0000  0.0000  0.0000  0.0000  0.0000  0.0000  0.0000  0.0000  0.0000
  o =  0.9558  v = -0.0266 -0.7063 -0.0383 -0.7064  0.0029  0.0000  0.0000  0.0000  0.0000  0.0000      0.0000  0.0000  0.0000  0.0000  0.0000  0.0000  0.0000  0.0000  0.0000  0.0000
  o =  0.9926  v =  0.0004  0.7071 -0.0002 -0.7071 -0.0001  0.0000  0.0000  0.0000  0.0000  0.0000      0.0000  0.0000  0.0000  0.0000  0.0000  0.0000  0.0000  0.0000  0.0000  0.0000
  o =  0.9974  v = -0.8014 -0.0008  0.5981 -0.0014 -0.0001  0.0000  0.0000  0.0000  0.0000  0.0000      0.0000  0.0000  0.0000  0.0000  0.0000  0.0000  0.0000  0.0000  0.0000  0.0000
     EDDAV:  cpu time    1.8798: real time    1.8798
 BZINTS: Fermi energy:  0.460455; 54.000000 electrons
         Band energy:-771.292091;  BLOECHL correction:  0.000000
       DOS:  cpu time    0.0032: real time    0.0032
    CHARGE:  cpu time    0.1033: real time    0.1033
    MIXING:  cpu time    0.0010: real time    0.0010
    --------------------------------------------
      LOOP:  cpu time    6.0436: real time    6.0437

 eigenvalue-minimisations  :  8268
 total energy-change (2. order) : 0.4685426E-03  (-0.1505627E-02)
 number of electron      54.0000001 magnetization      -0.0000000
 augmentation part       19.9935512 magnetization       0.0002298

 Broyden mixing:
  rms(total) = 0.78955E-01    rms(broyden)= 0.78953E-01
  rms(prec ) = 0.87222E-01
  weight for this iteration     100.00

 eigenvalues of (default mixing * dielectric matrix)
  average eigenvalue GAMMA=   1.1039
  2.3834  0.9222  0.9222  0.6458  0.6458

 Free energy of the ion-electron system (eV)
  ---------------------------------------------------
  alpha Z        PSCENC =       201.68854072
  Ewald energy   TEWEN  =     -4236.95701916
  -Hartree energ DENC   =     -2117.00807621
  -exchange      EXHF   =         0.00000000
  -V(xc)+E(xc)   XCENC  =       296.30713504
  PAW double counting   =      6361.69908104    -6462.77623178
  entropy T*S    EENTRO =         0.00000000
  eigenvalues    EBANDS =      -771.29209067
  atomic energy  EATOM  =      6689.45677594
  Solvation  Ediel_sol  =         0.00000000
  ---------------------------------------------------
  free energy    TOTEN  =       -38.88188508 eV

  energy without entropy =      -38.88188508  energy(sigma->0) =      -38.88188508


--------------------------------------------------------------------------------------------------------




--------------------------------------- Iteration      1(   7)  ---------------------------------------


    POTLOK:  cpu time    0.0048: real time    0.0048
    SETDIJ:  cpu time    4.1913: real time    4.1913
atom =   1  type =  1  l = 2
 
 onsite density matrix
 
spin component  1
 
  0.0414  0.0001  0.0225  0.0001 -0.0000
  0.0001  0.0333  0.0001  0.0194 -0.0001
  0.0225  0.0001  0.0284  0.0001  0.0000
  0.0001  0.0194  0.0001  0.0333  0.0001
 -0.0000 -0.0001  0.0000  0.0001  0.0127
 
spin component  2
 
  0.9814 -0.0000  0.0217 -0.0000 -0.0000
 -0.0000  0.9744  0.0000  0.0188 -0.0000
  0.0217  0.0000  0.9689 -0.0000 -0.0000
 -0.0000  0.0188 -0.0000  0.9744  0.0000
 -0.0000 -0.0000 -0.0000  0.0000  0.9553
 
 occupancies and eigenvectors
 
  o =  0.0115  v = -0.6004  0.0002  0.7997  0.0001 -0.0068  0.0000  0.0000  0.0000  0.0000  0.0000      0.0000  0.0000  0.0000  0.0000  0.0000  0.0000  0.0000  0.0000  0.0000  0.0000
  o =  0.0127  v =  0.0042 -0.0734 -0.0054  0.0739 -0.9945  0.0000  0.0000  0.0000  0.0000  0.0000      0.0000  0.0000  0.0000  0.0000  0.0000  0.0000  0.0000  0.0000  0.0000  0.0000
  o =  0.0139  v =  0.0006  0.7032 -0.0006 -0.7033 -0.1041  0.0000  0.0000  0.0000  0.0000  0.0000      0.0000  0.0000  0.0000  0.0000  0.0000  0.0000  0.0000  0.0000  0.0000  0.0000
  o =  0.0526  v =  0.0274 -0.7068  0.0208 -0.7066 -0.0003  0.0000  0.0000  0.0000  0.0000  0.0000      0.0000  0.0000  0.0000  0.0000  0.0000  0.0000  0.0000  0.0000  0.0000  0.0000
  o =  0.0583  v = -0.7993 -0.0242 -0.6000 -0.0244 -0.0001  0.0000  0.0000  0.0000  0.0000  0.0000      0.0000  0.0000  0.0000  0.0000  0.0000  0.0000  0.0000  0.0000  0.0000  0.0000
  o =  0.9526  v =  0.0000  0.0000  0.0000  0.0000  0.0000  0.6010  0.0005 -0.7992  0.0002 -0.0009      0.0000  0.0000  0.0000  0.0000  0.0000  0.0000  0.0000  0.0000  0.0000  0.0000
  o =  0.9553  v =  0.0000  0.0000  0.0000  0.0000  0.0000 -0.0006 -0.0341  0.0006  0.0341 -0.9988      0.0000  0.0000  0.0000  0.0000  0.0000  0.0000  0.0000  0.0000  0.0000  0.0000
  o =  0.9557  v =  0.0000  0.0000  0.0000  0.0000  0.0000 -0.0002  0.7063  0.0001 -0.7063 -0.0483      0.0000  0.0000  0.0000  0.0000  0.0000  0.0000  0.0000  0.0000  0.0000  0.0000
  o =  0.9932  v =  0.0000  0.0000  0.0000  0.0000  0.0000  0.0049  0.7071  0.0043  0.7071 -0.0000      0.0000  0.0000  0.0000  0.0000  0.0000  0.0000  0.0000  0.0000  0.0000  0.0000
  o =  0.9977  v =  0.0000  0.0000  0.0000  0.0000  0.0000 -0.7992  0.0046 -0.6010  0.0046  0.0001      0.0000  0.0000  0.0000  0.0000  0.0000  0.0000  0.0000  0.0000  0.0000  0.0000
atom =   2  type =  1  l = 2
 
 onsite density matrix
 
spin component  1
 
  0.9815 -0.0000 -0.0217  0.0000  0.0000
 -0.0000  0.9744 -0.0000 -0.0188  0.0000
 -0.0217 -0.0000  0.9688 -0.0000 -0.0000
  0.0000 -0.0188 -0.0000  0.9744 -0.0000
  0.0000  0.0000 -0.0000 -0.0000  0.9553
 
spin component  2
 
  0.0413  0.0001 -0.0230  0.0001 -0.0000
  0.0001  0.0333  0.0001 -0.0190 -0.0001
 -0.0230  0.0001  0.0284  0.0001  0.0000
  0.0001 -0.0190  0.0001  0.0333  0.0001
 -0.0000 -0.0001  0.0000  0.0001  0.0126
 
 occupancies and eigenvectors
 
  o =  0.0109  v =  0.0000  0.0000  0.0000  0.0000  0.0000  0.6024 -0.0480  0.7953 -0.0480 -0.0061      0.0000  0.0000  0.0000  0.0000  0.0000  0.0000  0.0000  0.0000  0.0000  0.0000
  o =  0.0126  v =  0.0000  0.0000  0.0000  0.0000  0.0000  0.0037  0.0012  0.0046 -0.0056  1.0000      0.0000  0.0000  0.0000  0.0000  0.0000  0.0000  0.0000  0.0000  0.0000  0.0000
  o =  0.0144  v =  0.0000  0.0000  0.0000  0.0000  0.0000  0.0410  0.7052  0.0541  0.7057  0.0027      0.0000  0.0000  0.0000  0.0000  0.0000  0.0000  0.0000  0.0000  0.0000  0.0000
  o =  0.0523  v =  0.0000  0.0000  0.0000  0.0000  0.0000  0.0005  0.7074 -0.0003 -0.7068 -0.0048      0.0000  0.0000  0.0000  0.0000  0.0000  0.0000  0.0000  0.0000  0.0000  0.0000
  o =  0.0587  v =  0.0000  0.0000  0.0000  0.0000  0.0000 -0.7971  0.0004  0.6038 -0.0004  0.0002      0.0000  0.0000  0.0000  0.0000  0.0000  0.0000  0.0000  0.0000  0.0000  0.0000
  o =  0.9526  v = -0.5995 -0.0069 -0.8003 -0.0069  0.0005  0.0000  0.0000  0.0000  0.0000  0.0000      0.0000  0.0000  0.0000  0.0000  0.0000  0.0000  0.0000  0.0000  0.0000  0.0000
[...]
     18      -2.7941      1.00000
     19      -2.6550      1.00000
     20      -2.0966      1.00000
     21      -1.7972      1.00000
     22      -1.6996      1.00000
     23      -1.5720      1.00000
     24      -1.1293      1.00000
     25      -0.8328      1.00000
     26      -0.3352      1.00000
     27       0.3328      1.00000
     28       8.5584      0.00000
     29       8.6021      0.00000
     30       8.7468      0.00000
     31       9.2074      0.00000
     32       9.6711      0.00000
     33      10.0274      0.00000
     34      10.8138      0.00000
     35      11.4095      0.00000
     36      12.3938      0.00000

 k-point    48 :      -0.1250   -0.1250    0.4167
  band No.  band energies     occupation 
      1     -46.0683      1.00000
      2     -46.0401      1.00000
      3     -46.0161      1.00000
      4     -41.4091      1.00000
      5     -41.3870      1.00000
      6     -41.3559      1.00000
      7     -20.5623      1.00000
      8     -20.4198      1.00000
      9     -20.3806      1.00000
     10     -20.2435      1.00000
     11      -4.8999      1.00000
     12      -4.1695      1.00000
     13      -3.9447      1.00000
     14      -3.9090      1.00000
     15      -3.6636      1.00000
     16      -3.3064      1.00000
     17      -3.0588      1.00000
     18      -2.7479      1.00000
     19      -2.4114      1.00000
     20      -2.1357      1.00000
     21      -1.8271      1.00000
     22      -1.8073      1.00000
     23      -1.8020      1.00000
     24      -1.0667      1.00000
     25      -0.6818      1.00000
     26      -0.2946      1.00000
     27       0.0104      1.00000
     28       8.2052      0.00000
     29       8.5416      0.00000
     30       8.6193      0.00000
     31       9.0823      0.00000
     32       9.5821      0.00000
     33       9.8910      0.00000
     34      11.2370      0.00000
     35      12.3753      0.00000
     36      12.5723      0.00000


--------------------------------------------------------------------------------------------------------


 soft charge-density along one line, spin component           1
         0         1         2         3         4         5         6         7         8         9
 total charge-density along one line
 
 soft charge-density along one line, spin component           2
         0         1         2         3         4         5         6         7         8         9
 total charge-density along one line
 
 pseudopotential strength for first ion, spin component:           1
-41.909   0.000  -0.028   7.908  -0.000   0.011   0.000  -0.000
  0.000 -41.883   0.000  -0.000   7.898  -0.000   0.000   0.000
 -0.028   0.000 -41.909   0.011  -0.000   7.908  -0.000   0.000
  7.908  -0.000   0.011   5.348   0.000  -0.004  -0.000   0.000
 -0.000   7.898  -0.000   0.000   5.352   0.000  -0.000  -0.000
  0.011  -0.000   7.908  -0.004   0.000   5.348  -0.000  -0.000
  0.000   0.000  -0.000  -0.000  -0.000  -0.000   0.265  -0.000
 -0.000   0.000   0.000   0.000  -0.000  -0.000  -0.000   0.329
  0.000   0.000  -0.000   0.000  -0.000  -0.000  -0.131  -0.000
  0.000  -0.000   0.000  -0.000  -0.000  -0.000  -0.000  -0.138
 -0.000   0.000   0.000   0.000  -0.000   0.000   0.000   0.000
  0.000   0.000  -0.000  -0.000  -0.000  -0.000  -0.130  -0.000
 -0.000   0.000   0.000   0.000  -0.000  -0.000  -0.000  -0.063
  0.000   0.000  -0.000   0.000  -0.000  -0.000  -0.136  -0.000
  0.000  -0.000   0.000  -0.000  -0.000  -0.000  -0.000  -0.142
 -0.000   0.000   0.000   0.000  -0.000   0.000   0.000   0.000
 -0.000  -0.000   0.000  -0.000   0.000   0.000   0.006  -0.000
 -0.000  -0.000   0.000  -0.000   0.000   0.000   0.011  -0.000
 pseudopotential strength for first ion, spin component:           2
-45.023   0.000  -0.021   9.414  -0.000   0.008   0.000   0.000
  0.000 -45.005   0.000  -0.000   9.408  -0.000  -0.000   0.000
 -0.021   0.000 -45.023   0.008  -0.000   9.414  -0.000  -0.000
  9.414  -0.000   0.008   4.847   0.000  -0.002   0.000  -0.000
 -0.000   9.408  -0.000   0.000   4.849   0.000   0.000   0.000
  0.008  -0.000   9.414  -0.002   0.000   4.847  -0.000   0.000
  0.000  -0.000  -0.000   0.000   0.000  -0.000  -9.171  -0.000
  0.000   0.000  -0.000  -0.000   0.000   0.000  -0.000  -9.113
  0.000  -0.000  -0.000   0.000   0.000  -0.000  -0.131   0.000
 -0.000  -0.000  -0.000   0.000  -0.000   0.000  -0.000  -0.139
 -0.000  -0.000   0.000  -0.000   0.000  -0.000   0.000  -0.000
  0.000  -0.000  -0.000   0.000   0.000  -0.000  -9.714  -0.000
  0.000   0.000  -0.000  -0.000   0.000   0.000  -0.000  -9.655
  0.000  -0.000  -0.000   0.000   0.000  -0.000  -0.135   0.000
 -0.000  -0.000  -0.000   0.000  -0.000   0.000  -0.000  -0.142
 -0.000  -0.000   0.000  -0.000   0.000  -0.000   0.000  -0.000
 -0.000  -0.000   0.000  -0.000  -0.000   0.000   0.003  -0.000
 -0.000  -0.000   0.000  -0.000  -0.000   0.000   0.006  -0.000
 total augmentation occupancy for first ion, spin component:           1
  1.998   0.000   0.000  -0.013   0.000   0.000  -0.000   0.000   0.000   0.000   0.000  -0.000  -0.000  -0.000  -0.000  -0.000
  0.000   1.998   0.000   0.000  -0.012   0.000   0.000  -0.000   0.000   0.000  -0.000  -0.000   0.000  -0.000  -0.000   0.000
  0.000   0.000   1.998   0.000   0.000  -0.013  -0.000  -0.000  -0.000   0.000   0.000   0.000   0.000   0.000  -0.000  -0.000
 -0.013   0.000   0.000   0.095   0.000  -0.009  -0.000   0.000  -0.000  -0.000   0.000   0.000  -0.000   0.000   0.000  -0.000
  0.000  -0.012   0.000   0.000   0.107   0.000  -0.000  -0.000   0.000   0.000  -0.000   0.000  -0.000  -0.000   0.000   0.000
  0.000   0.000  -0.013  -0.009   0.000   0.095   0.000   0.000   0.000   0.000   0.000  -0.000  -0.000  -0.000  -0.000  -0.000
 -0.000   0.000  -0.000  -0.000  -0.000   0.000   8.591   0.000   3.520   0.000   0.000  -6.623  -0.000  -3.336  -0.000  -0.000
  0.000  -0.000  -0.000   0.000  -0.000   0.000   0.000   7.217   0.000   3.047   0.000  -0.000  -5.317  -0.000  -2.880  -0.000
  0.000   0.000  -0.000  -0.000   0.000   0.000   3.520   0.000   6.522   0.000   0.000  -3.336  -0.000  -4.680  -0.000  -0.000
  0.000   0.000   0.000  -0.000   0.000   0.000   0.000   3.047   0.000   7.217  -0.000  -0.000  -2.880  -0.000  -5.317   0.000
  0.000  -0.000   0.000   0.000  -0.000   0.000   0.000   0.000   0.000  -0.000   4.025  -0.000  -0.000  -0.000   0.000  -2.275
 -0.000  -0.000   0.000   0.000   0.000  -0.000  -6.623  -0.000  -3.336  -0.000  -0.000   5.824   0.000   3.188   0.000   0.000
 -0.000   0.000   0.000  -0.000  -0.000  -0.000  -0.000  -5.317  -0.000  -2.880  -0.000   0.000   4.575   0.000   2.744   0.000
 -0.000  -0.000   0.000   0.000  -0.000  -0.000  -3.336  -0.000  -4.680  -0.000  -0.000   3.188   0.000   3.986   0.000   0.000
 -0.000  -0.000  -0.000   0.000   0.000  -0.000  -0.000  -2.880  -0.000  -5.317   0.000   0.000   2.744   0.000   4.575  -0.000
 -0.000   0.000  -0.000  -0.000   0.000  -0.000  -0.000  -0.000  -0.000   0.000  -2.275   0.000   0.000   0.000  -0.000   1.652
 -0.000  -0.000   0.000  -0.000  -0.000   0.000   0.253   0.000  -0.246   0.000  -0.000  -0.278  -0.000   0.254  -0.000  -0.000
  0.000   0.000  -0.000   0.000   0.000  -0.000  -0.012  -0.000   0.029  -0.000   0.000   0.033   0.000  -0.039   0.000   0.000
 total augmentation occupancy for first ion, spin component:           2
  0.004  -0.000  -0.000   0.016  -0.000  -0.000  -0.000   0.000  -0.000   0.000   0.000   0.000  -0.000  -0.000  -0.000  -0.000
 -0.000   0.004  -0.000  -0.000   0.017  -0.000  -0.000  -0.000  -0.000   0.000  -0.000   0.000   0.000   0.000  -0.000   0.000
 -0.000  -0.000   0.004  -0.000  -0.000   0.016   0.000  -0.000   0.000  -0.000   0.000   0.000   0.000  -0.000   0.000  -0.000
  0.016  -0.000  -0.000  -0.010   0.000  -0.000   0.000  -0.000   0.000   0.000  -0.000  -0.000   0.000  -0.000  -0.000   0.000
 -0.000   0.017  -0.000   0.000  -0.010   0.000  -0.000   0.000   0.000  -0.000  -0.000   0.000  -0.000  -0.000   0.000   0.000
 -0.000  -0.000   0.016  -0.000   0.000  -0.010  -0.000  -0.000  -0.000   0.000  -0.000   0.000   0.000   0.000  -0.000  -0.000
 -0.000  -0.000   0.000   0.000  -0.000  -0.000  -6.128   0.000  -2.126  -0.000  -0.000   3.833   0.000   1.760   0.000   0.000
  0.000  -0.000  -0.000  -0.000   0.000  -0.000   0.000  -5.294  -0.000  -1.855  -0.000   0.000   3.130   0.000   1.534   0.000
 -0.000  -0.000   0.000   0.000   0.000  -0.000  -2.126  -0.000  -4.805  -0.000  -0.000   1.761   0.000   2.736   0.000   0.000
  0.000   0.000  -0.000   0.000  -0.000   0.000  -0.000  -1.855  -0.000  -5.294   0.000   0.000   1.534   0.000   3.130  -0.000
  0.000  -0.000   0.000  -0.000  -0.000  -0.000  -0.000  -0.000  -0.000   0.000  -3.409   0.000   0.000   0.000  -0.000   1.564
  0.000   0.000   0.000  -0.000   0.000   0.000   3.833   0.000   1.761   0.000   0.000  -2.657  -0.000  -1.404  -0.000  -0.000
 -0.000   0.000   0.000   0.000  -0.000   0.000   0.000   3.130   0.000   1.534   0.000  -0.000  -2.083  -0.000  -1.221  -0.000
 -0.000   0.000  -0.000  -0.000  -0.000   0.000   1.760   0.000   2.736   0.000   0.000  -1.404  -0.000  -1.781  -0.000  -0.000
 -0.000  -0.000   0.000  -0.000   0.000  -0.000   0.000   1.534   0.000   3.130  -0.000  -0.000  -1.221  -0.000  -2.083   0.000
 -0.000   0.000  -0.000   0.000   0.000  -0.000   0.000   0.000   0.000  -0.000   1.564  -0.000  -0.000  -0.000   0.000  -0.830
 -0.000   0.000   0.000  -0.000  -0.000  -0.000  -0.011  -0.000   0.039  -0.000   0.000   0.006   0.000  -0.023   0.000   0.000
  0.000  -0.000  -0.000   0.000   0.000   0.000  -0.037   0.000   0.011   0.000  -0.000   0.021  -0.000  -0.005  -0.000  -0.000


------------------------ aborting loop because EDIFF is reached ----------------------------------------


 


 total charge     
 
# of ion       s       p       d       tot
------------------------------------------
    1        0.180   6.167   4.983  11.330
    2        0.180   6.167   4.983  11.330
    3        1.720   4.369   0.000   6.089
    4        1.720   4.369   0.000   6.089
    5        1.720   4.369   0.000   6.089
    6        1.720   4.369   0.000   6.089
--------------------------------------------------
tot          7.239  29.809   9.966  47.015
 


 magnetization (x)
 
# of ion       s       p       d       tot
------------------------------------------
    1       -0.015  -0.015  -4.697  -4.727
    2        0.015   0.015   4.697   4.727
    3        0.001   0.011   0.000   0.012
    4        0.001   0.011   0.000   0.012
    5       -0.001  -0.011   0.000  -0.012
    6       -0.001  -0.011   0.000  -0.012
--------------------------------------------------
tot         -0.000  -0.000   0.000  -0.000
 
    CHARGE:  cpu time    0.0955: real time    0.0955
    FORLOC:  cpu time    0.0011: real time    0.0011
    FORNL :  cpu time    0.5310: real time    0.5310
    STRESS:  cpu time    1.4806: real time    1.4806
    FORCOR:  cpu time    0.0041: real time    0.0041
    FORHAR:  cpu time    0.0021: real time    0.0021
    MIXING:  cpu time    0.0008: real time    0.0008
    OFIELD:  cpu time    0.0000: real time    0.0000

  FORCE on cell =-STRESS in cart. coord.  units (eV):
  Direction    XX          YY          ZZ          XY          YZ          ZX
  --------------------------------------------------------------------------------------
  Alpha Z   201.68854   201.68854   201.68854
  Ewald   -1603.71755 -1603.71755 -1029.52512     0.00000     0.00000     0.00000
  Hartree   578.05406   578.05406   962.75899     0.00008     0.00001     0.00001
  E(xc)    -309.71190  -309.71190  -309.75743    -0.00000    -0.00000    -0.00000
  Local     183.16075   183.16075  -768.39734    -0.00012    -0.00002    -0.00002
  n-local  -239.06461  -239.06462  -237.80267    -0.00004    -0.00003    -0.00003
  augment   267.25239   267.25239   266.59819    -0.00001    -0.00000    -0.00001
  Kinetic   922.34894   922.34894   914.43952     0.00000     0.00000     0.00000
  Fock        0.00000     0.00000     0.00000     0.00000     0.00000     0.00000
  -------------------------------------------------------------------------------------
  Total       0.01063     0.01062     0.00269    -0.00009    -0.00004    -0.00004
  in kB       0.22541     0.22524     0.05701    -0.00195    -0.00079    -0.00092
  external pressure =        0.17 kB  Pullay stress =        0.00 kB


 VOLUME and BASIS-vectors are now :
 -----------------------------------------------------------------------------
  energy-cutoff  :      600.00
  volume of cell :       75.54
      direct lattice vectors                 reciprocal lattice vectors
     4.811631305  0.000000000  0.000000000     0.207829723  0.000000000  0.000000000
     0.000000000  4.811631305  0.000000000     0.000000000  0.207829723  0.000000000
     0.000000000  0.000000000  3.262873884     0.000000000  0.000000000  0.306478287

  length of vectors
     4.811631305  4.811631305  3.262873884     0.207829723  0.207829723  0.306478287


 FORCES acting on ions
    electron-ion (+dipol)            ewald-force                    non-local-force                 convergence-correction
 -----------------------------------------------------------------------------------------------
   -.412E-06 0.218E-06 0.162E-08   0.171E-12 -.284E-13 -.336E-13   0.421E-06 -.227E-06 -.392E-08   -.399E-08 0.659E-08 -.859E-09
   -.409E-06 -.225E-06 0.614E-09   0.568E-13 0.199E-12 -.358E-13   0.424E-06 0.225E-06 -.373E-08   -.743E-08 0.440E-08 0.295E-09
   -.347E+02 0.347E+02 -.639E-06   0.360E+02 -.360E+02 0.194E-13   -.134E+01 0.134E+01 -.309E-06   -.658E-04 0.787E-04 0.121E-05
   0.347E+02 -.347E+02 0.639E-06   -.360E+02 0.360E+02 0.196E-13   0.134E+01 -.134E+01 0.309E-06   0.658E-04 -.787E-04 -.121E-05
   0.347E+02 0.347E+02 -.203E-04   -.360E+02 -.360E+02 0.118E-13   0.134E+01 0.134E+01 -.126E-04   0.140E-04 0.430E-05 0.346E-04
   -.347E+02 -.347E+02 0.203E-04   0.360E+02 0.360E+02 0.120E-13   -.134E+01 -.134E+01 0.126E-04   -.140E-04 -.430E-05 -.346E-04
 -----------------------------------------------------------------------------------------------
   -.791E-06 -.499E-08 0.190E-08   0.142E-13 0.000E+00 -.653E-14   0.794E-06 -.228E-08 -.817E-08   -.602E-08 0.832E-08 -.337E-09
 
 
 POSITION                                       TOTAL-FORCE (eV/Angst)
 -----------------------------------------------------------------------------------
      2.40582      2.40582      1.63144         0.000000     -0.000000     -0.000000
      0.00000      0.00000      0.00000         0.000000      0.000000     -0.000000
      0.93984      3.87179      1.63144        -0.001555      0.001555      0.000000
      3.87179      0.93984      1.63144         0.001555     -0.001555     -0.000000
      1.46598      1.46598      0.00000         0.001556      0.001556      0.000002
      3.34565      3.34565      0.00000        -0.001556     -0.001556     -0.000002
 -----------------------------------------------------------------------------------
    total drift:                               -0.000000      0.000000     -0.000000


--------------------------------------------------------------------------------------------------------



  FREE ENERGIE OF THE ION-ELECTRON SYSTEM (eV)
  ---------------------------------------------------
  free  energy   TOTEN  =       -38.88015452 eV

  energy  without entropy=      -38.88015452  energy(sigma->0) =      -38.88015452
 


--------------------------------------------------------------------------------------------------------


    POTLOK:  cpu time    3.9227: real time    3.9227

 Total magnetic moment S=     1.0000000

 Fermi contact (isotropic) hyperfine coupling parameter (MHz) 
 -------------------------------------------------------------
  ion      A_pw      A_1PS     A_1AE     A_1c      A_tot
 -------------------------------------------------------------
   1   -1297.660 -1297.626  -330.743  1094.305  -330.777
   2    1297.660  1297.626   330.741 -1094.305   330.775
   3      24.876    24.797   174.882   -18.605   174.961
   4      24.876    24.797   174.882   -18.605   174.961
   5     -24.876   -24.797  -174.878    18.606  -174.957
   6     -24.876   -24.797  -174.878    18.606  -174.957
 -------------------------------------------------------------


 Dipolar hyperfine coupling parameters (MHz)
 ---------------------------------------------------------------------
  ion      A_xx      A_yy      A_zz      A_xy      A_xz      A_yz
 ---------------------------------------------------------------------
   1       7.405     7.406   -14.811     3.605     0.004     0.004
   2      -7.404    -7.404    14.808     3.599    -0.005    -0.005
   3     -50.066   -50.066   100.133     9.159     0.000    -0.000
   4     -50.066   -50.066   100.133     9.159     0.000    -0.000
   5      50.067    50.067  -100.134     9.158     0.000     0.000
   6      50.067    50.067  -100.134     9.158     0.000     0.000
 ---------------------------------------------------------------------


 Total hyperfine coupling parameters after diagonalization (MHz)
 (convention: |A_zz| > |A_xx| > |A_yy|)
 ----------------------------------------------------------------------
  ion      A_xx      A_yy      A_zz     asymmetry (A_yy - A_xx)/ A_zz 
 ----------------------------------------------------------------------
   1    -326.976  -319.766  -345.588      -0.021
   2     326.970   319.773   345.583      -0.021
   3     134.054   115.735   275.094      -0.067
   4     134.054   115.735   275.094      -0.067
   5    -134.048  -115.732  -275.090      -0.067
   6    -134.048  -115.732  -275.090      -0.067
 ---------------------------------------------------------------------



--------------------------------------------------------------------------------------------------------


 writing wavefunctions
     LOOP+:  cpu time   88.1350: real time   88.1543
    4ORBIT:  cpu time    0.0000: real time    0.0000
 


 total charge     
 
# of ion       s       p       d       tot
------------------------------------------
    1        0.180   6.167   4.983  11.330
    2        0.180   6.167   4.983  11.330
    3        1.720   4.369   0.000   6.089
    4        1.720   4.369   0.000   6.089
    5        1.720   4.369   0.000   6.089
    6        1.720   4.369   0.000   6.089
--------------------------------------------------
tot          7.239  29.809   9.966  47.015
 


 magnetization (x)
 
# of ion       s       p       d       tot
------------------------------------------
    1       -0.015  -0.015  -4.697  -4.727
    2        0.015   0.015   4.697   4.727
    3        0.001   0.011   0.000   0.012
    4        0.001   0.011   0.000   0.012
    5       -0.001  -0.011   0.000  -0.012
    6       -0.001  -0.011   0.000  -0.012
--------------------------------------------------
tot         -0.000  -0.000   0.000  -0.000
 
 BZINTS: Fermi energy:  0.653046; 54.000000 electrons
         Band energy:-769.392299;  BLOECHL correction:  0.000000

 total amount of memory used by VASP MPI-rank0    81994. kBytes
=======================================================================

   base      :      30000. kBytes
   nonl-proj :      35412. kBytes
   fftplans  :       1875. kBytes
   grid      :       2467. kBytes
   one-center:        186. kBytes
   wavefun   :      12054. kBytes
 
  
  
 General timing and accounting informations for this job:
 ========================================================
  
                  Total CPU time used (sec):       90.157
                            User time (sec):       57.313
                          System time (sec):       32.844
                         Elapsed time (sec):       90.227
  
                   Maximum memory used (kb):       92532.
                   Average memory used (kb):           0.
  
                          Minor page faults:        20065
                          Major page faults:            6
                 Voluntary context switches:          288
