       N       E                     dE             d eps       ncg     rms          rms(c)
DAV:   1     0.679472407166E+03    0.67947E+03   -0.34229E+04  4320   0.190E+03
DAV:   2     0.772840748556E+01   -0.67174E+03   -0.65081E+03  4896   0.514E+02
DAV:   3    -0.407290329780E+02   -0.48457E+02   -0.48255E+02  5064   0.153E+02
DAV:   4    -0.414081755841E+02   -0.67914E+00   -0.67874E+00  4836   0.193E+01
DAV:   5    -0.414185406567E+02   -0.10365E-01   -0.10365E-01  5064   0.236E+00    0.248E+01
DAV:   6    -0.393426015639E+02    0.20759E+01   -0.15747E+01  5472   0.319E+01    0.159E+01
DAV:   7    -0.399807001631E+02   -0.63810E+00   -0.15595E+00  5112   0.107E+01    0.118E+01
DAV:   8    -0.398893169985E+02    0.91383E-01   -0.52387E-01  5076   0.599E+00    0.471E+00
DAV:   9    -0.401701887264E+02   -0.28087E+00   -0.75396E-02  4800   0.260E+00    0.136E+00
DAV:  10    -0.401705822315E+02   -0.39351E-03   -0.15605E-02  5340   0.101E+00    0.250E-01
DAV:  11    -0.401705440361E+02    0.38195E-04   -0.15423E-03  4560   0.268E-01    0.139E-01
DAV:  12    -0.401705857000E+02   -0.41664E-04   -0.39891E-05  5904   0.837E-02    0.621E-02
DAV:  13    -0.401705918662E+02   -0.61662E-05   -0.37921E-05  4716   0.336E-02    0.212E-02
DAV:  14    -0.401705934282E+02   -0.15620E-05   -0.18098E-06  3960   0.135E-02    0.394E-03
DAV:  15    -0.401705935961E+02   -0.16787E-06   -0.14801E-07  2256   0.328E-03
   1 F= -.40170594E+02 E0= -.40170594E+02  d E =-.892199E-31  mag=     0.0000
