 vasp.5.4.4.18Apr17-6-g9f103f2a35 (build Apr 27 2017 11:13:10) complex          
  
 executed on           IFC91_ompi date 2020.05.13  12:16:28
 running on   12 total cores
 distrk:  each k-point on   12 cores,    1 groups
 distr:  one band on NCORES_PER_BAND=   1 cores,   12 groups


--------------------------------------------------------------------------------------------------------


 INCAR:
 POTCAR:    PAW Mn_pv 02Aug2007                   
 POTCAR:    PAW F 31May2000                       

 ----------------------------------------------------------------------------- 
|                                                                             |
|           W    W    AA    RRRRR   N    N  II  N    N   GGGG   !!!           |
|           W    W   A  A   R    R  NN   N  II  NN   N  G    G  !!!           |
|           W    W  A    A  R    R  N N  N  II  N N  N  G       !!!           |
|           W WW W  AAAAAA  RRRRR   N  N N  II  N  N N  G  GGG   !            |
|           WW  WW  A    A  R   R   N   NN  II  N   NN  G    G                |
|           W    W  A    A  R    R  N    N  II  N    N   GGGG   !!!           |
|                                                                             |
|      For optimal performance we recommend to set                            |
|        NCORE= 4 - approx SQRT( number of cores)                             |
|      NCORE specifies how many cores store one orbital (NPAR=cpu/NCORE).     |
|      This setting can  greatly improve the performance of VASP for DFT.     |
|      The default,   NCORE=1            might be grossly inefficient         |
|      on modern multi-core architectures or massively parallel machines.     |
|      Do your own testing !!!!                                               |
|      Unfortunately you need to use the default for GW and RPA calculations. |
|      (for HF NCORE is supported but not extensively tested yet)             |
|                                                                             |
 ----------------------------------------------------------------------------- 

 POTCAR:    PAW Mn_pv 02Aug2007                   
   VRHFIN =Mn: 3p4s3d                                                           
   LEXCH  = CA                                                                  
   EATOM  =  2028.0466 eV,  149.0572 Ry                                         
                                                                                
   TITEL  = PAW Mn_pv 02Aug2007                                                 
   LULTRA =        F    use ultrasoft PP ?                                      
   IUNSCR =        1    unscreen: 0-lin 1-nonlin 2-no                           
   RPACOR =    2.080    partial core radius                                     
   POMASS =   54.938; ZVAL   =   13.000    mass and valenz                      
   RCORE  =    2.300    outmost cutoff radius                                   
   RWIGS  =    2.500; RWIGS  =    1.323    wigner-seitz radius (au A)           
   ENMAX  =  269.944; ENMIN  =  202.458 eV                                      
   ICORE  =        3    local potential                                         
   LCOR   =        T    correct aug charges                                     
   LPAW   =        T    paw PP                                                  
   EAUG   =  569.085                                                            
   DEXC   =    0.000                                                            
   RMAX   =    2.343    core radius for proj-oper                               
   RAUG   =    1.300    factor for augmentation sphere                          
   RDEP   =    2.338    radius for radial grids                                 
   RDEPT  =    1.798    core radius for aug-charge                              
                                                                                
   Atomic configuration                                                         
    8 entries                                                                   
     n  l   j            E        occ.                                          
     1  0  0.50     -6393.6057   2.0000                                         
     2  0  0.50      -735.9993   2.0000                                         
     2  1  1.50      -624.3417   6.0000                                         
     3  0  0.50       -80.9782   2.0000                                         
     3  1  1.50       -50.3144   6.0000                                         
     3  2  2.50        -3.6171   6.0000                                         
     4  0  0.50        -4.3304   1.0000                                         
     4  3  2.50        -1.3606   0.0000                                         
   Description                                                                  
     l       E           TYP  RCUT    TYP  RCUT                                 
     1    -50.3143634     23  2.000                                             
     1     -1.3605826     23  2.000                                             
     2     -3.6171470     23  2.300                                             
     2     -4.9777296     23  2.300                                             
     0     -4.3303688     23  2.300                                             
     0      7.3408788     23  2.300                                             
     3      9.5240782     23  2.300                                             
  local pseudopotential read in
  partial core-charges read in
  partial kinetic energy density read in
  atomic valenz-charges read in
  non local Contribution for L=           1  read in
    real space projection operators read in
  non local Contribution for L=           1  read in
    real space projection operators read in
  non local Contribution for L=           2  read in
    real space projection operators read in
  non local Contribution for L=           2  read in
    real space projection operators read in
  non local Contribution for L=           0  read in
    real space projection operators read in
  non local Contribution for L=           0  read in
    real space projection operators read in
    PAW grid and wavefunctions read in
 
   number of l-projection  operators is LMAX  =           6
   number of lm-projection operators is LMMAX =          18
 
 POTCAR:    PAW F 31May2000                       
   VRHFIN =F: s2p5                                                              
   LEXCH  = CA                                                                  
   EATOM  =   658.3685 eV,   48.3887 Ry                                         
                                                                                
   TITEL  = PAW F 31May2000                                                     
   LULTRA =        F    use ultrasoft PP ?                                      
   IUNSCR =        1    unscreen: 0-lin 1-nonlin 2-no                           
   RPACOR =    1.200    partial core radius                                     
   POMASS =   18.998; ZVAL   =    7.000    mass and valenz                      
   RCORE  =    1.520    outmost cutoff radius                                   
   RWIGS  =    1.500; RWIGS  =    0.794    wigner-seitz radius (au A)           
   ENMAX  =  400.000; ENMIN  =  300.000 eV                                      
   ICORE  =        2    local potential                                         
   LCOR   =        T    correct aug charges                                     
   LPAW   =        T    paw PP                                                  
   EAUG   =  613.614                                                            
   DEXC   =    0.000                                                            
   RMAX   =    1.555    core radius for proj-oper                               
   RAUG   =    1.300    factor for augmentation sphere                          
   RDEP   =    1.539    radius for radial grids                                 
   RDEPT  =    1.299    core radius for aug-charge                              
                                                                                
   Atomic configuration                                                         
    4 entries                                                                   
     n  l   j            E        occ.                                          
     1  0  0.50      -658.3386   2.0000                                         
     2  0  0.50       -29.6221   2.0000                                         
     2  1  0.50       -11.2952   5.0000                                         
     3  2  1.50       -12.2452   0.0000                                         
   Description                                                                  
     l       E           TYP  RCUT    TYP  RCUT                                 
     0    -29.6221019     23  1.200                                             
     0     -9.5240782     23  1.200                                             
     1    -11.2951545     23  1.520                                             
     1      1.3605826     23  1.520                                             
     2    -12.2452434      7  1.500                                             
  local pseudopotential read in
  partial core-charges read in
  partial kinetic energy density read in
  kinetic energy density of atom read in
  atomic valenz-charges read in
  non local Contribution for L=           0  read in
    real space projection operators read in
  non local Contribution for L=           0  read in
    real space projection operators read in
  non local Contribution for L=           1  read in
    real space projection operators read in
  non local Contribution for L=           1  read in
    real space projection operators read in
    PAW grid and wavefunctions read in
 
   number of l-projection  operators is LMAX  =           4
   number of lm-projection operators is LMMAX =           8
 
  PAW Mn_pv 02Aug2007                   :
 energy of atom  1       EATOM=-2028.0466
 kinetic energy error for atom=    0.0047 (will be added to EATOM!!)
  PAW F 31May2000                       :
 energy of atom  2       EATOM= -658.3685
 kinetic energy error for atom=    0.0252 (will be added to EATOM!!)
 
 
 POSCAR: Mn  F                                   
  positions in cartesian coordinates
  No initial velocities read in
 exchange correlation table for  LEXCH =        2
   RHO(1)=    0.500       N(1)  =     2000
   RHO(2)=  100.500       N(2)  =     4000
 


--------------------------------------------------------------------------------------------------------


 ion  position               nearest neighbor table
   1  0.500  0.500  0.500-   3 2.06   4 2.06   5 2.10   6 2.10   5 2.10   6 2.10
   2  0.000  0.000  0.000-   5 2.06   6 2.06   3 2.10   4 2.10   3 2.10   4 2.10
   3  0.196  0.804  0.500-   1 2.06   2 2.10   2 2.10
   4  0.804  0.196  0.500-   1 2.06   2 2.10   2 2.10
   5  0.304  0.304  0.000-   2 2.06   1 2.10   1 2.10
   6  0.696  0.696  0.000-   2 2.06   1 2.10   1 2.10
 
  LATTYP: Found a simple tetragonal cell.
 ALAT       =     4.7959042861
 C/A-ratio  =     0.6772201529
  
  Lattice vectors:
  
 A1 = (   4.7959042861,   0.0000000000,   0.0000000000)
 A2 = (   0.0000000000,   4.7959042861,   0.0000000000)
 A3 = (   0.0000000000,   0.0000000000,   3.2478830338)


Analysis of symmetry for initial positions (statically):
=====================================================================
 Subroutine PRICEL returns:
 Original cell was already a primitive cell.
 

 Routine SETGRP: Setting up the symmetry group for a 
 simple tetragonal supercell.


 Subroutine GETGRP returns: Found 16 space group operations
 (whereof  8 operations were pure point group operations)
 out of a pool of 16 trial point group operations.


The static configuration has the point symmetry D_2h.
 The point group associated with its full space group is D_4h.


Analysis of symmetry for dynamics (positions and initial velocities):
=====================================================================
 Subroutine PRICEL returns:
 Original cell was already a primitive cell.
 

 Routine SETGRP: Setting up the symmetry group for a 
 simple tetragonal supercell.


 Subroutine GETGRP returns: Found 16 space group operations
 (whereof  8 operations were pure point group operations)
 out of a pool of 16 trial point group operations.


The dynamic configuration has the point symmetry D_2h.
 The point group associated with its full space group is D_4h.


Analysis of structural, dynamic, and magnetic symmetry:
=====================================================================
 Subroutine PRICEL returns:
 Original cell was already a primitive cell.
 

 Routine SETGRP: Setting up the symmetry group for a 
 simple tetragonal supercell.


 Subroutine GETGRP returns: Found 16 space group operations
 (whereof  8 operations were pure point group operations)
 out of a pool of 16 trial point group operations.


The magnetic configuration has the point symmetry D_2h.
 The point group associated with its full space group is D_4h.


 Subroutine INISYM returns: Found 16 space group operations
 (whereof  8 operations are pure point group operations),
 and found     1 'primitive' translations

 
 
 KPOINTS: KPOINTS created by Atomic Simulation Env

Automatic generation of k-mesh.
Space group operators:
 irot       det(A)        alpha          n_x          n_y          n_z        tau_x        tau_y        tau_z
    1     1.000000     0.000000     1.000000     0.000000     0.000000     0.000000     0.000000     0.000000
    2    -1.000000     0.000000     1.000000     0.000000     0.000000     0.000000     0.000000     0.000000
    3     1.000000   180.000000     0.000000     0.000000     1.000000     0.000000     0.000000     0.000000
    4    -1.000000   180.000000     0.000000     0.000000     1.000000     0.000000     0.000000     0.000000
    5     1.000000   180.000000     0.707107     0.707107     0.000000     0.000000     0.000000     0.000000
    6    -1.000000   180.000000     0.707107     0.707107     0.000000     0.000000     0.000000     0.000000
    7     1.000000   180.000000     0.707107    -0.707107     0.000000     0.000000     0.000000     0.000000
    8    -1.000000   180.000000     0.707107    -0.707107     0.000000     0.000000     0.000000     0.000000
    9     1.000000    90.000000     0.000000     0.000000    -1.000000     0.500000     0.500000     0.500000
   10    -1.000000    90.000000     0.000000     0.000000    -1.000000     0.500000     0.500000     0.500000
   11     1.000000    90.000000     0.000000     0.000000     1.000000     0.500000     0.500000     0.500000
   12    -1.000000    90.000000     0.000000     0.000000     1.000000     0.500000     0.500000     0.500000
   13     1.000000   180.000000     0.000000     1.000000     0.000000     0.500000     0.500000     0.500000
   14    -1.000000   180.000000     0.000000     1.000000     0.000000     0.500000     0.500000     0.500000
   15     1.000000   180.000000     1.000000     0.000000     0.000000     0.500000     0.500000     0.500000
   16    -1.000000   180.000000     1.000000     0.000000     0.000000     0.500000     0.500000     0.500000
 
 Subroutine IBZKPT returns following result:
 ===========================================
 
 Found     30 irreducible k-points:
 
 Following reciprocal coordinates:
            Coordinates               Weight
  0.083333  0.083333  0.000000      4.000000
  0.250000  0.083333  0.000000      8.000000
  0.416667  0.083333  0.000000      8.000000
  0.250000  0.250000  0.000000      4.000000
  0.416667  0.250000  0.000000      8.000000
  0.416667  0.416667  0.000000      4.000000
  0.083333  0.083333  0.111111      8.000000
  0.250000  0.083333  0.111111     16.000000
  0.416667  0.083333  0.111111     16.000000
  0.250000  0.250000  0.111111      8.000000
  0.416667  0.250000  0.111111     16.000000
  0.416667  0.416667  0.111111      8.000000
  0.083333  0.083333  0.222222      8.000000
  0.250000  0.083333  0.222222     16.000000
  0.416667  0.083333  0.222222     16.000000
  0.250000  0.250000  0.222222      8.000000
  0.416667  0.250000  0.222222     16.000000
  0.416667  0.416667  0.222222      8.000000
  0.083333  0.083333  0.333333      8.000000
  0.250000  0.083333  0.333333     16.000000
  0.416667  0.083333  0.333333     16.000000
  0.250000  0.250000  0.333333      8.000000
  0.416667  0.250000  0.333333     16.000000
  0.416667  0.416667  0.333333      8.000000
  0.083333  0.083333  0.444444      8.000000
  0.250000  0.083333  0.444444     16.000000
  0.416667  0.083333  0.444444     16.000000
  0.250000  0.250000  0.444444      8.000000
  0.416667  0.250000  0.444444     16.000000
  0.416667  0.416667  0.444444      8.000000
 
 Following cartesian coordinates:
            Coordinates               Weight
  0.017376  0.017376  0.000000      4.000000
  0.052128  0.017376  0.000000      8.000000
  0.086880  0.017376  0.000000      8.000000
  0.052128  0.052128  0.000000      4.000000
  0.086880  0.052128  0.000000      8.000000
  0.086880  0.086880  0.000000      4.000000
  0.017376  0.017376  0.034210      8.000000
  0.052128  0.017376  0.034210     16.000000
  0.086880  0.017376  0.034210     16.000000
  0.052128  0.052128  0.034210      8.000000
  0.086880  0.052128  0.034210     16.000000
  0.086880  0.086880  0.034210      8.000000
  0.017376  0.017376  0.068421      8.000000
  0.052128  0.017376  0.068421     16.000000
  0.086880  0.017376  0.068421     16.000000
  0.052128  0.052128  0.068421      8.000000
  0.086880  0.052128  0.068421     16.000000
  0.086880  0.086880  0.068421      8.000000
  0.017376  0.017376  0.102631      8.000000
  0.052128  0.017376  0.102631     16.000000
  0.086880  0.017376  0.102631     16.000000
  0.052128  0.052128  0.102631      8.000000
  0.086880  0.052128  0.102631     16.000000
  0.086880  0.086880  0.102631      8.000000
  0.017376  0.017376  0.136841      8.000000
  0.052128  0.017376  0.136841     16.000000
  0.086880  0.017376  0.136841     16.000000
  0.052128  0.052128  0.136841      8.000000
  0.086880  0.052128  0.136841     16.000000
  0.086880  0.086880  0.136841      8.000000
 


--------------------------------------------------------------------------------------------------------




 Dimension of arrays:
   k-points           NKPTS =     30   k-points in BZ     NKDIM =     30   number of bands    NBANDS=     36
   number of dos      NEDOS =    301   number of ions     NIONS =      6
   non local maximal  LDIM  =      6   non local SUM 2l+1 LMDIM =     18
   total plane-waves  NPLWV =  18000
   max r-space proj   IRMAX =      1   max aug-charges    IRDMAX=  58682
   dimension x,y,z NGX =    30 NGY =   30 NGZ =   20
   dimension x,y,z NGXF=    60 NGYF=   60 NGZF=   40
   support grid    NGXF=   120 NGYF=  120 NGZF=   80
   ions per type =               2   4
   NGX,Y,Z   is equivalent  to a cutoff of  10.40, 10.40, 10.24 a.u.
   NGXF,Y,Z  is equivalent  to a cutoff of  20.80, 20.80, 20.47 a.u.

 SYSTEM =  unknown system                          
 POSCAR =  Mn  F                                   

 Startparameter for this run:
   NWRITE =      2    write-flag & timer
   PREC   = normal    normal or accurate (medium, high low for compatibility)
   ISTART =      0    job   : 0-new  1-cont  2-samecut
   ICHARG =      2    charge: 1-file 2-atom 10-const
   ISPIN  =      2    spin polarized calculation?
   LNONCOLLINEAR =      F non collinear calculations
   LSORBIT =      F    spin-orbit coupling
   INIWAV =      1    electr: 0-lowe 1-rand  2-diag
   LASPH  =      T    aspherical Exc in radial PAW
   METAGGA=      F    non-selfconsistent MetaGGA calc.

 Electronic Relaxation 1
   ENCUT  =  600.0 eV  44.10 Ry    6.64 a.u.   9.58  9.58  6.49*2*pi/ulx,y,z
   ENINI  =  600.0     initial cutoff
   ENAUG  =  613.6 eV  augmentation charge cutoff
   NELM   =     60;   NELMIN=  2; NELMDL= -5     # of ELM steps 
   EDIFF  = 0.1E-05   stopping-criterion for ELM
   LREAL  =      F    real-space projection
   NLSPLINE    = F    spline interpolate recip. space projectors
   LCOMPAT=      F    compatible to vasp.4.4
   GGA_COMPAT  = T    GGA compatible to vasp.4.4-vasp.4.6
   LMAXPAW     = -100 max onsite density
   LMAXMIX     =    4 max onsite mixed and CHGCAR
   VOSKOWN=      0    Vosko Wilk Nusair interpolation
   ROPT   =    0.00000   0.00000
 Ionic relaxation
   EDIFFG = 0.1E-04   stopping-criterion for IOM
   NSW    =      0    number of steps for IOM
   NBLOCK =      1;   KBLOCK =      1    inner block; outer block 
   IBRION =     -1    ionic relax: 0-MD 1-quasi-New 2-CG
   NFREE  =      0    steps in history (QN), initial steepest desc. (CG)
   ISIF   =      2    stress and relaxation
   IWAVPR =     10    prediction:  0-non 1-charg 2-wave 3-comb
   ISYM   =      2    0-nonsym 1-usesym 2-fastsym
   LCORR  =      T    Harris-Foulkes like correction to forces

   POTIM  = 0.5000    time-step for ionic-motion
   TEIN   =    0.0    initial temperature
   TEBEG  =    0.0;   TEEND  =   0.0 temperature during run
   SMASS  =  -3.00    Nose mass-parameter (am)
   estimated Nose-frequenzy (Omega)   =  0.10E-29 period in steps =****** mass=  -0.526E-27a.u.
   SCALEE = 1.0000    scale energy and forces
   NPACO  =    256;   APACO  = 16.0  distance and # of slots for P.C.
   PSTRESS=    0.0 pullay stress

  Mass of Ions in am
   POMASS =  54.94 19.00
  Ionic Valenz
   ZVAL   =  13.00  7.00
  Atomic Wigner-Seitz radii
   RWIGS  =  -1.00 -1.00
  virtual crystal weights 
   VCA    =   1.00  1.00
   NELECT =      54.0000    total number of electrons
   NUPDOWN=      -1.0000    fix difference up-down

 DOS related values:
   EMIN   =  10.00;   EMAX   =-10.00  energy-range for DOS
   EFERMI =   0.00
   ISMEAR =     0;   SIGMA  =   0.01  broadening in eV -4-tet -1-fermi 0-gaus

 Electronic relaxation 2 (details)
   IALGO  =     38    algorithm
   LDIAG  =      T    sub-space diagonalisation (order eigenvalues)
   LSUBROT=      F    optimize rotation matrix (better conditioning)
   TURBO    =      0    0=normal 1=particle mesh
   IRESTART =      0    0=no restart 2=restart with 2 vectors
   NREBOOT  =      0    no. of reboots
   NMIN     =      0    reboot dimension
   EREF     =   0.00    reference energy to select bands
   IMIX   =      4    mixing-type and parameters
     AMIX     =   0.40;   BMIX     =  1.00
     AMIX_MAG =   1.60;   BMIX_MAG =  1.00
     AMIN     =   0.10
     WC   =   100.;   INIMIX=   1;  MIXPRE=   1;  MAXMIX= -45

 Intra band minimization:
   WEIMIN = 0.0000     energy-eigenvalue tresh-hold
   EBREAK =  0.69E-08  absolut break condition
   DEPER  =   0.30     relativ break condition  

   TIME   =   0.40     timestep for ELM

  volume/ion in A,a.u.               =      12.45        84.02
  Fermi-wavevector in a.u.,A,eV,Ry     =   1.469238  2.776458 29.370375  2.158662
  Thomas-Fermi vector in A             =   2.584640
 
 Write flags
   LWAVE        =      T    write WAVECAR
   LDOWNSAMPLE  =      F    k-point downsampling of WAVECAR
   LCHARG       =      T    write CHGCAR
   LVTOT        =      F    write LOCPOT, total local potential
   LVHAR        =      F    write LOCPOT, Hartree potential only
   LELF         =      F    write electronic localiz. function (ELF)
   LORBIT       =     11    0 simple, 1 ext, 2 COOP (PROOUT), +10 PAW based schemes


 Dipole corrections
   LMONO  =      F    monopole corrections only (constant potential shift)
   LDIPOL =      F    correct potential (dipole corrections)
   IDIPOL =      0    1-x, 2-y, 3-z, 4-all directions 
   EPSILON=  1.0000000 bulk dielectric constant

 LDA+U is selected, type is set to LDAUTYPE =  2
   angular momentum for each species LDAUL =     2   -1
   U (eV)           for each species LDAUU =   4.0  0.0
   J (eV)           for each species LDAUJ =   0.0  0.0
 Exchange correlation treatment:
   GGA     =    --    GGA type
   LEXCH   =     2    internal setting for exchange type
   VOSKOWN=      0    Vosko Wilk Nusair interpolation
   LHFCALC =     F    Hartree Fock is set to
   LHFONE  =     F    Hartree Fock one center treatment
   AEXX    =    0.0000 exact exchange contribution

 Linear response parameters
   LEPSILON=     F    determine dielectric tensor
   LRPA    =     F    only Hartree local field effects (RPA)
   LNABLA  =     F    use nabla operator in PAW spheres
   LVEL    =     F    velocity operator in full k-point grid
   LINTERFAST=   F  fast interpolation
   KINTER  =     0    interpolate to denser k-point grid
   CSHIFT  =0.1000    complex shift for real part using Kramers Kronig
   OMEGAMAX=  -1.0    maximum frequency
   DEG_THRESHOLD= 0.2000000E-02 threshold for treating states as degnerate
   RTIME   =   -0.100 relaxation time in fs
  (WPLASMAI=    0.000 imaginary part of plasma frequency in eV, 0.658/RTIME)
   DFIELD  = 0.0000000 0.0000000 0.0000000 field for delta impulse in time
 
 Orbital magnetization related:
   ORBITALMAG=     F  switch on orbital magnetization
   LCHIMAG   =     F  perturbation theory with respect to B field
   DQ        =  0.001000  dq finite difference perturbation B field
   LLRAUG    =     F  two centre corrections for induced B field



--------------------------------------------------------------------------------------------------------


 Static calculation
 charge density and potential will be updated during run
 spin polarized calculation
 Variant of blocked Davidson
 Davidson routine will perform the subspace rotation
 perform sub-space diagonalisation
    after iterative eigenvector-optimisation
 modified Broyden-mixing scheme, WC =      100.0
 initial mixing is a Kerker type mixing with AMIX =  0.4000 and BMIX =      1.0000
 Hartree-type preconditioning will be used
 using additional bands            9
 reciprocal scheme for non local part
 use partial core corrections
 calculate Harris-corrections to forces 
   (improved forces if not selfconsistent)
 use of overlap-Matrix (Vanderbilt PP)
 Gauss-broadening in eV      SIGMA  =   0.01


--------------------------------------------------------------------------------------------------------


  energy-cutoff  :      600.00
  volume of cell :       74.70
      direct lattice vectors                 reciprocal lattice vectors
     4.795904286  0.000000000  0.000000000     0.208511251  0.000000000  0.000000000
     0.000000000  4.795904286  0.000000000     0.000000000  0.208511251  0.000000000
     0.000000000  0.000000000  3.247883034     0.000000000  0.000000000  0.307892861

  length of vectors
     4.795904286  4.795904286  3.247883034     0.208511251  0.208511251  0.307892861


 
 k-points in units of 2pi/SCALE and weight: KPOINTS created by Atomic Simulation Env
   0.01737594  0.01737594  0.00000000       0.012
   0.05212781  0.01737594  0.00000000       0.025
   0.08687969  0.01737594  0.00000000       0.025
   0.05212781  0.05212781  0.00000000       0.012
   0.08687969  0.05212781  0.00000000       0.025
   0.08687969  0.08687969  0.00000000       0.012
   0.01737594  0.01737594  0.03421032       0.025
   0.05212781  0.01737594  0.03421032       0.049
   0.08687969  0.01737594  0.03421032       0.049
   0.05212781  0.05212781  0.03421032       0.025
   0.08687969  0.05212781  0.03421032       0.049
   0.08687969  0.08687969  0.03421032       0.025
   0.01737594  0.01737594  0.06842064       0.025
   0.05212781  0.01737594  0.06842064       0.049
   0.08687969  0.01737594  0.06842064       0.049
   0.05212781  0.05212781  0.06842064       0.025
   0.08687969  0.05212781  0.06842064       0.049
   0.08687969  0.08687969  0.06842064       0.025
   0.01737594  0.01737594  0.10263095       0.025
   0.05212781  0.01737594  0.10263095       0.049
   0.08687969  0.01737594  0.10263095       0.049
   0.05212781  0.05212781  0.10263095       0.025
   0.08687969  0.05212781  0.10263095       0.049
   0.08687969  0.08687969  0.10263095       0.025
   0.01737594  0.01737594  0.13684127       0.025
   0.05212781  0.01737594  0.13684127       0.049
   0.08687969  0.01737594  0.13684127       0.049
   0.05212781  0.05212781  0.13684127       0.025
   0.08687969  0.05212781  0.13684127       0.049
   0.08687969  0.08687969  0.13684127       0.025
 
 k-points in reciprocal lattice and weights: KPOINTS created by Atomic Simulation Env
   0.08333333  0.08333333  0.00000000       0.012
   0.25000000  0.08333333  0.00000000       0.025
   0.41666667  0.08333333  0.00000000       0.025
   0.25000000  0.25000000  0.00000000       0.012
   0.41666667  0.25000000  0.00000000       0.025
   0.41666667  0.41666667  0.00000000       0.012
   0.08333333  0.08333333  0.11111111       0.025
   0.25000000  0.08333333  0.11111111       0.049
   0.41666667  0.08333333  0.11111111       0.049
   0.25000000  0.25000000  0.11111111       0.025
   0.41666667  0.25000000  0.11111111       0.049
   0.41666667  0.41666667  0.11111111       0.025
   0.08333333  0.08333333  0.22222222       0.025
   0.25000000  0.08333333  0.22222222       0.049
   0.41666667  0.08333333  0.22222222       0.049
   0.25000000  0.25000000  0.22222222       0.025
   0.41666667  0.25000000  0.22222222       0.049
   0.41666667  0.41666667  0.22222222       0.025
   0.08333333  0.08333333  0.33333333       0.025
   0.25000000  0.08333333  0.33333333       0.049
   0.41666667  0.08333333  0.33333333       0.049
   0.25000000  0.25000000  0.33333333       0.025
   0.41666667  0.25000000  0.33333333       0.049
   0.41666667  0.41666667  0.33333333       0.025
   0.08333333  0.08333333  0.44444444       0.025
   0.25000000  0.08333333  0.44444444       0.049
   0.41666667  0.08333333  0.44444444       0.049
   0.25000000  0.25000000  0.44444444       0.025
   0.41666667  0.25000000  0.44444444       0.049
   0.41666667  0.41666667  0.44444444       0.025
 
 position of ions in fractional coordinates (direct lattice) 
   0.50000000  0.50000000  0.50000000
   0.00000000  0.00000000  0.00000000
   0.19593145  0.80406855  0.50000000
   0.80406855  0.19593145  0.50000000
   0.30406855  0.30406855  0.00000000
   0.69593145  0.69593145  0.00000000
 
 position of ions in cartesian coordinates  (Angst):
   2.39795214  2.39795214  1.62394152
   0.00000000  0.00000000  0.00000000
   0.93966849  3.85623580  1.62394152
   3.85623580  0.93966849  1.62394152
   1.45828365  1.45828365  0.00000000
   3.33762063  3.33762063  0.00000000
 


--------------------------------------------------------------------------------------------------------


 k-point  1 :   0.0833 0.0833 0.0000  plane waves:    2517
 k-point  2 :   0.2500 0.0833 0.0000  plane waves:    2499
 k-point  3 :   0.4167 0.0833 0.0000  plane waves:    2508
 k-point  4 :   0.2500 0.2500 0.0000  plane waves:    2504
 k-point  5 :   0.4167 0.2500 0.0000  plane waves:    2501
 k-point  6 :   0.4167 0.4167 0.0000  plane waves:    2482
 k-point  7 :   0.0833 0.0833 0.1111  plane waves:    2511
 k-point  8 :   0.2500 0.0833 0.1111  plane waves:    2503
 k-point  9 :   0.4167 0.0833 0.1111  plane waves:    2496
 k-point 10 :   0.2500 0.2500 0.1111  plane waves:    2499
 k-point 11 :   0.4167 0.2500 0.1111  plane waves:    2496
 k-point 12 :   0.4167 0.4167 0.1111  plane waves:    2481
 k-point 13 :   0.0833 0.0833 0.2222  plane waves:    2513
 k-point 14 :   0.2500 0.0833 0.2222  plane waves:    2495
 k-point 15 :   0.4167 0.0833 0.2222  plane waves:    2494
 k-point 16 :   0.2500 0.2500 0.2222  plane waves:    2494
 k-point 17 :   0.4167 0.2500 0.2222  plane waves:    2495
 k-point 18 :   0.4167 0.4167 0.2222  plane waves:    2483
 k-point 19 :   0.0833 0.0833 0.3333  plane waves:    2496
 k-point 20 :   0.2500 0.0833 0.3333  plane waves:    2490
 k-point 21 :   0.4167 0.0833 0.3333  plane waves:    2489
 k-point 22 :   0.2500 0.2500 0.3333  plane waves:    2496
 k-point 23 :   0.4167 0.2500 0.3333  plane waves:    2484
 k-point 24 :   0.4167 0.4167 0.3333  plane waves:    2500
 k-point 25 :   0.0833 0.0833 0.4444  plane waves:    2482
 k-point 26 :   0.2500 0.0833 0.4444  plane waves:    2484
 k-point 27 :   0.4167 0.0833 0.4444  plane waves:    2472
 k-point 28 :   0.2500 0.2500 0.4444  plane waves:    2490
 k-point 29 :   0.4167 0.2500 0.4444  plane waves:    2481
 k-point 30 :   0.4167 0.4167 0.4444  plane waves:    2494

 maximum and minimum number of plane-waves per node :      2517     2472

 maximum number of plane-waves:      2517
 maximum index in each direction: 
   IXMAX=    9   IYMAX=    9   IZMAX=    6
   IXMIN=   -9   IYMIN=   -9   IZMIN=   -6


 serial   3D FFT for wavefunctions
 parallel 3D FFT for charge:
    minimum data exchange during FFTs selected (reduces bandwidth)


 total amount of memory used by VASP MPI-rank0    64006. kBytes
=======================================================================

   base      :      30000. kBytes
   nonl-proj :      22014. kBytes
   fftplans  :       1875. kBytes
   grid      :       2467. kBytes
   one-center:        186. kBytes
   wavefun   :       7464. kBytes
 
     INWAV:  cpu time    0.0000: real time    0.0000
 Broyden mixing: mesh for mixing (old mesh)
   NGX = 19   NGY = 19   NGZ = 13
  (NGX  = 60   NGY  = 60   NGZ  = 40)
  gives a total of   4693 points

 initial charge density was supplied:
 charge density of overlapping atoms calculated
 number of electron      54.0000000 magnetization       0.0000000
 keeping initial charge density in first step


--------------------------------------------------------------------------------------------------------


 Maximum index for augmentation-charges         4435 (set IRDMAX)


--------------------------------------------------------------------------------------------------------


 First call to EWALD:  gamma=   0.421
 Maximum number of real-space cells 2x 2x 3
 Maximum number of reciprocal cells 3x 3x 2

    FEWALD:  cpu time    0.0010: real time    0.0010


--------------------------------------- Iteration      1(   1)  ---------------------------------------


    POTLOK:  cpu time    0.0062: real time    0.0062
    SETDIJ:  cpu time    0.2320: real time    0.2320
atom =   1  type =  1  l = 2
 
 onsite density matrix
 
spin component  1
 
  0.2837  0.0000  0.0000  0.0000  0.0000
  0.0000  0.2837  0.0000  0.0000  0.0000
  0.0000  0.0000  0.2837  0.0000  0.0000
  0.0000  0.0000  0.0000  0.2837  0.0000
  0.0000  0.0000  0.0000  0.0000  0.2837
 
spin component  2
 
  0.7701  0.0000  0.0000  0.0000  0.0000
  0.0000  0.7701  0.0000  0.0000  0.0000
  0.0000  0.0000  0.7701  0.0000  0.0000
  0.0000  0.0000  0.0000  0.7701  0.0000
  0.0000  0.0000  0.0000  0.0000  0.7701
 
 occupancies and eigenvectors
 
  o =  0.2837  v =  1.0000  0.0000  0.0000  0.0000  0.0000  0.0000  0.0000  0.0000  0.0000  0.0000      0.0000  0.0000  0.0000  0.0000  0.0000  0.0000  0.0000  0.0000  0.0000  0.0000
  o =  0.2837  v =  0.0000  1.0000  0.0000  0.0000  0.0000  0.0000  0.0000  0.0000  0.0000  0.0000      0.0000  0.0000  0.0000  0.0000  0.0000  0.0000  0.0000  0.0000  0.0000  0.0000
  o =  0.2837  v =  0.0000  0.0000  1.0000  0.0000  0.0000  0.0000  0.0000  0.0000  0.0000  0.0000      0.0000  0.0000  0.0000  0.0000  0.0000  0.0000  0.0000  0.0000  0.0000  0.0000
  o =  0.2837  v =  0.0000  0.0000  0.0000  1.0000  0.0000  0.0000  0.0000  0.0000  0.0000  0.0000      0.0000  0.0000  0.0000  0.0000  0.0000  0.0000  0.0000  0.0000  0.0000  0.0000
  o =  0.2837  v =  0.0000  0.0000  0.0000  0.0000  1.0000  0.0000  0.0000  0.0000  0.0000  0.0000      0.0000  0.0000  0.0000  0.0000  0.0000  0.0000  0.0000  0.0000  0.0000  0.0000
  o =  0.7701  v =  0.0000  0.0000  0.0000  0.0000  0.0000  1.0000  0.0000  0.0000  0.0000  0.0000      0.0000  0.0000  0.0000  0.0000  0.0000  0.0000  0.0000  0.0000  0.0000  0.0000
  o =  0.7701  v =  0.0000  0.0000  0.0000  0.0000  0.0000  0.0000  1.0000  0.0000  0.0000  0.0000      0.0000  0.0000  0.0000  0.0000  0.0000  0.0000  0.0000  0.0000  0.0000  0.0000
  o =  0.7701  v =  0.0000  0.0000  0.0000  0.0000  0.0000  0.0000  0.0000  1.0000  0.0000  0.0000      0.0000  0.0000  0.0000  0.0000  0.0000  0.0000  0.0000  0.0000  0.0000  0.0000
  o =  0.7701  v =  0.0000  0.0000  0.0000  0.0000  0.0000  0.0000  0.0000  0.0000  1.0000  0.0000      0.0000  0.0000  0.0000  0.0000  0.0000  0.0000  0.0000  0.0000  0.0000  0.0000
  o =  0.7701  v =  0.0000  0.0000  0.0000  0.0000  0.0000  0.0000  0.0000  0.0000  0.0000  1.0000      0.0000  0.0000  0.0000  0.0000  0.0000  0.0000  0.0000  0.0000  0.0000  0.0000
atom =   2  type =  1  l = 2
 
 onsite density matrix
 
spin component  1
 
  0.7701  0.0000  0.0000  0.0000  0.0000
  0.0000  0.7701  0.0000  0.0000  0.0000
  0.0000  0.0000  0.7701  0.0000  0.0000
  0.0000  0.0000  0.0000  0.7701  0.0000
  0.0000  0.0000  0.0000  0.0000  0.7701
 
spin component  2
 
  0.2837  0.0000  0.0000  0.0000  0.0000
  0.0000  0.2837  0.0000  0.0000  0.0000
  0.0000  0.0000  0.2837  0.0000  0.0000
  0.0000  0.0000  0.0000  0.2837  0.0000
  0.0000  0.0000  0.0000  0.0000  0.2837
 
 occupancies and eigenvectors
 
  o =  0.2837  v =  0.0000  0.0000  0.0000  0.0000  0.0000  1.0000  0.0000  0.0000  0.0000  0.0000      0.0000  0.0000  0.0000  0.0000  0.0000  0.0000  0.0000  0.0000  0.0000  0.0000
  o =  0.2837  v =  0.0000  0.0000  0.0000  0.0000  0.0000  0.0000  1.0000  0.0000  0.0000  0.0000      0.0000  0.0000  0.0000  0.0000  0.0000  0.0000  0.0000  0.0000  0.0000  0.0000
  o =  0.2837  v =  0.0000  0.0000  0.0000  0.0000  0.0000  0.0000  0.0000  1.0000  0.0000  0.0000      0.0000  0.0000  0.0000  0.0000  0.0000  0.0000  0.0000  0.0000  0.0000  0.0000
  o =  0.2837  v =  0.0000  0.0000  0.0000  0.0000  0.0000  0.0000  0.0000  0.0000  1.0000  0.0000      0.0000  0.0000  0.0000  0.0000  0.0000  0.0000  0.0000  0.0000  0.0000  0.0000
  o =  0.2837  v =  0.0000  0.0000  0.0000  0.0000  0.0000  0.0000  0.0000  0.0000  0.0000  1.0000      0.0000  0.0000  0.0000  0.0000  0.0000  0.0000  0.0000  0.0000  0.0000  0.0000
  o =  0.7701  v =  1.0000  0.0000  0.0000  0.0000  0.0000  0.0000  0.0000  0.0000  0.0000  0.0000      0.0000  0.0000  0.0000  0.0000  0.0000  0.0000  0.0000  0.0000  0.0000  0.0000
  o =  0.7701  v =  0.0000  1.0000  0.0000  0.0000  0.0000  0.0000  0.0000  0.0000  0.0000  0.0000      0.0000  0.0000  0.0000  0.0000  0.0000  0.0000  0.0000  0.0000  0.0000  0.0000
  o =  0.7701  v =  0.0000  0.0000  1.0000  0.0000  0.0000  0.0000  0.0000  0.0000  0.0000  0.0000      0.0000  0.0000  0.0000  0.0000  0.0000  0.0000  0.0000  0.0000  0.0000  0.0000
  o =  0.7701  v =  0.0000  0.0000  0.0000  1.0000  0.0000  0.0000  0.0000  0.0000  0.0000  0.0000      0.0000  0.0000  0.0000  0.0000  0.0000  0.0000  0.0000  0.0000  0.0000  0.0000
  o =  0.7701  v =  0.0000  0.0000  0.0000  0.0000  1.0000  0.0000  0.0000  0.0000  0.0000  0.0000      0.0000  0.0000  0.0000  0.0000  0.0000  0.0000  0.0000  0.0000  0.0000  0.0000
     EDDAV:  cpu time    1.1096: real time    1.1312
       DOS:  cpu time    0.0007: real time    0.0007
    --------------------------------------------
      LOOP:  cpu time    1.3485: real time    1.3701

 eigenvalue-minimisations  :  4320
 total energy-change (2. order) : 0.6794724E+03  (-0.3422937E+04)
 number of electron      54.0000000 magnetization       0.0000000
 augmentation part       54.0000000 magnetization       0.0000000

 Free energy of the ion-electron system (eV)
  ---------------------------------------------------
  alpha Z        PSCENC =       203.95051221
  Ewald energy   TEWEN  =     -4253.05950503
  -Hartree energ DENC   =     -2091.75274385
  -exchange      EXHF   =         0.00000000
  -V(xc)+E(xc)   XCENC  =       295.21122973
  PAW double counting   =      5431.03059579    -5549.10764102
  entropy T*S    EENTRO =        -0.00012508
  eigenvalues    EBANDS =       -46.25669153
  atomic energy  EATOM  =      6689.45677594
  Solvation  Ediel_sol  =         0.00000000
  ---------------------------------------------------
  free energy    TOTEN  =       679.47240717 eV

  energy without entropy =      679.47253224  energy(sigma->0) =      679.47246970


--------------------------------------------------------------------------------------------------------




--------------------------------------- Iteration      1(   2)  ---------------------------------------


     EDDAV:  cpu time    1.2177: real time    1.2177
       DOS:  cpu time    0.0003: real time    0.0003
    --------------------------------------------
      LOOP:  cpu time    1.2180: real time    1.2180

 eigenvalue-minimisations  :  4896
 total energy-change (2. order) :-0.6717440E+03  (-0.6508056E+03)
 number of electron      54.0000000 magnetization       0.0000000
 augmentation part       54.0000000 magnetization       0.0000000

 Free energy of the ion-electron system (eV)
  ---------------------------------------------------
  alpha Z        PSCENC =       203.95051221
  Ewald energy   TEWEN  =     -4253.05950503
  -Hartree energ DENC   =     -2091.75274385
  -exchange      EXHF   =         0.00000000
  -V(xc)+E(xc)   XCENC  =       295.21122973
  PAW double counting   =      5431.03059579    -5549.10764102
  entropy T*S    EENTRO =        -0.00000000
  eigenvalues    EBANDS =      -718.00081629
  atomic energy  EATOM  =      6689.45677594
  Solvation  Ediel_sol  =         0.00000000
  ---------------------------------------------------
  free energy    TOTEN  =         7.72840749 eV

  energy without entropy =        7.72840749  energy(sigma->0) =        7.72840749


--------------------------------------------------------------------------------------------------------




--------------------------------------- Iteration      1(   3)  ---------------------------------------


     EDDAV:  cpu time    1.2641: real time    1.2641
       DOS:  cpu time    0.0003: real time    0.0003
    --------------------------------------------
      LOOP:  cpu time    1.2644: real time    1.2644

 eigenvalue-minimisations  :  5064
 total energy-change (2. order) :-0.4845744E+02  (-0.4825466E+02)
 number of electron      54.0000000 magnetization       0.0000000
 augmentation part       54.0000000 magnetization       0.0000000

 Free energy of the ion-electron system (eV)
  ---------------------------------------------------
  alpha Z        PSCENC =       203.95051221
  Ewald energy   TEWEN  =     -4253.05950503
  -Hartree energ DENC   =     -2091.75274385
  -exchange      EXHF   =         0.00000000
  -V(xc)+E(xc)   XCENC  =       295.21122973
  PAW double counting   =      5431.03059579    -5549.10764102
  entropy T*S    EENTRO =        -0.00000000
  eigenvalues    EBANDS =      -766.45825675
  atomic energy  EATOM  =      6689.45677594
  Solvation  Ediel_sol  =         0.00000000
  ---------------------------------------------------
  free energy    TOTEN  =       -40.72903298 eV

  energy without entropy =      -40.72903298  energy(sigma->0) =      -40.72903298


--------------------------------------------------------------------------------------------------------




--------------------------------------- Iteration      1(   4)  ---------------------------------------


     EDDAV:  cpu time    1.2112: real time    1.2112
       DOS:  cpu time    0.0003: real time    0.0003
    --------------------------------------------
      LOOP:  cpu time    1.2115: real time    1.2116

 eigenvalue-minimisations  :  4836
 total energy-change (2. order) :-0.6791426E+00  (-0.6787389E+00)
 number of electron      54.0000000 magnetization       0.0000000
 augmentation part       54.0000000 magnetization       0.0000000

 Free energy of the ion-electron system (eV)
  ---------------------------------------------------
  alpha Z        PSCENC =       203.95051221
  Ewald energy   TEWEN  =     -4253.05950503
  -Hartree energ DENC   =     -2091.75274385
  -exchange      EXHF   =         0.00000000
  -V(xc)+E(xc)   XCENC  =       295.21122973
  PAW double counting   =      5431.03059579    -5549.10764102
  entropy T*S    EENTRO =        -0.00000000
  eigenvalues    EBANDS =      -767.13739936
  atomic energy  EATOM  =      6689.45677594
  Solvation  Ediel_sol  =         0.00000000
  ---------------------------------------------------
  free energy    TOTEN  =       -41.40817558 eV

  energy without entropy =      -41.40817558  energy(sigma->0) =      -41.40817558


--------------------------------------------------------------------------------------------------------




--------------------------------------- Iteration      1(   5)  ---------------------------------------


     EDDAV:  cpu time    1.2631: real time    1.2631
       DOS:  cpu time    0.0003: real time    0.0003
    CHARGE:  cpu time    0.0706: real time    0.0706
    MIXING:  cpu time    0.0005: real time    0.0005
    --------------------------------------------
      LOOP:  cpu time    1.3345: real time    1.3345

 eigenvalue-minimisations  :  5064
 total energy-change (2. order) :-0.1036507E-01  (-0.1036491E-01)
 number of electron      53.9999998 magnetization       0.0000000
 augmentation part       20.1229276 magnetization       0.0000000

 Broyden mixing:
  rms(total) = 0.24766E+01    rms(broyden)= 0.24765E+01
  rms(prec ) = 0.32117E+01
  weight for this iteration     100.00

 Free energy of the ion-electron system (eV)
  ---------------------------------------------------
  alpha Z        PSCENC =       203.95051221
  Ewald energy   TEWEN  =     -4253.05950503
  -Hartree energ DENC   =     -2091.75274385
  -exchange      EXHF   =         0.00000000
  -V(xc)+E(xc)   XCENC  =       295.21122973
  PAW double counting   =      5431.03059579    -5549.10764102
  entropy T*S    EENTRO =        -0.00000000
  eigenvalues    EBANDS =      -767.14776443
  atomic energy  EATOM  =      6689.45677594
  Solvation  Ediel_sol  =         0.00000000
  ---------------------------------------------------
  free energy    TOTEN  =       -41.41854066 eV

  energy without entropy =      -41.41854066  energy(sigma->0) =      -41.41854066


--------------------------------------------------------------------------------------------------------




--------------------------------------- Iteration      1(   6)  ---------------------------------------


    POTLOK:  cpu time    0.0052: real time    0.0052
    SETDIJ:  cpu time    0.2307: real time    0.2307
atom =   1  type =  1  l = 2
 
 onsite density matrix
 
spin component  1
 
 -0.0728  0.0000  0.0050  0.0000 -0.0000
  0.0000 -0.0763  0.0000  0.0034  0.0000
  0.0050  0.0000 -0.0740  0.0000  0.0000
  0.0000  0.0034  0.0000 -0.0763  0.0000
 -0.0000  0.0000  0.0000  0.0000 -0.0828
 
spin component  2
 
  1.1008  0.0000  0.0137  0.0000  0.0000
  0.0000  1.0986  0.0000  0.0123  0.0000
  0.0137  0.0000  1.0919  0.0000 -0.0000
  0.0000  0.0123  0.0000  1.0986  0.0000
  0.0000  0.0000 -0.0000  0.0000  1.0886
 
 occupancies and eigenvectors
 
  o = -0.0828  v =  0.0000 -0.0000 -0.0000  0.0000  1.0000  0.0000  0.0000  0.0000  0.0000  0.0000      0.0000  0.0000  0.0000  0.0000  0.0000  0.0000  0.0000  0.0000  0.0000  0.0000
  o = -0.0797  v = -0.0000 -0.7071  0.0000  0.7071 -0.0000  0.0000  0.0000  0.0000  0.0000  0.0000      0.0000  0.0000  0.0000  0.0000  0.0000  0.0000  0.0000  0.0000  0.0000  0.0000
  o = -0.0785  v =  0.6619 -0.0000 -0.7496  0.0000 -0.0000  0.0000  0.0000  0.0000  0.0000  0.0000      0.0000  0.0000  0.0000  0.0000  0.0000  0.0000  0.0000  0.0000  0.0000  0.0000
  o = -0.0730  v = -0.0000  0.7071  0.0000  0.7071  0.0000  0.0000  0.0000  0.0000  0.0000  0.0000      0.0000  0.0000  0.0000  0.0000  0.0000  0.0000  0.0000  0.0000  0.0000  0.0000
  o = -0.0684  v =  0.7496  0.0000  0.6619  0.0000  0.0000  0.0000  0.0000  0.0000  0.0000  0.0000      0.0000  0.0000  0.0000  0.0000  0.0000  0.0000  0.0000  0.0000  0.0000  0.0000
  o =  1.0820  v =  0.0000  0.0000  0.0000  0.0000  0.0000 -0.5887  0.0000  0.8083 -0.0000  0.0000      0.0000  0.0000  0.0000  0.0000  0.0000  0.0000  0.0000  0.0000  0.0000  0.0000
  o =  1.0863  v =  0.0000  0.0000  0.0000  0.0000  0.0000 -0.0000 -0.7071  0.0000  0.7071  0.0000      0.0000  0.0000  0.0000  0.0000  0.0000  0.0000  0.0000  0.0000  0.0000  0.0000
  o =  1.0886  v =  0.0000  0.0000  0.0000  0.0000  0.0000  0.0000  0.0000 -0.0000 -0.0000  1.0000      0.0000  0.0000  0.0000  0.0000  0.0000  0.0000  0.0000  0.0000  0.0000  0.0000
  o =  1.1107  v =  0.0000  0.0000  0.0000  0.0000  0.0000 -0.8083 -0.0000 -0.5887 -0.0000  0.0000      0.0000  0.0000  0.0000  0.0000  0.0000  0.0000  0.0000  0.0000  0.0000  0.0000
  o =  1.1108  v =  0.0000  0.0000  0.0000  0.0000  0.0000  0.0000 -0.7071  0.0000 -0.7071 -0.0000      0.0000  0.0000  0.0000  0.0000  0.0000  0.0000  0.0000  0.0000  0.0000  0.0000
atom =   2  type =  1  l = 2
 
 onsite density matrix
 
spin component  1
 
  1.1008  0.0000 -0.0137  0.0000  0.0000
  0.0000  1.0986  0.0000 -0.0123  0.0000
 -0.0137  0.0000  1.0919  0.0000  0.0000
  0.0000 -0.0123  0.0000  1.0986  0.0000
  0.0000  0.0000  0.0000  0.0000  1.0886
 
spin component  2
 
 -0.0728  0.0000 -0.0050  0.0000 -0.0000
  0.0000 -0.0763  0.0000 -0.0034  0.0000
 -0.0050  0.0000 -0.0740  0.0000  0.0000
  0.0000 -0.0034  0.0000 -0.0763  0.0000
 -0.0000  0.0000  0.0000  0.0000 -0.0828
 
 occupancies and eigenvectors
 
  o = -0.0828  v =  0.0000  0.0000  0.0000  0.0000  0.0000 -0.0000 -0.0000 -0.0000 -0.0000  1.0000      0.0000  0.0000  0.0000  0.0000  0.0000  0.0000  0.0000  0.0000  0.0000  0.0000
  o = -0.0797  v =  0.0000  0.0000  0.0000  0.0000  0.0000  0.0000  0.7071  0.0000  0.7071  0.0000      0.0000  0.0000  0.0000  0.0000  0.0000  0.0000  0.0000  0.0000  0.0000  0.0000
  o = -0.0785  v =  0.0000  0.0000  0.0000  0.0000  0.0000  0.6619 -0.0000  0.7496 -0.0000  0.0000      0.0000  0.0000  0.0000  0.0000  0.0000  0.0000  0.0000  0.0000  0.0000  0.0000
  o = -0.0730  v =  0.0000  0.0000  0.0000  0.0000  0.0000  0.0000 -0.7071  0.0000  0.7071 -0.0000      0.0000  0.0000  0.0000  0.0000  0.0000  0.0000  0.0000  0.0000  0.0000  0.0000
  o = -0.0684  v =  0.0000  0.0000  0.0000  0.0000  0.0000  0.7496  0.0000 -0.6619 -0.0000 -0.0000      0.0000  0.0000  0.0000  0.0000  0.0000  0.0000  0.0000  0.0000  0.0000  0.0000
  o =  1.0820  v = -0.5887  0.0000 -0.8083  0.0000  0.0000  0.0000  0.0000  0.0000  0.0000  0.0000      0.0000  0.0000  0.0000  0.0000  0.0000  0.0000  0.0000  0.0000  0.0000  0.0000
  o =  1.0863  v =  0.0000 -0.7071  0.0000 -0.7071 -0.0000  0.0000  0.0000  0.0000  0.0000  0.0000      0.0000  0.0000  0.0000  0.0000  0.0000  0.0000  0.0000  0.0000  0.0000  0.0000
  o =  1.0886  v =  0.0000  0.0000 -0.0000  0.0000 -1.0000  0.0000  0.0000  0.0000  0.0000  0.0000      0.0000  0.0000  0.0000  0.0000  0.0000  0.0000  0.0000  0.0000  0.0000  0.0000
  o =  1.1107  v = -0.8083  0.0000  0.5887  0.0000 -0.0000  0.0000  0.0000  0.0000  0.0000  0.0000      0.0000  0.0000  0.0000  0.0000  0.0000  0.0000  0.0000  0.0000  0.0000  0.0000
  o =  1.1108  v =  0.0000 -0.7071  0.0000  0.7071 -0.0000  0.0000  0.0000  0.0000  0.0000  0.0000      0.0000  0.0000  0.0000  0.0000  0.0000  0.0000  0.0000  0.0000  0.0000  0.0000
     EDDAV:  cpu time    1.3406: real time    1.3406
       DOS:  cpu time    0.0003: real time    0.0003
    CHARGE:  cpu time    0.0723: real time    0.0723
    MIXING:  cpu time    0.0005: real time    0.0005
    --------------------------------------------
      LOOP:  cpu time    1.6497: real time    1.6497

 eigenvalue-minimisations  :  5472
 total energy-change (2. order) : 0.2075939E+01  (-0.1574712E+01)
 number of electron      53.9999998 magnetization       0.0000000
 augmentation part       19.9698607 magnetization       0.0000000

 Broyden mixing:
  rms(total) = 0.15927E+01    rms(broyden)= 0.15927E+01
  rms(prec ) = 0.16424E+01
  weight for this iteration     100.00

 eigenvalues of (default mixing * dielectric matrix)
  average eigenvalue GAMMA=   0.8130
  0.8130

 Free energy of the ion-electron system (eV)
  ---------------------------------------------------
  alpha Z        PSCENC =       203.95051221
  Ewald energy   TEWEN  =     -4253.05950503
  -Hartree energ DENC   =     -2114.62829075
  -exchange      EXHF   =         0.00000000
  -V(xc)+E(xc)   XCENC  =       295.82967729
  PAW double counting   =      5723.32613287    -5832.96733694
  entropy T*S    EENTRO =        -0.00000000
  eigenvalues    EBANDS =      -751.25056714
  atomic energy  EATOM  =      6689.45677594
  Solvation  Ediel_sol  =         0.00000000
  ---------------------------------------------------
  free energy    TOTEN  =       -39.34260156 eV

  energy without entropy =      -39.34260156  energy(sigma->0) =      -39.34260156


--------------------------------------------------------------------------------------------------------




--------------------------------------- Iteration      1(   7)  ---------------------------------------


    POTLOK:  cpu time    0.0047: real time    0.0047
    SETDIJ:  cpu time    0.2301: real time    0.2301
atom =   1  type =  1  l = 2
 
 onsite density matrix
 
spin component  1
 
  0.1243  0.0000  0.0222  0.0000 -0.0000
  0.0000  0.1172  0.0000  0.0184  0.0000
  0.0222  0.0000  0.1117  0.0000 -0.0000
  0.0000  0.0184  0.0000  0.1172  0.0000
 -0.0000  0.0000 -0.0000  0.0000  0.0976
 
spin component  2
 
  0.8992  0.0000  0.0074  0.0000 -0.0000
  0.0000  0.8970  0.0000  0.0064  0.0000
  0.0074  0.0000  0.8955  0.0000 -0.0000
  0.0000  0.0064  0.0000  0.8970  0.0000
 -0.0000  0.0000 -0.0000  0.0000  0.8903
 
 occupancies and eigenvectors
 
  o =  0.0949  v = -0.6036  0.0000  0.7973  0.0000 -0.0000  0.0000  0.0000  0.0000  0.0000  0.0000      0.0000  0.0000  0.0000  0.0000  0.0000  0.0000  0.0000  0.0000  0.0000  0.0000
  o =  0.0976  v =  0.0000 -0.0000 -0.0000  0.0000 -1.0000  0.0000  0.0000  0.0000  0.0000  0.0000      0.0000  0.0000  0.0000  0.0000  0.0000  0.0000  0.0000  0.0000  0.0000  0.0000
  o =  0.0989  v =  0.0000  0.7071 -0.0000 -0.7071 -0.0000  0.0000  0.0000  0.0000  0.0000  0.0000      0.0000  0.0000  0.0000  0.0000  0.0000  0.0000  0.0000  0.0000  0.0000  0.0000
  o =  0.1356  v =  0.0000 -0.7071  0.0000 -0.7071  0.0000  0.0000  0.0000  0.0000  0.0000  0.0000      0.0000  0.0000  0.0000  0.0000  0.0000  0.0000  0.0000  0.0000  0.0000  0.0000
  o =  0.1411  v = -0.7973  0.0000 -0.6036  0.0000  0.0000  0.0000  0.0000  0.0000  0.0000  0.0000      0.0000  0.0000  0.0000  0.0000  0.0000  0.0000  0.0000  0.0000  0.0000  0.0000
  o =  0.8897  v =  0.0000  0.0000  0.0000  0.0000  0.0000 -0.6153  0.0000  0.7883  0.0000 -0.0000      0.0000  0.0000  0.0000  0.0000  0.0000  0.0000  0.0000  0.0000  0.0000  0.0000
  o =  0.8903  v =  0.0000  0.0000  0.0000  0.0000  0.0000  0.0000  0.0000 -0.0000 -0.0000 -1.0000      0.0000  0.0000  0.0000  0.0000  0.0000  0.0000  0.0000  0.0000  0.0000  0.0000
  o =  0.8906  v =  0.0000  0.0000  0.0000  0.0000  0.0000  0.0000 -0.7071 -0.0000  0.7071 -0.0000      0.0000  0.0000  0.0000  0.0000  0.0000  0.0000  0.0000  0.0000  0.0000  0.0000
  o =  0.9034  v =  0.0000  0.0000  0.0000  0.0000  0.0000  0.0000  0.7071  0.0000  0.7071  0.0000      0.0000  0.0000  0.0000  0.0000  0.0000  0.0000  0.0000  0.0000  0.0000  0.0000
  o =  0.9050  v =  0.0000  0.0000  0.0000  0.0000  0.0000 -0.7883  0.0000 -0.6153  0.0000  0.0000      0.0000  0.0000  0.0000  0.0000  0.0000  0.0000  0.0000  0.0000  0.0000  0.0000
atom =   2  type =  1  l = 2
 
 onsite density matrix
 
spin component  1
 
  0.8992  0.0000 -0.0074  0.0000 -0.0000
  0.0000  0.8970  0.0000 -0.0064  0.0000
 -0.0074  0.0000  0.8955  0.0000  0.0000
  0.0000 -0.0064  0.0000  0.8970  0.0000
 -0.0000  0.0000  0.0000  0.0000  0.8903
 
spin component  2
 
  0.1243  0.0000 -0.0222  0.0000  0.0000
  0.0000  0.1172  0.0000 -0.0184  0.0000
 -0.0222  0.0000  0.1117  0.0000 -0.0000
  0.0000 -0.0184  0.0000  0.1172  0.0000
  0.0000  0.0000 -0.0000  0.0000  0.0976
 
 occupancies and eigenvectors
 
  o =  0.0949  v =  0.0000  0.0000  0.0000  0.0000  0.0000 -0.6036  0.0000 -0.7973  0.0000 -0.0000      0.0000  0.0000  0.0000  0.0000  0.0000  0.0000  0.0000  0.0000  0.0000  0.0000
  o =  0.0976  v =  0.0000  0.0000  0.0000  0.0000  0.0000 -0.0000 -0.0000 -0.0000  0.0000  1.0000      0.0000  0.0000  0.0000  0.0000  0.0000  0.0000  0.0000  0.0000  0.0000  0.0000
  o =  0.0989  v =  0.0000  0.0000  0.0000  0.0000  0.0000  0.0000 -0.7071  0.0000 -0.7071 -0.0000      0.0000  0.0000  0.0000  0.0000  0.0000  0.0000  0.0000  0.0000  0.0000  0.0000
  o =  0.1356  v =  0.0000  0.0000  0.0000  0.0000  0.0000  0.0000  0.7071  0.0000 -0.7071  0.0000      0.0000  0.0000  0.0000  0.0000  0.0000  0.0000  0.0000  0.0000  0.0000  0.0000
  o =  0.1411  v =  0.0000  0.0000  0.0000  0.0000  0.0000 -0.7973  0.0000  0.6036  0.0000 -0.0000      0.0000  0.0000  0.0000  0.0000  0.0000  0.0000  0.0000  0.0000  0.0000  0.0000
  o =  0.8897  v = -0.6153  0.0000 -0.7883  0.0000  0.0000  0.0000  0.0000  0.0000  0.0000  0.0000      0.0000  0.0000  0.0000  0.0000  0.0000  0.0000  0.0000  0.0000  0.0000  0.0000
  o =  0.8903  v = -0.0000  0.0000 -0.0000  0.0000 -1.0000  0.0000  0.0000  0.0000  0.0000  0.0000      0.0000  0.0000  0.0000  0.0000  0.0000  0.0000  0.0000  0.0000  0.0000  0.0000
  o =  0.8906  v =  0.0000  0.7071  0.0000  0.7071  0.0000  0.0000  0.0000  0.0000  0.0000  0.0000      0.0000  0.0000  0.0000  0.0000  0.0000  0.0000  0.0000  0.0000  0.0000  0.0000
  o =  0.9034  v = -0.0000 -0.7071  0.0000  0.7071  0.0000  0.0000  0.0000  0.0000  0.0000  0.0000      0.0000  0.0000  0.0000  0.0000  0.0000  0.0000  0.0000  0.0000  0.0000  0.0000
  o =  0.9050  v = -0.7883  0.0000  0.6153 -0.0000  0.0000  0.0000  0.0000  0.0000  0.0000  0.0000      0.0000  0.0000  0.0000  0.0000  0.0000  0.0000  0.0000  0.0000  0.0000  0.0000
     EDDAV:  cpu time    1.2694: real time    1.2694
       DOS:  cpu time    0.0004: real time    0.0004
    CHARGE:  cpu time    0.0732: real time    0.0732
    MIXING:  cpu time    0.0005: real time    0.0005
    --------------------------------------------
      LOOP:  cpu time    1.5784: real time    1.5784

 eigenvalue-minimisations  :  5112
 total energy-change (2. order) :-0.6380986E+00  (-0.1559518E+00)
 number of electron      53.9999998 magnetization       0.0000000
 augmentation part       19.9481591 magnetization       0.0000000

 Broyden mixing:
  rms(total) = 0.11820E+01    rms(broyden)= 0.11820E+01
  rms(prec ) = 0.12099E+01
  weight for this iteration     100.00

 eigenvalues of (default mixing * dielectric matrix)
  average eigenvalue GAMMA=   1.4382
  0.7021  2.1743

 Free energy of the ion-electron system (eV)
  ---------------------------------------------------
  alpha Z        PSCENC =       203.95051221
  Ewald energy   TEWEN  =     -4253.05950503
  -Hartree energ DENC   =     -2110.93005832
  -exchange      EXHF   =         0.00000000
  -V(xc)+E(xc)   XCENC  =       296.46270361
  PAW double counting   =      5975.28854386    -6094.73473625
  entropy T*S    EENTRO =        -0.00000000
  eigenvalues    EBANDS =      -746.41493618
  atomic energy  EATOM  =      6689.45677594
  Solvation  Ediel_sol  =         0.00000000
  ---------------------------------------------------
  free energy    TOTEN  =       -39.98070016 eV

  energy without entropy =      -39.98070016  energy(sigma->0) =      -39.98070016


--------------------------------------------------------------------------------------------------------




--------------------------------------- Iteration      1(   8)  ---------------------------------------


    POTLOK:  cpu time    0.0051: real time    0.0051
    SETDIJ:  cpu time    0.2306: real time    0.2306
atom =   1  type =  1  l = 2
 
 onsite density matrix
 
spin component  1
 
 -0.0260  0.0000  0.0237  0.0000  0.0000
  0.0000 -0.0339  0.0000  0.0183  0.0000
  0.0237  0.0000 -0.0367  0.0000 -0.0000
  0.0000  0.0183  0.0000 -0.0339  0.0000
  0.0000  0.0000 -0.0000  0.0000 -0.0567
 
spin component  2
 
  1.0508  0.0000  0.0209  0.0000  0.0000
  0.0000  1.0446  0.0000  0.0192  0.0000
  0.0209  0.0000  1.0365  0.0000  0.0000
  0.0000  0.0192  0.0000  1.0446  0.0000
  0.0000  0.0000  0.0000  0.0000  1.0274
 
 occupancies and eigenvectors
 
  o = -0.0567  v =  0.0000 -0.0000 -0.0000  0.0000 -1.0000  0.0000  0.0000  0.0000  0.0000  0.0000      0.0000  0.0000  0.0000  0.0000  0.0000  0.0000  0.0000  0.0000  0.0000  0.0000
  o = -0.0556  v =  0.6239  0.0000 -0.7815 -0.0000  0.0000  0.0000  0.0000  0.0000  0.0000  0.0000      0.0000  0.0000  0.0000  0.0000  0.0000  0.0000  0.0000  0.0000  0.0000  0.0000
  o = -0.0522  v = -0.0000  0.7071  0.0000 -0.7071 -0.0000  0.0000  0.0000  0.0000  0.0000  0.0000      0.0000  0.0000  0.0000  0.0000  0.0000  0.0000  0.0000  0.0000  0.0000  0.0000
  o = -0.0156  v = -0.0000  0.7071 -0.0000  0.7071 -0.0000  0.0000  0.0000  0.0000  0.0000  0.0000      0.0000  0.0000  0.0000  0.0000  0.0000  0.0000  0.0000  0.0000  0.0000  0.0000
  o = -0.0071  v =  0.7815  0.0000  0.6239  0.0000 -0.0000  0.0000  0.0000  0.0000  0.0000  0.0000      0.0000  0.0000  0.0000  0.0000  0.0000  0.0000  0.0000  0.0000  0.0000  0.0000
  o =  1.0215  v =  0.0000  0.0000  0.0000  0.0000  0.0000 -0.5818  0.0000  0.8133  0.0000  0.0000      0.0000  0.0000  0.0000  0.0000  0.0000  0.0000  0.0000  0.0000  0.0000  0.0000
  o =  1.0254  v =  0.0000  0.0000  0.0000  0.0000  0.0000  0.0000  0.7071  0.0000 -0.7071 -0.0000      0.0000  0.0000  0.0000  0.0000  0.0000  0.0000  0.0000  0.0000  0.0000  0.0000
  o =  1.0274  v =  0.0000  0.0000  0.0000  0.0000  0.0000  0.0000  0.0000 -0.0000 -0.0000  1.0000      0.0000  0.0000  0.0000  0.0000  0.0000  0.0000  0.0000  0.0000  0.0000  0.0000
  o =  1.0638  v =  0.0000  0.0000  0.0000  0.0000  0.0000  0.0000  0.7071 -0.0000  0.7071  0.0000      0.0000  0.0000  0.0000  0.0000  0.0000  0.0000  0.0000  0.0000  0.0000  0.0000
  o =  1.0657  v =  0.0000  0.0000  0.0000  0.0000  0.0000 -0.8133  0.0000 -0.5818  0.0000 -0.0000      0.0000  0.0000  0.0000  0.0000  0.0000  0.0000  0.0000  0.0000  0.0000  0.0000
atom =   2  type =  1  l = 2
 
 onsite density matrix
 
spin component  1
 
  1.0508  0.0000 -0.0209  0.0000  0.0000
  0.0000  1.0446  0.0000 -0.0192  0.0000
 -0.0209  0.0000  1.0365  0.0000 -0.0000
  0.0000 -0.0192  0.0000  1.0446  0.0000
  0.0000  0.0000 -0.0000  0.0000  1.0274
 
spin component  2
 
 -0.0260  0.0000 -0.0237  0.0000 -0.0000
  0.0000 -0.0339  0.0000 -0.0183  0.0000
 -0.0237  0.0000 -0.0367  0.0000  0.0000
  0.0000 -0.0183  0.0000 -0.0339  0.0000
 -0.0000  0.0000  0.0000  0.0000 -0.0567
 
 occupancies and eigenvectors
 
  o = -0.0567  v =  0.0000  0.0000  0.0000  0.0000  0.0000  0.0000 -0.0000  0.0000  0.0000 -1.0000      0.0000  0.0000  0.0000  0.0000  0.0000  0.0000  0.0000  0.0000  0.0000  0.0000
  o = -0.0556  v =  0.0000  0.0000  0.0000  0.0000  0.0000 -0.6239 -0.0000 -0.7815  0.0000 -0.0000      0.0000  0.0000  0.0000  0.0000  0.0000  0.0000  0.0000  0.0000  0.0000  0.0000
  o = -0.0522  v =  0.0000  0.0000  0.0000  0.0000  0.0000  0.0000 -0.7071  0.0000 -0.7071  0.0000      0.0000  0.0000  0.0000  0.0000  0.0000  0.0000  0.0000  0.0000  0.0000  0.0000
  o = -0.0156  v =  0.0000  0.0000  0.0000  0.0000  0.0000  0.0000  0.7071  0.0000 -0.7071 -0.0000      0.0000  0.0000  0.0000  0.0000  0.0000  0.0000  0.0000  0.0000  0.0000  0.0000
  o = -0.0071  v =  0.0000  0.0000  0.0000  0.0000  0.0000  0.7815 -0.0000 -0.6239  0.0000 -0.0000      0.0000  0.0000  0.0000  0.0000  0.0000  0.0000  0.0000  0.0000  0.0000  0.0000
  o =  1.0215  v = -0.5818  0.0000 -0.8133  0.0000 -0.0000  0.0000  0.0000  0.0000  0.0000  0.0000      0.0000  0.0000  0.0000  0.0000  0.0000  0.0000  0.0000  0.0000  0.0000  0.0000
  o =  1.0254  v = -0.0000 -0.7071 -0.0000 -0.7071  0.0000  0.0000  0.0000  0.0000  0.0000  0.0000      0.0000  0.0000  0.0000  0.0000  0.0000  0.0000  0.0000  0.0000  0.0000  0.0000
  o =  1.0274  v = -0.0000  0.0000 -0.0000  0.0000  1.0000  0.0000  0.0000  0.0000  0.0000  0.0000      0.0000  0.0000  0.0000  0.0000  0.0000  0.0000  0.0000  0.0000  0.0000  0.0000
  o =  1.0638  v = -0.0000 -0.7071  0.0000  0.7071 -0.0000  0.0000  0.0000  0.0000  0.0000  0.0000      0.0000  0.0000  0.0000  0.0000  0.0000  0.0000  0.0000  0.0000  0.0000  0.0000
  o =  1.0657  v = -0.8133  0.0000  0.5818 -0.0000 -0.0000  0.0000  0.0000  0.0000  0.0000  0.0000      0.0000  0.0000  0.0000  0.0000  0.0000  0.0000  0.0000  0.0000  0.0000  0.0000
     EDDAV:  cpu time    1.1411: real time    1.1411
       DOS:  cpu time    0.0003: real time    0.0003
    CHARGE:  cpu time    0.0529: real time    0.0530
    MIXING:  cpu time    0.0008: real time    0.0008
    --------------------------------------------
      LOOP:  cpu time    1.4308: real time    1.4309

 eigenvalue-minimisations  :  5076
 total energy-change (2. order) : 0.9138316E-01  (-0.5238663E-01)
 number of electron      53.9999998 magnetization       0.0000000
 augmentation part       19.9825507 magnetization       0.0000000

 Broyden mixing:
  rms(total) = 0.47123E+00    rms(broyden)= 0.47122E+00
  rms(prec ) = 0.50253E+00
  weight for this iteration     100.00

 eigenvalues of (default mixing * dielectric matrix)
  average eigenvalue GAMMA=   1.2514
  2.0940  1.0262  0.6339

 Free energy of the ion-electron system (eV)
  ---------------------------------------------------
  alpha Z        PSCENC =       203.95051221
  Ewald energy   TEWEN  =     -4253.05950503
  -Hartree energ DENC   =     -2105.43554741
  -exchange      EXHF   =         0.00000000
  -V(xc)+E(xc)   XCENC  =       295.78667545
  PAW double counting   =      6247.35208659    -6363.43550546
  entropy T*S    EENTRO =        -0.00000000
  eigenvalues    EBANDS =      -754.50480928
  atomic energy  EATOM  =      6689.45677594
  Solvation  Ediel_sol  =         0.00000000
  ---------------------------------------------------
  free energy    TOTEN  =       -39.88931700 eV

  energy without entropy =      -39.88931700  energy(sigma->0) =      -39.88931700


--------------------------------------------------------------------------------------------------------




--------------------------------------- Iteration      1(   9)  ---------------------------------------


    POTLOK:  cpu time    0.0044: real time    0.0044
    SETDIJ:  cpu time    0.2291: real time    0.2291
atom =   1  type =  1  l = 2
 
 onsite density matrix
 
spin component  1
 
  0.0498  0.0000  0.0276  0.0000  0.0000
  0.0000  0.0403  0.0000  0.0230  0.0000
  0.0276  0.0000  0.0345  0.0000  0.0000
  0.0000  0.0230  0.0000  0.0403  0.0000
  0.0000  0.0000  0.0000  0.0000  0.0148
 
spin component  2
 
  0.9742  0.0000  0.0241  0.0000  0.0000
  0.0000  0.9671  0.0000  0.0206  0.0000
  0.0241  0.0000  0.9602  0.0000 -0.0000
  0.0000  0.0206  0.0000  0.9671  0.0000
  0.0000  0.0000 -0.0000  0.0000  0.9462
 
 occupancies and eigenvectors
 
  o =  0.0135  v = -0.6049  0.0000  0.7963  0.0000  0.0000  0.0000  0.0000  0.0000  0.0000  0.0000      0.0000  0.0000  0.0000  0.0000  0.0000  0.0000  0.0000  0.0000  0.0000  0.0000
  o =  0.0148  v =  0.0000 -0.0000 -0.0000  0.0000  1.0000  0.0000  0.0000  0.0000  0.0000  0.0000      0.0000  0.0000  0.0000  0.0000  0.0000  0.0000  0.0000  0.0000  0.0000  0.0000
  o =  0.0172  v =  0.0000  0.7071  0.0000 -0.7071  0.0000  0.0000  0.0000  0.0000  0.0000  0.0000      0.0000  0.0000  0.0000  0.0000  0.0000  0.0000  0.0000  0.0000  0.0000  0.0000
  o =  0.0633  v =  0.0000 -0.7071  0.0000 -0.7071 -0.0000  0.0000  0.0000  0.0000  0.0000  0.0000      0.0000  0.0000  0.0000  0.0000  0.0000  0.0000  0.0000  0.0000  0.0000  0.0000
  o =  0.0708  v = -0.7963  0.0000 -0.6049  0.0000 -0.0000  0.0000  0.0000  0.0000  0.0000  0.0000      0.0000  0.0000  0.0000  0.0000  0.0000  0.0000  0.0000  0.0000  0.0000  0.0000
  o =  0.9421  v =  0.0000  0.0000  0.0000  0.0000  0.0000 -0.6007 -0.0000  0.7995  0.0000  0.0000      0.0000  0.0000  0.0000  0.0000  0.0000  0.0000  0.0000  0.0000  0.0000  0.0000
  o =  0.9462  v =  0.0000  0.0000  0.0000  0.0000  0.0000 -0.0000  0.0000  0.0000  0.0000 -1.0000      0.0000  0.0000  0.0000  0.0000  0.0000  0.0000  0.0000  0.0000  0.0000  0.0000
  o =  0.9465  v =  0.0000  0.0000  0.0000  0.0000  0.0000  0.0000  0.7071  0.0000 -0.7071  0.0000      0.0000  0.0000  0.0000  0.0000  0.0000  0.0000  0.0000  0.0000  0.0000  0.0000
  o =  0.9877  v =  0.0000  0.0000  0.0000  0.0000  0.0000  0.0000  0.7071  0.0000  0.7071  0.0000      0.0000  0.0000  0.0000  0.0000  0.0000  0.0000  0.0000  0.0000  0.0000  0.0000
  o =  0.9923  v =  0.0000  0.0000  0.0000  0.0000  0.0000 -0.7995 -0.0000 -0.6007  0.0000  0.0000      0.0000  0.0000  0.0000  0.0000  0.0000  0.0000  0.0000  0.0000  0.0000  0.0000
atom =   2  type =  1  l = 2
 
 onsite density matrix
 
spin component  1
 
  0.9742  0.0000 -0.0241  0.0000  0.0000
  0.0000  0.9671  0.0000 -0.0206  0.0000
 -0.0241  0.0000  0.9602  0.0000  0.0000
  0.0000 -0.0206  0.0000  0.9671  0.0000
  0.0000  0.0000  0.0000  0.0000  0.9462
 
spin component  2
 
  0.0498  0.0000 -0.0276  0.0000  0.0000
  0.0000  0.0403  0.0000 -0.0230  0.0000
 -0.0276  0.0000  0.0345  0.0000  0.0000
  0.0000 -0.0230  0.0000  0.0403  0.0000
  0.0000  0.0000  0.0000  0.0000  0.0148
 
 occupancies and eigenvectors
 
  o =  0.0135  v =  0.0000  0.0000  0.0000  0.0000  0.0000 -0.6049 -0.0000 -0.7963  0.0000  0.0000      0.0000  0.0000  0.0000  0.0000  0.0000  0.0000  0.0000  0.0000  0.0000  0.0000
  o =  0.0148  v =  0.0000  0.0000  0.0000  0.0000  0.0000 -0.0000  0.0000 -0.0000  0.0000 -1.0000      0.0000  0.0000  0.0000  0.0000  0.0000  0.0000  0.0000  0.0000  0.0000  0.0000
  o =  0.0172  v =  0.0000  0.0000  0.0000  0.0000  0.0000  0.0000 -0.7071  0.0000 -0.7071  0.0000      0.0000  0.0000  0.0000  0.0000  0.0000  0.0000  0.0000  0.0000  0.0000  0.0000
  o =  0.0633  v =  0.0000  0.0000  0.0000  0.0000  0.0000  0.0000 -0.7071  0.0000  0.7071  0.0000      0.0000  0.0000  0.0000  0.0000  0.0000  0.0000  0.0000  0.0000  0.0000  0.0000
  o =  0.0708  v =  0.0000  0.0000  0.0000  0.0000  0.0000 -0.7963 -0.0000  0.6049  0.0000  0.0000      0.0000  0.0000  0.0000  0.0000  0.0000  0.0000  0.0000  0.0000  0.0000  0.0000
  o =  0.9421  v = -0.6007 -0.0000 -0.7995  0.0000  0.0000  0.0000  0.0000  0.0000  0.0000  0.0000      0.0000  0.0000  0.0000  0.0000  0.0000  0.0000  0.0000  0.0000  0.0000  0.0000
  o =  0.9462  v = -0.0000  0.0000 -0.0000  0.0000 -1.0000  0.0000  0.0000  0.0000  0.0000  0.0000      0.0000  0.0000  0.0000  0.0000  0.0000  0.0000  0.0000  0.0000  0.0000  0.0000
  o =  0.9465  v =  0.0000  0.7071  0.0000  0.7071  0.0000  0.0000  0.0000  0.0000  0.0000  0.0000      0.0000  0.0000  0.0000  0.0000  0.0000  0.0000  0.0000  0.0000  0.0000  0.0000
  o =  0.9877  v =  0.0000  0.7071  0.0000 -0.7071  0.0000  0.0000  0.0000  0.0000  0.0000  0.0000      0.0000  0.0000  0.0000  0.0000  0.0000  0.0000  0.0000  0.0000  0.0000  0.0000
  o =  0.9923  v = -0.7995 -0.0000  0.6007  0.0000  0.0000  0.0000  0.0000  0.0000  0.0000  0.0000      0.0000  0.0000  0.0000  0.0000  0.0000  0.0000  0.0000  0.0000  0.0000  0.0000
     EDDAV:  cpu time    1.0913: real time    1.0913
       DOS:  cpu time    0.0003: real time    0.0003
    CHARGE:  cpu time    0.0529: real time    0.0529
    MIXING:  cpu time    0.0008: real time    0.0008
    --------------------------------------------
      LOOP:  cpu time    1.3788: real time    1.3788

 eigenvalue-minimisations  :  4800
 total energy-change (2. order) :-0.2808717E+00  (-0.7539642E-02)
 number of electron      53.9999998 magnetization      -0.0000000
 augmentation part       19.9716500 magnetization      -0.0000000

 Broyden mixing:
  rms(total) = 0.13604E+00    rms(broyden)= 0.13604E+00
  rms(prec ) = 0.14538E+00
  weight for this iteration     100.00

 eigenvalues of (default mixing * dielectric matrix)
  average eigenvalue GAMMA=   1.2167
  2.6226  0.8092  0.8092  0.6256

 Free energy of the ion-electron system (eV)
  ---------------------------------------------------
  alpha Z        PSCENC =       203.95051221
  Ewald energy   TEWEN  =     -4253.05950503
  -Hartree energ DENC   =     -2105.63728305
  -exchange      EXHF   =         0.00000000
  -V(xc)+E(xc)   XCENC  =       296.07871488
  PAW double counting   =      6378.83894263    -6499.14936187
  entropy T*S    EENTRO =        -0.00000000
  eigenvalues    EBANDS =      -750.64898442
  atomic energy  EATOM  =      6689.45677594
  Solvation  Ediel_sol  =         0.00000000
  ---------------------------------------------------
  free energy    TOTEN  =       -40.17018873 eV

  energy without entropy =      -40.17018873  energy(sigma->0) =      -40.17018873


--------------------------------------------------------------------------------------------------------




--------------------------------------- Iteration      1(  10)  ---------------------------------------


    POTLOK:  cpu time    0.0043: real time    0.0043
    SETDIJ:  cpu time    0.2292: real time    0.2292
atom =   1  type =  1  l = 2
 
 onsite density matrix
 
spin component  1
 
  0.0546  0.0000  0.0299  0.0000 -0.0000
  0.0000  0.0447  0.0000  0.0245  0.0000
  0.0299  0.0000  0.0385  0.0000 -0.0000
  0.0000  0.0245  0.0000  0.0447  0.0000
 -0.0000  0.0000 -0.0000  0.0000  0.0173
 
spin component  2
 
  0.9697  0.0000  0.0216  0.0000  0.0000
  0.0000  0.9631  0.0000  0.0190  0.0000
  0.0216  0.0000  0.9565  0.0000 -0.0000
  0.0000  0.0190  0.0000  0.9631  0.0000
  0.0000  0.0000 -0.0000  0.0000  0.9443
 
 occupancies and eigenvectors
 
  o =  0.0156  v = -0.6078  0.0000  0.7941  0.0000  0.0000  0.0000  0.0000  0.0000  0.0000  0.0000      0.0000  0.0000  0.0000  0.0000  0.0000  0.0000  0.0000  0.0000  0.0000  0.0000
  o =  0.0173  v = -0.0000 -0.0000  0.0000  0.0000 -1.0000  0.0000  0.0000  0.0000  0.0000  0.0000      0.0000  0.0000  0.0000  0.0000  0.0000  0.0000  0.0000  0.0000  0.0000  0.0000
  o =  0.0202  v =  0.0000 -0.7071  0.0000  0.7071  0.0000  0.0000  0.0000  0.0000  0.0000  0.0000      0.0000  0.0000  0.0000  0.0000  0.0000  0.0000  0.0000  0.0000  0.0000  0.0000
  o =  0.0692  v =  0.0000 -0.7071  0.0000 -0.7071  0.0000  0.0000  0.0000  0.0000  0.0000  0.0000      0.0000  0.0000  0.0000  0.0000  0.0000  0.0000  0.0000  0.0000  0.0000  0.0000
  o =  0.0775  v = -0.7941  0.0000 -0.6078  0.0000  0.0000  0.0000  0.0000  0.0000  0.0000  0.0000      0.0000  0.0000  0.0000  0.0000  0.0000  0.0000  0.0000  0.0000  0.0000  0.0000
  o =  0.9405  v =  0.0000  0.0000  0.0000  0.0000  0.0000 -0.5956  0.0000  0.8033  0.0000  0.0000      0.0000  0.0000  0.0000  0.0000  0.0000  0.0000  0.0000  0.0000  0.0000  0.0000
  o =  0.9441  v =  0.0000  0.0000  0.0000  0.0000  0.0000  0.0000  0.7071  0.0000 -0.7071  0.0000      0.0000  0.0000  0.0000  0.0000  0.0000  0.0000  0.0000  0.0000  0.0000  0.0000
  o =  0.9443  v =  0.0000  0.0000  0.0000  0.0000  0.0000  0.0000  0.0000  0.0000  0.0000 -1.0000      0.0000  0.0000  0.0000  0.0000  0.0000  0.0000  0.0000  0.0000  0.0000  0.0000
  o =  0.9820  v =  0.0000  0.0000  0.0000  0.0000  0.0000  0.0000  0.7071  0.0000  0.7071  0.0000      0.0000  0.0000  0.0000  0.0000  0.0000  0.0000  0.0000  0.0000  0.0000  0.0000
  o =  0.9857  v =  0.0000  0.0000  0.0000  0.0000  0.0000 -0.8033  0.0000 -0.5956  0.0000 -0.0000      0.0000  0.0000  0.0000  0.0000  0.0000  0.0000  0.0000  0.0000  0.0000  0.0000
atom =   2  type =  1  l = 2
 
 onsite density matrix
 
spin component  1
 
  0.9697  0.0000 -0.0216  0.0000  0.0000
  0.0000  0.9631  0.0000 -0.0190  0.0000
 -0.0216  0.0000  0.9565  0.0000  0.0000
  0.0000 -0.0190  0.0000  0.9631  0.0000
  0.0000  0.0000  0.0000  0.0000  0.9443
 
spin component  2
 
  0.0546  0.0000 -0.0299  0.0000  0.0000
  0.0000  0.0447  0.0000 -0.0245  0.0000
 -0.0299  0.0000  0.0385  0.0000  0.0000
  0.0000 -0.0245  0.0000  0.0447  0.0000
  0.0000  0.0000  0.0000  0.0000  0.0173
 
 occupancies and eigenvectors
 
  o =  0.0156  v =  0.0000  0.0000  0.0000  0.0000  0.0000 -0.6078  0.0000 -0.7941  0.0000  0.0000      0.0000  0.0000  0.0000  0.0000  0.0000  0.0000  0.0000  0.0000  0.0000  0.0000
  o =  0.0173  v =  0.0000  0.0000  0.0000  0.0000  0.0000 -0.0000 -0.0000 -0.0000 -0.0000 -1.0000      0.0000  0.0000  0.0000  0.0000  0.0000  0.0000  0.0000  0.0000  0.0000  0.0000
  o =  0.0202  v =  0.0000  0.0000  0.0000  0.0000  0.0000 -0.0000 -0.7071 -0.0000 -0.7071  0.0000      0.0000  0.0000  0.0000  0.0000  0.0000  0.0000  0.0000  0.0000  0.0000  0.0000
  o =  0.0692  v =  0.0000  0.0000  0.0000  0.0000  0.0000 -0.0000 -0.7071  0.0000  0.7071  0.0000      0.0000  0.0000  0.0000  0.0000  0.0000  0.0000  0.0000  0.0000  0.0000  0.0000
  o =  0.0775  v =  0.0000  0.0000  0.0000  0.0000  0.0000 -0.7941  0.0000  0.6078 -0.0000  0.0000      0.0000  0.0000  0.0000  0.0000  0.0000  0.0000  0.0000  0.0000  0.0000  0.0000
  o =  0.9405  v = -0.5956  0.0000 -0.8033  0.0000  0.0000  0.0000  0.0000  0.0000  0.0000  0.0000      0.0000  0.0000  0.0000  0.0000  0.0000  0.0000  0.0000  0.0000  0.0000  0.0000
  o =  0.9441  v =  0.0000 -0.7071  0.0000 -0.7071 -0.0000  0.0000  0.0000  0.0000  0.0000  0.0000      0.0000  0.0000  0.0000  0.0000  0.0000  0.0000  0.0000  0.0000  0.0000  0.0000
  o =  0.9443  v =  0.0000  0.0000 -0.0000  0.0000 -1.0000  0.0000  0.0000  0.0000  0.0000  0.0000      0.0000  0.0000  0.0000  0.0000  0.0000  0.0000  0.0000  0.0000  0.0000  0.0000
  o =  0.9820  v =  0.0000 -0.7071  0.0000  0.7071 -0.0000  0.0000  0.0000  0.0000  0.0000  0.0000      0.0000  0.0000  0.0000  0.0000  0.0000  0.0000  0.0000  0.0000  0.0000  0.0000
  o =  0.9857  v = -0.8033  0.0000  0.5956  0.0000 -0.0000  0.0000  0.0000  0.0000  0.0000  0.0000      0.0000  0.0000  0.0000  0.0000  0.0000  0.0000  0.0000  0.0000  0.0000  0.0000
     EDDAV:  cpu time    1.1956: real time    1.1956
       DOS:  cpu time    0.0003: real time    0.0003
    CHARGE:  cpu time    0.0530: real time    0.0530
    MIXING:  cpu time    0.0009: real time    0.0009
    --------------------------------------------
      LOOP:  cpu time    1.4834: real time    1.4834

 eigenvalue-minimisations  :  5340
 total energy-change (2. order) :-0.3935051E-03  (-0.1560487E-02)
 number of electron      53.9999998 magnetization       0.0000000
 augmentation part       19.9685078 magnetization       0.0000000

 Broyden mixing:
  rms(total) = 0.25036E-01    rms(broyden)= 0.25031E-01
  rms(prec ) = 0.27640E-01
  weight for this iteration     100.00

 eigenvalues of (default mixing * dielectric matrix)
  average eigenvalue GAMMA=   1.1600
  2.5357  0.9643  0.9643  0.7294  0.6063

 Free energy of the ion-electron system (eV)
  ---------------------------------------------------
  alpha Z        PSCENC =       203.95051221
  Ewald energy   TEWEN  =     -4253.05950503
  -Hartree energ DENC   =     -2106.31862978
  -exchange      EXHF   =         0.00000000
  -V(xc)+E(xc)   XCENC  =       296.17175271
  PAW double counting   =      6366.61675481    -6487.00590100
  entropy T*S    EENTRO =        -0.00000000
  eigenvalues    EBANDS =      -749.98234210
  atomic energy  EATOM  =      6689.45677594
  Solvation  Ediel_sol  =         0.00000000
  ---------------------------------------------------
  free energy    TOTEN  =       -40.17058223 eV

  energy without entropy =      -40.17058223  energy(sigma->0) =      -40.17058223


--------------------------------------------------------------------------------------------------------




--------------------------------------- Iteration      1(  11)  ---------------------------------------


    POTLOK:  cpu time    0.0043: real time    0.0043
    SETDIJ:  cpu time    0.2293: real time    0.2293
atom =   1  type =  1  l = 2
 
 onsite density matrix
 
spin component  1
 
  0.0533  0.0000  0.0296  0.0000  0.0000
  0.0000  0.0433  0.0000  0.0243  0.0000
  0.0296  0.0000  0.0371  0.0000 -0.0000
  0.0000  0.0243  0.0000  0.0433  0.0000
  0.0000  0.0000 -0.0000  0.0000  0.0162
 
spin component  2
 
  0.9719  0.0000  0.0217  0.0000  0.0000
  0.0000  0.9654  0.0000  0.0189  0.0000
  0.0217  0.0000  0.9588  0.0000  0.0000
[...]
     30       7.3542      0.00000
     31       7.9471      0.00000
     32       8.4733      0.00000
     33       9.8624      0.00000
     34      10.6834      0.00000
     35      11.2654      0.00000
     36      12.1316      0.00000

 k-point    28 :       0.2500    0.2500    0.4444
  band No.  band energies     occupation 
      1     -45.9648      1.00000
      2     -45.9360      1.00000
      3     -45.9079      1.00000
      4     -41.3775      1.00000
      5     -41.3591      1.00000
      6     -41.3225      1.00000
      7     -20.5055      1.00000
      8     -20.4388      1.00000
      9     -20.4136      1.00000
     10     -20.2806      1.00000
     11      -4.3644      1.00000
     12      -4.1269      1.00000
     13      -3.9434      1.00000
     14      -3.7338      1.00000
     15      -3.4507      1.00000
     16      -3.0261      1.00000
     17      -2.7784      1.00000
     18      -2.4754      1.00000
     19      -2.1813      1.00000
     20      -1.8632      1.00000
     21      -1.7375      1.00000
     22      -1.6143      1.00000
     23      -0.0189      1.00000
     24       0.1375      1.00000
     25       0.4413      1.00000
     26       1.0230      1.00000
     27       1.5313      1.00000
     28       7.0476      0.00000
     29       7.0719      0.00000
     30       7.3033      0.00000
     31       7.9719      0.00000
     32       8.4646      0.00000
     33       9.5216      0.00000
     34      10.9865      0.00000
     35      12.0553      0.00000
     36      12.1786      0.00000

 k-point    29 :       0.4167    0.2500    0.4444
  band No.  band energies     occupation 
      1     -45.9648      1.00000
      2     -45.9360      1.00000
      3     -45.9079      1.00000
      4     -41.3775      1.00000
      5     -41.3591      1.00000
      6     -41.3226      1.00000
      7     -20.4713      1.00000
      8     -20.4597      1.00000
      9     -20.4057      1.00000
     10     -20.3002      1.00000
     11      -4.3858      1.00000
     12      -4.1960      1.00000
     13      -4.0084      1.00000
     14      -3.8172      1.00000
     15      -3.3875      1.00000
     16      -3.0808      1.00000
     17      -2.7344      1.00000
     18      -2.5928      1.00000
     19      -2.0466      1.00000
     20      -1.8068      1.00000
     21      -1.6078      1.00000
     22      -1.5374      1.00000
     23      -0.0186      1.00000
     24       0.0964      1.00000
     25       0.3849      1.00000
     26       1.0499      1.00000
     27       1.6431      1.00000
     28       7.0566      0.00000
     29       7.0694      0.00000
     30       7.3602      0.00000
     31       7.9287      0.00000
     32       8.4255      0.00000
     33      10.0267      0.00000
     34      10.9975      0.00000
     35      11.3728      0.00000
     36      12.1319      0.00000

 k-point    30 :       0.4167    0.4167    0.4444
  band No.  band energies     occupation 
      1     -45.9648      1.00000
      2     -45.9360      1.00000
      3     -45.9080      1.00000
      4     -41.3775      1.00000
      5     -41.3591      1.00000
      6     -41.3226      1.00000
      7     -20.4831      1.00000
      8     -20.4551      1.00000
      9     -20.4000      1.00000
     10     -20.2953      1.00000
     11      -4.5164      1.00000
     12      -4.3117      1.00000
     13      -3.9644      1.00000
     14      -3.9105      1.00000
     15      -3.5142      1.00000
     16      -3.0658      1.00000
     17      -2.6756      1.00000
     18      -2.4563      1.00000
     19      -1.9093      1.00000
     20      -1.6666      1.00000
     21      -1.5488      1.00000
     22      -1.5109      1.00000
     23      -0.0184      1.00000
     24       0.0892      1.00000
     25       0.3612      1.00000
     26       1.1021      1.00000
     27       1.6335      1.00000
     28       7.0625      0.00000
     29       7.0820      0.00000
     30       7.3814      0.00000
     31       7.8981      0.00000
     32       8.3099      0.00000
     33      10.4161      0.00000
     34      11.4166      0.00000
     35      11.4249      0.00000
     36      11.5472      0.00000


--------------------------------------------------------------------------------------------------------


 soft charge-density along one line, spin component           1
         0         1         2         3         4         5         6         7         8         9
 total charge-density along one line
 
 soft charge-density along one line, spin component           2
         0         1         2         3         4         5         6         7         8         9
 total charge-density along one line
 
 pseudopotential strength for first ion, spin component:           1
-41.890  -0.000  -0.031   7.899   0.000   0.013   0.000  -0.000
 -0.000 -41.864  -0.000   0.000   7.889   0.000  -0.000  -0.000
 -0.031  -0.000 -41.890   0.013   0.000   7.899  -0.000  -0.000
  7.899   0.000   0.013   5.348  -0.000  -0.005  -0.000   0.000
  0.000   7.889   0.000  -0.000   5.352  -0.000   0.000  -0.000
  0.013   0.000   7.899  -0.005  -0.000   5.348  -0.000   0.000
  0.000  -0.000  -0.000  -0.000   0.000  -0.000  -1.379  -0.000
 -0.000  -0.000  -0.000   0.000  -0.000   0.000  -0.000  -1.334
  0.000  -0.000  -0.000   0.000   0.000  -0.000  -0.075   0.000
 -0.000  -0.000  -0.000   0.000  -0.000   0.000  -0.000  -0.090
  0.000  -0.000  -0.000   0.000   0.000   0.000   0.000   0.000
  0.000  -0.000  -0.000  -0.000   0.000  -0.000  -1.822  -0.000
 -0.000  -0.000  -0.000   0.000  -0.000   0.000  -0.000  -1.776
  0.000  -0.000  -0.000   0.000   0.000  -0.000  -0.078   0.000
 -0.000  -0.000  -0.000   0.000  -0.000   0.000  -0.000  -0.093
  0.000  -0.000  -0.000   0.000   0.000   0.000   0.000   0.000
 -0.000   0.000   0.000  -0.000   0.000   0.000   0.006   0.000
 -0.000   0.000   0.000  -0.000   0.000   0.000   0.012   0.000
 pseudopotential strength for first ion, spin component:           2
-44.959  -0.000  -0.024   9.385   0.000   0.009   0.000  -0.000
 -0.000 -44.940  -0.000   0.000   9.379   0.000  -0.000  -0.000
 -0.024  -0.000 -44.959   0.009   0.000   9.385  -0.000  -0.000
  9.385   0.000   0.009   4.853  -0.000  -0.003   0.000   0.000
  0.000   9.379   0.000  -0.000   4.856  -0.000   0.000  -0.000
  0.009   0.000   9.385  -0.003  -0.000   4.853  -0.000   0.000
  0.000  -0.000  -0.000   0.000   0.000  -0.000  -7.382  -0.000
 -0.000  -0.000  -0.000   0.000  -0.000   0.000  -0.000  -7.351
  0.000  -0.000  -0.000   0.000   0.000  -0.000  -0.053   0.000
 -0.000  -0.000  -0.000   0.000  -0.000   0.000  -0.000  -0.073
  0.000  -0.000  -0.000   0.000   0.000  -0.000   0.000   0.000
  0.000  -0.000  -0.000   0.000   0.000  -0.000  -7.875  -0.000
 -0.000  -0.000  -0.000   0.000  -0.000   0.000  -0.000  -7.843
  0.000  -0.000  -0.000   0.000   0.000  -0.000  -0.055   0.000
 -0.000  -0.000  -0.000   0.000  -0.000   0.000  -0.000  -0.075
  0.000  -0.000  -0.000   0.000   0.000  -0.000   0.000   0.000
 -0.000   0.000   0.000  -0.000   0.000   0.000   0.004   0.000
 -0.000   0.000   0.000  -0.000   0.000   0.000   0.007   0.000
 total augmentation occupancy for first ion, spin component:           1
  1.998   0.000  -0.000  -0.013   0.000   0.000   0.000   0.000   0.000   0.000   0.000   0.000   0.000   0.000   0.000   0.000
  0.000   1.998   0.000   0.000  -0.013   0.000   0.000   0.000   0.000   0.000   0.000   0.000   0.000   0.000   0.000   0.000
 -0.000   0.000   1.998   0.000   0.000  -0.013   0.000   0.000   0.000   0.000   0.000   0.000   0.000   0.000   0.000   0.000
 -0.013   0.000   0.000   0.096   0.000  -0.010   0.000   0.000   0.000   0.000   0.000   0.000   0.000   0.000   0.000   0.000
  0.000  -0.013   0.000   0.000   0.108   0.000   0.000   0.000   0.000   0.000   0.000   0.000   0.000   0.000   0.000   0.000
  0.000   0.000  -0.013  -0.010   0.000   0.096   0.000   0.000   0.000   0.000   0.000   0.000   0.000   0.000   0.000   0.000
  0.000   0.000   0.000   0.000   0.000   0.000   8.373   0.000   3.387   0.000   0.000  -6.444   0.000  -3.213   0.000   0.000
  0.000   0.000   0.000   0.000   0.000   0.000   0.000   6.992   0.000   2.915   0.000   0.000  -5.127   0.000  -2.754   0.000
  0.000   0.000   0.000   0.000   0.000   0.000   3.387   0.000   6.308   0.000   0.000  -3.214   0.000  -4.507   0.000   0.000
  0.000   0.000   0.000   0.000   0.000   0.000   0.000   2.915   0.000   6.992   0.000   0.000  -2.754   0.000  -5.127   0.000
  0.000   0.000   0.000   0.000   0.000   0.000   0.000   0.000   0.000   0.000   3.957  -0.000   0.000   0.000   0.000  -2.231
  0.000   0.000   0.000   0.000   0.000   0.000  -6.444   0.000  -3.214   0.000   0.000   5.686   0.000   3.085   0.000   0.000
  0.000   0.000   0.000   0.000   0.000   0.000   0.000  -5.127   0.000  -2.754   0.000   0.000   4.420   0.000   2.630   0.000
  0.000   0.000   0.000   0.000   0.000   0.000  -3.213   0.000  -4.507   0.000   0.000   3.085   0.000   3.849   0.000   0.000
  0.000   0.000   0.000   0.000   0.000   0.000   0.000  -2.754   0.000  -5.127   0.000   0.000   2.630   0.000   4.420   0.000
  0.000   0.000   0.000   0.000   0.000   0.000   0.000   0.000   0.000   0.000  -2.231  -0.000   0.000   0.000   0.000   1.626
  0.000   0.000   0.000   0.000   0.000   0.000   0.265   0.000  -0.230   0.000   0.000  -0.295   0.000   0.238   0.000   0.000
  0.000   0.000   0.000   0.000   0.000   0.000  -0.008   0.000   0.027   0.000   0.000   0.033   0.000  -0.038   0.000   0.000
 total augmentation occupancy for first ion, spin component:           2
  0.004   0.000  -0.000   0.016   0.000  -0.000   0.000   0.000   0.000   0.000   0.000   0.000   0.000   0.000   0.000   0.000
  0.000   0.004   0.000   0.000   0.017   0.000   0.000   0.000   0.000   0.000   0.000   0.000   0.000   0.000   0.000   0.000
 -0.000   0.000   0.004  -0.000   0.000   0.016   0.000   0.000   0.000   0.000   0.000   0.000   0.000   0.000   0.000   0.000
  0.016   0.000  -0.000  -0.009   0.000  -0.000   0.000   0.000   0.000   0.000   0.000   0.000   0.000   0.000   0.000   0.000
  0.000   0.017   0.000   0.000  -0.009   0.000   0.000   0.000   0.000   0.000   0.000   0.000   0.000   0.000   0.000   0.000
 -0.000   0.000   0.016  -0.000   0.000  -0.009   0.000   0.000   0.000   0.000   0.000   0.000   0.000   0.000   0.000   0.000
  0.000   0.000   0.000   0.000   0.000   0.000  -5.672   0.000  -1.870   0.000   0.000   3.336   0.000   1.476   0.000   0.000
  0.000   0.000   0.000   0.000   0.000   0.000   0.000  -4.908   0.000  -1.639   0.000   0.000   2.714   0.000   1.293   0.000
  0.000   0.000   0.000   0.000   0.000   0.000  -1.870   0.000  -4.440   0.000   0.000   1.477   0.000   2.356   0.000   0.000
  0.000   0.000   0.000   0.000   0.000   0.000   0.000  -1.639   0.000  -4.908   0.000   0.000   1.293   0.000   2.714   0.000
  0.000   0.000   0.000   0.000   0.000   0.000   0.000   0.000   0.000   0.000  -3.276   0.000   0.000  -0.000   0.000   1.425
  0.000   0.000   0.000   0.000   0.000   0.000   3.336   0.000   1.477   0.000   0.000  -2.102   0.000  -1.089   0.000   0.000
  0.000   0.000   0.000   0.000   0.000   0.000   0.000   2.714   0.000   1.293   0.000   0.000  -1.621   0.000  -0.954   0.000
  0.000   0.000   0.000   0.000   0.000   0.000   1.476   0.000   2.356   0.000   0.000  -1.089   0.000  -1.366   0.000   0.000
  0.000   0.000   0.000   0.000   0.000   0.000   0.000   1.293   0.000   2.714   0.000   0.000  -0.954   0.000  -1.621   0.000
  0.000   0.000   0.000   0.000   0.000   0.000  -0.000   0.000   0.000   0.000   1.425   0.000   0.000   0.000   0.000  -0.670
  0.000   0.000   0.000   0.000   0.000   0.000   0.006   0.000   0.024   0.000   0.000  -0.015   0.000  -0.004   0.000   0.000
  0.000   0.000   0.000   0.000   0.000   0.000  -0.047   0.000   0.012   0.000   0.000   0.028   0.000  -0.006   0.000  -0.000


------------------------ aborting loop because EDIFF is reached ----------------------------------------


 


 total charge     
 
# of ion       s       p       d       tot
------------------------------------------
    1        0.179   6.172   4.981  11.332
    2        0.184   6.167   4.987  11.338
    3        1.721   4.364   0.000   6.085
    4        1.721   4.364   0.000   6.085
    5        1.721   4.360   0.000   6.081
    6        1.721   4.360   0.000   6.081
--------------------------------------------------
tot          7.247  29.786   9.968  47.001
 


 magnetization (x)
 
# of ion       s       p       d       tot
------------------------------------------
    1       -0.014  -0.015  -4.598  -4.626
    2        0.014   0.013   4.595   4.623
    3        0.002   0.021   0.000   0.023
    4        0.002   0.021   0.000   0.023
    5       -0.002  -0.017   0.000  -0.020
    6       -0.002  -0.017   0.000  -0.020
--------------------------------------------------
tot         -0.001   0.006  -0.002   0.003
 
    CHARGE:  cpu time    0.0533: real time    0.0533
    FORLOC:  cpu time    0.0011: real time    0.0011
    FORNL :  cpu time    0.3662: real time    0.3663
    STRESS:  cpu time    1.0283: real time    1.0283
    FORCOR:  cpu time    0.0041: real time    0.0041
    FORHAR:  cpu time    0.0021: real time    0.0021
    MIXING:  cpu time    0.0008: real time    0.0008
    OFIELD:  cpu time    0.0000: real time    0.0000

  FORCE on cell =-STRESS in cart. coord.  units (eV):
  Direction    XX          YY          ZZ          XY          YZ          ZX
  --------------------------------------------------------------------------------------
  Alpha Z   203.95051   203.95051   203.95051
  Ewald   -1606.36587 -1606.36587 -1040.33096    -0.00000    -0.00000    -0.00000
  Hartree   575.74446   575.74446   955.16529    -0.00000    -0.00000    -0.00000
  E(xc)    -309.49845  -309.49845  -309.54292    -0.00000     0.00000     0.00000
  Local     185.50597   185.50597  -752.68956    -0.00000    -0.00000    -0.00000
  n-local  -238.17828  -238.55750  -237.32938     0.02335     0.10494     0.10759
  augment   267.15595   267.15595   266.53839    -0.00000    -0.00000    -0.00000
  Kinetic   921.45507   922.30003   914.24046    -0.45401    -0.83514    -0.90393
  Fock        0.00000     0.00000     0.00000     0.00000     0.00000     0.00000
  -------------------------------------------------------------------------------------
  Total       0.00224     0.00224     0.00184     0.00000     0.00000     0.00000
  in kB       0.04796     0.04796     0.03937     0.00000     0.00000     0.00000
  external pressure =        0.05 kB  Pullay stress =        0.00 kB


 VOLUME and BASIS-vectors are now :
 -----------------------------------------------------------------------------
  energy-cutoff  :      600.00
  volume of cell :       74.70
      direct lattice vectors                 reciprocal lattice vectors
     4.795904286  0.000000000  0.000000000     0.208511251  0.000000000  0.000000000
     0.000000000  4.795904286  0.000000000     0.000000000  0.208511251  0.000000000
     0.000000000  0.000000000  3.247883034     0.000000000  0.000000000  0.307892861

  length of vectors
     4.795904286  4.795904286  3.247883034     0.208511251  0.208511251  0.307892861


 FORCES acting on ions
    electron-ion (+dipol)            ewald-force                    non-local-force                 convergence-correction
 -----------------------------------------------------------------------------------------------
   -.181E-11 0.655E-11 -.516E-12   0.000E+00 0.000E+00 0.167E-13   0.000E+00 0.000E+00 0.000E+00   -.449E-13 -.888E-13 0.746E-13
   -.126E-13 -.252E-13 0.495E-12   -.284E-13 -.853E-13 0.162E-13   0.000E+00 0.000E+00 0.000E+00   0.538E-15 0.832E-13 -.110E-12
   -.339E+02 0.339E+02 0.336E-11   0.351E+02 -.351E+02 -.409E-14   -.128E+01 0.128E+01 0.000E+00   -.271E-03 0.271E-03 0.125E-13
   0.339E+02 -.339E+02 0.928E-12   -.351E+02 0.351E+02 -.442E-14   0.128E+01 -.128E+01 0.000E+00   0.271E-03 -.271E-03 0.579E-13
   0.339E+02 0.339E+02 0.121E-08   -.351E+02 -.351E+02 -.835E-14   0.128E+01 0.128E+01 -.108E-18   0.271E-03 0.271E-03 -.800E-10
   -.339E+02 -.339E+02 -.120E-08   0.351E+02 0.351E+02 -.861E-14   -.128E+01 -.128E+01 0.108E-18   -.271E-03 -.271E-03 0.799E-10
 -----------------------------------------------------------------------------------------------
   -.905E-12 0.815E-11 0.644E-11   0.000E+00 -.711E-14 0.747E-14   0.444E-15 0.000E+00 0.000E+00   -.594E-13 -.649E-13 -.497E-13
 
 
 POSITION                                       TOTAL-FORCE (eV/Angst)
 -----------------------------------------------------------------------------------
      2.39795      2.39795      1.62394        -0.000000     -0.000000      0.000000
      0.00000      0.00000      0.00000        -0.000000     -0.000000      0.000000
      0.93967      3.85624      1.62394        -0.002607      0.002607      0.000000
      3.85624      0.93967      1.62394         0.002607     -0.002607      0.000000
      1.45828      1.45828      0.00000         0.002607      0.002607      0.000000
      3.33762      3.33762      0.00000        -0.002607     -0.002607      0.000000
 -----------------------------------------------------------------------------------
    total drift:                               -0.000000      0.000000      0.000000


--------------------------------------------------------------------------------------------------------



  FREE ENERGIE OF THE ION-ELECTRON SYSTEM (eV)
  ---------------------------------------------------
  free  energy   TOTEN  =       -40.17059360 eV

  energy  without entropy=      -40.17059360  energy(sigma->0) =      -40.17059360
 


--------------------------------------------------------------------------------------------------------


    POTLOK:  cpu time    0.2341: real time    0.2341


--------------------------------------------------------------------------------------------------------


 writing wavefunctions
     LOOP+:  cpu time   22.6497: real time   22.6716
    4ORBIT:  cpu time    0.0000: real time    0.0000
 


 total charge     
 
# of ion       s       p       d       tot
------------------------------------------
    1        0.179   6.172   4.981  11.332
    2        0.184   6.167   4.987  11.338
    3        1.721   4.364   0.000   6.085
    4        1.721   4.364   0.000   6.085
    5        1.721   4.360   0.000   6.081
    6        1.721   4.360   0.000   6.081
--------------------------------------------------
tot          7.247  29.786   9.968  47.001
 


 magnetization (x)
 
# of ion       s       p       d       tot
------------------------------------------
    1       -0.014  -0.015  -4.598  -4.626
    2        0.014   0.013   4.595   4.623
    3        0.002   0.021   0.000   0.023
    4        0.002   0.021   0.000   0.023
    5       -0.002  -0.017   0.000  -0.020
    6       -0.002  -0.017   0.000  -0.020
--------------------------------------------------
tot         -0.001   0.006  -0.002   0.003
 

 total amount of memory used by VASP MPI-rank0    64006. kBytes
=======================================================================

   base      :      30000. kBytes
   nonl-proj :      22014. kBytes
   fftplans  :       1875. kBytes
   grid      :       2467. kBytes
   one-center:        186. kBytes
   wavefun   :       7464. kBytes
 
  
  
 General timing and accounting informations for this job:
 ========================================================
  
                  Total CPU time used (sec):       24.190
                            User time (sec):       20.047
                          System time (sec):        4.143
                         Elapsed time (sec):       24.264
  
                   Maximum memory used (kb):       77348.
                   Average memory used (kb):           0.
  
                          Minor page faults:        13786
                          Major page faults:            8
                 Voluntary context switches:          257
