       N       E                     dE             d eps       ncg     rms          rms(c)
DAV:   1     0.672976668815E+03    0.67298E+03   -0.34170E+04   864   0.191E+03
DAV:   2     0.655364294511E+01   -0.66642E+03   -0.64558E+03   972   0.511E+02
DAV:   3    -0.407747687888E+02   -0.47328E+02   -0.47128E+02  1044   0.151E+02
DAV:   4    -0.414091731886E+02   -0.63440E+00   -0.63427E+00   936   0.190E+01
DAV:   5    -0.414190861741E+02   -0.99130E-02   -0.99129E-02  1056   0.232E+00    0.248E+01
DAV:   6    -0.393436874438E+02    0.20754E+01   -0.15786E+01  1128   0.319E+01    0.159E+01
DAV:   7    -0.399809652736E+02   -0.63728E+00   -0.15612E+00  1020   0.107E+01    0.118E+01
DAV:   8    -0.398974089076E+02    0.83556E-01   -0.52148E-01  1032   0.597E+00    0.474E+00
DAV:   9    -0.401707397751E+02   -0.27333E+00   -0.73491E-02   984   0.256E+00    0.137E+00
DAV:  10    -0.401713180340E+02   -0.57826E-03   -0.16042E-02  1008   0.101E+00    0.255E-01
DAV:  11    -0.401712795945E+02    0.38440E-04   -0.15401E-03   960   0.269E-01    0.139E-01
DAV:  12    -0.401713229117E+02   -0.43317E-04   -0.38891E-05  1176   0.830E-02    0.632E-02
DAV:  13    -0.401713290529E+02   -0.61412E-05   -0.37330E-05   960   0.334E-02    0.213E-02
DAV:  14    -0.401713305117E+02   -0.14588E-05   -0.18979E-06   972   0.140E-02    0.391E-03
DAV:  15    -0.401713306877E+02   -0.17608E-06   -0.13080E-07   720   0.305E-03    0.137E-03
DAV:  16    -0.401713307026E+02   -0.14851E-07   -0.17710E-08   444   0.134E-03
   1 F= -.40171331E+02 E0= -.40171331E+02  d E =-.401713E+02  mag=    -0.0000
